
     Program PWSCF v.5.0.2 starts on 22Mar2018 at 22:44:13 

     This program is part of the open-source Quantum ESPRESSO suite
     for quantum simulation of materials; please cite
         "P. Giannozzi et al., J. Phys.:Condens. Matter 21 395502 (2009);
          URL http://www.quantum-espresso.org", 
     in publications or presentations arising from this work. More details at
     http://www.quantum-espresso.org/quote.php

     Parallel version (MPI), running on     4 processors
     R & G space division:  proc/nbgrp/npool/nimage =       4

     Current dimensions of program PWSCF are:
     Max number of different atomic species (ntypx) = 10
     Max number of k-points (npk) =  40000
     Max angular momentum in pseudopotentials (lmaxx) =  3
     Waiting for input...
     Reading input from standard input

     Subspace diagonalization in iterative solution of the eigenvalue problem:
     a serial algorithm will be used

 
     Parallelization info
     --------------------
     sticks:   dense  smooth     PW     G-vecs:    dense   smooth      PW
     Min         256     256     78                 5240     5240     876
     Max         257     257     79                 5243     5243     879
     Sum        1027    1027    313                20965    20965    3509
 


     bravais-lattice index     =            0
     lattice parameter (alat)  =       9.6483  a.u.
     unit-cell volume          =     613.3683 (a.u.)^3
     number of atoms/cell      =            6
     number of atomic types    =            2
     number of electrons       =       127.00
     number of Kohn-Sham states=           77
     kinetic-energy cutoff     =      40.0000  Ry
     charge density cutoff     =     160.0000  Ry
     convergence threshold     =      1.0E-04
     mixing beta               =       0.7000
     number of iterations used =            8  plain     mixing
     Exchange-correlation      = SLA-PZ-NOGX-NOGC ( 1 1 0 0 0)
     EXX-fraction              =        0.00
     nstep                     =           50


     celldm(1)=   9.648295  celldm(2)=   0.000000  celldm(3)=   0.000000
     celldm(4)=   0.000000  celldm(5)=   0.000000  celldm(6)=   0.000000

     crystal axes: (cart. coord. in units of alat)
               a(1) = (   1.000000   0.000000   0.000000 )  
               a(2) = (  -0.500000   0.866025   0.000000 )  
               a(3) = (   0.000000   0.000000   0.788568 )  

     reciprocal axes: (cart. coord. in units 2 pi/alat)
               b(1) = (  1.000000  0.577350  0.000000 )  
               b(2) = (  0.000000  1.154701  0.000000 )  
               b(3) = (  0.000000  0.000000  1.268122 )  


     PseudoPot. # 1 for Er read from file:
     /home/cwx6513/pp.La/Er.UPF
     MD5 check sum: e152ae21b84514339d8526f066caf99b
     Pseudo is Norm-conserving, Zval = 22.0
     Generated in analytical, separable form
     Using radial grid of 1267 points,  6 beta functions with: 
                l(1) =   0
                l(2) =   0
                l(3) =   1
                l(4) =   1
                l(5) =   2
                l(6) =   3

     PseudoPot. # 2 for Ho read from file:
     /home/cwx6513/pp.La/Ho.UPF
     MD5 check sum: f307ee11bce99f5b724fa279e3790763
     Pseudo is Norm-conserving, Zval = 21.0
     Generated in analytical, separable form
     Using radial grid of 1265 points,  6 beta functions with: 
                l(1) =   0
                l(2) =   0
                l(3) =   1
                l(4) =   1
                l(5) =   2
                l(6) =   3

     atomic species   valence    mass     pseudopotential
        Ca            22.00    40.07800     Er( 1.00)
        Cu            21.00    63.54600     Ho( 1.00)

     24 Sym. Ops., with inversion, found



   Cartesian axes

     site n.     atom                  positions (alat units)
         1           Ca  tau(   1) = (   0.0000000   0.0000000   0.0000000  )
         2           Cu  tau(   2) = (  -0.0000005   0.5773506   0.0000000  )
         3           Cu  tau(   3) = (   0.5000005   0.2886748   0.0000000  )
         4           Cu  tau(   4) = (   0.5000000   0.0000000   0.3942838  )
         5           Cu  tau(   5) = (   0.2500000   0.4330127   0.3942838  )
         6           Cu  tau(   6) = (  -0.2500000   0.4330127   0.3942838  )

     number of k points=   110  gaussian smearing, width (Ry)=  0.1000

     Number of k-points >= 100: set verbosity='high' to print them.

     Dense  grid:    20965 G-vectors     FFT dimensions: (  40,  40,  32)

     Largest allocated arrays     est. size (Mb)     dimensions
        Kohn-Sham Wavefunctions         0.79 Mb     (    670,   77)
        NL pseudopotentials             1.23 Mb     (    670,  120)
        Each V/rho on FFT grid          0.20 Mb     (  12800)
        Each G-vector array             0.04 Mb     (   5243)
        G-vector shells                 0.04 Mb     (   5243)
     Largest temporary arrays     est. size (Mb)     dimensions
        Each subspace H/S matrix        0.09 Mb     (  77,  77)
        Each <psi_i|beta_j> matrix      0.14 Mb     (    120,   77)
        Arrays for rho mixing           1.56 Mb     (  12800,   8)

     Initial potential from superposition of free atoms

     Starting from uniform charge
     Starting wfc are    0 randomized atomic wfcs

     total cpu time spent up to now is        6.3 secs

     Self-consistent Calculation

     iteration #  1     ecut=    40.00 Ry     beta=0.70
     CG style diagonalization
     c_bands:  1 eigenvalues not converged
     c_bands:  2 eigenvalues not converged
     c_bands:  1 eigenvalues not converged
     c_bands:  1 eigenvalues not converged
     c_bands:  2 eigenvalues not converged
     c_bands:  1 eigenvalues not converged
     c_bands:  1 eigenvalues not converged
     c_bands:  1 eigenvalues not converged
     c_bands:  1 eigenvalues not converged
     c_bands:  1 eigenvalues not converged
     c_bands:  2 eigenvalues not converged
     c_bands:  1 eigenvalues not converged
     c_bands:  1 eigenvalues not converged
     c_bands:  1 eigenvalues not converged
     c_bands:  1 eigenvalues not converged
     c_bands:  1 eigenvalues not converged
     c_bands:  1 eigenvalues not converged
     c_bands:  1 eigenvalues not converged
     c_bands:  1 eigenvalues not converged
     c_bands:  1 eigenvalues not converged
     c_bands:  1 eigenvalues not converged
     c_bands:  1 eigenvalues not converged
     c_bands:  1 eigenvalues not converged
     c_bands:  1 eigenvalues not converged
     c_bands:  1 eigenvalues not converged
     c_bands:  1 eigenvalues not converged
     c_bands:  1 eigenvalues not converged
     c_bands:  1 eigenvalues not converged
     c_bands:  1 eigenvalues not converged
     c_bands:  1 eigenvalues not converged
     c_bands:  1 eigenvalues not converged
     c_bands:  1 eigenvalues not converged
     c_bands:  1 eigenvalues not converged
     c_bands:  1 eigenvalues not converged
     c_bands:  2 eigenvalues not converged
     c_bands:  1 eigenvalues not converged
     c_bands:  1 eigenvalues not converged
     ethr =  1.00E-02,  avg # of iterations = 21.6

     total cpu time spent up to now is      158.7 secs

     total energy              =   -1632.63787306 Ry
     Harris-Foulkes estimate   =   -2196.14141212 Ry
     estimated scf accuracy    <     707.41273194 Ry

     iteration #  2     ecut=    40.00 Ry     beta=0.70
     CG style diagonalization
     c_bands:  1 eigenvalues not converged
     ethr =  1.00E-02,  avg # of iterations =  9.3

     total cpu time spent up to now is      225.4 secs

     total energy              =   -1753.60540003 Ry
     Harris-Foulkes estimate   =   -1818.41894393 Ry
     estimated scf accuracy    <      89.84116388 Ry

     iteration #  3     ecut=    40.00 Ry     beta=0.70
     CG style diagonalization
     ethr =  1.00E-02,  avg # of iterations =  6.7

     total cpu time spent up to now is      273.3 secs

     total energy              =   -1771.21666433 Ry
     Harris-Foulkes estimate   =   -1815.84304535 Ry
     estimated scf accuracy    <     121.79048155 Ry

     iteration #  4     ecut=    40.00 Ry     beta=0.70
     CG style diagonalization
     ethr =  1.00E-02,  avg # of iterations =  5.4

     total cpu time spent up to now is      312.4 secs

     total energy              =   -1792.42976016 Ry
     Harris-Foulkes estimate   =   -1793.36382513 Ry
     estimated scf accuracy    <       1.35655798 Ry

     iteration #  5     ecut=    40.00 Ry     beta=0.70
     CG style diagonalization
     ethr =  1.07E-03,  avg # of iterations =  4.3

     total cpu time spent up to now is      344.2 secs

     total energy              =   -1792.76407478 Ry
     Harris-Foulkes estimate   =   -1792.92209569 Ry
     estimated scf accuracy    <       0.28858217 Ry

     iteration #  6     ecut=    40.00 Ry     beta=0.70
     CG style diagonalization
     c_bands:  1 eigenvalues not converged
     c_bands:  1 eigenvalues not converged
     c_bands:  1 eigenvalues not converged
     c_bands:  1 eigenvalues not converged
     c_bands:  1 eigenvalues not converged
     c_bands:  1 eigenvalues not converged
     ethr =  2.27E-04,  avg # of iterations =  3.9

     total cpu time spent up to now is      372.2 secs

     total energy              =   -1792.82591458 Ry
     Harris-Foulkes estimate   =   -1792.84562618 Ry
     estimated scf accuracy    <       0.02939250 Ry

     iteration #  7     ecut=    40.00 Ry     beta=0.70
     CG style diagonalization
     c_bands:  1 eigenvalues not converged
     c_bands:  1 eigenvalues not converged
     c_bands:  1 eigenvalues not converged
     c_bands:  2 eigenvalues not converged
     c_bands:  1 eigenvalues not converged
     c_bands:  1 eigenvalues not converged
     c_bands:  1 eigenvalues not converged
     c_bands:  1 eigenvalues not converged
     c_bands:  1 eigenvalues not converged
     c_bands:  2 eigenvalues not converged
     c_bands:  1 eigenvalues not converged
     c_bands:  1 eigenvalues not converged
     c_bands:  1 eigenvalues not converged
     c_bands:  2 eigenvalues not converged
     c_bands:  1 eigenvalues not converged
     c_bands:  1 eigenvalues not converged
     c_bands:  1 eigenvalues not converged
     c_bands:  1 eigenvalues not converged
     c_bands:  1 eigenvalues not converged
     c_bands:  1 eigenvalues not converged
     c_bands:  2 eigenvalues not converged
     ethr =  2.31E-05,  avg # of iterations =  4.3

     total cpu time spent up to now is      403.3 secs

     total energy              =   -1792.83385269 Ry
     Harris-Foulkes estimate   =   -1792.84161465 Ry
     estimated scf accuracy    <       0.02011055 Ry

     iteration #  8     ecut=    40.00 Ry     beta=0.70
     CG style diagonalization
     c_bands:  1 eigenvalues not converged
     c_bands:  1 eigenvalues not converged
     c_bands:  1 eigenvalues not converged
     c_bands:  1 eigenvalues not converged
     ethr =  1.58E-05,  avg # of iterations =  3.2

     total cpu time spent up to now is      427.9 secs

     total energy              =   -1792.83466471 Ry
     Harris-Foulkes estimate   =   -1792.83597028 Ry
     estimated scf accuracy    <       0.00233637 Ry

     iteration #  9     ecut=    40.00 Ry     beta=0.70
     CG style diagonalization
     c_bands:  1 eigenvalues not converged
     c_bands:  1 eigenvalues not converged
     c_bands:  1 eigenvalues not converged
     c_bands:  1 eigenvalues not converged
     c_bands:  1 eigenvalues not converged
     c_bands:  1 eigenvalues not converged
     c_bands:  1 eigenvalues not converged
     c_bands:  1 eigenvalues not converged
     c_bands:  1 eigenvalues not converged
     c_bands:  1 eigenvalues not converged
     c_bands:  1 eigenvalues not converged
     c_bands:  1 eigenvalues not converged
     c_bands:  1 eigenvalues not converged
     c_bands:  1 eigenvalues not converged
     c_bands:  1 eigenvalues not converged
     c_bands:  1 eigenvalues not converged
     c_bands:  1 eigenvalues not converged
     c_bands:  1 eigenvalues not converged
     c_bands:  1 eigenvalues not converged
     c_bands:  1 eigenvalues not converged
     c_bands:  1 eigenvalues not converged
     c_bands:  1 eigenvalues not converged
     ethr =  1.84E-06,  avg # of iterations =  4.1

     total cpu time spent up to now is      458.4 secs

     total energy              =   -1792.83528481 Ry
     Harris-Foulkes estimate   =   -1792.83548968 Ry
     estimated scf accuracy    <       0.00036852 Ry

     iteration # 10     ecut=    40.00 Ry     beta=0.70
     CG style diagonalization
     c_bands:  1 eigenvalues not converged
     c_bands:  1 eigenvalues not converged
     ethr =  2.90E-07,  avg # of iterations =  3.6

     total cpu time spent up to now is      484.1 secs

     End of self-consistent calculation

     Number of k-points >= 100: set verbosity='high' to print the bands.

     the Fermi energy is    39.5759 ev

!    total energy              =   -1792.83535987 Ry
     Harris-Foulkes estimate   =   -1792.83536404 Ry
     estimated scf accuracy    <       0.00000560 Ry

     The total energy is the sum of the following terms:

     one-electron contribution =    -289.15743407 Ry
     hartree contribution      =     269.47977133 Ry
     xc contribution           =    -161.26974772 Ry
     ewald contribution        =   -1611.69992293 Ry
     smearing contrib. (-TS)   =      -0.18802648 Ry

     convergence has been achieved in  10 iterations

     Forces acting on atoms (Ry/au):

     atom    1 type  1   force =     0.00000000    0.00000000    0.00000000
     atom    2 type  2   force =     0.00000000    0.00000000    0.00000000
     atom    3 type  2   force =     0.00000000    0.00000000    0.00000000
     atom    4 type  2   force =     0.00000000    0.00000000    0.00000000
     atom    5 type  2   force =     0.00000000    0.00000000    0.00000000
     atom    6 type  2   force =     0.00000000    0.00000000    0.00000000

     Total force =     0.000000     Total SCF correction =     0.000000


     entering subroutine stress ...

          total   stress  (Ry/bohr**3)                   (kbar)     P= 2467.59
   0.01465898   0.00000000   0.00000000       2156.41      0.00      0.00
   0.00000000   0.01465898   0.00000000          0.00   2156.41      0.00
   0.00000000   0.00000000   0.02100500          0.00      0.00   3089.94


     BFGS Geometry Optimization

     number of scf cycles    =   1
     number of bfgs steps    =   0

     enthalpy new            =   -1792.8353598728 Ry

     new trust radius        =       0.5000000000 bohr
     new conv_thr            =       0.0001000000 Ry

     new unit-cell volume =    773.77821 a.u.^3 (   114.66210 Ang^3 )

CELL_PARAMETERS (alat=  9.64829493)
   1.070446663   0.000000000   0.000000000
  -0.535223331   0.927034003   0.000000000
   0.000000000   0.000000000   0.868168629

ATOMIC_POSITIONS (crystal)
Ca       0.000000000   0.000000000   0.000000000
Cu       0.333333000   0.666667000   0.000000000
Cu       0.666667000   0.333333000   0.000000000
Cu       0.500000000   0.000000000   0.500000000
Cu       0.500000000   0.500000000   0.500000000
Cu       0.000000000   0.500000000   0.500000000



     Writing output data file Prototype-La-hP6-CaCu5.save
     NEW-OLD atomic charge density approx. for the potential
     NEW k-points: (use verbosity='high' to print them)

     total cpu time spent up to now is      490.9 secs

     Self-consistent Calculation

     iteration #  1     ecut=    40.00 Ry     beta=0.70
     CG style diagonalization
     c_bands:  2 eigenvalues not converged
     c_bands:  5 eigenvalues not converged
     c_bands:  1 eigenvalues not converged
     c_bands:  1 eigenvalues not converged
     c_bands:  1 eigenvalues not converged
     c_bands:  1 eigenvalues not converged
     c_bands:  1 eigenvalues not converged
     c_bands:  1 eigenvalues not converged
     c_bands:  1 eigenvalues not converged
     c_bands:  1 eigenvalues not converged
     c_bands:  1 eigenvalues not converged
     c_bands:  1 eigenvalues not converged
     c_bands:  1 eigenvalues not converged
     c_bands:  2 eigenvalues not converged
     c_bands:  4 eigenvalues not converged
     c_bands:  1 eigenvalues not converged
     c_bands:  1 eigenvalues not converged
     c_bands:  1 eigenvalues not converged
     c_bands:  2 eigenvalues not converged
     ethr =  1.00E-06,  avg # of iterations = 21.7

     total cpu time spent up to now is      637.4 secs

     total energy              =   -1785.75342577 Ry
     Harris-Foulkes estimate   =   -1805.09155699 Ry
     estimated scf accuracy    <      24.28985617 Ry

     iteration #  2     ecut=    40.00 Ry     beta=0.70
     CG style diagonalization
     ethr =  1.00E-02,  avg # of iterations =  4.0

     total cpu time spent up to now is      666.3 secs

     total energy              =   -1792.59358779 Ry
     Harris-Foulkes estimate   =   -1795.97780718 Ry
     estimated scf accuracy    <       5.12978484 Ry

     iteration #  3     ecut=    40.00 Ry     beta=0.70
     CG style diagonalization
     ethr =  4.04E-03,  avg # of iterations =  3.7

     total cpu time spent up to now is      693.3 secs

     total energy              =   -1793.97091203 Ry
     Harris-Foulkes estimate   =   -1794.22668054 Ry
     estimated scf accuracy    <       0.47563467 Ry

     iteration #  4     ecut=    40.00 Ry     beta=0.70
     CG style diagonalization
     ethr =  3.75E-04,  avg # of iterations =  3.4

     total cpu time spent up to now is      719.0 secs

     total energy              =   -1794.08725612 Ry
     Harris-Foulkes estimate   =   -1794.09040514 Ry
     estimated scf accuracy    <       0.00520142 Ry

     iteration #  5     ecut=    40.00 Ry     beta=0.70
     CG style diagonalization
     c_bands:  1 eigenvalues not converged
     c_bands:  1 eigenvalues not converged
     c_bands:  1 eigenvalues not converged
     c_bands:  1 eigenvalues not converged
     c_bands:  1 eigenvalues not converged
     c_bands:  1 eigenvalues not converged
     c_bands:  1 eigenvalues not converged
     c_bands:  2 eigenvalues not converged
     c_bands:  2 eigenvalues not converged
     c_bands:  1 eigenvalues not converged
     c_bands:  1 eigenvalues not converged
     c_bands:  1 eigenvalues not converged
     c_bands:  1 eigenvalues not converged
     c_bands:  1 eigenvalues not converged
     c_bands:  1 eigenvalues not converged
     c_bands:  1 eigenvalues not converged
     c_bands:  1 eigenvalues not converged
     c_bands:  1 eigenvalues not converged
     c_bands:  1 eigenvalues not converged
     c_bands:  2 eigenvalues not converged
     c_bands:  1 eigenvalues not converged
     c_bands:  1 eigenvalues not converged
     c_bands:  1 eigenvalues not converged
     c_bands:  1 eigenvalues not converged
     c_bands:  1 eigenvalues not converged
     ethr =  4.10E-06,  avg # of iterations =  4.6

     total cpu time spent up to now is      751.9 secs

     total energy              =   -1794.08967354 Ry
     Harris-Foulkes estimate   =   -1794.08986377 Ry
     estimated scf accuracy    <       0.00031101 Ry

     iteration #  6     ecut=    40.00 Ry     beta=0.70
     CG style diagonalization
     c_bands:  1 eigenvalues not converged
     ethr =  2.45E-07,  avg # of iterations =  3.8

     total cpu time spent up to now is      779.0 secs

     End of self-consistent calculation

     Number of k-points >= 100: set verbosity='high' to print the bands.

     the Fermi energy is    30.3673 ev

!    total energy              =   -1794.08975976 Ry
     Harris-Foulkes estimate   =   -1794.08977094 Ry
     estimated scf accuracy    <       0.00001546 Ry

     The total energy is the sum of the following terms:

     one-electron contribution =    -460.97220496 Ry
     hartree contribution      =     319.12092054 Ry
     xc contribution           =    -158.60614627 Ry
     ewald contribution        =   -1493.45124351 Ry
     smearing contrib. (-TS)   =      -0.18108556 Ry

     convergence has been achieved in   6 iterations

     Forces acting on atoms (Ry/au):

     atom    1 type  1   force =     0.00000000    0.00000000    0.00000000
     atom    2 type  2   force =     0.00000000    0.00000000    0.00000000
     atom    3 type  2   force =     0.00000000    0.00000000    0.00000000
     atom    4 type  2   force =     0.00000000    0.00000000    0.00000000
     atom    5 type  2   force =     0.00000000    0.00000000    0.00000000
     atom    6 type  2   force =     0.00000000    0.00000000    0.00000000

     Total force =     0.000000     Total SCF correction =     0.000000


     entering subroutine stress ...

          total   stress  (Ry/bohr**3)                   (kbar)     P=  101.49
   0.00014861   0.00000000   0.00000000         21.86      0.00      0.00
   0.00000000   0.00014861   0.00000000          0.00     21.86      0.00
   0.00000000   0.00000000   0.00177245          0.00      0.00    260.74


     number of scf cycles    =   2
     number of bfgs steps    =   1

     enthalpy old            =   -1792.8353598728 Ry
     enthalpy new            =   -1794.0897597617 Ry

     CASE: enthalpy_new < enthalpy_old

     small trust_radius: resetting bfgs history

     new trust radius        =       0.2465200398 bohr
     new conv_thr            =       0.0000010000 Ry

     new unit-cell volume =    814.08083 a.u.^3 (   120.63433 Ang^3 )

CELL_PARAMETERS (alat=  9.64829493)
   1.074423675   0.000000000   0.000000000
  -0.537211838   0.930478197   0.000000000
   0.000000000   0.000000000   0.906638265

ATOMIC_POSITIONS (crystal)
Ca       0.000000000   0.000000000   0.000000000
Cu       0.333333000   0.666667000   0.000000000
Cu       0.666667000   0.333333000   0.000000000
Cu       0.500000000   0.000000000   0.500000000
Cu       0.500000000   0.500000000   0.500000000
Cu       0.000000000   0.500000000   0.500000000



     Writing output data file Prototype-La-hP6-CaCu5.save
     NEW-OLD atomic charge density approx. for the potential
     NEW k-points: (use verbosity='high' to print them)

     total cpu time spent up to now is      786.1 secs

     Self-consistent Calculation

     iteration #  1     ecut=    40.00 Ry     beta=0.70
     CG style diagonalization
     c_bands:  1 eigenvalues not converged
     c_bands:  1 eigenvalues not converged
     c_bands:  2 eigenvalues not converged
     c_bands:  5 eigenvalues not converged
     c_bands:  4 eigenvalues not converged
     c_bands:  4 eigenvalues not converged
     c_bands:  1 eigenvalues not converged
     c_bands:  1 eigenvalues not converged
     c_bands:  4 eigenvalues not converged
     c_bands:  5 eigenvalues not converged
     c_bands:  1 eigenvalues not converged
     c_bands:  3 eigenvalues not converged
     c_bands:  4 eigenvalues not converged
     c_bands:  1 eigenvalues not converged
     c_bands:  4 eigenvalues not converged
     c_bands:  5 eigenvalues not converged
     c_bands:  3 eigenvalues not converged
     c_bands:  4 eigenvalues not converged
     c_bands:  4 eigenvalues not converged
     c_bands:  3 eigenvalues not converged
     c_bands:  3 eigenvalues not converged
     c_bands:  3 eigenvalues not converged
     c_bands:  5 eigenvalues not converged
     c_bands:  4 eigenvalues not converged
     c_bands:  4 eigenvalues not converged
     c_bands:  4 eigenvalues not converged
     c_bands:  3 eigenvalues not converged
     c_bands:  2 eigenvalues not converged
     c_bands:  4 eigenvalues not converged
     c_bands:  4 eigenvalues not converged
     c_bands:  2 eigenvalues not converged
     c_bands:  2 eigenvalues not converged
     c_bands:  3 eigenvalues not converged
     c_bands:  1 eigenvalues not converged
     c_bands:  5 eigenvalues not converged
     c_bands:  5 eigenvalues not converged
     c_bands:  1 eigenvalues not converged
     c_bands:  4 eigenvalues not converged
     c_bands:  4 eigenvalues not converged
     c_bands:  2 eigenvalues not converged
     c_bands:  1 eigenvalues not converged
     c_bands:  3 eigenvalues not converged
     c_bands:  1 eigenvalues not converged
     c_bands:  1 eigenvalues not converged
     c_bands:  2 eigenvalues not converged
     c_bands:  4 eigenvalues not converged
     c_bands:  2 eigenvalues not converged
     ethr =  1.00E-06,  avg # of iterations = 13.4

     total cpu time spent up to now is      879.5 secs

     total energy              =   -1793.56231904 Ry
     Harris-Foulkes estimate   =   -1794.82937909 Ry
     estimated scf accuracy    <       1.61857138 Ry

     iteration #  2     ecut=    40.00 Ry     beta=0.70
     CG style diagonalization
     ethr =  1.27E-03,  avg # of iterations =  3.8

     total cpu time spent up to now is      909.4 secs

     total energy              =   -1794.01195457 Ry
     Harris-Foulkes estimate   =   -1794.17699482 Ry
     estimated scf accuracy    <       0.24384746 Ry

     iteration #  3     ecut=    40.00 Ry     beta=0.70
     CG style diagonalization
     ethr =  1.92E-04,  avg # of iterations =  3.7

     total cpu time spent up to now is      936.1 secs

     total energy              =   -1794.07324121 Ry
     Harris-Foulkes estimate   =   -1794.08335127 Ry
     estimated scf accuracy    <       0.01594771 Ry

     iteration #  4     ecut=    40.00 Ry     beta=0.70
     CG style diagonalization
     c_bands:  1 eigenvalues not converged
     ethr =  1.26E-05,  avg # of iterations =  3.7

     total cpu time spent up to now is      963.2 secs

     total energy              =   -1794.07868744 Ry
     Harris-Foulkes estimate   =   -1794.07999039 Ry
     estimated scf accuracy    <       0.00243021 Ry

     iteration #  5     ecut=    40.00 Ry     beta=0.70
     CG style diagonalization
     c_bands:  1 eigenvalues not converged
     c_bands:  1 eigenvalues not converged
     ethr =  1.91E-06,  avg # of iterations =  3.5

     total cpu time spent up to now is      989.4 secs

     total energy              =   -1794.07926300 Ry
     Harris-Foulkes estimate   =   -1794.07928004 Ry
     estimated scf accuracy    <       0.00003386 Ry

     iteration #  6     ecut=    40.00 Ry     beta=0.70
     CG style diagonalization
     ethr =  2.67E-08,  avg # of iterations =  4.2

     total cpu time spent up to now is     1018.6 secs

     total energy              =   -1794.07928551 Ry
     Harris-Foulkes estimate   =   -1794.07928865 Ry
     estimated scf accuracy    <       0.00000559 Ry

     iteration #  7     ecut=    40.00 Ry     beta=0.70
     CG style diagonalization
     ethr =  4.40E-09,  avg # of iterations =  3.4

     total cpu time spent up to now is     1042.3 secs

     End of self-consistent calculation

     Number of k-points >= 100: set verbosity='high' to print the bands.

     the Fermi energy is    28.5794 ev

!    total energy              =   -1794.07928616 Ry
     Harris-Foulkes estimate   =   -1794.07928698 Ry
     estimated scf accuracy    <       0.00000090 Ry

     The total energy is the sum of the following terms:

     one-electron contribution =    -494.01292047 Ry
     hartree contribution      =     328.73447793 Ry
     xc contribution           =    -158.09306795 Ry
     ewald contribution        =   -1470.52760174 Ry
     smearing contrib. (-TS)   =      -0.18017392 Ry

     convergence has been achieved in   7 iterations

     Forces acting on atoms (Ry/au):

     atom    1 type  1   force =     0.00000000    0.00000000    0.00000000
     atom    2 type  2   force =     0.00000000    0.00000000    0.00000000
     atom    3 type  2   force =     0.00000000    0.00000000    0.00000000
     atom    4 type  2   force =     0.00000000    0.00000000    0.00000000
     atom    5 type  2   force =     0.00000000    0.00000000    0.00000000
     atom    6 type  2   force =     0.00000000    0.00000000    0.00000000

     Total force =     0.000000     Total SCF correction =     0.000000


     entering subroutine stress ...

          total   stress  (Ry/bohr**3)                   (kbar)     P= -246.28
  -0.00148379   0.00000000   0.00000000       -218.27      0.00      0.00
   0.00000000  -0.00148379   0.00000000          0.00   -218.27      0.00
   0.00000000   0.00000000  -0.00205503          0.00      0.00   -302.31


     number of scf cycles    =   3
     number of bfgs steps    =   2

     enthalpy old            =   -1794.0897597617 Ry
     enthalpy new            =   -1794.0792861580 Ry

     CASE: enthalpy_new > enthalpy_old

     new trust radius        =       0.1034783502 bohr

     trust_radius < trust_radius_min

     resetting bfgs history

     Message from routine bfgs:
     history already reset at previous step: stopping
     new conv_thr            =       0.0000010000 Ry

     new unit-cell volume =    815.08879 a.u.^3 (   120.78370 Ang^3 )

CELL_PARAMETERS (alat=  9.64829493)
   1.074254926   0.000000000   0.000000000
  -0.537127463   0.930332056   0.000000000
   0.000000000   0.000000000   0.908046040

ATOMIC_POSITIONS (crystal)
Ca       0.000000000   0.000000000   0.000000000
Cu       0.333333000   0.666667000   0.000000000
Cu       0.666667000   0.333333000   0.000000000
Cu       0.500000000   0.000000000   0.500000000
Cu       0.500000000   0.500000000   0.500000000
Cu       0.000000000   0.500000000   0.500000000



     Writing output data file Prototype-La-hP6-CaCu5.save
     NEW-OLD atomic charge density approx. for the potential
     NEW k-points: (use verbosity='high' to print them)

     total cpu time spent up to now is     1049.5 secs

     Self-consistent Calculation

     iteration #  1     ecut=    40.00 Ry     beta=0.70
     CG style diagonalization
     ethr =  1.00E-06,  avg # of iterations =  4.3

     total cpu time spent up to now is     1080.0 secs

     total energy              =   -1794.07663667 Ry
     Harris-Foulkes estimate   =   -1794.07769435 Ry
     estimated scf accuracy    <       0.00139334 Ry

     iteration #  2     ecut=    40.00 Ry     beta=0.70
     CG style diagonalization
     ethr =  1.10E-06,  avg # of iterations =  3.8

     total cpu time spent up to now is     1107.6 secs

     total energy              =   -1794.07697639 Ry
     Harris-Foulkes estimate   =   -1794.07705136 Ry
     estimated scf accuracy    <       0.00010577 Ry

     iteration #  3     ecut=    40.00 Ry     beta=0.70
     CG style diagonalization
     ethr =  8.33E-08,  avg # of iterations =  3.7

     total cpu time spent up to now is     1134.2 secs

     total energy              =   -1794.07700494 Ry
     Harris-Foulkes estimate   =   -1794.07700789 Ry
     estimated scf accuracy    <       0.00000446 Ry

     iteration #  4     ecut=    40.00 Ry     beta=0.70
     CG style diagonalization
     ethr =  3.51E-09,  avg # of iterations =  3.8

     total cpu time spent up to now is     1160.4 secs

     total energy              =   -1794.07700643 Ry
     Harris-Foulkes estimate   =   -1794.07700707 Ry
     estimated scf accuracy    <       0.00000118 Ry

     iteration #  5     ecut=    40.00 Ry     beta=0.70
     CG style diagonalization
     ethr =  9.27E-10,  avg # of iterations =  3.2

     total cpu time spent up to now is     1182.7 secs

     End of self-consistent calculation

     Number of k-points >= 100: set verbosity='high' to print the bands.

     the Fermi energy is    28.5366 ev

!    total energy              =   -1794.07700671 Ry
     Harris-Foulkes estimate   =   -1794.07700674 Ry
     estimated scf accuracy    <       0.00000004 Ry

     The total energy is the sum of the following terms:

     one-electron contribution =    -494.76644394 Ry
     hartree contribution      =     328.95233741 Ry
     xc contribution           =    -158.08155290 Ry
     ewald contribution        =   -1470.00122684 Ry
     smearing contrib. (-TS)   =      -0.18012043 Ry

     convergence has been achieved in   5 iterations

     Forces acting on atoms (Ry/au):

     atom    1 type  1   force =     0.00000000    0.00000000    0.00000000
     atom    2 type  2   force =     0.00000000    0.00000000    0.00000000
     atom    3 type  2   force =     0.00000000    0.00000000    0.00000000
     atom    4 type  2   force =     0.00000000    0.00000000    0.00000000
     atom    5 type  2   force =     0.00000000    0.00000000    0.00000000
     atom    6 type  2   force =     0.00000000    0.00000000    0.00000000

     Total force =     0.000000     Total SCF correction =     0.000000


     entering subroutine stress ...

          total   stress  (Ry/bohr**3)                   (kbar)     P= -252.95
  -0.00149823   0.00000000   0.00000000       -220.40      0.00      0.00
   0.00000000  -0.00149823   0.00000000          0.00   -220.40      0.00
   0.00000000   0.00000000  -0.00216206          0.00      0.00   -318.05


     The maximum number of steps has been reached.

     End of BFGS Geometry Optimization
Begin final coordinates
     new unit-cell volume =    815.08879 a.u.^3 (   120.78370 Ang^3 )

CELL_PARAMETERS (alat=  9.64829493)
   1.074254926   0.000000000   0.000000000
  -0.537127463   0.930332056   0.000000000
   0.000000000   0.000000000   0.908046040

ATOMIC_POSITIONS (crystal)
Ca       0.000000000   0.000000000   0.000000000
Cu       0.333333000   0.666667000   0.000000000
Cu       0.666667000   0.333333000   0.000000000
Cu       0.500000000   0.000000000   0.500000000
Cu       0.500000000   0.500000000   0.500000000
Cu       0.000000000   0.500000000   0.500000000
End final coordinates



     A final scf calculation at the relaxed structure.
     The G-vectors are recalculated for the final unit cell
     Results may differ from those at the preceding step.
 
     Parallelization info
     --------------------
     sticks:   dense  smooth     PW     G-vecs:    dense   smooth      PW
     Min         294     294     89                 6968     6968    1132
     Max         295     295     91                 6970     6970    1133
     Sum        1177    1177    361                27875    27875    4531
 


     bravais-lattice index     =            0
     lattice parameter (alat)  =       9.6483  a.u.
     unit-cell volume          =     815.0888 (a.u.)^3
     number of atoms/cell      =            6
     number of atomic types    =            2
     number of electrons       =       127.00
     number of Kohn-Sham states=           77
     kinetic-energy cutoff     =      40.0000  Ry
     charge density cutoff     =     160.0000  Ry
     convergence threshold     =      1.0E-06
     mixing beta               =       0.7000
     number of iterations used =            8  plain     mixing
     Exchange-correlation      = SLA-PZ-NOGX-NOGC ( 1 1 0 0 0)
     EXX-fraction              =        0.00

     celldm(1)=   9.648295  celldm(2)=   0.000000  celldm(3)=   0.000000
     celldm(4)=   0.000000  celldm(5)=   0.000000  celldm(6)=   0.000000

     crystal axes: (cart. coord. in units of alat)
               a(1) = (   1.074255   0.000000   0.000000 )  
               a(2) = (  -0.537127   0.930332   0.000000 )  
               a(3) = (   0.000000   0.000000   0.908046 )  

     reciprocal axes: (cart. coord. in units 2 pi/alat)
               b(1) = (  0.930878  0.537443  0.000000 )  
               b(2) = (  0.000000  1.074885  0.000000 )  
               b(3) = (  0.000000  0.000000  1.101266 )  


     PseudoPot. # 1 for Er read from file:
     /home/cwx6513/pp.La/Er.UPF
     MD5 check sum: e152ae21b84514339d8526f066caf99b
     Pseudo is Norm-conserving, Zval = 22.0
     Generated in analytical, separable form
     Using radial grid of 1267 points,  6 beta functions with: 
                l(1) =   0
                l(2) =   0
                l(3) =   1
                l(4) =   1
                l(5) =   2
                l(6) =   3

     PseudoPot. # 2 for Ho read from file:
     /home/cwx6513/pp.La/Ho.UPF
     MD5 check sum: f307ee11bce99f5b724fa279e3790763
     Pseudo is Norm-conserving, Zval = 21.0
     Generated in analytical, separable form
     Using radial grid of 1265 points,  6 beta functions with: 
                l(1) =   0
                l(2) =   0
                l(3) =   1
                l(4) =   1
                l(5) =   2
                l(6) =   3

     atomic species   valence    mass     pseudopotential
        Ca            22.00    40.07800     Er( 1.00)
        Cu            21.00    63.54600     Ho( 1.00)

     24 Sym. Ops., with inversion, found



   Cartesian axes

     site n.     atom                  positions (alat units)
         1           Ca  tau(   1) = (   0.0000000   0.0000000   0.0000000  )
         2           Cu  tau(   2) = (  -0.0000005   0.6202217   0.0000000  )
         3           Cu  tau(   3) = (   0.5371280   0.3101104   0.0000000  )
         4           Cu  tau(   4) = (   0.5371275   0.0000000   0.4540230  )
         5           Cu  tau(   5) = (   0.2685637   0.4651660   0.4540230  )
         6           Cu  tau(   6) = (  -0.2685637   0.4651660   0.4540230  )

     number of k points=   110  gaussian smearing, width (Ry)=  0.1000

     Number of k-points >= 100: set verbosity='high' to print them.

     Dense  grid:    27875 G-vectors     FFT dimensions: (  45,  45,  36)

     Largest allocated arrays     est. size (Mb)     dimensions
        Kohn-Sham Wavefunctions         1.03 Mb     (    880,   77)
        NL pseudopotentials             1.61 Mb     (    880,  120)
        Each V/rho on FFT grid          0.28 Mb     (  18225)
        Each G-vector array             0.05 Mb     (   6970)
        G-vector shells                 0.01 Mb     (   1198)
     Largest temporary arrays     est. size (Mb)     dimensions
        Each subspace H/S matrix        0.09 Mb     (  77,  77)
        Each <psi_i|beta_j> matrix      0.14 Mb     (    120,   77)
        Arrays for rho mixing           2.22 Mb     (  18225,   8)

     Initial potential from superposition of free atoms

     Starting from uniform charge
     Starting wfc are    0 randomized atomic wfcs

     Writing output data file Prototype-La-hP6-CaCu5.save

     total cpu time spent up to now is     1198.2 secs

     Self-consistent Calculation

     iteration #  1     ecut=    40.00 Ry     beta=0.70
     CG style diagonalization
     c_bands:  9 eigenvalues not converged
     c_bands:  8 eigenvalues not converged
     c_bands: 10 eigenvalues not converged
     c_bands: 10 eigenvalues not converged
     c_bands:  8 eigenvalues not converged
     c_bands:  9 eigenvalues not converged
     c_bands: 11 eigenvalues not converged
     c_bands: 10 eigenvalues not converged
     c_bands:  9 eigenvalues not converged
     c_bands: 10 eigenvalues not converged
     c_bands:  9 eigenvalues not converged
     c_bands:  8 eigenvalues not converged
     c_bands: 11 eigenvalues not converged
     c_bands:  8 eigenvalues not converged
     c_bands:  9 eigenvalues not converged
     c_bands: 11 eigenvalues not converged
     c_bands:  9 eigenvalues not converged
     c_bands:  9 eigenvalues not converged
     c_bands: 10 eigenvalues not converged
     c_bands:  9 eigenvalues not converged
     c_bands:  9 eigenvalues not converged
     c_bands: 10 eigenvalues not converged
     c_bands:  8 eigenvalues not converged
     c_bands: 10 eigenvalues not converged
     c_bands:  8 eigenvalues not converged
     c_bands:  7 eigenvalues not converged
     c_bands:  9 eigenvalues not converged
     c_bands: 10 eigenvalues not converged
     c_bands:  9 eigenvalues not converged
     c_bands:  9 eigenvalues not converged
     c_bands:  9 eigenvalues not converged
     c_bands:  9 eigenvalues not converged
     c_bands:  9 eigenvalues not converged
     c_bands:  9 eigenvalues not converged
     c_bands:  9 eigenvalues not converged
     c_bands:  9 eigenvalues not converged
     c_bands:  9 eigenvalues not converged
     c_bands:  9 eigenvalues not converged
     c_bands:  9 eigenvalues not converged
     c_bands:  8 eigenvalues not converged
     c_bands: 10 eigenvalues not converged
     c_bands:  8 eigenvalues not converged
     c_bands:  9 eigenvalues not converged
     c_bands:  8 eigenvalues not converged
     c_bands: 10 eigenvalues not converged
     c_bands:  9 eigenvalues not converged
     c_bands:  9 eigenvalues not converged
     c_bands:  9 eigenvalues not converged
     c_bands:  9 eigenvalues not converged
     c_bands: 10 eigenvalues not converged
     c_bands:  9 eigenvalues not converged
     c_bands:  9 eigenvalues not converged
     c_bands: 10 eigenvalues not converged
     c_bands: 10 eigenvalues not converged
     c_bands:  8 eigenvalues not converged
     c_bands:  8 eigenvalues not converged
     c_bands:  8 eigenvalues not converged
     c_bands:  8 eigenvalues not converged
     c_bands:  9 eigenvalues not converged
     c_bands: 10 eigenvalues not converged
     c_bands: 10 eigenvalues not converged
     c_bands:  8 eigenvalues not converged
     c_bands:  9 eigenvalues not converged
     c_bands: 10 eigenvalues not converged
     c_bands: 11 eigenvalues not converged
     c_bands:  9 eigenvalues not converged
     c_bands:  8 eigenvalues not converged
     c_bands:  9 eigenvalues not converged
     c_bands: 10 eigenvalues not converged
     c_bands: 11 eigenvalues not converged
     c_bands:  9 eigenvalues not converged
     c_bands:  9 eigenvalues not converged
     c_bands:  9 eigenvalues not converged
     c_bands:  9 eigenvalues not converged
     c_bands: 10 eigenvalues not converged
     c_bands:  8 eigenvalues not converged
     c_bands:  9 eigenvalues not converged
     c_bands:  8 eigenvalues not converged
     c_bands:  8 eigenvalues not converged
     c_bands: 10 eigenvalues not converged
     c_bands: 10 eigenvalues not converged
     c_bands:  8 eigenvalues not converged
     c_bands:  9 eigenvalues not converged
     c_bands:  9 eigenvalues not converged
     c_bands:  9 eigenvalues not converged
     c_bands:  9 eigenvalues not converged
     c_bands:  9 eigenvalues not converged
     c_bands:  8 eigenvalues not converged
     c_bands:  8 eigenvalues not converged
     c_bands: 10 eigenvalues not converged
     c_bands: 11 eigenvalues not converged
     c_bands:  9 eigenvalues not converged
     c_bands:  8 eigenvalues not converged
     c_bands:  8 eigenvalues not converged
     c_bands: 10 eigenvalues not converged
     c_bands: 11 eigenvalues not converged
     c_bands: 10 eigenvalues not converged
     c_bands:  9 eigenvalues not converged
     c_bands: 10 eigenvalues not converged
     c_bands: 10 eigenvalues not converged
     c_bands: 11 eigenvalues not converged
     c_bands:  9 eigenvalues not converged
     c_bands:  9 eigenvalues not converged
     c_bands: 10 eigenvalues not converged
     c_bands:  9 eigenvalues not converged
     c_bands: 11 eigenvalues not converged
     c_bands:  8 eigenvalues not converged
     c_bands:  9 eigenvalues not converged
     c_bands: 12 eigenvalues not converged
     c_bands:  9 eigenvalues not converged
     ethr =  1.00E-06,  avg # of iterations = 74.0

     total cpu time spent up to now is     1931.5 secs

     total energy              =   -1598.55576374 Ry
     Harris-Foulkes estimate   =   -2283.36526913 Ry
     estimated scf accuracy    <     860.00771306 Ry

     iteration #  2     ecut=    40.00 Ry     beta=0.70
     CG style diagonalization
     c_bands:  1 eigenvalues not converged
     c_bands:  2 eigenvalues not converged
     c_bands:  1 eigenvalues not converged
     c_bands:  1 eigenvalues not converged
     c_bands:  1 eigenvalues not converged
     c_bands:  1 eigenvalues not converged
     c_bands:  1 eigenvalues not converged
     c_bands:  2 eigenvalues not converged
     c_bands:  1 eigenvalues not converged
     c_bands:  1 eigenvalues not converged
     c_bands:  1 eigenvalues not converged
     c_bands:  1 eigenvalues not converged
     c_bands:  1 eigenvalues not converged
     c_bands:  2 eigenvalues not converged
     c_bands:  1 eigenvalues not converged
     c_bands:  1 eigenvalues not converged
     c_bands:  1 eigenvalues not converged
     c_bands:  1 eigenvalues not converged
     c_bands:  2 eigenvalues not converged
     c_bands:  1 eigenvalues not converged
     c_bands:  1 eigenvalues not converged
     c_bands:  1 eigenvalues not converged
     c_bands:  1 eigenvalues not converged
     c_bands:  1 eigenvalues not converged
     c_bands:  1 eigenvalues not converged
     c_bands:  1 eigenvalues not converged
     c_bands:  1 eigenvalues not converged
     c_bands:  2 eigenvalues not converged
     c_bands:  1 eigenvalues not converged
     c_bands:  1 eigenvalues not converged
     c_bands:  1 eigenvalues not converged
     c_bands:  1 eigenvalues not converged
     c_bands:  1 eigenvalues not converged
     c_bands:  2 eigenvalues not converged
     c_bands:  1 eigenvalues not converged
     c_bands:  1 eigenvalues not converged
     c_bands:  1 eigenvalues not converged
     c_bands:  1 eigenvalues not converged
     c_bands:  1 eigenvalues not converged
     c_bands:  1 eigenvalues not converged
     c_bands:  2 eigenvalues not converged
     c_bands:  1 eigenvalues not converged
     c_bands:  1 eigenvalues not converged
     c_bands:  2 eigenvalues not converged
     ethr =  1.00E-02,  avg # of iterations =  9.1

     total cpu time spent up to now is     2028.2 secs

     total energy              =   -1710.44171235 Ry
     Harris-Foulkes estimate   =   -1839.35785209 Ry
     estimated scf accuracy    <     182.35504966 Ry

     iteration #  3     ecut=    40.00 Ry     beta=0.70
     CG style diagonalization
     c_bands:  1 eigenvalues not converged
     c_bands:  1 eigenvalues not converged
     c_bands:  1 eigenvalues not converged
     c_bands:  2 eigenvalues not converged
     c_bands:  1 eigenvalues not converged
     c_bands:  1 eigenvalues not converged
     c_bands:  1 eigenvalues not converged
     c_bands:  1 eigenvalues not converged
     c_bands:  1 eigenvalues not converged
     c_bands:  1 eigenvalues not converged
     c_bands:  1 eigenvalues not converged
     c_bands:  1 eigenvalues not converged
     c_bands:  1 eigenvalues not converged
     c_bands:  1 eigenvalues not converged
     c_bands:  1 eigenvalues not converged
     c_bands:  1 eigenvalues not converged
     c_bands:  1 eigenvalues not converged
     c_bands:  1 eigenvalues not converged
     ethr =  1.00E-02,  avg # of iterations =  9.3

     total cpu time spent up to now is     2125.5 secs

     total energy              =   -1756.69151048 Ry
     Harris-Foulkes estimate   =   -1850.16586243 Ry
     estimated scf accuracy    <     252.07279744 Ry

     iteration #  4     ecut=    40.00 Ry     beta=0.70
     CG style diagonalization
     ethr =  1.00E-02,  avg # of iterations =  6.2

     total cpu time spent up to now is     2191.5 secs

     total energy              =   -1794.72722364 Ry
     Harris-Foulkes estimate   =   -1797.80343799 Ry
     estimated scf accuracy    <       4.40408044 Ry

     iteration #  5     ecut=    40.00 Ry     beta=0.70
     CG style diagonalization
     ethr =  3.47E-03,  avg # of iterations =  3.8

     total cpu time spent up to now is     2232.8 secs

     total energy              =   -1795.59436786 Ry
     Harris-Foulkes estimate   =   -1796.28335547 Ry
     estimated scf accuracy    <       0.94987038 Ry

     iteration #  6     ecut=    40.00 Ry     beta=0.70
     CG style diagonalization
     ethr =  7.48E-04,  avg # of iterations =  3.9

     total cpu time spent up to now is     2276.1 secs

     total energy              =   -1795.92922235 Ry
     Harris-Foulkes estimate   =   -1796.11969397 Ry
     estimated scf accuracy    <       0.38214760 Ry

     iteration #  7     ecut=    40.00 Ry     beta=0.70
     CG style diagonalization
     c_bands:  1 eigenvalues not converged
     ethr =  3.01E-04,  avg # of iterations =  3.3

     total cpu time spent up to now is     2311.0 secs

     total energy              =   -1795.98992572 Ry
     Harris-Foulkes estimate   =   -1795.99543492 Ry
     estimated scf accuracy    <       0.00808328 Ry

     iteration #  8     ecut=    40.00 Ry     beta=0.70
     CG style diagonalization
     c_bands:  1 eigenvalues not converged
     c_bands:  1 eigenvalues not converged
     c_bands:  1 eigenvalues not converged
     c_bands:  1 eigenvalues not converged
     c_bands:  1 eigenvalues not converged
     c_bands:  1 eigenvalues not converged
     c_bands:  1 eigenvalues not converged
     c_bands:  1 eigenvalues not converged
     c_bands:  1 eigenvalues not converged
     c_bands:  2 eigenvalues not converged
     c_bands:  4 eigenvalues not converged
     c_bands:  1 eigenvalues not converged
     c_bands:  2 eigenvalues not converged
     c_bands:  1 eigenvalues not converged
     c_bands:  1 eigenvalues not converged
     c_bands:  1 eigenvalues not converged
     c_bands:  2 eigenvalues not converged
     c_bands:  1 eigenvalues not converged
     c_bands:  1 eigenvalues not converged
     c_bands:  3 eigenvalues not converged
     c_bands:  2 eigenvalues not converged
     c_bands:  1 eigenvalues not converged
     c_bands:  1 eigenvalues not converged
     c_bands:  1 eigenvalues not converged
     c_bands:  1 eigenvalues not converged
     c_bands:  2 eigenvalues not converged
     c_bands:  2 eigenvalues not converged
     c_bands:  1 eigenvalues not converged
     c_bands:  2 eigenvalues not converged
     c_bands:  1 eigenvalues not converged
     c_bands:  1 eigenvalues not converged
     c_bands:  1 eigenvalues not converged
     c_bands:  1 eigenvalues not converged
     c_bands:  2 eigenvalues not converged
     c_bands:  1 eigenvalues not converged
     c_bands:  1 eigenvalues not converged
     c_bands:  1 eigenvalues not converged
     c_bands:  1 eigenvalues not converged
     c_bands:  1 eigenvalues not converged
     c_bands:  1 eigenvalues not converged
     c_bands:  2 eigenvalues not converged
     c_bands:  1 eigenvalues not converged
     c_bands:  1 eigenvalues not converged
     c_bands:  1 eigenvalues not converged
     ethr =  6.36E-06,  avg # of iterations =  5.0

     total cpu time spent up to now is     2362.4 secs

     total energy              =   -1795.99511215 Ry
     Harris-Foulkes estimate   =   -1795.99616062 Ry
     estimated scf accuracy    <       0.00228016 Ry

     iteration #  9     ecut=    40.00 Ry     beta=0.70
     CG style diagonalization
     c_bands:  1 eigenvalues not converged
     c_bands:  1 eigenvalues not converged
     c_bands:  1 eigenvalues not converged
     c_bands:  1 eigenvalues not converged
     c_bands:  1 eigenvalues not converged
     c_bands:  1 eigenvalues not converged
     ethr =  1.80E-06,  avg # of iterations =  3.5

     total cpu time spent up to now is     2400.5 secs

     total energy              =   -1795.99536888 Ry
     Harris-Foulkes estimate   =   -1795.99545867 Ry
     estimated scf accuracy    <       0.00013178 Ry

     iteration # 10     ecut=    40.00 Ry     beta=0.70
     CG style diagonalization
     ethr =  1.04E-07,  avg # of iterations =  4.0

     total cpu time spent up to now is     2443.3 secs

     total energy              =   -1795.99541412 Ry
     Harris-Foulkes estimate   =   -1795.99545988 Ry
     estimated scf accuracy    <       0.00008318 Ry

     iteration # 11     ecut=    40.00 Ry     beta=0.70
     CG style diagonalization
     ethr =  6.55E-08,  avg # of iterations =  3.4

     total cpu time spent up to now is     2479.7 secs

     End of self-consistent calculation

     Number of k-points >= 100: set verbosity='high' to print the bands.

     the Fermi energy is    28.4414 ev

!    total energy              =   -1795.99543101 Ry
     Harris-Foulkes estimate   =   -1795.99543117 Ry
     estimated scf accuracy    <       0.00000020 Ry

     The total energy is the sum of the following terms:

     one-electron contribution =    -497.54311320 Ry
     hartree contribution      =     330.03703796 Ry
     xc contribution           =    -158.30858596 Ry
     ewald contribution        =   -1470.00122614 Ry
     smearing contrib. (-TS)   =      -0.17954367 Ry

     convergence has been achieved in  11 iterations

     Forces acting on atoms (Ry/au):

     atom    1 type  1   force =     0.00000000    0.00000000    0.00000000
     atom    2 type  2   force =     0.00000000    0.00000000    0.00000000
     atom    3 type  2   force =     0.00000000    0.00000000    0.00000000
     atom    4 type  2   force =     0.00000000    0.00000000    0.00000000
     atom    5 type  2   force =     0.00000000    0.00000000    0.00000000
     atom    6 type  2   force =     0.00000000    0.00000000    0.00000000

     Total force =     0.000000     Total SCF correction =     0.000000


     entering subroutine stress ...

          total   stress  (Ry/bohr**3)                   (kbar)     P=  347.76
   0.00194553   0.00000000   0.00000000        286.20      0.00      0.00
   0.00000000   0.00194553   0.00000000          0.00    286.20      0.00
   0.00000000   0.00000000   0.00320098          0.00      0.00    470.88


     Writing output data file Prototype-La-hP6-CaCu5.save
 
     init_run     :     11.23s CPU     14.59s WALL (       2 calls)
     electrons    :   2051.64s CPU   2436.65s WALL (       5 calls)
     update_pot   :      1.36s CPU      1.38s WALL (       3 calls)
     forces       :      7.92s CPU      8.44s WALL (       5 calls)
     stress       :     21.79s CPU     22.22s WALL (       5 calls)

     Called by init_run:
     wfcinit      :     10.70s CPU     14.04s WALL (       2 calls)
     potinit      :      0.23s CPU      0.23s WALL (       2 calls)

     Called by electrons:
     c_bands      :   1982.27s CPU   2327.75s WALL (      39 calls)
     sum_band     :     69.14s CPU     90.65s WALL (      39 calls)
     v_of_rho     :      0.05s CPU      0.06s WALL (      44 calls)
     mix_rho      :      0.04s CPU      0.06s WALL (      39 calls)

     Called by c_bands:
     init_us_2    :      4.16s CPU      5.64s WALL (    9900 calls)
     ccgdiagg     :   1757.20s CPU   2034.58s WALL (    5110 calls)
     wfcrot       :    231.02s CPU    297.48s WALL (    5220 calls)

     Called by *cgdiagg:
     h_psi        :   1385.22s CPU   1680.99s WALL ( 2029298 calls)
     cdiaghg      :     12.91s CPU     13.77s WALL (    5220 calls)

     Called by h_psi:
     add_vuspsi   :    124.94s CPU    159.82s WALL ( 2029298 calls)

     General routines
     calbec       :    344.33s CPU    364.32s WALL ( 4054476 calls)
     fft          :      0.07s CPU      0.09s WALL (     199 calls)
     fftw         :   1066.79s CPU   1270.34s WALL ( 5182366 calls)
     davcio       :      3.39s CPU      8.30s WALL (   14190 calls)
 
     Parallel routines
     fft_scatter  :    440.33s CPU    526.04s WALL ( 5182565 calls)
 
     PWSCF        : 34m55.01s CPU    41m28.54s WALL

 
   This run was terminated on:  23:25:42  22Mar2018            

=------------------------------------------------------------------------------=
   JOB DONE.
=------------------------------------------------------------------------------=
