
     Program PWSCF v.5.0.2 starts on 22Mar2018 at 22:44:14 

     This program is part of the open-source Quantum ESPRESSO suite
     for quantum simulation of materials; please cite
         "P. Giannozzi et al., J. Phys.:Condens. Matter 21 395502 (2009);
          URL http://www.quantum-espresso.org", 
     in publications or presentations arising from this work. More details at
     http://www.quantum-espresso.org/quote.php

     Parallel version (MPI), running on     4 processors
     R & G space division:  proc/nbgrp/npool/nimage =       4

     Current dimensions of program PWSCF are:
     Max number of different atomic species (ntypx) = 10
     Max number of k-points (npk) =  40000
     Max angular momentum in pseudopotentials (lmaxx) =  3
     Waiting for input...
     Reading input from standard input

     Subspace diagonalization in iterative solution of the eigenvalue problem:
     a serial algorithm will be used

 
     Parallelization info
     --------------------
     sticks:   dense  smooth     PW     G-vecs:    dense   smooth      PW
     Min         207     207     61                 7381     7381    1191
     Max         208     208     62                 7386     7386    1192
     Sum         829     829    247                29529    29529    4767
 


     bravais-lattice index     =            0
     lattice parameter (alat)  =       7.0151  a.u.
     unit-cell volume          =     862.2778 (a.u.)^3
     number of atoms/cell      =           12
     number of atomic types    =            2
     number of electrons       =       260.00
     number of Kohn-Sham states=          156
     kinetic-energy cutoff     =      40.0000  Ry
     charge density cutoff     =     160.0000  Ry
     convergence threshold     =      1.0E-04
     mixing beta               =       0.7000
     number of iterations used =            8  plain     mixing
     Exchange-correlation      = SLA-PZ-NOGX-NOGC ( 1 1 0 0 0)
     EXX-fraction              =        0.00
     nstep                     =           50


     celldm(1)=   7.015105  celldm(2)=   0.000000  celldm(3)=   0.000000
     celldm(4)=   0.000000  celldm(5)=   0.000000  celldm(6)=   0.000000

     crystal axes: (cart. coord. in units of alat)
               a(1) = (   1.000000   0.000000   0.000000 )  
               a(2) = (   0.000000   1.315963   0.000000 )  
               a(3) = (   0.000000   0.000000   1.898020 )  

     reciprocal axes: (cart. coord. in units 2 pi/alat)
               b(1) = (  1.000000  0.000000  0.000000 )  
               b(2) = (  0.000000  0.759900  0.000000 )  
               b(3) = (  0.000000  0.000000  0.526865 )  


     PseudoPot. # 1 for Er read from file:
     /home/cwx6513/pp.La/Er.UPF
     MD5 check sum: e152ae21b84514339d8526f066caf99b
     Pseudo is Norm-conserving, Zval = 22.0
     Generated in analytical, separable form
     Using radial grid of 1267 points,  6 beta functions with: 
                l(1) =   0
                l(2) =   0
                l(3) =   1
                l(4) =   1
                l(5) =   2
                l(6) =   3

     PseudoPot. # 2 for Ho read from file:
     /home/cwx6513/pp.La/Ho.UPF
     MD5 check sum: f307ee11bce99f5b724fa279e3790763
     Pseudo is Norm-conserving, Zval = 21.0
     Generated in analytical, separable form
     Using radial grid of 1265 points,  6 beta functions with: 
                l(1) =   0
                l(2) =   0
                l(3) =   1
                l(4) =   1
                l(5) =   2
                l(6) =   3

     atomic species   valence    mass     pseudopotential
        Co            22.00    58.93320     Er( 1.00)
        Si            21.00    28.08550     Ho( 1.00)

      8 Sym. Ops., with inversion, found ( 6 have fractional translation)



   Cartesian axes

     site n.     atom                  positions (alat units)
         1           Co  tau(   1) = (   0.7500000   1.0875135   0.8270358  )
         2           Co  tau(   2) = (   0.2500000   0.2284499   1.0709846  )
         3           Co  tau(   3) = (   0.7500000   0.4295318   0.1219744  )
         4           Co  tau(   4) = (   0.2500000   0.8864316   1.7760460  )
         5           Co  tau(   5) = (   0.2500000   0.7067855   0.5358966  )
         6           Co  tau(   6) = (   0.7500000   0.6091779   1.3621238  )
         7           Co  tau(   7) = (   0.2500000   0.0488038   0.4131136  )
         8           Co  tau(   8) = (   0.7500000   1.2671596   1.4849068  )
         9           Si  tau(   9) = (   0.2500000   0.2669484   1.6960710  )
        10           Si  tau(  10) = (   0.7500000   1.0490149   0.2019494  )
        11           Si  tau(  11) = (   0.2500000   0.9249301   1.1509596  )
        12           Si  tau(  12) = (   0.7500000   0.3910333   0.7470608  )

     number of k points=    12  gaussian smearing, width (Ry)=  0.1000
                       cart. coord. in units 2pi/alat
        k(    1) = (   0.0000000   0.0000000   0.0000000), wk =   0.0833333
        k(    2) = (   0.0000000   0.0000000   0.1317162), wk =   0.1666667
        k(    3) = (   0.0000000   0.0000000  -0.2634324), wk =   0.0833333
        k(    4) = (   0.0000000   0.2532999   0.0000000), wk =   0.1666667
        k(    5) = (   0.0000000   0.2532999   0.1317162), wk =   0.3333333
        k(    6) = (   0.0000000   0.2532999  -0.2634324), wk =   0.1666667
        k(    7) = (  -0.5000000   0.0000000   0.0000000), wk =   0.0833333
        k(    8) = (  -0.5000000   0.0000000   0.1317162), wk =   0.1666667
        k(    9) = (  -0.5000000   0.0000000  -0.2634324), wk =   0.0833333
        k(   10) = (  -0.5000000   0.2532999   0.0000000), wk =   0.1666667
        k(   11) = (  -0.5000000   0.2532999   0.1317162), wk =   0.3333333
        k(   12) = (  -0.5000000   0.2532999  -0.2634324), wk =   0.1666667

     Dense  grid:    29529 G-vectors     FFT dimensions: (  30,  40,  54)

     Largest allocated arrays     est. size (Mb)     dimensions
        Kohn-Sham Wavefunctions         2.19 Mb     (    922,  156)
        NL pseudopotentials             3.38 Mb     (    922,  240)
        Each V/rho on FFT grid          0.26 Mb     (  16800)
        Each G-vector array             0.06 Mb     (   7386)
        G-vector shells                 0.06 Mb     (   7386)
     Largest temporary arrays     est. size (Mb)     dimensions
        Each subspace H/S matrix        0.37 Mb     ( 156, 156)
        Each <psi_i|beta_j> matrix      0.57 Mb     (    240,  156)
        Arrays for rho mixing           2.05 Mb     (  16800,   8)

     Initial potential from superposition of free atoms

     Starting from uniform charge
     Starting wfc are    0 randomized atomic wfcs

     total cpu time spent up to now is        2.9 secs

     Self-consistent Calculation

     iteration #  1     ecut=    40.00 Ry     beta=0.70
     CG style diagonalization
     ethr =  1.00E-02,  avg # of iterations = 16.8

     total cpu time spent up to now is       59.0 secs

     total energy              =   -3478.79425548 Ry
     Harris-Foulkes estimate   =   -4287.74753370 Ry
     estimated scf accuracy    <    1041.13036232 Ry

     iteration #  2     ecut=    40.00 Ry     beta=0.70
     CG style diagonalization
     ethr =  1.00E-02,  avg # of iterations =  8.6

     total cpu time spent up to now is       92.2 secs

     total energy              =   -3713.87660491 Ry
     Harris-Foulkes estimate   =   -3848.42491748 Ry
     estimated scf accuracy    <     189.92070029 Ry

     iteration #  3     ecut=    40.00 Ry     beta=0.70
     CG style diagonalization
     ethr =  1.00E-02,  avg # of iterations =  6.6

     total cpu time spent up to now is      115.1 secs

     total energy              =   -3765.22098562 Ry
     Harris-Foulkes estimate   =   -3809.07810900 Ry
     estimated scf accuracy    <      93.18744254 Ry

     iteration #  4     ecut=    40.00 Ry     beta=0.70
     CG style diagonalization
     ethr =  1.00E-02,  avg # of iterations =  4.2

     total cpu time spent up to now is      128.4 secs

     total energy              =   -3785.21331344 Ry
     Harris-Foulkes estimate   =   -3787.44765838 Ry
     estimated scf accuracy    <       4.48411207 Ry

     iteration #  5     ecut=    40.00 Ry     beta=0.70
     CG style diagonalization
     ethr =  1.72E-03,  avg # of iterations =  3.8

     total cpu time spent up to now is      140.1 secs

     total energy              =   -3786.25441807 Ry
     Harris-Foulkes estimate   =   -3786.44075681 Ry
     estimated scf accuracy    <       0.30020123 Ry

     iteration #  6     ecut=    40.00 Ry     beta=0.70
     CG style diagonalization
     ethr =  1.15E-04,  avg # of iterations =  4.2

     total cpu time spent up to now is      153.2 secs

     total energy              =   -3786.33240246 Ry
     Harris-Foulkes estimate   =   -3786.39321039 Ry
     estimated scf accuracy    <       0.12108592 Ry

     iteration #  7     ecut=    40.00 Ry     beta=0.70
     CG style diagonalization
     ethr =  4.66E-05,  avg # of iterations =  3.7

     total cpu time spent up to now is      164.0 secs

     total energy              =   -3786.35582876 Ry
     Harris-Foulkes estimate   =   -3786.36001960 Ry
     estimated scf accuracy    <       0.00653302 Ry

     iteration #  8     ecut=    40.00 Ry     beta=0.70
     CG style diagonalization
     c_bands:  1 eigenvalues not converged
     c_bands:  1 eigenvalues not converged
     ethr =  2.51E-06,  avg # of iterations =  4.4

     total cpu time spent up to now is      177.1 secs

     total energy              =   -3786.35786068 Ry
     Harris-Foulkes estimate   =   -3786.35811487 Ry
     estimated scf accuracy    <       0.00044368 Ry

     iteration #  9     ecut=    40.00 Ry     beta=0.70
     CG style diagonalization
     ethr =  1.71E-07,  avg # of iterations =  4.0

     total cpu time spent up to now is      189.0 secs

     End of self-consistent calculation

          k = 0.0000 0.0000 0.0000 (  3675 PWs)   bands (ev):

   -48.0703 -48.0064 -48.0003 -47.9993 -47.8595 -47.8016 -47.7202 -47.7173
   -40.1037 -40.1017 -40.0849 -40.0798 -11.0477 -11.0041 -10.8486 -10.7492
   -10.7341 -10.6656 -10.6342 -10.6310 -10.5964 -10.5361 -10.3869 -10.2992
   -10.2708 -10.2607 -10.1708 -10.1681 -10.1421 -10.0897 -10.0135  -9.9931
    -9.9149  -9.8653  -9.6872  -9.6344  -4.8654  -4.8361  -4.8184  -4.7960
    -4.7511  -4.7326  -4.6868  -4.6733  -4.4487  -4.4423  -4.3894  -4.3691
    30.3079  30.5899  30.7356  30.8233  30.8675  30.9205  31.3496  31.3498
    31.4313  31.8604  31.8938  32.2803  32.5025  32.6243  32.6900  32.9344
    33.3134  33.5755  33.5795  33.8996  34.2237  34.4081  34.4161  34.4481
    34.7025  34.9090  35.0410  35.2312  35.2998  35.6230  35.6569  35.7727
    35.8509  35.9537  35.9756  36.4091  36.4931  36.8446  37.0036  37.5968
    38.1377  38.1819  38.2782  38.3409  38.6694  38.7817  39.2235  39.4231
    40.0110  40.3123  40.3639  40.4914  40.6455  40.6492  40.7622  40.9365
    41.7468  41.8402  42.0483  42.0708  42.5370  42.6221  42.6704  45.8112
    46.9276  47.7319  48.2696  48.3655  50.5617  51.4425  52.1135  54.1242
    55.0503  55.3077  55.5614  55.8155  55.9928  56.2430  56.6114  56.9334
    56.9646  56.9897  57.1905  57.5772  57.7245  57.7760  57.8156  58.3018
    58.6967  58.7745  58.7937  58.9178  58.9414  59.3773  59.5834  59.9883
    60.0142  60.1769  60.9445  61.0860  61.4177  61.9673  62.5073  62.7889
    62.8398  62.8465  62.9273  63.6869

          k = 0.0000 0.0000 0.1317 (  3675 PWs)   bands (ev):

   -48.0537 -48.0179 -48.0138 -47.9937 -47.8532 -47.8322 -47.7256 -47.6898
   -40.1080 -40.0976 -40.0834 -40.0827 -11.0085 -10.9859 -10.8602 -10.8117
   -10.7852 -10.7148 -10.6886 -10.5713 -10.5566 -10.5104 -10.3913 -10.3802
   -10.2687 -10.2259 -10.1701 -10.1478 -10.1205 -10.0464 -10.0144  -9.9420
    -9.9375  -9.8667  -9.6823  -9.6487  -4.8476  -4.8167  -4.8157  -4.7990
    -4.7805  -4.7203  -4.7021  -4.6696  -4.4476  -4.4440  -4.3941  -4.3844
    30.3528  30.3927  30.6315  30.6422  30.8301  31.1302  31.2408  31.3722
    31.8781  31.9126  32.3104  32.6655  32.6769  32.7889  32.9062  32.9095
    33.0620  33.2165  33.6852  33.7679  34.0320  34.0938  34.2459  34.3957
    34.6027  34.7680  34.9815  34.9966  35.0025  35.2851  35.4363  35.5816
    36.0222  36.3456  36.5584  36.5961  36.9430  37.0617  37.3393  37.3582
    37.6935  37.8259  38.2482  38.3800  38.5273  38.9017  39.1795  39.2634
    39.6712  40.1576  40.3105  40.5445  40.5690  40.6067  40.9297  40.9664
    41.6053  41.8695  41.9828  41.9979  42.0478  42.4688  44.6047  45.9825
    47.4981  48.0735  48.1630  48.3342  50.3914  51.4713  51.6894  53.1545
    54.0850  55.3623  55.5950  55.7749  56.2041  56.3589  56.4475  56.6842
    56.7080  57.2257  57.3203  57.5138  57.7978  58.0348  58.0420  58.3158
    58.5988  58.7479  58.9200  58.9614  59.1464  59.5531  59.8904  59.9103
    60.3759  60.3768  60.7714  61.1105  61.1934  62.0495  62.0627  62.3407
    62.3940  62.6838  63.8609  64.0276

          k = 0.0000 0.0000-0.2634 (  3690 PWs)   bands (ev):

   -48.0517 -48.0517 -48.0117 -48.0117 -47.8374 -47.8374 -47.7184 -47.7184
   -40.1100 -40.1100 -40.0860 -40.0860 -10.9336 -10.9336 -10.9115 -10.9115
   -10.8041 -10.8041 -10.6260 -10.6260 -10.4862 -10.4862 -10.4220 -10.4220
   -10.2383 -10.2383 -10.1592 -10.1592 -10.0733 -10.0733  -9.9993  -9.9993
    -9.8979  -9.8979  -9.6725  -9.6725  -4.8277  -4.8277  -4.8040  -4.8040
    -4.7636  -4.7636  -4.6879  -4.6879  -4.4556  -4.4556  -4.3997  -4.3997
    30.3609  30.3609  30.4007  30.4007  31.0358  31.0358  31.7736  31.7736
    31.9605  31.9605  32.3657  32.3657  32.9488  32.9488  33.0476  33.0476
    33.3378  33.3378  33.4358  33.4358  33.7030  33.7030  34.2030  34.2030
    34.4378  34.4378  35.0546  35.0546  35.2813  35.2813  35.4853  35.4853
    35.8994  35.8994  36.6611  36.6611  37.2108  37.2108  37.5252  37.5252
    38.0165  38.0165  38.1054  38.1054  38.3616  38.3616  39.0002  39.0002
    40.1875  40.1875  40.3709  40.3709  40.4609  40.4609  41.0841  41.0841
    41.3781  41.3781  41.9933  41.9933  42.2587  42.2587  46.5968  46.5968
    47.6409  47.6409  48.2519  48.2519  50.5538  50.5538  51.7812  51.7812
    54.9641  54.9641  55.9294  55.9294  56.0858  56.0858  56.2349  56.2349
    57.0649  57.0649  57.1776  57.1776  57.3554  57.3554  58.3752  58.3752
    58.9696  58.9696  59.3862  59.3862  59.6046  59.6046  60.3889  60.3889
    60.4256  60.4256  60.5913  60.5913  61.2486  61.2486  61.8549  61.8550
    62.8186  62.8186  63.8599  63.8600

          k = 0.0000 0.2533 0.0000 (  3664 PWs)   bands (ev):

   -48.0412 -48.0252 -47.9991 -47.9783 -47.8073 -47.8007 -47.7426 -47.7345
   -40.1010 -40.0938 -40.0879 -40.0720 -10.9285 -10.8603 -10.7610 -10.7364
   -10.6950 -10.6339 -10.6186 -10.5857 -10.5690 -10.5687 -10.4094 -10.3425
   -10.3323 -10.1973 -10.1955 -10.1541 -10.0558 -10.0219 -10.0000  -9.9970
    -9.9497  -9.8892  -9.8378  -9.7771  -4.8504  -4.8339  -4.8296  -4.7772
    -4.7562  -4.7517  -4.7167  -4.6912  -4.5081  -4.4885  -4.4289  -4.4111
    30.8050  30.8398  31.2829  31.3006  31.3347  31.4266  31.5379  31.7465
    31.8116  31.8404  32.1406  32.2860  32.7516  32.7811  32.9209  33.0354
    33.2998  33.3268  33.5950  33.7064  33.7324  33.9225  34.3061  34.5079
    34.8639  34.8764  34.9915  35.1006  35.1824  35.4292  35.6367  35.7377
    35.7812  35.8666  36.5014  36.5976  36.8334  36.9869  37.0918  37.7196
    37.7417  38.2531  38.2549  38.5478  38.8131  39.0466  39.0995  39.1746
    39.2201  39.6774  39.8074  40.3057  40.3502  40.4779  40.9358  40.9992
    41.0172  41.4177  41.4375  41.5253  41.5464  42.4989  42.5211  43.0370
    44.1664  44.8736  50.2598  52.2760  52.4287  53.1239  54.4437  54.4908
    54.5276  54.9521  55.1200  55.9841  55.9962  56.0964  56.1203  56.3098
    56.5433  56.7435  56.7500  57.3012  57.7752  57.9338  57.9339  58.5076
    58.7274  58.9015  59.0973  59.2640  59.2652  59.3776  59.9687  60.0949
    60.6933  60.8771  61.0578  61.3340  61.8820  62.0002  62.2769  62.3226
    62.8689  63.2187  63.6689  64.0988

          k = 0.0000 0.2533 0.1317 (  3669 PWs)   bands (ev):

   -48.0410 -48.0197 -48.0062 -47.9915 -47.8130 -47.8048 -47.7414 -47.7383
   -40.1016 -40.0944 -40.0895 -40.0808 -10.9015 -10.8849 -10.8046 -10.7570
   -10.7420 -10.6640 -10.5912 -10.5807 -10.5492 -10.5441 -10.4201 -10.3623
   -10.3005 -10.1869 -10.1683 -10.1577 -10.0691 -10.0540 -10.0246  -9.9805
    -9.9263  -9.8835  -9.8207  -9.7821  -4.8466  -4.8296  -4.8246  -4.7857
    -4.7645  -4.7408  -4.7396  -4.6885  -4.5121  -4.5027  -4.4316  -4.4097
    30.7576  30.7897  30.9294  31.1802  31.2445  31.6145  31.7234  31.7797
    31.9893  32.1521  32.3642  32.5575  32.5787  32.7716  32.8738  33.0932
    33.2308  33.3589  33.6259  33.8810  33.9845  33.9925  34.2787  34.3356
    34.5780  34.6376  34.9045  35.0315  35.2018  35.4632  35.4913  35.8500
    35.8634  35.9199  36.1080  36.7784  36.7925  37.0159  37.1472  37.6207
    37.7560  37.8963  38.0598  38.3290  38.6690  38.8541  39.1403  39.5187
    39.5336  39.6883  39.9026  40.2115  40.2724  40.2907  40.7207  40.9150
    41.0592  41.2474  41.3869  41.5294  41.5906  42.3197  42.4495  42.7541
    45.1474  46.8118  50.8191  51.3036  52.0737  52.4836  53.8537  53.9465
    54.0993  54.7986  55.1710  55.3507  55.8053  56.0182  56.4499  56.6565
    57.0545  57.1771  57.4349  57.7132  57.7809  58.0799  58.1751  58.3484
    58.4483  59.1303  59.2833  59.4150  59.5534  59.8460  59.9668  60.1307
    60.3622  60.7213  60.8061  61.1247  61.5741  62.0246  62.2565  62.4607
    62.7753  62.9620  63.3325  63.5577

          k = 0.0000 0.2533-0.2634 (  3666 PWs)   bands (ev):

   -48.0259 -48.0259 -48.0036 -48.0036 -47.8001 -47.8001 -47.7434 -47.7434
   -40.0996 -40.0996 -40.0823 -40.0823 -10.8703 -10.8703 -10.8259 -10.8259
   -10.7157 -10.7157 -10.5692 -10.5692 -10.5389 -10.5389 -10.3959 -10.3959
   -10.2238 -10.2238 -10.1465 -10.1465 -10.0686 -10.0686 -10.0222 -10.0222
    -9.8930  -9.8930  -9.7909  -9.7909  -4.8243  -4.8243  -4.8061  -4.8061
    -4.7677  -4.7677  -4.7127  -4.7127  -4.5113  -4.5113  -4.4186  -4.4186
    30.6925  30.6925  30.8790  30.8790  31.5228  31.5228  32.0779  32.0779
    32.0838  32.0838  32.5049  32.5049  32.6091  32.6091  33.2799  33.2799
    33.3473  33.3473  33.6975  33.6975  33.9433  33.9433  34.2259  34.2259
    34.3408  34.3408  35.0804  35.0804  35.2915  35.2915  35.5129  35.5129
    36.1098  36.1098  36.4415  36.4415  36.8887  36.8887  37.2070  37.2070
    37.6599  37.6599  37.9680  37.9680  38.7189  38.7189  39.3174  39.3174
    39.8095  39.8095  40.1090  40.1090  40.1210  40.1210  40.8316  40.8316
    41.1165  41.1165  41.5262  41.5262  42.0187  42.0187  42.2346  42.2346
    47.8328  47.8328  50.0308  50.0308  52.2524  52.2524  53.0540  53.0540
    54.5318  54.5318  55.5009  55.5009  55.5457  55.5457  56.5439  56.5439
    57.6063  57.6063  57.6312  57.6312  58.0308  58.0308  58.5562  58.5562
    58.7952  58.7952  59.5395  59.5395  59.6408  59.6409  60.1285  60.1285
    60.8274  60.8274  60.9830  60.9830  61.5511  61.5511  62.2690  62.2690
    62.4728  62.4728  62.8938  62.8938

          k =-0.5000 0.0000 0.0000 (  3722 PWs)   bands (ev):

   -48.0376 -48.0376 -48.0265 -48.0265 -47.8625 -47.8625 -47.7500 -47.7500
   -40.1196 -40.1196 -40.1179 -40.1179 -11.1180 -11.1180 -10.8877 -10.8877
   -10.8636 -10.8636 -10.6694 -10.6694 -10.6164 -10.6164 -10.3731 -10.3731
   -10.2787 -10.2787 -10.1576 -10.1576  -9.9680  -9.9680  -9.9270  -9.9270
    -9.8524  -9.8524  -9.6807  -9.6807  -4.9101  -4.9101  -4.8158  -4.8158
    -4.6683  -4.6683  -4.6545  -4.6545  -4.4255  -4.4255  -4.4024  -4.4024
    30.7645  30.7645  31.2434  31.2434  31.8867  31.8867  32.0357  32.0357
    32.1401  32.1401  32.3492  32.3492  32.5960  32.5960  32.7939  32.7939
    33.0882  33.0882  33.2441  33.2441  33.5417  33.5417  33.6036  33.6036
    34.4434  34.4434  34.8175  34.8175  34.8220  34.8220  35.6043  35.6043
    35.7413  35.7413  36.7991  36.7991  37.7906  37.7906  38.0012  38.0012
    38.1984  38.1984  38.5919  38.5919  38.9421  38.9421  38.9999  38.9999
    39.7934  39.7934  40.1633  40.1633  40.2736  40.2736  41.1712  41.1712
    41.3995  41.3995  41.8881  41.8881  42.3764  42.3764  44.3183  44.3183
    44.5487  44.5487  46.2909  46.2909  50.8422  50.8422  52.8795  52.8795
    53.3114  53.3114  54.2110  54.2110  54.8668  54.8668  56.3199  56.3199
    56.9849  56.9849  57.3974  57.3974  57.9805  57.9805  58.3409  58.3409
    59.1510  59.1510  60.0134  60.0134  60.9354  60.9354  60.9393  60.9394
    61.9638  61.9638  62.0530  62.0531  62.3764  62.3765  62.7286  62.7288
    62.9554  62.9555  64.0588  64.0583

          k =-0.5000 0.0000 0.1317 (  3710 PWs)   bands (ev):

   -48.0370 -48.0370 -48.0146 -48.0146 -47.8533 -47.8533 -47.7463 -47.7463
   -40.1169 -40.1169 -40.1121 -40.1121 -11.0978 -11.0978 -10.9849 -10.9849
   -10.7723 -10.7723 -10.7131 -10.7131 -10.5144 -10.5144 -10.3861 -10.3861
   -10.3521 -10.3521 -10.1097 -10.1097  -9.9837  -9.9837  -9.8970  -9.8970
    -9.8474  -9.8474  -9.6823  -9.6823  -4.9076  -4.9076  -4.7968  -4.7968
    -4.6745  -4.6745  -4.6581  -4.6581  -4.4240  -4.4240  -4.4004  -4.4004
    30.8509  30.8509  31.1411  31.1411  31.7848  31.7848  31.9480  31.9480
    32.2478  32.2478  32.4480  32.4480  32.5896  32.5896  32.9229  32.9229
    33.0691  33.0691  33.3026  33.3026  33.7377  33.7377  33.7691  33.7691
    34.2987  34.2987  34.4712  34.4712  35.2811  35.2811  35.4335  35.4335
    35.8700  35.8700  36.7408  36.7408  36.9639  36.9639  37.6919  37.6919
    37.9948  37.9948  38.6334  38.6334  39.0310  39.0310  39.4731  39.4731
    39.5599  39.5599  40.0541  40.0541  40.7068  40.7068  41.1860  41.1860
    41.6174  41.6174  42.1023  42.1023  42.3227  42.3227  43.3030  43.3030
    45.5469  45.5469  46.8745  46.8745  49.7080  49.7080  53.0037  53.0037
    54.0325  54.0325  54.5122  54.5122  54.9416  54.9416  55.9852  55.9852
    56.8311  56.8311  57.1794  57.1794  57.7964  57.7964  58.5397  58.5397
    59.0641  59.0641  60.1526  60.1527  60.3513  60.3513  60.8441  60.8441
    61.6361  61.6361  61.8714  61.8714  62.3641  62.3642  62.9220  62.9220
    63.9603  63.9605  64.0671  64.0672

          k =-0.5000 0.0000-0.2634 (  3680 PWs)   bands (ev):

   -48.0135 -48.0135 -48.0079 -48.0079 -47.8266 -47.8266 -47.7450 -47.7450
   -40.1063 -40.1063 -40.1029 -40.1029 -11.0825 -11.0825 -10.9945 -10.9945
   -10.8297 -10.8297 -10.6131 -10.6131 -10.4352 -10.4352 -10.4227 -10.4227
   -10.3966 -10.3966 -10.0901 -10.0901  -9.9923  -9.9923  -9.8691  -9.8691
    -9.8223  -9.8223  -9.6710  -9.6710  -4.8964  -4.8964  -4.7786  -4.7786
    -4.6692  -4.6692  -4.6590  -4.6590  -4.4228  -4.4228  -4.3958  -4.3958
    30.8138  30.8138  31.4171  31.4171  31.4902  31.4902  31.8219  31.8219
    32.1149  32.1149  32.7743  32.7743  32.8838  32.8838  32.9884  32.9884
    33.0912  33.0912  33.1380  33.1380  33.7390  33.7390  33.7779  33.7779
    34.5832  34.5832  34.7605  34.7605  34.8119  34.8119  35.2258  35.2258
    36.0961  36.0961  36.5839  36.5839  36.7653  36.7653  37.4295  37.4295
    38.0108  38.0108  38.1258  38.1258  39.1427  39.1427  39.1489  39.1489
    39.6876  39.6876  40.7339  40.7339  40.8563  40.8563  41.0235  41.0235
    41.9475  41.9475  42.2479  42.2479  42.3248  42.3248  42.6154  42.6154
    46.2444  46.2444  48.0037  48.0037  48.1334  48.1334  53.2374  53.2374
    54.0708  54.0708  54.6797  54.6797  54.9892  54.9892  56.4012  56.4012
    57.0232  57.0232  57.0826  57.0826  57.1795  57.1795  58.3443  58.3443
    59.1626  59.1626  59.4967  59.4967  60.4362  60.4362  61.0118  61.0119
    61.5762  61.5762  61.9633  61.9633  62.5692  62.5693  63.2480  63.2482
    63.3956  63.3957  64.0036  64.0039

          k =-0.5000 0.2533 0.0000 (  3686 PWs)   bands (ev):

   -48.0176 -48.0176 -48.0138 -48.0138 -47.8154 -47.8154 -47.7646 -47.7646
   -40.1121 -40.1121 -40.1052 -40.1052 -10.9659 -10.9659 -10.8657 -10.8657
   -10.8178 -10.8178 -10.6599 -10.6599 -10.4441 -10.4441 -10.3659 -10.3659
   -10.3292 -10.3292 -10.1671 -10.1671  -9.9757  -9.9757  -9.9549  -9.9549
    -9.8577  -9.8577  -9.8067  -9.8067  -4.8850  -4.8850  -4.8342  -4.8342
    -4.6665  -4.6665  -4.6578  -4.6578  -4.4506  -4.4506  -4.4440  -4.4440
    31.3470  31.3470  31.6496  31.6496  31.8822  31.8822  32.1067  32.1067
    32.4059  32.4059  32.4226  32.4226  32.9872  32.9872  33.1264  33.1264
    33.4078  33.4078  33.4538  33.4538  33.8489  33.8489  33.9481  33.9481
    34.2762  34.2762  34.3126  34.3126  35.2505  35.2505  35.5449  35.5449
    35.7510  35.7510  36.3476  36.3476  36.7942  36.7942  37.3887  37.3887
    37.9313  37.9313  38.5030  38.5030  38.8615  38.8615  38.9412  38.9412
    39.7104  39.7104  39.9479  39.9479  40.1996  40.1996  40.7775  40.7775
    41.0082  41.0082  41.0840  41.0840  41.6133  41.6133  44.0656  44.0656
    46.1612  46.1612  46.5446  46.5446  48.7419  48.7419  49.5366  49.5366
    55.0507  55.0507  55.9143  55.9143  56.9761  56.9761  57.8012  57.8012
    57.9062  57.9062  58.1128  58.1128  58.4993  58.4993  58.8774  58.8774
    59.0739  59.0739  59.6805  59.6805  60.5363  60.5364  60.9979  60.9979
    61.3047  61.3047  62.0323  62.0323  62.4044  62.4044  63.0494  63.0495
    63.5536  63.5538  63.9144  63.9147

          k =-0.5000 0.2533 0.1317 (  3692 PWs)   bands (ev):

   -48.0227 -48.0227 -48.0163 -48.0163 -47.8190 -47.8190 -47.7644 -47.7644
   -40.1162 -40.1162 -40.1050 -40.1050 -10.9893 -10.9893 -10.8713 -10.8713
   -10.7676 -10.7676 -10.6974 -10.6974 -10.4684 -10.4684 -10.4189 -10.4189
   -10.2570 -10.2570 -10.1170 -10.1170  -9.9893  -9.9893  -9.9711  -9.9711
    -9.8656  -9.8656  -9.8136  -9.8136  -4.8774  -4.8774  -4.8267  -4.8267
    -4.6764  -4.6764  -4.6655  -4.6655  -4.4586  -4.4586  -4.4493  -4.4493
    31.3146  31.3146  31.5905  31.5905  31.9610  31.9610  32.1056  32.1056
    32.3884  32.3884  32.5861  32.5861  32.8308  32.8308  33.2845  33.2845
    33.3714  33.3714  33.5188  33.5188  33.7946  33.7946  33.9860  33.9860
    34.2120  34.2120  34.6388  34.6388  35.2826  35.2826  35.4499  35.4499
    35.9356  35.9356  36.2185  36.2185  36.6430  36.6430  37.2329  37.2329
    37.7555  37.7555  38.1056  38.1056  38.7218  38.7218  39.1358  39.1358
    39.6590  39.6590  39.7135  39.7135  40.0237  40.0237  40.6303  40.6303
    41.1726  41.1726  41.3937  41.3937  42.2024  42.2024  44.3219  44.3219
    45.2499  45.2499  47.3920  47.3920  47.9370  47.9370  51.0993  51.0993
    54.9752  54.9752  55.2760  55.2760  56.7721  56.7721  57.0221  57.0221
    57.5367  57.5367  58.0551  58.0551  58.7407  58.7407  59.0896  59.0896
    59.5518  59.5518  59.9006  59.9006  60.3533  60.3533  60.6151  60.6151
    61.4462  61.4462  61.8852  61.8852  62.3387  62.3389  62.9376  62.9377
    63.4108  63.4109  64.0977  64.0985

          k =-0.5000 0.2533-0.2634 (  3704 PWs)   bands (ev):

   -48.0281 -48.0281 -48.0215 -48.0215 -47.8283 -47.8283 -47.7691 -47.7691
   -40.1222 -40.1222 -40.1075 -40.1075 -11.0166 -11.0166 -10.8113 -10.8113
   -10.8055 -10.8055 -10.7231 -10.7231 -10.5146 -10.5146 -10.4313 -10.4313
   -10.2041 -10.2041 -10.0447 -10.0447 -10.0418 -10.0418  -9.9987  -9.9987
    -9.8546  -9.8546  -9.8195  -9.8195  -4.8796  -4.8796  -4.8209  -4.8209
    -4.6853  -4.6853  -4.6729  -4.6729  -4.4623  -4.4623  -4.4615  -4.4615
    31.1882  31.1882  31.8354  31.8354  31.8871  31.8871  32.1373  32.1373
    32.2505  32.2505  32.6728  32.6728  33.0099  33.0099  33.1297  33.1297
    33.3260  33.3260  33.5399  33.5399  33.8679  33.8679  34.1219  34.1219
    34.3189  34.3189  34.9548  34.9548  34.9692  34.9692  35.4024  35.4024
    35.8171  35.8171  36.4478  36.4478  36.6141  36.6141  37.1513  37.1513
    37.5907  37.5907  37.6110  37.6110  38.7605  38.7605  39.0540  39.0540
    39.4254  39.4254  39.6267  39.6267  39.9586  39.9586  40.5113  40.5113
    41.4066  41.4066  41.5621  41.5621  43.1627  43.1627  43.7202  43.7202
    45.7403  45.7403  46.2606  46.2606  48.7717  48.7717  52.6642  52.6642
    53.9273  53.9273  54.9683  54.9683  56.5017  56.5017  56.6087  56.6087
    56.9023  56.9023  58.2529  58.2529  58.7379  58.7379  59.5015  59.5015
    59.5255  59.5255  60.3164  60.3164  60.3550  60.3550  60.7023  60.7023
    61.2377  61.2377  61.7407  61.7407  62.4177  62.4178  62.7922  62.7923
    63.2768  63.2768  63.8570  63.8571

     the Fermi energy is    57.3583 ev

!    total energy              =   -3786.35799139 Ry
     Harris-Foulkes estimate   =   -3786.35807760 Ry
     estimated scf accuracy    <       0.00009768 Ry

     The total energy is the sum of the following terms:

     one-electron contribution =     119.11797373 Ry
     hartree contribution      =     344.89127033 Ry
     xc contribution           =    -344.08387102 Ry
     ewald contribution        =   -3905.75223469 Ry
     smearing contrib. (-TS)   =      -0.53112974 Ry

     convergence has been achieved in   9 iterations

     Forces acting on atoms (Ry/au):

     atom    1 type  1   force =     0.00000000   -0.07194859   -0.11687771
     atom    2 type  1   force =     0.00000000    0.07194859    0.11687771
     atom    3 type  1   force =     0.00000000   -0.07194859    0.11687771
     atom    4 type  1   force =     0.00000000    0.07194859   -0.11687771
     atom    5 type  1   force =     0.00000000    0.10765176   -0.18572886
     atom    6 type  1   force =     0.00000000   -0.10765176    0.18572886
     atom    7 type  1   force =     0.00000000    0.10765176    0.18572886
     atom    8 type  1   force =     0.00000000   -0.10765176   -0.18572886
     atom    9 type  2   force =     0.00000000   -0.22222878    0.01701445
     atom   10 type  2   force =     0.00000000    0.22222878   -0.01701445
     atom   11 type  2   force =     0.00000000   -0.22222878   -0.01701445
     atom   12 type  2   force =     0.00000000    0.22222878    0.01701445

     Total force =     0.677041     Total SCF correction =     0.000000


     entering subroutine stress ...

          total   stress  (Ry/bohr**3)                   (kbar)     P= 7835.20
   0.05752668   0.00000000   0.00000000       8462.47      0.00      0.00
   0.00000000   0.05021423   0.00000000          0.00   7386.77      0.00
   0.00000000   0.00000000   0.05204684          0.00      0.00   7656.35


     BFGS Geometry Optimization

     number of scf cycles    =   1
     number of bfgs steps    =   0

     enthalpy new            =   -3786.3579913925 Ry

     new trust radius        =       0.5000000000 bohr
     new conv_thr            =       0.0001000000 Ry

     new unit-cell volume =   1082.65373 a.u.^3 (   160.43273 Ang^3 )

CELL_PARAMETERS (alat=  7.01510508)
   1.085136619   0.000000000   0.000000000
   0.000000000   1.413758607   0.000000000
   0.000000000   0.000000000   2.044218686

ATOMIC_POSITIONS (crystal)
Co       0.750000000   0.825939628   0.435216359
Co       0.250000000   0.174060372   0.564783641
Co       0.750000000   0.325939628   0.064783641
Co       0.250000000   0.674060372   0.935216359
Co       0.250000000   0.537776320   0.281519245
Co       0.750000000   0.462223680   0.718480755
Co       0.250000000   0.037776320   0.218480755
Co       0.750000000   0.962223680   0.781519245
Si       0.250000000   0.201428952   0.893675647
Si       0.750000000   0.798571048   0.106324353
Si       0.250000000   0.701428952   0.606324353
Si       0.750000000   0.298571048   0.393675647



     Writing output data file Prototype-La-oP12-Co2Si.save
     NEW-OLD atomic charge density approx. for the potential
     NEW k-points:
        k(    1) = (   0.0000000   0.0000000   0.0000000), wk =   0.0833333
        k(    2) = (   0.0000000   0.0000000   0.1222961), wk =   0.1666667
        k(    3) = (   0.0000000   0.0000000  -0.2445922), wk =   0.0833333
        k(    4) = (   0.0000000   0.2357781   0.0000000), wk =   0.1666667
        k(    5) = (   0.0000000   0.2357781   0.1222961), wk =   0.3333333
        k(    6) = (   0.0000000   0.2357781  -0.2445922), wk =   0.1666667
        k(    7) = (  -0.4607715   0.0000000   0.0000000), wk =   0.0833333
        k(    8) = (  -0.4607715   0.0000000   0.1222961), wk =   0.1666667
        k(    9) = (  -0.4607715   0.0000000  -0.2445922), wk =   0.0833333
        k(   10) = (  -0.4607715   0.2357781   0.0000000), wk =   0.1666667
        k(   11) = (  -0.4607715   0.2357781   0.1222961), wk =   0.3333333
        k(   12) = (  -0.4607715   0.2357781  -0.2445922), wk =   0.1666667

     total cpu time spent up to now is      193.3 secs

     Self-consistent Calculation

     iteration #  1     ecut=    40.00 Ry     beta=0.70
     CG style diagonalization
     c_bands:  2 eigenvalues not converged
     ethr =  1.00E-06,  avg # of iterations = 22.1

     total cpu time spent up to now is      263.5 secs

     total energy              =   -3780.26087741 Ry
     Harris-Foulkes estimate   =   -3814.53611898 Ry
     estimated scf accuracy    <      43.31426382 Ry

     iteration #  2     ecut=    40.00 Ry     beta=0.70
     CG style diagonalization
     ethr =  1.00E-02,  avg # of iterations =  4.0

     total cpu time spent up to now is      275.9 secs

     total energy              =   -3792.79827411 Ry
     Harris-Foulkes estimate   =   -3796.03547875 Ry
     estimated scf accuracy    <       4.70901823 Ry

     iteration #  3     ecut=    40.00 Ry     beta=0.70
     CG style diagonalization
     ethr =  1.81E-03,  avg # of iterations =  3.7

     total cpu time spent up to now is      287.6 secs

     total energy              =   -3793.96700473 Ry
     Harris-Foulkes estimate   =   -3794.15359645 Ry
     estimated scf accuracy    <       0.37288036 Ry

     iteration #  4     ecut=    40.00 Ry     beta=0.70
     CG style diagonalization
     ethr =  1.43E-04,  avg # of iterations =  3.7

     total cpu time spent up to now is      300.3 secs

     total energy              =   -3794.06091972 Ry
     Harris-Foulkes estimate   =   -3794.06776594 Ry
     estimated scf accuracy    <       0.01296572 Ry

     iteration #  5     ecut=    40.00 Ry     beta=0.70
     CG style diagonalization
     ethr =  4.99E-06,  avg # of iterations =  4.2

     total cpu time spent up to now is      315.5 secs

     total energy              =   -3794.06460402 Ry
     Harris-Foulkes estimate   =   -3794.06569925 Ry
     estimated scf accuracy    <       0.00210598 Ry

     iteration #  6     ecut=    40.00 Ry     beta=0.70
     CG style diagonalization
     ethr =  8.10E-07,  avg # of iterations =  3.6

     total cpu time spent up to now is      327.5 secs

     End of self-consistent calculation

          k = 0.0000 0.0000 0.0000 (  3675 PWs)   bands (ev):

   -57.8833 -57.8789 -57.8581 -57.8179 -57.7126 -57.6592 -57.6167 -57.6082
   -49.6455 -49.6272 -49.6210 -49.6034 -20.6312 -20.6039 -20.5811 -20.5113
   -20.4924 -20.4877 -20.4755 -20.4714 -20.4424 -20.4116 -20.3510 -20.3209
   -20.3063 -20.2857 -20.1778 -20.1746 -20.1553 -20.1499 -20.1207 -20.1191
   -20.1060 -20.0452 -19.9740 -19.9437 -14.3149 -14.3071 -14.2940 -14.2933
   -14.2816 -14.2726 -14.2576 -14.2568 -14.0876 -14.0728 -14.0676 -14.0266
    22.4957  22.6967  22.7348  22.7859  22.8145  22.8887  23.0964  23.1502
    23.2559  23.3199  23.4752  23.7879  23.8612  23.9411  24.1588  24.2995
    24.5493  24.5509  24.6004  24.6108  24.8535  25.0438  25.0712  25.1205
    25.3252  25.4240  25.4666  25.7671  25.7686  25.8528  25.9483  26.0158
    26.0707  26.0786  26.1110  26.5730  26.8457  26.9373  27.0226  27.3994
    27.4152  27.5947  27.8586  28.2623  28.4959  28.8334  28.9219  29.1880
    29.2260  29.3578  29.7187  29.8888  29.9269  29.9368  29.9774  30.1056
    30.3704  30.7390  30.9003  30.9893  31.0018  31.0893  31.5109  34.3869
    35.7542  35.9668  36.5451  36.8855  38.4852  39.0207  40.1783  41.8255
    42.6473  42.9610  43.1051  43.1548  43.2004  43.9592  44.7695  45.0130
    45.0492  45.3151  45.5535  45.5808  45.7468  46.6935  46.9438  47.0005
    47.5530  47.8019  47.8577  47.9172  47.9941  48.1435  48.1681  48.7773
    48.9099  49.2005  49.3791  49.9791  50.4596  50.5533  51.3052  51.7786
    51.9598  52.1890  52.2143  52.2741

          k = 0.0000 0.0000 0.1223 (  3675 PWs)   bands (ev):

   -57.9042 -57.8669 -57.8385 -57.8343 -57.7193 -57.7021 -57.6242 -57.5504
   -49.6532 -49.6239 -49.6204 -49.6010 -20.6189 -20.5859 -20.5828 -20.5332
   -20.5290 -20.5098 -20.4816 -20.4329 -20.4316 -20.4207 -20.3558 -20.3478
   -20.2977 -20.2967 -20.1800 -20.1514 -20.1430 -20.1267 -20.1225 -20.1085
   -20.0913 -20.0643 -19.9748 -19.9526 -14.3122 -14.2998 -14.2994 -14.2861
   -14.2784 -14.2774 -14.2659 -14.2437 -14.0892 -14.0877 -14.0574 -14.0374
    22.5129  22.5571  22.6525  22.6645  22.8070  22.9804  23.0836  23.1159
    23.4892  23.5577  23.6690  23.9987  24.0056  24.0237  24.1484  24.1623
    24.4140  24.5170  24.5829  24.7201  24.8912  24.9442  24.9818  25.0382
    25.1713  25.3334  25.4606  25.4898  25.6228  25.7124  25.8118  25.8983
    26.0948  26.3511  26.4815  26.8536  26.9175  27.0659  27.0723  27.1947
    27.3509  27.3968  27.6400  28.2690  28.3429  28.7594  28.9569  29.1751
    29.2295  29.2702  29.6482  29.8419  29.8963  29.9357  30.0643  30.0780
    30.3519  30.6618  30.7710  30.8156  30.8464  30.9622  33.1708  34.5759
    35.7359  36.3384  36.4230  36.7480  38.3609  39.2344  39.4055  40.6055
    42.1363  43.0302  43.3958  43.8937  44.4779  44.5545  44.6532  44.7673
    44.9587  45.0079  45.3444  45.5163  45.5851  46.4806  46.6994  47.1218
    47.4265  47.6088  47.8099  48.0192  48.0831  48.2675  48.4460  48.6709
    48.7881  49.4782  49.6317  49.6939  50.1314  50.7870  51.1222  51.4170
    51.6743  51.8804  52.2018  52.4183

          k = 0.0000 0.0000-0.2446 (  3690 PWs)   bands (ev):

   -57.9080 -57.9080 -57.8529 -57.8529 -57.7114 -57.7114 -57.6053 -57.6053
   -49.6516 -49.6516 -49.6189 -49.6189 -20.6023 -20.6023 -20.5503 -20.5503
   -20.5491 -20.5491 -20.4680 -20.4680 -20.4065 -20.4065 -20.3742 -20.3742
   -20.2947 -20.2947 -20.1684 -20.1684 -20.1311 -20.1311 -20.1212 -20.1212
   -20.0976 -20.0976 -19.9727 -19.9727 -14.3129 -14.3129 -14.2938 -14.2938
   -14.2846 -14.2846 -14.2484 -14.2484 -14.1042 -14.1042 -14.0561 -14.0561
    22.5058  22.5058  22.5210  22.5210  22.9203  22.9203  23.3821  23.3821
    23.5259  23.5259  23.8907  23.8907  24.0465  24.0465  24.2427  24.2427
    24.4942  24.4942  24.6032  24.6032  24.7291  24.7291  24.9374  24.9374
    25.2637  25.2637  25.5034  25.5034  25.6534  25.6534  25.7885  25.7885
    26.1061  26.1061  26.7727  26.7727  26.8215  26.8215  27.2368  27.2368
    27.4842  27.4842  27.8567  27.8567  28.2790  28.2790  29.0584  29.0584
    29.5928  29.5928  29.6039  29.6039  29.8465  29.8465  30.1319  30.1319
    30.3267  30.3267  30.7887  30.7887  30.8609  30.8609  35.1392  35.1392
    35.7064  35.7064  36.2481  36.2481  38.4970  38.4970  39.7644  39.7644
    42.6049  42.6049  43.9945  43.9945  44.4198  44.4198  44.6267  44.6267
    44.9337  44.9337  45.5214  45.5214  46.2931  46.2931  46.4727  46.4727
    47.5531  47.5531  48.0053  48.0053  48.1170  48.1170  48.8404  48.8404
    48.9148  48.9148  50.0129  50.0129  50.4381  50.4381  50.5712  50.5712
    51.9979  51.9979  52.0704  52.0704

          k = 0.0000 0.2358 0.0000 (  3664 PWs)   bands (ev):

   -57.8780 -57.8453 -57.8430 -57.8375 -57.6823 -57.6372 -57.6109 -57.6058
   -49.6424 -49.6413 -49.6000 -49.5740 -20.5831 -20.5592 -20.5395 -20.5301
   -20.4962 -20.4923 -20.4389 -20.4352 -20.4335 -20.4056 -20.3544 -20.3265
   -20.3181 -20.2358 -20.1740 -20.1703 -20.1513 -20.1289 -20.1283 -20.1012
   -20.0903 -20.0645 -20.0352 -20.0216 -14.3110 -14.3074 -14.2946 -14.2929
   -14.2834 -14.2765 -14.2492 -14.2490 -14.0955 -14.0919 -14.0501 -14.0448
    22.7984  22.8301  23.1102  23.1426  23.1483  23.1707  23.2857  23.3809
    23.4041  23.5042  23.6130  23.7507  24.0575  24.1151  24.1515  24.3130
    24.3283  24.4558  24.5783  24.7078  24.7406  24.8617  25.1040  25.1200
    25.4150  25.4343  25.4498  25.5999  25.6076  25.7722  25.9636  25.9903
    26.0799  26.2831  26.5000  26.5657  26.6641  26.7996  26.9137  27.4785
    27.6442  27.7290  27.8401  28.0017  28.5184  28.7327  28.7995  28.8986
    28.9375  29.3656  29.4193  29.7252  29.8128  29.8778  30.1630  30.2169
    30.2240  30.3440  30.4989  30.5984  30.7950  30.9650  30.9788  31.8281
    33.1958  33.7197  38.2689  40.1909  40.5427  41.3468  42.2095  42.3624
    42.4281  42.5245  42.6057  43.2770  43.3491  43.4026  43.5601  43.8316
    43.9716  44.7300  44.7936  45.1720  45.3715  45.8208  47.4238  47.7608
    48.0021  48.1296  48.7418  48.7729  48.8313  48.9668  49.3314  49.4812
    49.6336  49.7103  50.0932  50.2700  50.3567  50.4944  50.8186  50.9652
    51.3134  51.5523  51.5866  52.3726

          k = 0.0000 0.2358 0.1223 (  3669 PWs)   bands (ev):

   -57.8931 -57.8712 -57.8303 -57.8199 -57.6893 -57.6762 -57.6088 -57.6005
   -49.6365 -49.6342 -49.6143 -49.5945 -20.5925 -20.5623 -20.5531 -20.5363
   -20.5110 -20.4998 -20.4385 -20.4379 -20.4199 -20.3985 -20.3555 -20.3344
   -20.3163 -20.2376 -20.1677 -20.1610 -20.1572 -20.1394 -20.1269 -20.1093
   -20.0841 -20.0681 -20.0331 -20.0231 -14.3155 -14.3055 -14.2957 -14.2929
   -14.2866 -14.2796 -14.2543 -14.2394 -14.1028 -14.0965 -14.0612 -14.0435
    22.7611  22.7926  22.8480  23.0129  23.0775  23.3076  23.3801  23.4399
    23.6143  23.7148  23.7799  23.8196  23.9615  24.0661  24.1346  24.3526
    24.3675  24.5713  24.6265  24.7412  24.8155  24.9299  25.1184  25.1385
    25.1739  25.2961  25.3902  25.4651  25.6269  25.6951  25.8496  26.0531
    26.1220  26.2391  26.4834  26.6598  26.7622  26.8837  26.9400  27.3965
    27.5276  27.5883  27.7124  27.9821  28.3834  28.6368  28.9057  29.0410
    29.0753  29.2502  29.4289  29.6254  29.6709  29.7498  30.0537  30.1838
    30.2651  30.3089  30.4258  30.4514  30.7502  30.8347  30.9546  31.9133
    33.7102  35.4044  38.7323  39.0259  40.1414  40.3776  41.6068  41.6081
    42.0699  42.5027  42.5486  43.0247  43.2020  43.8055  44.2221  44.5161
    44.8853  45.2342  45.4493  45.6353  45.8714  46.0468  46.6665  47.5740
    47.7018  48.1848  48.3928  48.5580  48.6178  48.6435  49.1076  49.3940
    49.4286  49.9035  50.1555  50.2238  50.4010  50.4012  50.8142  51.0739
    51.1620  51.2036  51.3656  52.1488

          k = 0.0000 0.2358-0.2446 (  3666 PWs)   bands (ev):

   -57.8791 -57.8791 -57.8161 -57.8161 -57.6727 -57.6727 -57.6163 -57.6163
   -49.6282 -49.6282 -49.6080 -49.6080 -20.5808 -20.5808 -20.5300 -20.5300
   -20.5153 -20.5153 -20.4371 -20.4371 -20.4082 -20.4082 -20.3352 -20.3352
   -20.2788 -20.2788 -20.1542 -20.1542 -20.1461 -20.1461 -20.1287 -20.1287
   -20.0790 -20.0790 -20.0236 -20.0236 -14.3122 -14.3122 -14.2840 -14.2840
   -14.2824 -14.2824 -14.2522 -14.2522 -14.0980 -14.0980 -14.0529 -14.0529
    22.7042  22.7042  22.8296  22.8296  23.2336  23.2336  23.5867  23.5867
    23.6518  23.6518  23.9238  23.9238  23.9784  23.9784  24.4332  24.4332
    24.4839  24.4839  24.7270  24.7270  24.8102  24.8102  24.9517  24.9517
    25.1459  25.1459  25.5010  25.5010  25.5799  25.5799  25.9444  25.9444
    26.4107  26.4107  26.4274  26.4274  26.8245  26.8245  27.2191  27.2191
    27.4528  27.4528  27.6196  27.6196  28.4456  28.4456  29.0619  29.0619
    29.3130  29.3130  29.3564  29.3564  29.5422  29.5422  30.1235  30.1235
    30.3172  30.3172  30.4848  30.4848  30.8027  30.8027  31.1774  31.1774
    36.0968  36.0968  38.0196  38.0196  39.9500  39.9500  40.8685  40.8685
    42.3605  42.3605  43.0363  43.0363  43.1351  43.1351  44.9010  44.9010
    45.7048  45.7048  46.1667  46.1667  46.2404  46.2404  46.8762  46.8762
    47.5567  47.5567  47.6126  47.6126  48.9644  48.9644  49.1165  49.1165
    49.6731  49.6731  50.2082  50.2082  50.2323  50.2323  50.9874  50.9874
    51.1451  51.1451  51.3734  51.3734

          k =-0.4608 0.0000 0.0000 (  3722 PWs)   bands (ev):

   -57.9179 -57.9179 -57.8968 -57.8968 -57.7225 -57.7225 -57.6862 -57.6862
   -49.6664 -49.6664 -49.6633 -49.6633 -20.6495 -20.6495 -20.5889 -20.5889
   -20.5798 -20.5798 -20.4713 -20.4713 -20.4513 -20.4513 -20.3560 -20.3560
   -20.3066 -20.3066 -20.1929 -20.1929 -20.1353 -20.1353 -20.1144 -20.1144
   -20.0713 -20.0713 -19.9695 -19.9695 -14.3422 -14.3422 -14.3131 -14.3131
   -14.2884 -14.2884 -14.2666 -14.2666 -14.0802 -14.0802 -14.0695 -14.0695
    22.6868  22.6868  23.0711  23.0711  23.5655  23.5655  23.5666  23.5666
    23.6009  23.6009  23.8203  23.8203  24.0855  24.0855  24.1849  24.1849
    24.2038  24.2038  24.3118  24.3118  24.5348  24.5348  24.5729  24.5729
    25.1258  25.1258  25.3839  25.3839  25.4096  25.4096  25.8910  25.8910
    25.9579  25.9579  26.6760  26.6760  27.4458  27.4458  27.5040  27.5040
    28.0592  28.0592  28.4251  28.4251  28.8325  28.8325  29.0005  29.0005
    29.4292  29.4292  29.6371  29.6371  29.6436  29.6436  30.2838  30.2838
    30.3612  30.3612  30.6438  30.6438  31.0709  31.0709  33.1759  33.1759
    33.3066  33.3066  35.3412  35.3412  38.6448  38.6448  40.8764  40.8764
    40.8782  40.8782  41.6118  41.6118  42.0192  42.0192  44.1978  44.1978
    44.8749  44.8749  46.8114  46.8114  47.7035  47.7035  47.7792  47.7792
    47.7946  47.7946  48.8605  48.8605  48.8809  48.8809  50.0425  50.0425
    50.2032  50.2032  50.4852  50.4852  51.3644  51.3644  51.6831  51.6831
    51.9224  51.9224  52.6644  52.6644

          k =-0.4608 0.0000 0.1223 (  3710 PWs)   bands (ev):

   -57.9134 -57.9134 -57.8734 -57.8734 -57.7202 -57.7202 -57.6638 -57.6638
   -49.6571 -49.6571 -49.6531 -49.6531 -20.6474 -20.6474 -20.6025 -20.6025
   -20.5272 -20.5272 -20.5048 -20.5048 -20.4161 -20.4161 -20.3624 -20.3624
   -20.3141 -20.3141 -20.1814 -20.1814 -20.1390 -20.1390 -20.1027 -20.1027
   -20.0643 -20.0643 -19.9728 -19.9728 -14.3358 -14.3358 -14.3022 -14.3022
   -14.2816 -14.2816 -14.2665 -14.2665 -14.0787 -14.0787 -14.0679 -14.0679
    22.7312  22.7312  23.0281  23.0281  23.4060  23.4060  23.5365  23.5365
    23.7211  23.7211  23.9191  23.9191  24.0063  24.0063  24.1375  24.1375
    24.2981  24.2981  24.3502  24.3502  24.6686  24.6686  24.7834  24.7834
    25.0215  25.0215  25.1727  25.1727  25.6908  25.6908  25.7479  25.7479
    26.0414  26.0414  26.6582  26.6582  27.1753  27.1753  27.4375  27.4375
    27.5991  27.5991  28.3789  28.3789  29.0052  29.0052  29.1587  29.1587
    29.3814  29.3814  29.5470  29.5470  29.9156  29.9156  30.2060  30.2060
    30.4929  30.4929  30.8493  30.8493  31.0276  31.0276  32.1287  32.1287
    34.5342  34.5342  35.7251  35.7251  37.9231  37.9231  40.5842  40.5842
    40.9691  40.9691  41.9773  41.9773  42.2826  42.2826  43.2392  43.2392
    46.1148  46.1148  46.7081  46.7081  47.1413  47.1413  47.3623  47.3623
    47.9632  47.9632  48.3525  48.3525  49.3272  49.3272  49.8860  49.8860
    50.3410  50.3410  50.6922  50.6922  51.0999  51.0999  51.8142  51.8142
    52.4853  52.4853  52.7394  52.7394

          k =-0.4608 0.0000-0.2446 (  3680 PWs)   bands (ev):

   -57.8721 -57.8721 -57.8547 -57.8547 -57.6724 -57.6724 -57.6488 -57.6488
   -49.6393 -49.6393 -49.6252 -49.6252 -20.6395 -20.6395 -20.5903 -20.5903
   -20.5250 -20.5250 -20.4709 -20.4709 -20.3868 -20.3868 -20.3759 -20.3759
   -20.3187 -20.3187 -20.1561 -20.1561 -20.1535 -20.1535 -20.0869 -20.0869
   -20.0374 -20.0374 -19.9610 -19.9610 -14.3196 -14.3196 -14.2861 -14.2861
   -14.2745 -14.2745 -14.2550 -14.2550 -14.0685 -14.0685 -14.0649 -14.0649
    22.7311  22.7311  23.1601  23.1601  23.2930  23.2930  23.3649  23.3649
    23.6728  23.6728  24.0250  24.0250  24.1911  24.1911  24.2430  24.2430
    24.3170  24.3170  24.3450  24.3450  24.6227  24.6227  24.7854  24.7854
    25.1439  25.1439  25.3686  25.3686  25.4179  25.4179  25.6253  25.6253
    26.3858  26.3858  26.5818  26.5818  26.8688  26.8688  27.2911  27.2911
    27.4312  27.4312  28.1997  28.1997  29.0429  29.0429  29.1620  29.1620
    29.3632  29.3632  29.8138  29.8138  30.0552  30.0552  30.1318  30.1318
    30.6782  30.6782  31.0206  31.0206  31.0648  31.0648  31.4808  31.4808
    35.2987  35.2987  36.5388  36.5388  36.8558  36.8558  40.5430  40.5430
    40.8729  40.8729  41.1053  41.1053  43.0906  43.0906  44.2198  44.2198
    44.8307  44.8307  46.5102  46.5102  47.1146  47.1146  47.7562  47.7562
    48.0056  48.0056  48.9853  48.9853  49.1046  49.1046  49.4830  49.4830
    50.0298  50.0298  50.8028  50.8028  51.3394  51.3394  52.0535  52.0535
    52.4729  52.4729  52.5496  52.5497

          k =-0.4608 0.2358 0.0000 (  3686 PWs)   bands (ev):

   -57.8783 -57.8783 -57.8695 -57.8695 -57.6729 -57.6729 -57.6682 -57.6682
   -49.6460 -49.6460 -49.6338 -49.6338 -20.5994 -20.5994 -20.5701 -20.5701
   -20.5435 -20.5435 -20.4829 -20.4829 -20.3717 -20.3717 -20.3336 -20.3336
   -20.2834 -20.2834 -20.1976 -20.1976 -20.1508 -20.1508 -20.1122 -20.1122
   -20.0511 -20.0511 -20.0276 -20.0276 -14.3326 -14.3326 -14.3131 -14.3131
   -14.2676 -14.2676 -14.2634 -14.2634 -14.0704 -14.0704 -14.0639 -14.0639
    23.0668  23.0668  23.3323  23.3323  23.5444  23.5444  23.5804  23.5804
    23.8864  23.8864  23.8873  23.8873  24.2437  24.2437  24.3104  24.3104
    24.4758  24.4758  24.5872  24.5872  24.7374  24.7374  24.7885  24.7885
    25.0496  25.0496  25.0912  25.0912  25.6104  25.6104  25.8092  25.8092
    25.9725  25.9725  26.3482  26.3482  26.8469  26.8469  27.3113  27.3113
    27.6972  27.6972  28.5642  28.5642  28.7347  28.7347  28.8200  28.8200
    29.1995  29.1995  29.4628  29.4628  29.6743  29.6743  30.0758  30.0758
    30.2024  30.2024  30.2648  30.2648  30.7852  30.7852  32.9214  32.9214
    34.5441  34.5441  34.8138  34.8138  36.8803  36.8803  37.3800  37.3800
    43.2293  43.2293  44.2080  44.2080  44.7919  44.7919  45.5448  45.5448
    45.8944  45.8944  46.5266  46.5266  46.7245  46.7245  47.8637  47.8637
    48.1114  48.1114  48.5809  48.5809  48.8575  48.8575  49.5197  49.5197
    50.2650  50.2650  50.3212  50.3212  51.2518  51.2518  51.2780  51.2780
    52.2281  52.2281  52.2566  52.2566

          k =-0.4608 0.2358 0.1223 (  3692 PWs)   bands (ev):

   -57.8824 -57.8824 -57.8747 -57.8747 -57.6855 -57.6855 -57.6667 -57.6667
   -49.6577 -49.6577 -49.6300 -49.6300 -20.6097 -20.6097 -20.5575 -20.5575
   -20.5327 -20.5327 -20.4933 -20.4933 -20.3765 -20.3765 -20.3561 -20.3561
   -20.2736 -20.2736 -20.1852 -20.1852 -20.1427 -20.1427 -20.1242 -20.1242
   -20.0607 -20.0607 -20.0345 -20.0345 -14.3232 -14.3232 -14.3125 -14.3125
   -14.2751 -14.2751 -14.2659 -14.2659 -14.0838 -14.0838 -14.0641 -14.0641
    23.0509  23.0509  23.2987  23.2987  23.5475  23.5475  23.6608  23.6608
    23.8380  23.8380  23.9603  23.9603  24.1244  24.1244  24.3947  24.3947
    24.4608  24.4608  24.5900  24.5900  24.7267  24.7267  24.9385  24.9385
    24.9748  24.9748  25.2539  25.2539  25.6675  25.6675  25.7367  25.7367
    26.0638  26.0638  26.2895  26.2895  26.7475  26.7475  27.1878  27.1878
    27.6421  27.6421  28.1241  28.1241  28.6894  28.6894  29.0122  29.0122
    29.2587  29.2587  29.3618  29.3618  29.6048  29.6048  30.0109  30.0109
    30.2283  30.2283  30.4044  30.4044  31.1876  31.1876  32.9172  32.9172
    33.7889  33.7889  35.6106  35.6106  36.2043  36.2043  38.9150  38.9150
    42.5183  42.5183  43.1991  43.1991  44.1318  44.1318  44.9383  44.9383
    46.2106  46.2106  47.1478  47.1478  47.6761  47.6761  47.9603  47.9603
    48.5162  48.5162  48.6547  48.6547  49.1004  49.1004  49.6799  49.6799
    50.0478  50.0478  50.3399  50.3399  50.9263  50.9263  51.2535  51.2535
    51.6690  51.6690  52.2145  52.2145

          k =-0.4608 0.2358-0.2446 (  3704 PWs)   bands (ev):

   -57.9010 -57.9010 -57.8817 -57.8817 -57.6983 -57.6983 -57.6774 -57.6774
   -49.6710 -49.6710 -49.6354 -49.6354 -20.6205 -20.6205 -20.5364 -20.5364
   -20.5356 -20.5356 -20.5118 -20.5118 -20.3972 -20.3972 -20.3772 -20.3772
   -20.2642 -20.2642 -20.1613 -20.1613 -20.1597 -20.1597 -20.1372 -20.1372
   -20.0575 -20.0575 -20.0396 -20.0396 -14.3272 -14.3272 -14.3123 -14.3123
   -14.2805 -14.2805 -14.2692 -14.2692 -14.0869 -14.0869 -14.0774 -14.0774
    22.9870  22.9870  23.4594  23.4594  23.5033  23.5033  23.6200  23.6200
    23.7485  23.7485  24.0314  24.0314  24.2450  24.2450  24.3178  24.3178
    24.4295  24.4295  24.5708  24.5708  24.7595  24.7595  24.9636  24.9636
    25.1211  25.1211  25.4441  25.4441  25.4693  25.4693  25.7402  25.7402
    26.1015  26.1015  26.4389  26.4389  26.5440  26.5440  27.0800  27.0800
    27.6047  27.6047  27.7778  27.7778  28.7887  28.7887  28.9589  28.9589
    29.2307  29.2307  29.2642  29.2642  29.5932  29.5932  29.9247  29.9247
    30.3572  30.3572  30.4715  30.4715  31.8433  31.8433  32.3226  32.3226
    34.2633  34.2633  34.6054  34.6054  37.1775  37.1775  40.2014  40.2014
    41.6285  41.6285  41.9710  41.9710  44.0608  44.0608  44.2314  44.2314
    46.4100  46.4100  47.7287  47.7287  48.2219  48.2219  48.4347  48.4347
    48.6615  48.6615  48.8083  48.8083  49.3214  49.3214  49.5294  49.5294
    50.0952  50.0952  50.1836  50.1836  50.5967  50.5967  51.0942  51.0942
    51.3742  51.3742  52.1007  52.1007

     the Fermi energy is    45.7031 ev

!    total energy              =   -3794.06502199 Ry
     Harris-Foulkes estimate   =   -3794.06508695 Ry
     estimated scf accuracy    <       0.00008509 Ry

     The total energy is the sum of the following terms:

     one-electron contribution =    -279.10544059 Ry
     hartree contribution      =     443.03612110 Ry
     xc contribution           =    -336.58260144 Ry
     ewald contribution        =   -3621.05533252 Ry
     smearing contrib. (-TS)   =      -0.35776854 Ry

     convergence has been achieved in   6 iterations

     Forces acting on atoms (Ry/au):

     atom    1 type  1   force =     0.00000000   -0.02643647   -0.03580558
     atom    2 type  1   force =     0.00000000    0.02643647    0.03580558
     atom    3 type  1   force =     0.00000000   -0.02643647    0.03580558
     atom    4 type  1   force =     0.00000000    0.02643647   -0.03580558
     atom    5 type  1   force =     0.00000000    0.05525583   -0.11609804
     atom    6 type  1   force =     0.00000000   -0.05525583    0.11609804
     atom    7 type  1   force =     0.00000000    0.05525583    0.11609804
     atom    8 type  1   force =     0.00000000   -0.05525583   -0.11609804
     atom    9 type  2   force =     0.00000000   -0.09119601    0.03172906
     atom   10 type  2   force =     0.00000000    0.09119601   -0.03172906
     atom   11 type  2   force =     0.00000000   -0.09119601   -0.03172906
     atom   12 type  2   force =     0.00000000    0.09119601    0.03172906

     Total force =     0.333684     Total SCF correction =     0.000000


     entering subroutine stress ...

          total   stress  (Ry/bohr**3)                   (kbar)     P= 2881.33
   0.02202047   0.00000000   0.00000000       3239.32      0.00      0.00
   0.00000000   0.01791317   0.00000000          0.00   2635.12      0.00
   0.00000000   0.00000000   0.01882704          0.00      0.00   2769.55


     number of scf cycles    =   2
     number of bfgs steps    =   1

     enthalpy old            =   -3786.3579913925 Ry
     enthalpy new            =   -3794.0650219902 Ry

     CASE: enthalpy_new < enthalpy_old

     small trust_radius: resetting bfgs history

     new trust radius        =       3.6227757091 bohr
     new conv_thr            =       0.0001000000 Ry

     new unit-cell volume =   3574.36636 a.u.^3 (   529.66644 Ang^3 )

CELL_PARAMETERS (alat=  7.01510508)
   1.682517181   0.000000000   0.000000000
   0.000000000   2.046881180   0.000000000
   0.000000000   0.000000000   3.006383518

ATOMIC_POSITIONS (crystal)
Co       0.750000000   0.823274034   0.432719527
Co       0.250000000   0.176725966   0.567280473
Co       0.750000000   0.323274034   0.067280473
Co       0.250000000   0.676725966   0.932719527
Co       0.250000000   0.543347775   0.273423378
Co       0.750000000   0.456652225   0.726576622
Co       0.250000000   0.043347775   0.226576622
Co       0.750000000   0.956652225   0.773423378
Si       0.250000000   0.192233642   0.895888210
Si       0.750000000   0.807766358   0.104111790
Si       0.250000000   0.692233642   0.604111790
Si       0.750000000   0.307766358   0.395888210



     Writing output data file Prototype-La-oP12-Co2Si.save
     NEW-OLD atomic charge density approx. for the potential
     NEW k-points:
        k(    1) = (   0.0000000   0.0000000   0.0000000), wk =   0.0833333
        k(    2) = (   0.0000000   0.0000000   0.0831564), wk =   0.1666667
        k(    3) = (   0.0000000   0.0000000  -0.1663128), wk =   0.0833333
        k(    4) = (   0.0000000   0.1628494   0.0000000), wk =   0.1666667
        k(    5) = (   0.0000000   0.1628494   0.0831564), wk =   0.3333333
        k(    6) = (   0.0000000   0.1628494  -0.1663128), wk =   0.1666667
        k(    7) = (  -0.2971738   0.0000000   0.0000000), wk =   0.0833333
        k(    8) = (  -0.2971738   0.0000000   0.0831564), wk =   0.1666667
        k(    9) = (  -0.2971738   0.0000000  -0.1663128), wk =   0.0833333
        k(   10) = (  -0.2971738   0.1628494   0.0000000), wk =   0.1666667
        k(   11) = (  -0.2971738   0.1628494   0.0831564), wk =   0.3333333
        k(   12) = (  -0.2971738   0.1628494  -0.1663128), wk =   0.1666667

     total cpu time spent up to now is      332.7 secs

     Self-consistent Calculation

     iteration #  1     ecut=    40.00 Ry     beta=0.70
     CG style diagonalization
     c_bands:  4 eigenvalues not converged
     c_bands:  4 eigenvalues not converged
     c_bands:  2 eigenvalues not converged
     ethr =  1.00E-06,  avg # of iterations = 34.1

     total cpu time spent up to now is      441.5 secs

     total energy              =   -3638.13003226 Ry
     Harris-Foulkes estimate   =   -4109.70635612 Ry
     estimated scf accuracy    <     590.84161069 Ry

     iteration #  2     ecut=    40.00 Ry     beta=0.70
     CG style diagonalization
     ethr =  1.00E-02,  avg # of iterations =  5.2

     total cpu time spent up to now is      458.6 secs

     total energy              =   -3743.49212131 Ry
     Harris-Foulkes estimate   =   -3752.66918496 Ry
     estimated scf accuracy    <      11.88504837 Ry

     iteration #  3     ecut=    40.00 Ry     beta=0.70
     CG style diagonalization
     ethr =  4.57E-03,  avg # of iterations =  3.7

     total cpu time spent up to now is      471.1 secs

     total energy              =   -3746.50619476 Ry
     Harris-Foulkes estimate   =   -3750.47999431 Ry
     estimated scf accuracy    <       7.74965012 Ry

     iteration #  4     ecut=    40.00 Ry     beta=0.70
     CG style diagonalization
     ethr =  2.98E-03,  avg # of iterations =  3.3

     total cpu time spent up to now is      482.1 secs

     total energy              =   -3748.20540162 Ry
     Harris-Foulkes estimate   =   -3748.36322935 Ry
     estimated scf accuracy    <       0.29987972 Ry

     iteration #  5     ecut=    40.00 Ry     beta=0.70
     CG style diagonalization
     ethr =  1.15E-04,  avg # of iterations =  3.7

     total cpu time spent up to now is      494.3 secs

     total energy              =   -3748.28423679 Ry
     Harris-Foulkes estimate   =   -3748.32031806 Ry
     estimated scf accuracy    <       0.06787127 Ry

     iteration #  6     ecut=    40.00 Ry     beta=0.70
     CG style diagonalization
     ethr =  2.61E-05,  avg # of iterations =  3.6

     total cpu time spent up to now is      507.2 secs

     total energy              =   -3748.29597190 Ry
     Harris-Foulkes estimate   =   -3748.30271757 Ry
     estimated scf accuracy    <       0.01321877 Ry

     iteration #  7     ecut=    40.00 Ry     beta=0.70
     CG style diagonalization
     ethr =  5.08E-06,  avg # of iterations =  3.6

     total cpu time spent up to now is      520.9 secs

     total energy              =   -3748.29898680 Ry
     Harris-Foulkes estimate   =   -3748.29962596 Ry
     estimated scf accuracy    <       0.00133922 Ry

     iteration #  8     ecut=    40.00 Ry     beta=0.70
     CG style diagonalization
     ethr =  5.15E-07,  avg # of iterations =  3.8

     total cpu time spent up to now is      534.8 secs

     End of self-consistent calculation

          k = 0.0000 0.0000 0.0000 (  3675 PWs)   bands (ev):

   -88.0835 -88.0463 -88.0182 -87.9747 -87.9465 -87.8813 -87.8604 -87.8263
   -76.9597 -76.9469 -76.9301 -76.8855 -58.1633 -58.1241 -58.1184 -58.1168
   -58.0607 -58.0371 -58.0298 -58.0271 -57.9945 -57.9820 -57.9745 -57.9583
   -57.9363 -57.9267 -57.9164 -57.8376 -57.5643 -57.5001 -57.4752 -57.4480
   -57.3180 -57.2990 -57.2989 -57.2498 -48.5906 -48.5453 -48.5450 -48.5345
   -48.5212 -48.4895 -48.4891 -48.4763 -48.1781 -48.1437 -48.1070 -48.0900
    -5.5232  -5.3608  -5.3342  -5.2754  -5.2453  -5.2170  -5.2088  -5.1845
    -5.1743  -5.0725  -5.0308  -4.9461  -4.9430  -4.8857  -4.8637  -4.7887
    -4.7517  -4.7499  -4.6435  -4.6192  -4.5738  -4.4992  -4.4779  -4.4252
    -4.3306  -4.3160  -4.3074  -4.2740  -4.2007  -4.2006  -4.1507  -4.1278
    -4.1034  -4.0619  -4.0495  -4.0460  -3.8656  -3.8489  -3.7509  -3.7424
    -0.7970  -0.7173  -0.7021  -0.6710  -0.6361  -0.6231  -0.5690  -0.5590
    -0.2183  -0.1597  -0.1428  -0.1384  -0.1071  -0.0906  -0.0619   0.0691
     0.0946   0.1875   0.2431   0.2466   2.6165   3.6931   3.9720   5.0264
     5.1973   5.3899   5.7059   5.7147   6.9961   7.0485   7.2412   8.0123
     8.2530   9.4666   9.4688   9.5235   9.7445   9.8212   9.9127   9.9633
    10.0983  10.3563  10.8761  11.0929  11.5674  11.5815  11.5886  11.7423
    11.8586  11.9508  12.0310  12.8229  12.8755  13.0645  13.4381  13.9618
    14.0691  14.1034  14.4834  14.8159  15.0450  15.3579  15.3631  15.8248
    16.2795  16.7522  16.8095  17.2317

          k = 0.0000 0.0000 0.0832 (  3675 PWs)   bands (ev):

   -88.1091 -88.0760 -88.0498 -87.9522 -87.9249 -87.8911 -87.8452 -87.8190
   -76.9682 -76.9419 -76.9226 -76.9000 -58.1836 -58.1675 -58.1239 -58.1071
   -58.0876 -58.0495 -58.0457 -58.0190 -58.0038 -57.9938 -57.9668 -57.9262
   -57.9217 -57.8994 -57.8955 -57.8709 -57.5427 -57.5173 -57.4955 -57.3344
   -57.3226 -57.3194 -57.2460 -57.2214 -48.5873 -48.5615 -48.5591 -48.5433
   -48.5093 -48.5045 -48.4853 -48.4534 -48.1579 -48.1339 -48.1070 -48.0712
    -5.4650  -5.4443  -5.3414  -5.2935  -5.2534  -5.2416  -5.1814  -5.1626
    -5.1554  -5.0781  -5.0635  -5.0192  -4.9867  -4.9405  -4.8555  -4.8240
    -4.8198  -4.7916  -4.6474  -4.6256  -4.5506  -4.5260  -4.5008  -4.4389
    -4.4328  -4.3655  -4.2690  -4.1874  -4.1736  -4.1687  -4.1498  -4.0650
    -4.0611  -4.0458  -4.0249  -3.9872  -3.8200  -3.8148  -3.6753  -3.6396
    -0.7555  -0.7324  -0.7020  -0.6860  -0.6731  -0.6423  -0.5974  -0.5770
    -0.2287  -0.2277  -0.1791  -0.1004  -0.0969  -0.0502   0.0320   0.0557
     0.1354   0.1443   0.3125   0.3417   2.6940   3.2927   4.4668   5.0534
     5.2446   5.3708   5.5157   5.6763   6.7183   7.0298   7.5748   8.1459
     8.3668   9.1573   9.1600   9.4147   9.5599   9.6913  10.0470  10.1140
    10.5954  10.6531  10.7048  10.8415  11.1632  11.5450  11.6880  11.8281
    11.8348  11.8464  12.4665  12.7881  13.2043  13.3110  13.6445  13.8739
    13.8928  14.1230  14.2703  14.8085  15.0089  15.3807  15.4970  15.7306
    16.2897  16.3899  16.6483  16.7968

          k = 0.0000 0.0000-0.1663 (  3690 PWs)   bands (ev):

   -88.1284 -88.1284 -88.0293 -88.0293 -87.9460 -87.9460 -87.8623 -87.8623
   -76.9909 -76.9909 -76.9410 -76.9410 -58.1996 -58.1996 -58.1362 -58.1362
   -58.0972 -58.0972 -58.0584 -58.0584 -58.0482 -58.0482 -57.9868 -57.9868
   -57.8772 -57.8772 -57.8679 -57.8679 -57.4990 -57.4990 -57.4076 -57.4076
   -57.3007 -57.3007 -57.2240 -57.2240 -48.5848 -48.5848 -48.5652 -48.5652
   -48.5057 -48.5057 -48.4774 -48.4774 -48.1420 -48.1420 -48.0729 -48.0729
    -5.5031  -5.5031  -5.4385  -5.4385  -5.3459  -5.3459  -5.2839  -5.2839
    -5.1361  -5.1361  -5.0964  -5.0964  -5.0377  -5.0377  -4.9266  -4.9266
    -4.7792  -4.7792  -4.5860  -4.5860  -4.4811  -4.4811  -4.4628  -4.4628
    -4.3959  -4.3959  -4.2099  -4.2099  -4.1818  -4.1818  -4.0735  -4.0735
    -4.0525  -4.0525  -3.9890  -3.9890  -3.9026  -3.9026  -3.6666  -3.6666
    -0.8158  -0.8158  -0.7189  -0.7189  -0.6952  -0.6952  -0.6564  -0.6564
    -0.2101  -0.2101  -0.1183  -0.1183  -0.0263  -0.0263   0.0409   0.0409
     0.1179   0.1179   0.3019   0.3019   2.9175   2.9175   5.0159   5.0159
     5.2431   5.2431   5.4685   5.4685   6.7363   6.7363   8.1547   8.1547
     8.6803   8.6803   9.0155   9.0155   9.7353   9.7353  10.0170  10.0170
    10.3345  10.3345  11.3210  11.3210  11.4990  11.4990  11.7582  11.7582
    11.7765  11.7765  12.1580  12.1580  13.4992  13.4992  13.9724  13.9724
    14.1261  14.1261  14.6557  14.6557  14.9065  14.9065  15.5301  15.5301
    16.2676  16.2676  16.5291  16.5291

          k = 0.0000 0.1628 0.0000 (  3664 PWs)   bands (ev):

   -88.0742 -88.0417 -88.0276 -87.9722 -87.8730 -87.8690 -87.8426 -87.8069
   -76.9884 -76.9520 -76.8657 -76.8355 -58.1602 -58.1058 -58.1047 -58.0751
   -58.0598 -58.0399 -58.0266 -58.0178 -57.9928 -57.9871 -57.9525 -57.9470
   -57.9339 -57.9263 -57.8559 -57.8396 -57.5166 -57.5131 -57.5015 -57.3781
   -57.3666 -57.3059 -57.2143 -57.1676 -48.5725 -48.5679 -48.5487 -48.5285
   -48.5153 -48.5102 -48.4480 -48.4476 -48.1665 -48.1164 -48.0974 -48.0751
    -5.4162  -5.3337  -5.3132  -5.2775  -5.2216  -5.1935  -5.1436  -5.1251
    -5.0865  -5.0640  -5.0436  -4.9899  -4.9311  -4.8741  -4.8450  -4.8027
    -4.7365  -4.7276  -4.6861  -4.6251  -4.5633  -4.5466  -4.4867  -4.4185
    -4.4152  -4.3827  -4.2377  -4.1973  -4.1789  -4.1411  -4.1112  -4.1054
    -4.0846  -4.0489  -3.9796  -3.9238  -3.8341  -3.7936  -3.6128  -3.5833
    -0.7632  -0.7335  -0.6891  -0.6826  -0.6152  -0.5841  -0.5420  -0.5159
    -0.2489  -0.1967  -0.1621  -0.0988  -0.0875  -0.0634   0.0280   0.0898
     0.1376   0.1825   0.3191   0.3467   2.9128   3.7717   3.9761   4.2545
     4.8873   4.9759   5.8354   5.8962   6.7954   7.1231   7.6982   8.2038
     8.6484   9.5768   9.7156   9.7289   9.8256   9.8576   9.9851  10.0524
    10.1988  10.8977  11.0060  11.0373  11.1185  11.7187  11.7850  11.9130
    12.0415  12.1692  12.6038  12.7138  12.9314  13.0718  13.2720  13.4997
    13.6468  14.2650  14.6403  14.7263  14.7349  14.8296  14.8413  15.2491
    15.4138  15.4449  16.3888  16.5413

          k = 0.0000 0.1628 0.0832 (  3669 PWs)   bands (ev):

   -88.1033 -88.0339 -88.0301 -87.9682 -87.9114 -87.8978 -87.8398 -87.8154
   -76.9849 -76.9428 -76.9023 -76.8641 -58.1732 -58.1159 -58.1090 -58.1015
   -58.0779 -58.0559 -58.0500 -58.0298 -58.0060 -57.9945 -57.9813 -57.9428
   -57.9369 -57.9087 -57.8637 -57.8544 -57.5371 -57.5120 -57.4103 -57.3816
   -57.3267 -57.2899 -57.2076 -57.1810 -48.5715 -48.5653 -48.5548 -48.5470
   -48.5136 -48.4939 -48.4884 -48.4523 -48.1518 -48.1162 -48.0871 -48.0652
    -5.4159  -5.3791  -5.3360  -5.3010  -5.2409  -5.2113  -5.1729  -5.1614
    -5.1210  -5.1079  -5.0801  -5.0219  -4.9781  -4.9311  -4.9016  -4.8364
    -4.7485  -4.7106  -4.6567  -4.6224  -4.5600  -4.4902  -4.4835  -4.4484
    -4.4177  -4.3282  -4.3064  -4.2396  -4.2344  -4.1693  -4.1119  -4.0432
    -4.0180  -3.9874  -3.9834  -3.9191  -3.8265  -3.8019  -3.6319  -3.5329
    -0.7589  -0.7364  -0.7247  -0.6940  -0.6427  -0.6182  -0.5852  -0.5829
    -0.2332  -0.1826  -0.1336  -0.1176  -0.0934  -0.0610   0.0380   0.0806
     0.1706   0.2173   0.2949   0.3536   2.9885   3.5691   3.8856   4.3850
     4.8302   5.3555   5.7445   5.8541   6.8562   7.1606   7.4921   8.0013
     8.7547   9.3928   9.4817   9.4987   9.7931   9.8236   9.9880  10.4789
    10.6836  10.8912  10.9446  11.2519  11.3567  11.5922  11.7159  11.9371
    11.9725  12.1941  12.5575  12.7225  12.8630  12.9516  13.0333  13.7632
    14.2040  14.2858  14.4009  14.5084  14.5462  14.7145  14.8077  15.2065
    15.3025  15.4027  16.2940  16.3124

          k = 0.0000 0.1628-0.1663 (  3666 PWs)   bands (ev):

   -88.0287 -88.0287 -87.9751 -87.9751 -87.9286 -87.9286 -87.8402 -87.8402
   -76.9441 -76.9441 -76.8897 -76.8897 -58.1228 -58.1228 -58.0974 -58.0974
   -58.0780 -58.0780 -58.0358 -58.0358 -57.9826 -57.9826 -57.9604 -57.9604
   -57.9089 -57.9089 -57.8888 -57.8888 -57.5111 -57.5111 -57.4052 -57.4052
   -57.3036 -57.3036 -57.2122 -57.2122 -48.5697 -48.5697 -48.5458 -48.5458
   -48.5043 -48.5043 -48.4685 -48.4685 -48.1275 -48.1275 -48.0855 -48.0855
    -5.3588  -5.3588  -5.2661  -5.2661  -5.2133  -5.2133  -5.1568  -5.1568
    -5.1060  -5.1060  -5.0401  -5.0401  -4.9818  -4.9818  -4.8999  -4.8999
    -4.6397  -4.6397  -4.5879  -4.5879  -4.5218  -4.5218  -4.4659  -4.4659
    -4.3632  -4.3632  -4.2479  -4.2479  -4.1698  -4.1698  -4.1411  -4.1411
    -4.0787  -4.0787  -3.9640  -3.9640  -3.8048  -3.8048  -3.6046  -3.6046
    -0.7360  -0.7360  -0.6937  -0.6937  -0.6372  -0.6372  -0.5653  -0.5653
    -0.1944  -0.1944  -0.1205  -0.1205  -0.0476  -0.0476   0.0140   0.0140
     0.1909   0.1909   0.3314   0.3314   3.2122   3.2122   4.0854   4.0854
     5.3452   5.3452   5.7120   5.7120   7.0590   7.0590   7.5318   7.5318
     9.0503   9.0503   9.4005   9.4005  10.0260  10.0260  10.0725  10.0725
    10.6433  10.6433  11.5153  11.5153  11.6441  11.6441  11.8745  11.8745
    12.3026  12.3026  12.4991  12.4991  12.5426  12.5426  13.3777  13.3777
    14.0237  14.0237  14.4188  14.4188  14.9100  14.9100  15.0700  15.0700
    15.4253  15.4253  15.9701  15.9701

          k =-0.2972 0.0000 0.0000 (  3722 PWs)   bands (ev):

   -88.0979 -88.0979 -88.0661 -88.0661 -87.9940 -87.9940 -87.9833 -87.9833
   -77.0396 -77.0396 -77.0029 -77.0029 -58.1081 -58.1081 -58.1005 -58.1005
   -58.0828 -58.0828 -58.0664 -58.0664 -58.0492 -58.0492 -58.0321 -58.0321
   -57.9864 -57.9864 -57.9605 -57.9605 -57.5889 -57.5889 -57.5468 -57.5468
   -57.4956 -57.4956 -57.4870 -57.4870 -48.5672 -48.5672 -48.5608 -48.5608
   -48.5249 -48.5249 -48.5078 -48.5078 -48.2443 -48.2443 -48.1918 -48.1918
    -5.4560  -5.4560  -5.3204  -5.3204  -5.3043  -5.3043  -5.2614  -5.2614
    -5.2360  -5.2360  -5.2114  -5.2114  -5.1041  -5.1041  -5.1028  -5.1028
    -4.7723  -4.7723  -4.5711  -4.5711  -4.5447  -4.5447  -4.4231  -4.4231
    -4.4116  -4.4116  -4.3726  -4.3726  -4.3707  -4.3707  -4.3376  -4.3376
    -4.2684  -4.2684  -4.2534  -4.2534  -4.2446  -4.2446  -4.2029  -4.2029
    -0.7935  -0.7935  -0.7575  -0.7575  -0.7512  -0.7512  -0.6140  -0.6140
    -0.2121  -0.2121  -0.1854  -0.1854  -0.1427  -0.1427  -0.1120  -0.1120
    -0.0862  -0.0862   0.0286   0.0286   3.5475   3.5475   4.6711   4.6711
     4.7431   4.7431   5.6269   5.6269   6.8561   6.8561   7.2033   7.2033
     8.2237   8.2237   9.0593   9.0593   9.3346   9.3346   9.7923   9.7923
     9.8574   9.8574  11.7619  11.7619  11.8656  11.8656  12.5974  12.5974
    13.0303  13.0303  13.1412  13.1412  13.7953  13.7953  13.9072  13.9072
    14.7499  14.7499  15.0057  15.0057  15.4304  15.4304  15.4544  15.4544
    16.2173  16.2173  16.3839  16.3839

          k =-0.2972 0.0000 0.0832 (  3710 PWs)   bands (ev):

   -88.0656 -88.0656 -88.0419 -88.0419 -88.0252 -88.0252 -87.9286 -87.9286
   -77.0055 -77.0055 -76.9929 -76.9929 -58.1221 -58.1221 -58.0940 -58.0940
   -58.0799 -58.0799 -58.0432 -58.0432 -58.0330 -58.0330 -57.9913 -57.9913
   -57.9868 -57.9868 -57.9282 -57.9282 -57.6091 -57.6091 -57.5166 -57.5166
   -57.4679 -57.4679 -57.4301 -57.4301 -48.5709 -48.5709 -48.5562 -48.5562
   -48.5128 -48.5128 -48.4918 -48.4918 -48.2226 -48.2226 -48.1840 -48.1840
    -5.4210  -5.4210  -5.3280  -5.3280  -5.2919  -5.2919  -5.2317  -5.2317
    -5.2153  -5.2153  -5.1267  -5.1267  -5.1115  -5.1115  -5.0324  -5.0324
    -4.7379  -4.7379  -4.4915  -4.4915  -4.4621  -4.4621  -4.4321  -4.4321
    -4.4182  -4.4182  -4.3801  -4.3801  -4.3212  -4.3212  -4.2965  -4.2965
    -4.2645  -4.2645  -4.2078  -4.2078  -4.1709  -4.1709  -4.1591  -4.1591
    -0.7671  -0.7671  -0.7439  -0.7439  -0.6917  -0.6917  -0.6413  -0.6413
    -0.1987  -0.1987  -0.1405  -0.1405  -0.1234  -0.1234  -0.0638  -0.0638
    -0.0352  -0.0352   0.0334   0.0334   3.6011   3.6011   4.2869   4.2869
     5.1236   5.1236   5.6423   5.6423   6.9083   6.9083   7.1648   7.1648
     8.4145   8.4145   8.6805   8.6805   8.8642   8.8642   9.8748   9.8748
    10.8487  10.8487  10.9911  10.9911  11.9982  11.9982  12.5986  12.5986
    13.2524  13.2524  13.5720  13.5720  13.6887  13.6887  14.0749  14.0749
    14.6951  14.6951  14.9536  14.9536  15.0448  15.0448  15.4647  15.4647
    16.0933  16.0933  16.2202  16.2202

          k =-0.2972 0.0000-0.1663 (  3680 PWs)   bands (ev):

   -88.0407 -88.0407 -87.9705 -87.9705 -87.9267 -87.9267 -87.9108 -87.9108
   -76.9641 -76.9641 -76.9183 -76.9183 -58.1176 -58.1176 -58.1086 -58.1086
   -58.0574 -58.0574 -58.0511 -58.0511 -57.9779 -57.9779 -57.9353 -57.9353
   -57.9132 -57.9132 -57.8759 -57.8759 -57.5834 -57.5834 -57.4868 -57.4868
   -57.4166 -57.4166 -57.3504 -57.3504 -48.5662 -48.5662 -48.5572 -48.5572
   -48.4825 -48.4825 -48.4607 -48.4607 -48.1889 -48.1889 -48.1635 -48.1635
    -5.3312  -5.3312  -5.2585  -5.2585  -5.1718  -5.1718  -5.1672  -5.1672
    -5.1254  -5.1254  -5.0688  -5.0688  -5.0657  -5.0657  -5.0397  -5.0397
    -4.7458  -4.7458  -4.4660  -4.4660  -4.4052  -4.4052  -4.3800  -4.3800
    -4.2998  -4.2998  -4.2807  -4.2807  -4.2303  -4.2303  -4.2006  -4.2006
    -4.1446  -4.1446  -4.1192  -4.1192  -4.0392  -4.0392  -4.0091  -4.0091
    -0.7006  -0.7006  -0.6995  -0.6995  -0.6917  -0.6917  -0.5529  -0.5529
    -0.1723  -0.1723  -0.1296  -0.1296  -0.0362  -0.0362   0.0110   0.0110
     0.0694   0.0694   0.0790   0.0790   3.6884   3.6884   4.0763   4.0763
     5.3130   5.3130   5.6490   5.6490   7.0117   7.0117   7.1315   7.1315
     8.2295   8.2295   8.5009   8.5009   8.9170   8.9170  10.1964  10.1964
    10.3382  10.3382  11.6655  11.6655  12.0487  12.0487  12.1887  12.1887
    13.4764  13.4764  13.7632  13.7633  13.8259  13.8259  14.0639  14.0639
    14.7479  14.7479  14.9580  14.9581  15.2121  15.2121  15.2445  15.2445
    15.5373  15.5374  16.1926  16.1926

          k =-0.2972 0.1628 0.0000 (  3686 PWs)   bands (ev):

   -88.0007 -88.0007 -87.9944 -87.9944 -87.9576 -87.9576 -87.9104 -87.9104
   -76.9509 -76.9509 -76.9454 -76.9454 -58.0916 -58.0916 -58.0822 -58.0822
   -58.0315 -58.0315 -58.0217 -58.0217 -58.0034 -58.0034 -57.9929 -57.9929
   -57.9334 -57.9334 -57.9249 -57.9249 -57.5940 -57.5940 -57.5370 -57.5370
   -57.5186 -57.5186 -57.4428 -57.4428 -48.5542 -48.5542 -48.5511 -48.5511
   -48.4943 -48.4943 -48.4876 -48.4876 -48.2303 -48.2303 -48.1962 -48.1962
    -5.3228  -5.3228  -5.1926  -5.1926  -5.1852  -5.1852  -5.1360  -5.1360
    -5.1061  -5.1061  -5.0621  -5.0621  -5.0397  -5.0397  -5.0070  -5.0070
    -4.6367  -4.6367  -4.5032  -4.5032  -4.4922  -4.4922  -4.4551  -4.4551
    -4.3944  -4.3944  -4.3474  -4.3474  -4.3285  -4.3285  -4.3091  -4.3091
    -4.2696  -4.2696  -4.2128  -4.2128  -4.1833  -4.1833  -4.1369  -4.1369
    -0.7036  -0.7036  -0.6411  -0.6411  -0.6124  -0.6124  -0.6117  -0.6117
    -0.2044  -0.2044  -0.1460  -0.1460  -0.1032  -0.1032  -0.0864  -0.0864
    -0.0250  -0.0250   0.0383   0.0383   3.8274   3.8274   4.5235   4.5235
     4.8650   4.8650   5.1648   5.1648   6.3969   6.3969   6.5728   6.5728
     9.2577   9.2577   9.7773   9.7773  10.0746  10.0746  10.5707  10.5707
    10.6770  10.6770  11.1567  11.1567  11.2311  11.2311  12.1965  12.1965
    12.8328  12.8328  13.2685  13.2685  13.6965  13.6965  13.7404  13.7404
    14.2331  14.2331  14.4946  14.4946  14.7075  14.7075  15.1080  15.1080
    15.6872  15.6872  15.9894  15.9894

          k =-0.2972 0.1628 0.0832 (  3692 PWs)   bands (ev):

   -88.0243 -88.0243 -87.9943 -87.9943 -87.9591 -87.9591 -87.9432 -87.9432
   -77.0028 -77.0028 -76.9228 -76.9228 -58.1230 -58.1230 -58.1002 -58.1002
   -58.0732 -58.0732 -58.0335 -58.0335 -57.9985 -57.9985 -57.9704 -57.9704
   -57.9365 -57.9365 -57.9324 -57.9324 -57.5660 -57.5660 -57.5035 -57.5035
   -57.4846 -57.4846 -57.4267 -57.4267 -48.5799 -48.5799 -48.5487 -48.5487
   -48.4959 -48.4959 -48.4837 -48.4837 -48.2027 -48.2027 -48.1904 -48.1904
    -5.3193  -5.3193  -5.2812  -5.2812  -5.2119  -5.2119  -5.1881  -5.1881
    -5.1493  -5.1493  -5.1131  -5.1131  -5.0769  -5.0769  -4.9819  -4.9819
    -4.6557  -4.6557  -4.5346  -4.5346  -4.4863  -4.4863  -4.4510  -4.4510
    -4.4027  -4.4027  -4.3506  -4.3506  -4.2862  -4.2862  -4.2558  -4.2558
    -4.2377  -4.2377  -4.1678  -4.1678  -4.1339  -4.1339  -4.1180  -4.1180
    -0.7432  -0.7432  -0.7049  -0.7049  -0.6320  -0.6320  -0.5904  -0.5904
    -0.2424  -0.2424  -0.1781  -0.1781  -0.1132  -0.1132  -0.0604  -0.0604
     0.0560   0.0560   0.0697   0.0697   3.8750   3.8750   4.4082   4.4082
     4.8645   4.8645   5.1453   5.1453   6.4595   6.4595   6.8091   6.8091
     8.9000   8.9000   9.3823   9.3823   9.9903   9.9903  10.2967  10.2967
    11.0620  11.0620  11.4107  11.4107  11.9587  11.9587  12.4123  12.4123
    12.7468  12.7468  13.2222  13.2222  13.4477  13.4477  13.8443  13.8443
    14.0286  14.0286  14.5449  14.5449  14.7008  14.7008  15.0042  15.0042
    15.3001  15.3001  15.7327  15.7327

          k =-0.2972 0.1628-0.1663 (  3704 PWs)   bands (ev):

   -88.0387 -88.0387 -88.0363 -88.0363 -87.9861 -87.9861 -87.9566 -87.9566
   -77.0338 -77.0338 -76.9440 -76.9440 -58.1550 -58.1550 -58.1278 -58.1278
   -58.0913 -58.0913 -58.0677 -58.0677 -57.9868 -57.9868 -57.9822 -57.9822
   -57.9351 -57.9351 -57.8971 -57.8971 -57.5760 -57.5760 -57.5310 -57.5310
   -57.4816 -57.4816 -57.4376 -57.4376 -48.5919 -48.5919 -48.5657 -48.5657
   -48.4960 -48.4960 -48.4721 -48.4721 -48.2054 -48.2054 -48.2018 -48.2018
    -5.3397  -5.3397  -5.3248  -5.3248  -5.2830  -5.2830  -5.2121  -5.2121
    -5.1856  -5.1856  -5.1804  -5.1804  -5.1402  -5.1402  -4.9799  -4.9799
    -4.6622  -4.6622  -4.5969  -4.5969  -4.5224  -4.5224  -4.4805  -4.4805
    -4.4127  -4.4127  -4.3528  -4.3528  -4.3293  -4.3293  -4.3100  -4.3100
    -4.2492  -4.2492  -4.1666  -4.1666  -4.0969  -4.0969  -4.0908  -4.0908
    -0.7980  -0.7980  -0.7251  -0.7251  -0.6438  -0.6438  -0.6100  -0.6100
    -0.2511  -0.2511  -0.2105  -0.2105  -0.1107  -0.1107  -0.1059  -0.1059
     0.0366   0.0366   0.0857   0.0857   3.9537   3.9537   4.2618   4.2618
     4.9440   4.9440   5.0374   5.0374   6.6319   6.6319   6.9864   6.9864
     8.4674   8.4674   9.3715   9.3715   9.7512   9.7512  10.0197  10.0197
    11.6350  11.6350  11.7512  11.7512  12.0963  12.0963  12.7505  12.7505
    12.9495  12.9495  13.0844  13.0844  13.5033  13.5033  13.6149  13.6149
    13.6689  13.6689  14.4165  14.4165  14.6657  14.6657  14.9113  14.9113
    15.2074  15.2074  15.3472  15.3472

     the Fermi energy is    10.9300 ev

!    total energy              =   -3748.29928005 Ry
     Harris-Foulkes estimate   =   -3748.29934001 Ry
     estimated scf accuracy    <       0.00007378 Ry

     The total energy is the sum of the following terms:

     one-electron contribution =   -1973.30567557 Ry
     hartree contribution      =     968.84695524 Ry
     xc contribution           =    -309.62665559 Ry
     ewald contribution        =   -2433.63078853 Ry
     smearing contrib. (-TS)   =      -0.58311561 Ry

     convergence has been achieved in   8 iterations

     Forces acting on atoms (Ry/au):

     atom    1 type  1   force =     0.00000000    0.00323014   -0.01959277
     atom    2 type  1   force =     0.00000000   -0.00323014    0.01959277
     atom    3 type  1   force =     0.00000000    0.00323014    0.01959277
     atom    4 type  1   force =     0.00000000   -0.00323014   -0.01959277
     atom    5 type  1   force =     0.00000000    0.00064346    0.01034601
     atom    6 type  1   force =     0.00000000   -0.00064346   -0.01034601
     atom    7 type  1   force =     0.00000000    0.00064346   -0.01034601
     atom    8 type  1   force =     0.00000000   -0.00064346    0.01034601
     atom    9 type  2   force =     0.00000000    0.00518888   -0.00839410
     atom   10 type  2   force =     0.00000000   -0.00518888    0.00839410
     atom   11 type  2   force =     0.00000000    0.00518888    0.00839410
     atom   12 type  2   force =     0.00000000   -0.00518888   -0.00839410

     Total force =     0.048955     Total SCF correction =     0.000000


[...]
    20.2487  20.4013  20.6826  20.7562  20.9899  20.9936  21.0643  21.0832
    21.2690  21.6266  21.9180  22.5469  22.5967  22.9307  23.2169  23.3490
    23.3853  23.3856  23.6350  23.7606  23.8060  23.8938  23.9133  23.9458
    23.9903  24.2968  24.4311  24.4791  24.4851  24.5428  26.7073  28.1596
    29.0411  29.7775  29.7987  30.3035  31.4410  32.3523  32.4228  33.4304
    34.5357  34.7388  35.9816  36.7053  37.2159  37.2494  37.2722  37.4152
    37.4768  37.6965  38.0762  38.0821  38.3062  39.1674  39.2496  39.6854
    40.6160  40.7149  40.7544  40.8393  41.0104  41.5645  41.6290  41.6607
    42.5004  42.6743  42.7518  42.8703  43.5063  43.7158  44.4916  44.5498
    44.8945  44.9617  45.3576  45.3801

          k = 0.0000 0.0000-0.2330 (  5402 PWs)   bands (ev):

   -64.5717 -64.5717 -64.5678 -64.5678 -64.4103 -64.4103 -64.3921 -64.3921
   -55.9264 -55.9264 -55.9132 -55.9132 -26.7410 -26.7410 -26.7150 -26.7150
   -26.6919 -26.6919 -26.6723 -26.6723 -26.6331 -26.6331 -26.6316 -26.6316
   -26.6012 -26.6011 -26.4850 -26.4850 -26.4758 -26.4758 -26.4445 -26.4445
   -26.4360 -26.4360 -26.3578 -26.3578 -20.2917 -20.2917 -20.2833 -20.2833
   -20.2785 -20.2785 -20.2677 -20.2677 -20.1636 -20.1635 -20.1489 -20.1489
    17.7285  17.7285  17.7396  17.7396  17.9704  17.9704  18.3276  18.3276
    18.4422  18.4422  18.7668  18.7668  18.7733  18.7733  18.9078  18.9078
    19.1566  19.1566  19.2796  19.2796  19.3480  19.3481  19.4433  19.4433
    19.8949  19.8949  19.9379  19.9379  19.9514  19.9514  20.0632  20.0632
    20.4596  20.4596  20.7376  20.7376  20.8319  20.8319  21.1197  21.1197
    21.2194  21.2194  22.2755  22.2755  22.6100  22.6100  23.3615  23.3615
    23.5497  23.5497  23.5626  23.5626  23.8451  23.8451  23.9444  23.9444
    24.0409  24.0409  24.4439  24.4439  24.4771  24.4771  28.6819  28.6819
    28.9988  28.9988  29.4952  29.4952  31.6711  31.6711  33.0066  33.0066
    34.5943  34.5943  36.5080  36.5080  37.1459  37.1459  37.3408  37.3408
    37.8065  37.8065  38.1895  38.1895  39.0233  39.0233  39.2585  39.2585
    39.8239  39.8239  40.9956  40.9956  41.1511  41.1511  41.8110  41.8110
    42.6520  42.6520  43.3445  43.3445  43.8417  43.8418  44.0408  44.0409
    44.6382  44.6382  45.2292  45.2297

          k = 0.0000 0.2254 0.0000 (  5407 PWs)   bands (ev):

   -64.5837 -64.5765 -64.5701 -64.5580 -64.4117 -64.4066 -64.4021 -64.3977
   -55.9337 -55.9281 -55.9218 -55.9025 -26.7506 -26.7292 -26.7271 -26.7139
   -26.6903 -26.6764 -26.6653 -26.6582 -26.6438 -26.6237 -26.6173 -26.6096
   -26.5850 -26.5655 -26.4830 -26.4809 -26.4780 -26.4718 -26.4709 -26.4697
   -26.4432 -26.4266 -26.4042 -26.3994 -20.3048 -20.2991 -20.2885 -20.2858
   -20.2811 -20.2766 -20.2682 -20.2563 -20.1683 -20.1638 -20.1565 -20.1564
    17.9255  17.9940  18.1072  18.1497  18.1857  18.2007  18.2950  18.3226
    18.3789  18.4692  18.4970  18.6641  18.8207  18.8895  18.9240  18.9461
    19.0770  19.1157  19.2038  19.2920  19.4050  19.4126  19.5575  19.6270
    19.7962  19.8133  19.8838  19.9115  19.9907  20.0171  20.2218  20.3432
    20.3795  20.4785  20.5647  20.6743  20.7619  20.7798  20.9834  21.1852
    21.2856  21.9396  22.2552  22.2586  22.7771  22.9824  23.0002  23.0667
    23.1456  23.4469  23.4702  23.7211  23.8136  23.8396  23.9945  24.0451
    24.1074  24.1319  24.2697  24.4759  24.4771  24.5177  24.7514  25.5174
    26.9816  27.4190  31.5101  33.1215  33.3619  34.3664  34.6431  34.9667
    34.9786  35.1394  35.4849  35.7868  35.9154  35.9411  36.0449  36.3501
    36.3986  37.4802  37.5662  37.8694  38.0661  38.7314  40.4338  40.9115
    41.3069  41.4352  41.5309  41.9052  42.0361  42.3170  42.4780  42.5412
    42.6710  43.0153  43.0190  43.2282  43.4870  43.6104  43.7743  43.8848
    44.4172  44.4416  44.4973  44.6964

          k = 0.0000 0.2254 0.1165 (  5388 PWs)   bands (ev):

   -64.5738 -64.5714 -64.5602 -64.5569 -64.4026 -64.4021 -64.3979 -64.3869
   -55.9291 -55.9210 -55.9147 -55.9030 -26.7386 -26.7293 -26.7151 -26.6999
   -26.6936 -26.6865 -26.6548 -26.6509 -26.6369 -26.6267 -26.6114 -26.6044
   -26.5772 -26.5655 -26.4863 -26.4780 -26.4729 -26.4708 -26.4704 -26.4670
   -26.4381 -26.4236 -26.3971 -26.3913 -20.2940 -20.2926 -20.2843 -20.2795
   -20.2770 -20.2745 -20.2721 -20.2624 -20.1652 -20.1566 -20.1509 -20.1478
    17.8879  17.9344  17.9585  18.0770  18.1378  18.2714  18.3566  18.4116
    18.5504  18.5996  18.6091  18.6168  18.7704  18.8538  18.8989  19.0433
    19.1216  19.2147  19.2883  19.3148  19.3837  19.4332  19.5598  19.6156
    19.6576  19.7474  19.8103  19.9289  19.9308  19.9618  20.1377  20.2983
    20.3069  20.6154  20.6515  20.7030  20.7323  20.8660  21.0248  21.1743
    21.2630  21.9489  21.9583  22.3700  22.6924  22.8859  23.0796  23.1621
    23.1767  23.3815  23.4469  23.6161  23.6524  23.8065  23.9789  24.0403
    24.0591  24.1326  24.2118  24.2389  24.3639  24.4938  24.6729  25.7878
    27.2612  28.9609  31.8870  31.9719  33.1789  33.3512  34.2598  34.3597
    34.6933  34.7155  35.1543  35.5441  35.7539  36.4724  36.7131  37.1541
    37.6396  37.7524  38.2695  38.4507  38.6949  38.9269  39.5365  40.6092
    40.7380  40.9427  41.2823  41.4521  41.6706  42.1608  42.2429  42.4428
    42.5637  42.9283  43.0588  43.5259  43.6815  43.7767  43.7883  43.8556
    43.9922  44.3865  44.5444  45.0044

          k = 0.0000 0.2254-0.2330 (  5410 PWs)   bands (ev):

   -64.5768 -64.5768 -64.5709 -64.5709 -64.4129 -64.4129 -64.3984 -64.3984
   -55.9274 -55.9274 -55.9180 -55.9180 -26.7404 -26.7404 -26.7211 -26.7211
   -26.6981 -26.6981 -26.6543 -26.6543 -26.6361 -26.6361 -26.6079 -26.6079
   -26.5687 -26.5687 -26.4831 -26.4831 -26.4774 -26.4774 -26.4747 -26.4747
   -26.4417 -26.4417 -26.3982 -26.3982 -20.2989 -20.2989 -20.2869 -20.2869
   -20.2845 -20.2845 -20.2731 -20.2731 -20.1635 -20.1635 -20.1512 -20.1512
    17.8412  17.8412  17.9658  17.9658  18.2288  18.2288  18.4902  18.4902
    18.5534  18.5534  18.7470  18.7470  18.7723  18.7723  19.0792  19.0792
    19.2299  19.2299  19.3283  19.3283  19.3514  19.3514  19.4943  19.4943
    19.6839  19.6839  19.8193  19.8193  19.8715  19.8715  20.1811  20.1811
    20.5355  20.5355  20.6326  20.6326  20.9797  20.9797  21.2079  21.2079
    21.2754  21.2754  22.1825  22.1825  22.6903  22.6903  23.2452  23.2452
    23.3319  23.3319  23.3635  23.3635  23.5643  23.5643  24.0452  24.0452
    24.1292  24.1292  24.1917  24.1917  24.3971  24.3971  25.0915  25.0915
    29.4508  29.4508  31.1908  31.1908  32.9172  32.9172  33.6844  33.6844
    34.6430  34.6431  35.6473  35.6473  35.6859  35.6859  37.6411  37.6411
    38.5688  38.5688  38.8965  38.8965  39.0721  39.0721  39.6597  39.6597
    40.3352  40.3352  40.3727  40.3727  42.0840  42.0840  42.4079  42.4079
    42.5769  42.5769  43.0924  43.0924  43.3948  43.3948  44.1765  44.1765
    44.2034  44.2034  44.7048  44.7048

          k =-0.4327 0.0000 0.0000 (  5464 PWs)   bands (ev):

   -64.5968 -64.5968 -64.5910 -64.5910 -64.4345 -64.4345 -64.4223 -64.4223
   -55.9460 -55.9460 -55.9296 -55.9296 -26.7575 -26.7575 -26.7364 -26.7364
   -26.7172 -26.7172 -26.6922 -26.6922 -26.6516 -26.6516 -26.6317 -26.6317
   -26.6112 -26.6112 -26.5066 -26.5066 -26.4808 -26.4808 -26.4608 -26.4608
   -26.4441 -26.4441 -26.3700 -26.3700 -20.3029 -20.3029 -20.3014 -20.3014
   -20.2924 -20.2924 -20.2847 -20.2847 -20.1712 -20.1712 -20.1629 -20.1629
    17.8106  17.8106  18.1191  18.1191  18.4034  18.4034  18.5042  18.5042
    18.5517  18.5517  18.6368  18.6368  18.8332  18.8332  18.9217  18.9217
    18.9417  18.9417  19.0492  19.0492  19.1092  19.1092  19.2290  19.2290
    19.5632  19.5632  19.7662  19.7662  19.8645  19.8645  20.1733  20.1733
    20.1801  20.1801  20.6909  20.6909  21.1603  21.1603  21.3000  21.3000
    22.4009  22.4009  22.6684  22.6684  23.0608  23.0608  23.2731  23.2731
    23.5131  23.5131  23.6361  23.6361  23.7262  23.7262  24.0353  24.0353
    24.2019  24.2019  24.3414  24.3414  24.6748  24.6748  26.8981  26.8981
    26.9597  26.9597  29.2435  29.2435  31.6868  31.6868  33.5845  33.5845
    33.8129  33.8129  34.2064  34.2064  34.4318  34.4318  36.6848  36.6848
    37.1545  37.1545  40.2070  40.2070  40.5889  40.5889  41.5349  41.5349
    41.6710  41.6710  41.8034  41.8034  41.8453  41.8453  42.6157  42.6157
    42.9324  42.9325  43.6123  43.6124  44.4040  44.4041  44.6645  44.6646
    44.9457  44.9457  45.5032  45.5033

          k =-0.4327 0.0000 0.1165 (  5414 PWs)   bands (ev):

   -64.5784 -64.5784 -64.5722 -64.5722 -64.4170 -64.4170 -64.4024 -64.4024
   -55.9287 -55.9287 -55.9211 -55.9211 -26.7477 -26.7477 -26.7220 -26.7220
   -26.7058 -26.7058 -26.6795 -26.6795 -26.6379 -26.6379 -26.6220 -26.6220
   -26.6055 -26.6055 -26.4965 -26.4965 -26.4725 -26.4725 -26.4511 -26.4511
   -26.4321 -26.4321 -26.3555 -26.3555 -20.2932 -20.2932 -20.2886 -20.2886
   -20.2836 -20.2836 -20.2735 -20.2735 -20.1570 -20.1570 -20.1533 -20.1533
    17.8385  17.8385  18.1113  18.1113  18.3025  18.3025  18.4569  18.4569
    18.5971  18.5971  18.7127  18.7127  18.7795  18.7795  18.9046  18.9046
    19.0076  19.0076  19.0489  19.0489  19.2379  19.2379  19.3333  19.3333
    19.5603  19.5603  19.6511  19.6511  19.9663  19.9663  20.0699  20.0699
    20.2524  20.2524  20.6741  20.6741  21.0587  21.0587  21.2602  21.2602
    22.0603  22.0603  22.6503  22.6503  23.2243  23.2243  23.3101  23.3101
    23.5645  23.5645  23.5966  23.5966  23.8032  23.8032  24.0058  24.0058
    24.2318  24.2318  24.5178  24.5178  24.6466  24.6466  25.8202  25.8202
    28.3159  28.3159  29.5246  29.5246  31.2582  31.2582  33.1860  33.1860
    33.3646  33.3646  34.4117  34.4117  35.0529  35.0529  35.7344  35.7344
    38.7979  38.7979  39.3189  39.3189  40.0198  40.0198  41.2963  41.2964
    41.4927  41.4927  42.0326  42.0326  42.5523  42.5523  42.9098  42.9099
    43.4442  43.4442  43.5268  43.5268  43.8472  43.8473  44.6529  44.6529
    44.9150  44.9151  45.3619  45.3620

          k =-0.4327 0.0000-0.2330 (  5420 PWs)   bands (ev):

   -64.5815 -64.5815 -64.5724 -64.5724 -64.4210 -64.4210 -64.4036 -64.4036
   -55.9306 -55.9306 -55.9220 -55.9220 -26.7533 -26.7533 -26.7186 -26.7186
   -26.7140 -26.7140 -26.6816 -26.6816 -26.6368 -26.6368 -26.6244 -26.6244
   -26.6009 -26.6009 -26.4978 -26.4978 -26.4784 -26.4784 -26.4473 -26.4473
   -26.4321 -26.4321 -26.3576 -26.3576 -20.3048 -20.3048 -20.2866 -20.2866
   -20.2801 -20.2801 -20.2747 -20.2747 -20.1606 -20.1606 -20.1494 -20.1494
    17.8452  17.8452  18.1926  18.1926  18.2498  18.2498  18.3162  18.3162
    18.5634  18.5634  18.6926  18.6926  18.9461  18.9461  19.0165  19.0165
    19.0293  19.0293  19.0628  19.0628  19.1937  19.1937  19.3798  19.3798
    19.5490  19.5490  19.7800  19.7800  19.8363  19.8363  19.9583  19.9583
    20.4985  20.4985  20.6002  20.6002  20.8942  20.8942  21.2356  21.2356
    21.8611  21.8611  22.5152  22.5152  23.2641  23.2641  23.4303  23.4303
    23.5461  23.5461  23.6440  23.6440  23.9042  23.9042  23.9616  23.9616
    24.3085  24.3085  24.6376  24.6376  24.7465  24.7465  25.2207  25.2207
    29.1663  29.1663  30.1429  30.1429  30.5200  30.5200  33.0078  33.0078
    33.1588  33.1588  33.3575  33.3575  36.0222  36.0222  36.7313  36.7313
    37.3028  37.3028  39.2304  39.2304  41.0602  41.0602  41.1837  41.1838
    41.3236  41.3236  42.3437  42.3437  42.4245  42.4245  42.6685  42.6685
    42.9612  42.9613  43.6045  43.6045  44.0898  44.0899  44.7860  44.7860
    45.0899  45.0899  45.5623  45.5627

          k =-0.4327 0.2254 0.0000 (  5400 PWs)   bands (ev):

   -64.5722 -64.5722 -64.5676 -64.5676 -64.4036 -64.4036 -64.4036 -64.4036
   -55.9249 -55.9249 -55.9171 -55.9171 -26.7335 -26.7335 -26.7281 -26.7281
   -26.6980 -26.6980 -26.6739 -26.6739 -26.6185 -26.6185 -26.6123 -26.6123
   -26.5654 -26.5654 -26.4897 -26.4897 -26.4750 -26.4750 -26.4670 -26.4670
   -26.4269 -26.4269 -26.3974 -26.3974 -20.2943 -20.2943 -20.2883 -20.2883
   -20.2768 -20.2768 -20.2713 -20.2713 -20.1568 -20.1568 -20.1521 -20.1521
    18.0862  18.0862  18.2703  18.2703  18.4817  18.4817  18.4995  18.4995
    18.7030  18.7030  18.7148  18.7148  18.9851  18.9851  18.9989  18.9989
    19.1147  19.1147  19.2351  19.2351  19.3237  19.3237  19.3761  19.3761
    19.5504  19.5504  19.5587  19.5587  19.9258  19.9258  20.0524  20.0524
    20.2043  20.2043  20.4544  20.4544  20.8154  20.8154  21.1089  21.1089
    22.2686  22.2686  22.7489  22.7489  23.0342  23.0342  23.0962  23.0962
    23.3257  23.3257  23.4777  23.4777  23.6932  23.6932  23.9551  23.9551
    24.0705  24.0705  24.1014  24.1014  24.6836  24.6836  26.6432  26.6432
    27.9683  27.9683  28.1911  28.1911  30.0959  30.0959  30.4578  30.4578
    35.8433  35.8433  36.8504  36.8504  37.3668  37.3668  38.0214  38.0214
    38.5476  38.5476  39.0202  39.0202  39.3711  39.3711  40.7676  40.7676
    41.7670  41.7670  42.1270  42.1270  42.1366  42.1366  42.5863  42.5863
    43.0451  43.0452  43.4345  43.4347  43.9996  43.9997  44.1715  44.1716
    45.0229  45.0230  45.0274  45.0275

          k =-0.4327 0.2254 0.1165 (  5400 PWs)   bands (ev):

   -64.5767 -64.5767 -64.5653 -64.5653 -64.4081 -64.4081 -64.3988 -64.3988
   -55.9236 -55.9236 -55.9191 -55.9191 -26.7330 -26.7330 -26.7251 -26.7251
   -26.6924 -26.6924 -26.6797 -26.6797 -26.6177 -26.6177 -26.6154 -26.6154
   -26.5655 -26.5655 -26.4867 -26.4867 -26.4799 -26.4799 -26.4720 -26.4720
   -26.4259 -26.4259 -26.3953 -26.3953 -20.2949 -20.2949 -20.2864 -20.2864
   -20.2780 -20.2780 -20.2724 -20.2724 -20.1555 -20.1555 -20.1533 -20.1533
    18.0776  18.0776  18.2667  18.2667  18.4536  18.4536  18.5553  18.5553
    18.6778  18.6778  18.7659  18.7659  18.8791  18.8791  19.0475  19.0475
    19.1365  19.1365  19.2114  19.2114  19.3222  19.3222  19.4739  19.4739
    19.5280  19.5280  19.6732  19.6732  19.9630  19.9630  20.0027  20.0027
    20.2423  20.2423  20.4081  20.4081  20.7473  20.7473  21.0751  21.0751
    22.1685  22.1685  22.5057  22.5057  22.9681  22.9681  23.2496  23.2496
    23.3584  23.3584  23.4656  23.4656  23.6638  23.6638  23.9409  23.9409
    24.0555  24.0555  24.1686  24.1686  24.9632  24.9632  26.4754  26.4754
    27.3277  27.3277  28.9058  28.9058  29.6082  29.6082  31.9181  31.9181
    34.9446  34.9446  35.8231  35.8231  36.6677  36.6677  37.4855  37.4855
    39.2432  39.2432  39.8623  39.8623  40.6772  40.6772  40.8859  40.8859
    41.8674  41.8674  42.0854  42.0854  42.2192  42.2192  42.7690  42.7690
    42.9825  42.9826  43.2839  43.2839  43.6442  43.6442  44.1231  44.1232
    44.3980  44.3982  44.8004  44.8006

          k =-0.4327 0.2254-0.2330 (  5424 PWs)   bands (ev):

   -64.5830 -64.5830 -64.5770 -64.5770 -64.4145 -64.4145 -64.4101 -64.4101
   -55.9291 -55.9291 -55.9258 -55.9258 -26.7460 -26.7460 -26.7271 -26.7271
   -26.6978 -26.6978 -26.6839 -26.6839 -26.6231 -26.6231 -26.6140 -26.6140
   -26.5718 -26.5718 -26.4908 -26.4908 -26.4818 -26.4818 -26.4760 -26.4760
   -26.4357 -26.4357 -26.4036 -26.4036 -20.2988 -20.2988 -20.2912 -20.2912
   -20.2825 -20.2825 -20.2805 -20.2805 -20.1630 -20.1630 -20.1553 -20.1553
    18.0414  18.0414  18.3483  18.3483  18.4308  18.4308  18.5437  18.5437
    18.6163  18.6163  18.8069  18.8069  18.9181  18.9181  19.0458  19.0458
    19.1224  19.1224  19.2068  19.2068  19.3158  19.3158  19.4932  19.4932
    19.6364  19.6364  19.8005  19.8005  19.8270  19.8270  20.0079  20.0079
    20.2641  20.2641  20.5066  20.5066  20.5858  20.5858  21.0391  21.0391
    22.1150  22.1150  22.2598  22.2598  23.0606  23.0606  23.2414  23.2414
    23.3464  23.3464  23.4003  23.4003  23.7065  23.7065  23.8781  23.8781
    24.1191  24.1191  24.1954  24.1954  25.4566  25.4566  25.8798  25.8798
    27.7482  27.7482  28.0364  28.0364  30.7116  30.7116  32.9738  32.9738
    34.2043  34.2043  34.4314  34.4314  36.5726  36.5726  36.8268  36.8268
    39.8653  39.8653  40.8782  40.8783  41.2200  41.2201  41.2843  41.2843
    41.8162  41.8162  41.8752  41.8752  42.6019  42.6019  42.6340  42.6340
    43.0354  43.0354  43.0875  43.0875  43.3267  43.3267  43.7955  43.7955
    44.0918  44.0919  44.5647  44.5657

     the Fermi energy is    38.4409 ev

!    total energy              =   -3802.24774760 Ry
     Harris-Foulkes estimate   =   -3802.24776700 Ry
     estimated scf accuracy    <       0.00002191 Ry

     The total energy is the sum of the following terms:

     one-electron contribution =    -548.43865296 Ry
     hartree contribution      =     517.15875590 Ry
     xc contribution           =    -332.99052166 Ry
     ewald contribution        =   -3437.65696707 Ry
     smearing contrib. (-TS)   =      -0.32036181 Ry

     convergence has been achieved in  10 iterations

     Forces acting on atoms (Ry/au):

     atom    1 type  1   force =     0.00000000   -0.05475612   -0.00000319
     atom    2 type  1   force =     0.00000000    0.05475612    0.00000319
     atom    3 type  1   force =     0.00000000   -0.05475612    0.00000319
     atom    4 type  1   force =     0.00000000    0.05475612   -0.00000319
     atom    5 type  1   force =     0.00000000    0.02583295   -0.04732100
     atom    6 type  1   force =     0.00000000   -0.02583295    0.04732100
     atom    7 type  1   force =     0.00000000    0.02583295    0.04732100
     atom    8 type  1   force =     0.00000000   -0.02583295   -0.04732100
     atom    9 type  2   force =     0.00000000   -0.07165421    0.03344564
     atom   10 type  2   force =     0.00000000    0.07165421   -0.03344564
     atom   11 type  2   force =     0.00000000   -0.07165421   -0.03344564
     atom   12 type  2   force =     0.00000000    0.07165421    0.03344564

     Total force =     0.220525     Total SCF correction =     0.000000


     entering subroutine stress ...

          total   stress  (Ry/bohr**3)                   (kbar)     P= 1713.88
   0.01309420   0.00000000   0.00000000       1926.22      0.00      0.00
   0.00000000   0.01069763   0.00000000          0.00   1573.68      0.00
   0.00000000   0.00000000   0.01116035          0.00      0.00   1641.74


     Writing output data file Prototype-La-oP12-Co2Si.save
 
     init_run     :      5.17s CPU      6.59s WALL (       2 calls)
     electrons    :   1175.94s CPU   1360.35s WALL (       5 calls)
     update_pot   :      1.92s CPU      1.95s WALL (       3 calls)
     forces       :      5.07s CPU      5.31s WALL (       5 calls)
     stress       :     14.30s CPU     14.88s WALL (       5 calls)

     Called by init_run:
     wfcinit      :      4.31s CPU      5.55s WALL (       2 calls)
     potinit      :      0.41s CPU      0.41s WALL (       2 calls)

     Called by electrons:
     c_bands      :   1154.02s CPU   1315.86s WALL (      41 calls)
     sum_band     :     21.57s CPU     29.04s WALL (      41 calls)
     v_of_rho     :      0.07s CPU      0.08s WALL (      46 calls)
     mix_rho      :      0.09s CPU      0.10s WALL (      41 calls)

     Called by c_bands:
     init_us_2    :      1.26s CPU      1.46s WALL (    1128 calls)
     ccgdiagg     :   1058.22s CPU   1194.87s WALL (     613 calls)
     wfcrot       :     98.67s CPU    123.96s WALL (     625 calls)

     Called by *cgdiagg:
     h_psi        :    698.78s CPU    833.60s WALL (  520554 calls)
     cdiaghg      :      7.87s CPU      8.77s WALL (     625 calls)

     Called by h_psi:
     add_vuspsi   :    115.26s CPU    128.77s WALL (  520554 calls)

     General routines
     calbec       :    299.41s CPU    321.32s WALL ( 1040603 calls)
     fft          :      0.21s CPU      0.26s WALL (     207 calls)
     fftw         :    390.52s CPU    471.77s WALL ( 1311610 calls)
     davcio       :      0.87s CPU      2.34s WALL (    1620 calls)
 
     Parallel routines
     fft_scatter  :    166.65s CPU    206.43s WALL ( 1311817 calls)
 
     PWSCF        : 20m 2.79s CPU    23m12.61s WALL

 
   This run was terminated on:  23: 7:26  22Mar2018            

=------------------------------------------------------------------------------=
   JOB DONE.
=------------------------------------------------------------------------------=
