
     Program PWSCF v.5.0.2 starts on 22Mar2018 at 22:50:29 

     This program is part of the open-source Quantum ESPRESSO suite
     for quantum simulation of materials; please cite
         "P. Giannozzi et al., J. Phys.:Condens. Matter 21 395502 (2009);
          URL http://www.quantum-espresso.org", 
     in publications or presentations arising from this work. More details at
     http://www.quantum-espresso.org/quote.php

     Parallel version (MPI), running on     4 processors
     R & G space division:  proc/nbgrp/npool/nimage =       4

     Current dimensions of program PWSCF are:
     Max number of different atomic species (ntypx) = 10
     Max number of k-points (npk) =  40000
     Max angular momentum in pseudopotentials (lmaxx) =  3
     Waiting for input...
     Reading input from standard input

     Subspace diagonalization in iterative solution of the eigenvalue problem:
     a serial algorithm will be used

 
     Parallelization info
     --------------------
     sticks:   dense  smooth     PW     G-vecs:    dense   smooth      PW
     Min         233     233     69                 5311     5311     851
     Max         234     234     70                 5314     5314     854
     Sum         933     933    277                21247    21247    3407
 


     bravais-lattice index     =            0
     lattice parameter (alat)  =       8.5346  a.u.
     unit-cell volume          =     621.6493 (a.u.)^3
     number of atoms/cell      =            8
     number of atomic types    =            2
     number of electrons       =       156.00
     number of Kohn-Sham states=           94
     kinetic-energy cutoff     =      40.0000  Ry
     charge density cutoff     =     160.0000  Ry
     convergence threshold     =      1.0E-04
     mixing beta               =       0.7000
     number of iterations used =            8  plain     mixing
     Exchange-correlation      = SLA-PZ-NOGX-NOGC ( 1 1 0 0 0)
     EXX-fraction              =        0.00
     nstep                     =           50


     celldm(1)=   8.534573  celldm(2)=   0.000000  celldm(3)=   0.000000
     celldm(4)=   0.000000  celldm(5)=   0.000000  celldm(6)=   0.000000

     crystal axes: (cart. coord. in units of alat)
               a(1) = (   1.000000   0.000000   0.000000 )  
               a(2) = (   0.000000   1.000000   0.000000 )  
               a(3) = (   0.000000   0.000000   1.000000 )  

     reciprocal axes: (cart. coord. in units 2 pi/alat)
               b(1) = (  1.000000  0.000000  0.000000 )  
               b(2) = (  0.000000  1.000000  0.000000 )  
               b(3) = (  0.000000  0.000000  1.000000 )  


     PseudoPot. # 1 for Gd read from file:
     /home/cwx6513/pp.La/Gd.UPF
     MD5 check sum: 09a8be538722f05520810cb6aac0efd2
     Pseudo is Norm-conserving, Zval = 18.0
     Generated in analytical, separable form
     Using radial grid of 1263 points,  6 beta functions with: 
                l(1) =   0
                l(2) =   0
                l(3) =   1
                l(4) =   1
                l(5) =   2
                l(6) =   3

     PseudoPot. # 2 for Yb read from file:
     /home/cwx6513/pp.La/Yb.UPF
     MD5 check sum: 3e859b81cc28c53ec6aa3a2e888efcdf
     Pseudo is Norm-conserving, Zval = 24.0
     Generated in analytical, separable form
     Using radial grid of 1269 points,  6 beta functions with: 
                l(1) =   0
                l(2) =   0
                l(3) =   1
                l(4) =   1
                l(5) =   2
                l(6) =   3

     atomic species   valence    mass     pseudopotential
        Cr            18.00    51.99610     Gd( 1.00)
        Si            24.00    28.08550     Yb( 1.00)

     48 Sym. Ops., with inversion, found (24 have fractional translation)



   Cartesian axes

     site n.     atom                  positions (alat units)
         1           Cr  tau(   1) = (   0.0000000   0.5000000   0.2500000  )
         2           Cr  tau(   2) = (   0.0000000   0.5000000   0.7500000  )
         3           Cr  tau(   3) = (   0.5000000   0.7500000   0.0000000  )
         4           Cr  tau(   4) = (   0.5000000   0.2500000   0.0000000  )
         5           Cr  tau(   5) = (   0.7500000   0.0000000   0.5000000  )
         6           Cr  tau(   6) = (   0.2500000   0.0000000   0.5000000  )
         7           Si  tau(   7) = (   0.5000000   0.5000000   0.5000000  )
         8           Si  tau(   8) = (   0.0000000   0.0000000   0.0000000  )

     number of k points=    48  gaussian smearing, width (Ry)=  0.1000
                       cart. coord. in units 2pi/alat
        k(    1) = (   0.0000000   0.0000000   0.0000000), wk =   0.0095238
        k(    2) = (   0.0000000   0.0000000   0.1428571), wk =   0.0190476
        k(    3) = (   0.0000000   0.0000000   0.2857143), wk =   0.0190476
        k(    4) = (   0.0000000   0.0000000   0.4285714), wk =   0.0190476
        k(    5) = (   0.0000000   0.1666667   0.0000000), wk =   0.0190476
        k(    6) = (   0.0000000   0.1666667   0.1428571), wk =   0.0380952
        k(    7) = (   0.0000000   0.1666667   0.2857143), wk =   0.0380952
        k(    8) = (   0.0000000   0.1666667   0.4285714), wk =   0.0380952
        k(    9) = (   0.0000000   0.3333333   0.0000000), wk =   0.0190476
        k(   10) = (   0.0000000   0.3333333   0.1428571), wk =   0.0380952
        k(   11) = (   0.0000000   0.3333333   0.2857143), wk =   0.0380952
        k(   12) = (   0.0000000   0.3333333   0.4285714), wk =   0.0380952
        k(   13) = (   0.0000000  -0.5000000   0.0000000), wk =   0.0095238
        k(   14) = (   0.0000000  -0.5000000   0.1428571), wk =   0.0190476
        k(   15) = (   0.0000000  -0.5000000   0.2857143), wk =   0.0190476
        k(   16) = (   0.0000000  -0.5000000   0.4285714), wk =   0.0190476
        k(   17) = (   0.2000000   0.0000000   0.0000000), wk =   0.0190476
        k(   18) = (   0.2000000   0.0000000   0.1428571), wk =   0.0380952
        k(   19) = (   0.2000000   0.0000000   0.2857143), wk =   0.0380952
        k(   20) = (   0.2000000   0.0000000   0.4285714), wk =   0.0380952
        k(   21) = (   0.2000000   0.1666667   0.0000000), wk =   0.0380952
        k(   22) = (   0.2000000   0.1666667   0.1428571), wk =   0.0761905
        k(   23) = (   0.2000000   0.1666667   0.2857143), wk =   0.0761905
        k(   24) = (   0.2000000   0.1666667   0.4285714), wk =   0.0761905
        k(   25) = (   0.2000000   0.3333333   0.0000000), wk =   0.0380952
        k(   26) = (   0.2000000   0.3333333   0.1428571), wk =   0.0761905
        k(   27) = (   0.2000000   0.3333333   0.2857143), wk =   0.0761905
        k(   28) = (   0.2000000   0.3333333   0.4285714), wk =   0.0761905
        k(   29) = (   0.2000000  -0.5000000   0.0000000), wk =   0.0190476
        k(   30) = (   0.2000000  -0.5000000   0.1428571), wk =   0.0380952
        k(   31) = (   0.2000000  -0.5000000   0.2857143), wk =   0.0380952
        k(   32) = (   0.2000000  -0.5000000   0.4285714), wk =   0.0380952
        k(   33) = (   0.4000000   0.0000000   0.0000000), wk =   0.0190476
        k(   34) = (   0.4000000   0.0000000   0.1428571), wk =   0.0380952
        k(   35) = (   0.4000000   0.0000000   0.2857143), wk =   0.0380952
        k(   36) = (   0.4000000   0.0000000   0.4285714), wk =   0.0380952
        k(   37) = (   0.4000000   0.1666667   0.0000000), wk =   0.0380952
        k(   38) = (   0.4000000   0.1666667   0.1428571), wk =   0.0761905
        k(   39) = (   0.4000000   0.1666667   0.2857143), wk =   0.0761905
        k(   40) = (   0.4000000   0.1666667   0.4285714), wk =   0.0761905
        k(   41) = (   0.4000000   0.3333333   0.0000000), wk =   0.0380952
        k(   42) = (   0.4000000   0.3333333   0.1428571), wk =   0.0761905
        k(   43) = (   0.4000000   0.3333333   0.2857143), wk =   0.0761905
        k(   44) = (   0.4000000   0.3333333   0.4285714), wk =   0.0761905
        k(   45) = (   0.4000000  -0.5000000   0.0000000), wk =   0.0190476
        k(   46) = (   0.4000000  -0.5000000   0.1428571), wk =   0.0380952
        k(   47) = (   0.4000000  -0.5000000   0.2857143), wk =   0.0380952
        k(   48) = (   0.4000000  -0.5000000   0.4285714), wk =   0.0380952

     Dense  grid:    21247 G-vectors     FFT dimensions: (  36,  36,  36)

     Largest allocated arrays     est. size (Mb)     dimensions
        Kohn-Sham Wavefunctions         0.98 Mb     (    683,   94)
        NL pseudopotentials             1.67 Mb     (    683,  160)
        Each V/rho on FFT grid          0.18 Mb     (  11664)
        Each G-vector array             0.04 Mb     (   5314)
        G-vector shells                 0.04 Mb     (   5314)
     Largest temporary arrays     est. size (Mb)     dimensions
        Each subspace H/S matrix        0.13 Mb     (  94,  94)
        Each <psi_i|beta_j> matrix      0.23 Mb     (    160,   94)
        Arrays for rho mixing           1.42 Mb     (  11664,   8)

     Initial potential from superposition of free atoms

     Starting from uniform charge
     Starting wfc are    0 randomized atomic wfcs

     total cpu time spent up to now is        3.8 secs

     Self-consistent Calculation

     iteration #  1     ecut=    40.00 Ry     beta=0.70
     CG style diagonalization
     ethr =  1.00E-02,  avg # of iterations = 12.1

     total cpu time spent up to now is       61.0 secs

     total energy              =   -1537.70463233 Ry
     Harris-Foulkes estimate   =   -2387.74085143 Ry
     estimated scf accuracy    <    1030.21244401 Ry

     iteration #  2     ecut=    40.00 Ry     beta=0.70
     CG style diagonalization
     c_bands:  3 eigenvalues not converged
     c_bands:  3 eigenvalues not converged
     c_bands:  1 eigenvalues not converged
     c_bands:  1 eigenvalues not converged
     c_bands:  4 eigenvalues not converged
     c_bands:  2 eigenvalues not converged
     c_bands:  2 eigenvalues not converged
     c_bands:  3 eigenvalues not converged
     c_bands:  2 eigenvalues not converged
     c_bands:  1 eigenvalues not converged
     c_bands:  5 eigenvalues not converged
     c_bands:  2 eigenvalues not converged
     c_bands:  4 eigenvalues not converged
     c_bands:  1 eigenvalues not converged
     c_bands:  1 eigenvalues not converged
     c_bands:  1 eigenvalues not converged
     c_bands:  2 eigenvalues not converged
     c_bands:  2 eigenvalues not converged
     c_bands:  1 eigenvalues not converged
     c_bands:  1 eigenvalues not converged
     c_bands:  1 eigenvalues not converged
     c_bands:  1 eigenvalues not converged
     c_bands:  4 eigenvalues not converged
     c_bands:  1 eigenvalues not converged
     c_bands:  2 eigenvalues not converged
     c_bands:  1 eigenvalues not converged
     c_bands:  2 eigenvalues not converged
     c_bands:  1 eigenvalues not converged
     c_bands:  4 eigenvalues not converged
     c_bands:  1 eigenvalues not converged
     c_bands:  1 eigenvalues not converged
     c_bands:  2 eigenvalues not converged
     ethr =  1.00E-02,  avg # of iterations =  9.6

     total cpu time spent up to now is      100.0 secs

     total energy              =   -1831.71606494 Ry
     Harris-Foulkes estimate   =   -2385.11828259 Ry
     estimated scf accuracy    <     987.56379647 Ry

     iteration #  3     ecut=    40.00 Ry     beta=0.70
     CG style diagonalization
     c_bands:  1 eigenvalues not converged
     c_bands:  1 eigenvalues not converged
     c_bands:  1 eigenvalues not converged
     c_bands:  1 eigenvalues not converged
     c_bands:  1 eigenvalues not converged
     c_bands:  1 eigenvalues not converged
     ethr =  1.00E-02,  avg # of iterations = 10.9

     total cpu time spent up to now is      151.0 secs

     total energy              =   -2018.04606100 Ry
     Harris-Foulkes estimate   =   -2025.82219064 Ry
     estimated scf accuracy    <      12.19379857 Ry

     iteration #  4     ecut=    40.00 Ry     beta=0.70
     CG style diagonalization
     ethr =  7.82E-03,  avg # of iterations =  3.7

     total cpu time spent up to now is      167.7 secs

     total energy              =   -2019.79657813 Ry
     Harris-Foulkes estimate   =   -2020.95096255 Ry
     estimated scf accuracy    <       1.69461763 Ry

     iteration #  5     ecut=    40.00 Ry     beta=0.70
     CG style diagonalization
     ethr =  1.09E-03,  avg # of iterations =  4.1

     total cpu time spent up to now is      187.5 secs

     total energy              =   -2020.35646289 Ry
     Harris-Foulkes estimate   =   -2020.44902519 Ry
     estimated scf accuracy    <       0.14264269 Ry

     iteration #  6     ecut=    40.00 Ry     beta=0.70
     CG style diagonalization
     c_bands:  1 eigenvalues not converged
     c_bands:  2 eigenvalues not converged
     c_bands:  1 eigenvalues not converged
     c_bands:  1 eigenvalues not converged
     c_bands:  1 eigenvalues not converged
     c_bands:  1 eigenvalues not converged
     c_bands:  1 eigenvalues not converged
     c_bands:  1 eigenvalues not converged
     c_bands:  1 eigenvalues not converged
     c_bands:  1 eigenvalues not converged
     c_bands:  1 eigenvalues not converged
     c_bands:  1 eigenvalues not converged
     ethr =  9.14E-05,  avg # of iterations =  4.3

     total cpu time spent up to now is      207.2 secs

     total energy              =   -2020.39549345 Ry
     Harris-Foulkes estimate   =   -2020.39624754 Ry
     estimated scf accuracy    <       0.00170068 Ry

     iteration #  7     ecut=    40.00 Ry     beta=0.70
     CG style diagonalization
     c_bands:  1 eigenvalues not converged
     c_bands:  1 eigenvalues not converged
     c_bands:  1 eigenvalues not converged
     c_bands:  1 eigenvalues not converged
     c_bands:  1 eigenvalues not converged
     c_bands:  1 eigenvalues not converged
     c_bands:  1 eigenvalues not converged
     c_bands:  1 eigenvalues not converged
     c_bands:  1 eigenvalues not converged
     c_bands:  1 eigenvalues not converged
     c_bands:  1 eigenvalues not converged
     c_bands:  1 eigenvalues not converged
     c_bands:  1 eigenvalues not converged
     c_bands:  1 eigenvalues not converged
     c_bands:  2 eigenvalues not converged
     c_bands:  1 eigenvalues not converged
     c_bands:  1 eigenvalues not converged
     c_bands:  1 eigenvalues not converged
     c_bands:  2 eigenvalues not converged
     c_bands:  1 eigenvalues not converged
     c_bands:  1 eigenvalues not converged
     c_bands:  1 eigenvalues not converged
     c_bands:  1 eigenvalues not converged
     c_bands:  1 eigenvalues not converged
     c_bands:  3 eigenvalues not converged
     c_bands:  2 eigenvalues not converged
     c_bands:  2 eigenvalues not converged
     ethr =  1.09E-06,  avg # of iterations =  5.5

     total cpu time spent up to now is      230.3 secs

     total energy              =   -2020.39716126 Ry
     Harris-Foulkes estimate   =   -2020.39721971 Ry
     estimated scf accuracy    <       0.00010741 Ry

     iteration #  8     ecut=    40.00 Ry     beta=0.70
     CG style diagonalization
     c_bands:  1 eigenvalues not converged
     c_bands:  1 eigenvalues not converged
     c_bands:  1 eigenvalues not converged
     c_bands:  1 eigenvalues not converged
     c_bands:  1 eigenvalues not converged
     c_bands:  1 eigenvalues not converged
     c_bands:  1 eigenvalues not converged
     ethr =  6.89E-08,  avg # of iterations =  3.9

     total cpu time spent up to now is      246.5 secs

     End of self-consistent calculation

          k = 0.0000 0.0000 0.0000 (  2601 PWs)   bands (ev):

   -77.6277 -77.5376 -36.6077 -36.6077 -36.6077 -36.5947 -36.5947 -36.5947
   -23.8483 -23.4848 -23.4848 -22.4856 -22.4856 -22.4856   1.9238   1.9238
     2.4594   4.2973   4.2973   4.2973   5.6258   5.6258   5.6258   5.8405
     5.8405   5.8405   6.1669   6.1669   6.1669   8.1825   8.1825   8.1825
    20.3435  20.3435  20.6185  20.6185  20.7836  20.7836  20.7836  20.8134
    20.8134  20.8134  29.2851  30.2661  32.9207  32.9207  32.9207  34.3522
    34.3522  34.3522  34.6646  34.9205  34.9205  35.5038  38.7742  38.7742
    38.7742  39.1060  39.1060  39.5180  39.5180  39.5180  41.7320  41.7320
    41.7320  44.7483  44.7483  45.5144  45.5144  45.5144  45.8194  45.8194
    45.8194  46.7914  48.7692  48.7692  48.7692  50.1746  50.1746  50.2959
    50.2959  50.2959  50.3782  53.8015  53.8015  53.8015  53.9586  53.9586
    53.9586  54.0448  54.0448  54.0448  56.6644  56.8972

          k = 0.0000 0.0000 0.1429 (  2657 PWs)   bands (ev):

   -77.6911 -77.6364 -36.6194 -36.6194 -36.6170 -36.6093 -36.6093 -36.6092
   -23.8230 -23.4995 -23.4484 -22.5561 -22.4969 -22.4969   1.9239   2.0303
     2.5426   4.2939   4.2939   4.3744   5.5368   5.5368   5.6313   5.7575
     5.9389   5.9389   6.1192   6.1241   6.1241   7.8060   8.1733   8.1733
    20.3396  20.3924  20.5941  20.6127  20.7249  20.7249  20.7805  20.7993
    20.7993  20.8071  29.4732  30.0854  33.1024  33.1024  33.6108  33.9343
    34.5330  34.5330  34.7556  34.8930  35.5462  35.7036  38.1133  38.1133
    38.4928  38.7084  39.1102  39.5342  40.0355  40.0355  41.7697  41.7697
    41.9717  44.1730  44.2702  45.0930  45.0930  45.4706  45.4706  45.9048
    46.2212  47.0992  47.4381  48.5832  48.5832  48.5923  50.0941  50.6896
    50.6896  51.7234  51.8474  53.4693  53.5113  53.5113  53.9536  54.0014
    54.0014  54.1925  54.6552  54.6552  55.6074  55.9001

          k = 0.0000 0.0000 0.2857 (  2677 PWs)   bands (ev):

   -77.7076 -77.6779 -36.6240 -36.6215 -36.6215 -36.6204 -36.6129 -36.6129
   -23.7576 -23.5381 -23.3412 -22.7157 -22.4999 -22.4999   1.9629   2.1080
     3.1193   4.2907   4.2907   4.5808   5.4723   5.4723   5.5004   5.7026
     6.0390   6.0431   6.0431   6.1064   6.1064   6.7962   8.1621   8.1621
    20.3392  20.4879  20.5360  20.5706  20.5706  20.6102  20.7773  20.7965
    20.8011  20.8011  29.9077  29.9127  33.4807  33.5591  33.5591  34.7540
    34.7773  34.9754  34.9754  35.2918  36.2626  37.0809  37.2913  37.4781
    37.4781  38.4487  39.0352  39.3904  39.8916  39.8916  41.8701  41.8701
    41.9380  43.3881  43.6002  44.6931  44.6931  45.2535  45.2535  45.7270
    46.3669  46.6262  47.0021  47.8613  47.8613  48.7023  49.3953  51.0799
    51.0799  52.7623  53.0132  53.0132  53.0809  53.2725  53.4922  54.8727
    54.8727  54.9314  54.9434  55.1080  55.1081  55.7349

          k = 0.0000 0.0000 0.4286 (  2658 PWs)   bands (ev):

   -77.6672 -77.6642 -36.6162 -36.6162 -36.6156 -36.6134 -36.6134 -36.6119
   -23.6731 -23.5930 -23.1588 -22.9338 -22.4991 -22.4991   2.0160   2.0717
     4.1797   4.2862   4.2862   4.8836   5.1631   5.4554   5.4554   5.5250
     5.8104   5.9313   6.0091   6.0091   6.2031   6.2031   8.1609   8.1609
    20.3697  20.4386  20.4482  20.4482  20.5806  20.6096  20.7784  20.7856
    20.8042  20.8042  29.9590  30.0997  33.9258  33.9938  33.9938  34.7266
    34.7397  35.3471  35.3587  35.3587  37.0602  37.2756  37.2756  37.3050
    37.8740  38.7650  39.1595  39.1595  39.2384  39.2894  41.2518  41.8706
    41.8706  42.9930  43.1117  43.3600  44.2848  44.2848  46.1605  46.1605
    46.6546  46.7534  47.0924  47.0924  47.2397  48.2238  50.6484  50.7126
    50.7126  52.2019  52.6452  52.6452  52.8394  53.4333  54.2854  54.4315
    55.2450  55.2451  55.8547  56.1638  56.5150  56.5151

          k = 0.0000 0.1667 0.0000 (  2653 PWs)   bands (ev):

   -77.6813 -77.6363 -36.6181 -36.6181 -36.6144 -36.6093 -36.6093 -36.6093
   -23.8128 -23.5027 -23.4352 -22.5767 -22.4972 -22.4972   1.9291   2.0576
     2.5952   4.2955   4.2955   4.4061   5.5234   5.5234   5.6403   5.7254
     5.9644   5.9644   6.1091   6.1173   6.1173   7.6789   8.1736   8.1736
    20.3388  20.4078  20.5860  20.6118  20.7027  20.7027  20.7799  20.7993
    20.7993  20.8057  29.5420  30.0446  33.1647  33.1647  33.8327  33.8337
    34.5952  34.5952  34.7629  34.8856  35.7692  35.7742  37.9848  37.9848
    38.3036  38.6826  39.1052  39.5193  40.0893  40.0893  41.7890  41.7890
    42.0261  44.0321  44.1554  44.9966  44.9966  45.3918  45.3918  45.9910
    46.3059  47.1711  47.1972  48.3720  48.4934  48.4934  50.0267  50.7968
    50.7968  51.9722  52.1755  53.3992  53.4414  53.4414  53.8588  54.1303
    54.1304  54.2879  54.7176  54.7176  55.3406  55.8207

          k = 0.0000 0.1667 0.1429 (  2662 PWs)   bands (ev):

   -77.7037 -77.6414 -36.6220 -36.6217 -36.6173 -36.6168 -36.6079 -36.6061
   -23.7890 -23.4853 -23.4298 -22.5791 -22.5550 -22.4982   1.9876   2.1962
     2.6322   4.3061   4.3718   4.4023   5.4328   5.4334   5.7139   5.8016
     5.9130   6.0121   6.0202   6.0908   6.1756   7.6656   7.7993   8.1699
    20.3622  20.4244  20.5743  20.5989  20.6939  20.7072  20.7268  20.7324
    20.7700  20.8223  29.7276  29.9808  33.3540  33.4200  34.0462  34.1981
    34.2936  34.7835  34.8228  35.4626  35.7899  35.9609  37.3391  37.6794
    38.6439  38.7294  38.9288  39.1785  40.2936  40.3039  41.6404  41.8442
    42.0035  43.4530  43.9694  44.8316  44.8856  45.0335  45.4974  45.8967
    46.0369  46.7692  47.4130  47.9597  48.2689  48.6151  49.4064  51.0277
    51.1977  52.2771  52.9039  53.5038  53.6325  53.8632  53.9477  54.1180
    54.3119  54.5044  54.6276  54.7110  55.2318  55.2877

          k = 0.0000 0.1667 0.2857 (  2666 PWs)   bands (ev):

   -77.6896 -77.6684 -36.6209 -36.6186 -36.6182 -36.6172 -36.6132 -36.6106
   -23.7205 -23.5026 -23.3397 -22.7186 -22.5778 -22.4998   2.0211   2.3753
     3.1086   4.3278   4.3955   4.5756   5.3061   5.3579   5.6816   5.7239
     5.9679   5.9843   6.0466   6.1248   6.1836   6.8137   7.6657   8.1628
    20.3675  20.4958  20.5236  20.5616  20.5834  20.6038  20.6973  20.7188
    20.7464  20.8426  29.9529  30.1315  33.6903  33.8405  33.9510  34.5574
    34.7999  35.2407  35.5441  35.7124  36.4705  36.4953  37.2534  37.2599
    37.9955  38.4788  38.6095  39.2570  39.9694  40.3057  41.4001  41.4738
    42.1983  42.6566  43.8303  44.1590  44.5786  44.6078  45.2324  45.5628
    46.0296  46.3611  46.7604  47.5208  48.4559  48.5616  49.1127  51.1580
    51.2850  52.8810  53.0628  53.4026  53.6491  53.6949  54.1889  54.2600
    54.2908  54.7870  55.1440  55.5366  55.5598  55.8782

          k = 0.0000 0.1667 0.4286 (  2658 PWs)   bands (ev):

   -77.6749 -77.6590 -36.6185 -36.6170 -36.6159 -36.6145 -36.6131 -36.6089
   -23.6417 -23.5506 -23.1620 -22.9363 -22.5776 -22.5017   2.0378   2.3809
     4.1212   4.3440   4.4257   4.8431   5.1262   5.3467   5.4636   5.5966
     5.6530   5.9746   5.9922   6.1314   6.1607   6.2125   7.6632   8.1630
    20.3741  20.4250  20.4393  20.4983  20.5801  20.6030  20.6914  20.7262
    20.7329  20.8547  30.1032  30.2855  34.0280  34.2471  34.3224  34.7135
    35.0359  35.3786  35.6101  35.7127  37.0016  37.1941  37.3602  37.5227
    38.0325  38.0372  38.9908  39.1106  39.3892  40.2444  40.9824  41.2058
    42.1892  42.2187  43.2004  43.5305  43.8016  44.2823  45.1123  45.3795
    46.1158  46.2394  46.7165  47.1856  47.7549  48.4233  50.5856  50.7239
    51.3271  52.2621  52.8302  53.1851  53.6414  53.8824  54.0665  54.1100
    54.2590  55.6550  55.7032  55.9499  56.2195  56.6721

          k = 0.0000 0.3333 0.0000 (  2677 PWs)   bands (ev):

   -77.7077 -77.6768 -36.6214 -36.6213 -36.6213 -36.6165 -36.6162 -36.6162
   -23.7301 -23.5558 -23.2873 -22.7880 -22.4986 -22.4986   1.9796   2.1032
     3.4247   4.2880   4.2880   4.6716   5.3903   5.4619   5.4619   5.7357
     6.0086   6.0304   6.0304   6.1427   6.1427   6.3969   8.1557   8.1557
    20.3449  20.4897  20.5201  20.5201  20.5380  20.6113  20.7770  20.7926
    20.8022  20.8022  29.8998  30.0264  33.4971  33.7277  33.7277  34.7422
    34.7714  35.1302  35.1302  35.9327  36.5099  36.5123  37.3587  37.3587
    38.0306  38.2952  38.9849  39.3400  39.6514  39.6514  41.6597  41.8735
    41.8735  43.1999  43.4066  44.5487  44.5487  45.0210  45.4782  45.4782
    46.4837  46.6976  46.9457  47.5993  47.5993  49.0163  49.2703  51.0144
    51.0144  52.4867  52.8527  52.8527  52.9835  53.7615  53.8030  54.7142
    54.9999  55.0000  55.2039  55.5765  55.5766  55.8600

          k = 0.0000 0.3333 0.1429 (  2660 PWs)   bands (ev):

   -77.6759 -77.6642 -36.6203 -36.6181 -36.6160 -36.6136 -36.6132 -36.6093
   -23.7004 -23.5256 -23.2880 -22.7863 -22.5581 -22.5003   2.0242   2.2970
     3.4179   4.3239   4.3705   4.6686   5.2765   5.3711   5.6033   5.7253
     5.9555   5.9964   6.0721   6.1525   6.1662   6.4186   7.7938   8.1655
    20.3642  20.4801  20.5141  20.5364  20.5452  20.6033  20.7159  20.7410
    20.7476  20.8410  29.9619  30.1842  33.6539  33.9473  33.9857  34.7136
    34.8790  35.3285  35.4343  36.0869  36.2546  36.6418  37.2301  37.5389
    38.1777  38.3510  38.5399  39.1481  39.6913  40.1860  41.3191  41.4324
    42.1920  42.6231  43.7371  44.0655  44.5569  44.5946  45.1629  45.2833
    46.2173  46.4777  46.5946  47.4056  48.2569  48.5297  49.5211  51.0355
    51.1665  52.5759  52.9303  53.2837  53.6072  53.9216  53.9961  54.2340
    54.5352  55.2265  55.2329  55.7592  55.8464  56.1145

          k = 0.0000 0.3333 0.2857 (  2658 PWs)   bands (ev):

   -77.6826 -77.6548 -36.6177 -36.6176 -36.6154 -36.6146 -36.6135 -36.6098
   -23.6445 -23.4472 -23.2771 -22.7975 -22.7094 -22.5028   2.0378   2.9684
     3.4174   4.4042   4.5506   4.6443   5.1920   5.2521   5.5403   5.7020
     5.9007   5.9631   6.0848   6.1955   6.2372   6.4252   6.8418   8.1595
    20.3778  20.4553  20.4817  20.5556  20.5626  20.5844  20.6018  20.6341
    20.7108  20.8784  30.1611  30.5142  34.0118  34.3402  34.5425  34.6367
    34.7293  35.8428  35.9634  36.4901  36.7391  36.9614  37.2788  37.3081
    38.0020  38.4105  38.4806  39.3440  39.9171  40.3162  40.8175  40.9349
    41.7068  42.0251  43.3584  43.6164  43.9537  44.4387  44.5370  45.1661
    45.5604  45.6697  46.7603  46.7964  47.4667  48.9852  50.2011  50.8877
    51.6615  52.3284  53.2963  53.4709  53.4997  53.7209  53.8362  54.3882
    54.5340  55.3051  55.4626  55.5269  56.2492  56.6674

          k = 0.0000 0.3333 0.4286 (  2654 PWs)   bands (ev):

   -77.6651 -77.6583 -36.6197 -36.6173 -36.6160 -36.6156 -36.6081 -36.6077
   -23.6078 -23.3898 -23.1653 -22.9482 -22.7777 -22.5022   2.0438   3.3174
     4.0847   4.4791   4.6274   4.7383   5.1674   5.2128   5.3662   5.4358
     5.6674   5.9067   5.9838   6.1751   6.2395   6.2667   6.4556   8.1498
    20.3616  20.3985  20.3995  20.5365  20.5383  20.5715  20.6158  20.6367
    20.6906  20.8995  30.4660  30.6709  33.8533  34.6201  34.7310  35.1792
    35.2287  35.7404  36.2286  36.3946  36.7953  36.9328  37.7351  37.8779
    38.2448  38.4019  38.5147  39.7385  40.1848  40.4703  40.5108  40.8610
    41.1390  41.5873  42.7878  43.1312  43.2493  43.8477  44.6308  44.6612
    44.9027  45.4207  45.4744  47.1633  47.1927  49.5600  50.3678  51.1800
    51.3646  52.0058  52.7354  53.2109  53.6579  53.6817  54.0713  54.5249
    54.8686  55.4584  55.5959  56.0506  56.4273  57.0565

          k = 0.0000-0.5000 0.0000 (  2666 PWs)   bands (ev):

   -77.6760 -77.6760 -36.6166 -36.6166 -36.6163 -36.6163 -36.6158 -36.6158
   -23.6327 -23.6327 -23.0495 -23.0495 -22.4995 -22.4995   2.0409   2.0409
     4.2855   4.2855   4.7878   4.7878   5.0633   5.0633   5.4530   5.4530
     5.8698   5.8698   5.9992   5.9992   6.2163   6.2163   8.1598   8.1598
    20.4002  20.4002  20.4304  20.4304  20.6002  20.6002  20.7810  20.7810
    20.8044  20.8044  30.0382  30.0382  34.0644  34.0644  34.5513  34.5513
    34.7292  34.7292  35.4139  35.4139  37.2792  37.2792  37.4824  37.4824
    38.2265  38.2265  39.0038  39.0038  39.3237  39.3237  41.8693  41.8693
    42.0623  42.0623  42.9936  42.9936  44.2113  44.2113  46.6031  46.6031
    46.7289  46.7289  46.7327  46.7327  47.6828  47.6828  50.5909  50.5909
    51.6840  51.6840  52.5840  52.5840  52.8369  52.8369  54.4538  54.4538
    55.3045  55.3046  56.1515  56.1516  56.8969  56.8970

          k = 0.0000-0.5000 0.1429 (  2666 PWs)   bands (ev):

   -77.6767 -77.6765 -36.6204 -36.6202 -36.6160 -36.6159 -36.6132 -36.6129
   -23.6256 -23.5847 -23.0560 -23.0484 -22.5577 -22.5007   2.0423   2.2905
     4.3188   4.3311   4.7951   4.8048   4.9704   5.0873   5.3707   5.5280
     5.6813   5.9702   5.9739   6.1337   6.1559   6.2206   7.7875   8.1590
    20.3791  20.4098  20.4239  20.4744  20.5968  20.5977  20.7126  20.7388
    20.7454  20.8478  30.1647  30.1679  34.2101  34.3137  34.3984  34.7015
    34.8032  35.1887  35.5357  35.5937  37.1040  37.4105  37.5677  37.7420
    37.7865  38.1601  38.6244  38.9573  39.3900  40.2969  41.3075  41.5858
    41.9426  42.3047  42.4224  43.5944  43.6401  44.2761  45.2971  45.8589
    46.1371  46.3765  46.7268  47.2586  47.6500  48.2330  50.4482  50.9224
    51.6016  51.9741  52.7573  52.9810  53.5441  53.6312  53.9226  54.1561
    54.2850  55.9627  56.0426  56.2054  56.4191  56.6785

          k = 0.0000-0.5000 0.2857 (  2658 PWs)   bands (ev):

   -77.6671 -77.6666 -36.6201 -36.6199 -36.6169 -36.6165 -36.6081 -36.6078
   -23.6076 -23.4467 -23.0694 -23.0480 -22.7141 -22.5033   2.0414   3.0023
     4.3741   4.4447   4.8009   4.8469   4.8611   5.1622   5.2445   5.4157
     5.6291   5.9159   6.0209   6.1401   6.2273   6.2498   6.8366   8.1508
    20.3604  20.3991  20.4063  20.5247  20.5716  20.5850  20.6112  20.6481
    20.6975  20.8914  30.4806  30.4859  33.9788  34.6161  34.8077  35.0383
    35.1969  35.2791  36.0429  36.6585  36.9590  37.0349  37.4591  37.7858
    38.0586  38.1748  38.5798  39.6263  39.8125  40.6079  40.9052  41.3029
    41.4518  41.6129  42.2304  42.8465  43.4954  44.3057  44.5070  44.8345
    45.1001  45.6426  45.7853  47.0774  47.3324  49.5428  50.1817  51.4912
    51.6330  51.8272  52.7184  53.0346  53.3908  53.7848  54.2837  54.4709
    55.0644  55.2898  55.3433  56.2642  56.3757  56.4893

          k = 0.0000-0.5000 0.4286 (  2662 PWs)   bands (ev):

   -77.6727 -77.6727 -36.6191 -36.6190 -36.6190 -36.6185 -36.6104 -36.6101
   -23.5970 -23.2603 -23.0819 -23.0644 -22.9006 -22.5022   2.0489   4.0284
     4.4009   4.5777   4.7029   4.8671   4.9201   5.1745   5.1998   5.2518
     5.3951   5.8534   5.8734   5.8909   6.2510   6.2593   6.2954   8.1413
    20.3440  20.3490  20.3530  20.4912  20.5463  20.5526  20.6408  20.6437
    20.6754  20.9163  30.7901  30.7923  33.5332  34.6050  34.8061  35.6522
    35.9482  36.1360  36.3194  36.4984  36.5026  36.8581  37.3876  38.0957
    38.2247  38.2368  39.9114  40.1779  40.2530  40.7132  40.7755  40.9238
    40.9743  41.4433  41.7110  42.8763  42.9992  43.1841  43.3245  44.2147
    44.7755  44.8041  45.3317  46.8059  47.4645  49.9841  50.0101  51.0172
    51.5791  51.6108  52.7540  53.0470  53.3262  53.3334  54.4472  55.0963
    55.3773  55.4970  56.0766  56.3187  57.1339  57.1660

          k = 0.2000 0.0000 0.0000 (  2661 PWs)   bands (ev):

   -77.7060 -77.6356 -36.6213 -36.6213 -36.6198 -36.6094 -36.6093 -36.6093
   -23.8017 -23.5106 -23.4140 -22.6100 -22.4976 -22.4976   1.9375   2.0864
     2.6986   4.2944   4.2944   4.4494   5.5049   5.5049   5.6551   5.6669
     5.9961   5.9961   6.0928   6.1079   6.1079   7.4641   8.1683   8.1683
    20.3378  20.4310  20.5729  20.6107  20.6678  20.6678  20.7791  20.7995
    20.7995  20.8034  29.6435  29.9933  33.2638  33.2638  33.6983  34.1764
    34.6917  34.6917  34.7665  34.8775  35.8894  36.1319  37.8174  37.8174
    38.0041  38.6356  39.0932  39.4893  40.1109  40.1109  41.8188  41.8188
    42.0772  43.8367  43.9943  44.8879  44.8879  45.2879  45.2879  46.1069
    46.4146  46.7856  47.2619  48.1966  48.3353  48.3353  49.9022  50.9296
    50.9296  52.3266  52.6078  53.2993  53.3251  53.3252  53.5896  54.3549
    54.3549  54.4431  54.7787  54.7788  55.0858  55.7429

          k = 0.2000 0.0000 0.1429 (  2667 PWs)   bands (ev):

   -77.6956 -77.6635 -36.6222 -36.6217 -36.6196 -36.6159 -36.6102 -36.6095
   -23.7745 -23.4902 -23.4118 -22.6114 -22.5561 -22.4996   1.9957   2.2436
     2.7158   4.3091   4.3712   4.4437   5.4027   5.4117   5.7261   5.7688
     5.9403   5.9932   6.0415   6.0811   6.1762   7.4560   7.7949   8.1683
    20.3627  20.4438  20.5625  20.5974  20.6608  20.6746  20.7234  20.7335
    20.7647  20.8265  29.8257  29.9555  33.4570  33.5126  33.9294  34.3117
    34.5775  34.8202  34.8831  35.4783  36.0695  36.1195  37.1502  37.5579
    38.5169  38.6119  38.9121  39.1806  40.2761  40.3276  41.6035  41.7907
    42.0653  43.2556  43.9029  44.6823  44.8077  44.9035  45.4431  45.9172
    46.1299  46.4793  47.3254  47.9512  48.2108  48.5587  49.2855  51.1038
    51.2076  52.5575  53.0767  53.4523  53.5946  53.8080  54.1247  54.2588
    54.2981  54.4336  54.6024  54.9451  55.1631  55.2783

          k = 0.2000 0.0000 0.2857 (  2659 PWs)   bands (ev):

   -77.6767 -77.6628 -36.6177 -36.6170 -36.6157 -36.6143 -36.6140 -36.6106
   -23.7048 -23.4886 -23.3370 -22.7196 -22.6097 -22.5004   2.0265   2.5086
     3.1126   4.3421   4.4366   4.5736   5.2819   5.3279   5.6993   5.7132
     5.9649   5.9875   6.0275   6.1373   6.1994   6.8151   7.4642   8.1638
    20.3738  20.4985  20.5229  20.5561  20.5811  20.6076  20.6660  20.6894
    20.7377  20.8512  29.9789  30.2145  33.7892  33.9581  34.0669  34.4768
    34.7839  35.3487  35.7217  35.9587  36.4522  36.5489  37.2017  37.2455
    37.9243  38.4832  38.5139  39.3932  39.9346  40.3316  41.2631  41.3778
    42.2050  42.4360  43.8584  43.9754  44.4512  44.4740  45.2652  45.4214
    45.8941  46.4088  46.6061  47.5028  48.1987  48.5854  49.2739  51.1534
    51.4213  52.8835  53.2144  53.4837  53.6490  53.7597  54.0857  54.1697
    54.3049  54.7424  55.1427  55.6688  55.7082  56.0471

          k = 0.2000 0.0000 0.4286 (  2660 PWs)   bands (ev):

   -77.6774 -77.6619 -36.6187 -36.6176 -36.6174 -36.6136 -36.6128 -36.6107
   -23.6338 -23.5272 -23.1634 -22.9383 -22.6104 -22.5022   2.0387   2.5237
     4.1088   4.3664   4.4661   4.8240   5.1220   5.3153   5.4600   5.5951
     5.6190   5.9605   6.0301   6.1063   6.1882   6.2184   7.4591   8.1620
    20.3733  20.4246  20.4348  20.5093  20.5819  20.6015  20.6582  20.6992
    20.7227  20.8652  30.1621  30.3582  34.0525  34.3455  34.4634  34.7080
    34.9712  35.4332  35.7136  36.0508  36.9658  37.1767  37.3350  37.4208
    38.0577  38.0874  39.0576  39.1139  39.4648  40.3375  40.9506  41.0355
    41.9445  42.2794  43.1174  43.2980  43.9639  44.1552  44.9911  45.0601
    45.9064  46.0706  46.7889  46.9303  47.6319  48.7121  50.5445  50.8377
    51.4792  52.2582  52.9090  53.2816  53.3486  53.8961  54.2220  54.2819
    54.4142  55.2805  55.6242  55.8189  56.2925  56.5889

          k = 0.2000 0.1667 0.0000 (  2672 PWs)   bands (ev):

   -77.6939 -77.6812 -36.6265 -36.6202 -36.6200 -36.6158 -36.6151 -36.6087
   -23.7662 -23.4864 -23.4067 -22.6140 -22.5767 -22.4998   2.0014   2.3049
     2.7283   4.3149   4.3977   4.4424   5.3795   5.3921   5.7320   5.7834
     5.9290   5.9837   6.0514   6.0658   6.1832   7.4532   7.6694   8.1653
    20.3672  20.4513  20.5578  20.5944  20.6560  20.6768  20.7047  20.7122
    20.7591  20.8310  29.8853  29.9469  33.5236  33.5820  34.0052  34.2306
    34.7186  34.8175  34.9477  35.6812  36.1228  36.1322  37.0312  37.4873
    38.5498  38.6011  38.7700  39.2190  40.2861  40.3482  41.5432  41.7536
    42.0794  43.1050  43.8865  44.5849  44.7205  44.8432  45.4655  45.8873
    46.1170  46.3388  47.2586  47.9556  48.2112  48.5840  49.1073  51.1422
    51.2824  52.6671  53.1691  53.4973  53.5727  53.8659  54.1758  54.2763
    54.3254  54.5569  54.5819  54.9190  55.0238  55.2728

          k = 0.2000 0.1667 0.1429 (  2665 PWs)   bands (ev):

   -77.6927 -77.6628 -36.6237 -36.6196 -36.6183 -36.6171 -36.6104 -36.6082
   -23.7342 -23.4559 -23.4174 -22.6144 -22.5790 -22.5541   2.2174   2.3269
     2.7317   4.3865   4.4137   4.4540   5.1773   5.5813   5.6448   5.8596
     5.9074   5.9568   5.9957   6.1324   6.1636   7.4550   7.6652   7.7969
    20.4075  20.4441  20.5553  20.5750  20.6456  20.6735  20.6930  20.6973
    20.7383  20.7668  29.9657  30.0559  33.7375  33.7726  34.2292  34.4497
    34.6020  35.0881  35.4318  35.7090  36.0777  36.3005  36.8878  37.0571
    38.6008  38.7244  38.9139  39.1373  40.1682  40.3041  41.3875  41.4120
    42.0307  43.2730  43.5294  44.4661  44.5079  44.6275  44.8845  45.8599
    46.0073  46.3527  47.4522  47.5479  48.4275  48.5672  48.6899  50.9193
    51.5010  53.1537  53.2596  53.3947  53.8768  54.0520  54.3274  54.3927
    54.4644  54.5690  54.6869  55.0957  55.2192  55.7174

          k = 0.2000 0.1667 0.2857 (  2655 PWs)   bands (ev):

   -77.6856 -77.6405 -36.6188 -36.6169 -36.6165 -36.6137 -36.6107 -36.6075
   -23.6583 -23.4548 -23.3457 -22.7213 -22.6116 -22.5771   2.3433   2.5317
     3.0927   4.4317   4.4748   4.5967   5.0354   5.5467   5.6240   5.7430
     5.8827   5.9858   6.0573   6.1328   6.1807   6.8282   7.4637   7.6678
    20.4180  20.4891  20.5095  20.5633  20.5724  20.6081  20.6373  20.6559
    20.7234  20.7663  30.0764  30.4198  34.0214  34.2222  34.3756  34.7608
    34.9705  35.6317  35.9109  36.1265  36.4009  36.5324  36.7651  37.3536
    38.1221  38.5729  38.7605  39.2446  39.7969  40.2247  40.8041  40.8939
    42.2006  42.7931  43.4379  43.7399  43.9913  44.2925  44.4885  45.5810
    45.9584  46.1661  46.8364  47.0475  47.9639  48.2847  49.5584  50.7508
    51.4278  53.0840  53.4648  53.5453  53.7570  53.8510  53.9667  54.3797
    54.8352  55.3067  55.4160  55.8092  55.9952  56.1992

          k = 0.2000 0.1667 0.4286 (  2655 PWs)   bands (ev):

   -77.6651 -77.6579 -36.6187 -36.6165 -36.6146 -36.6139 -36.6112 -36.6097
   -23.5788 -23.5054 -23.1672 -22.9410 -22.6117 -22.5790   2.3757   2.5291
     4.0837   4.4506   4.5158   4.8318   4.9593   5.4180   5.4508   5.5359
     5.7306   5.8144   6.1146   6.1395   6.1518   6.1765   7.4617   7.6630
    20.3966  20.4037  20.4911  20.5096  20.5701  20.5807  20.6258  20.6433
    20.7392  20.7816  30.3228  30.5498  34.2408  34.6163  34.7054  34.9956
    35.3587  35.6107  35.7285  36.0472  36.7518  37.1699  37.5247  37.6545
    38.1435  38.2896  38.4655  39.0879  39.9894  40.2258  40.3843  40.7503
    41.6612  42.9574  42.9911  43.2694  43.4970  43.5396  44.3423  44.7499
    46.0132  46.2432  46.3905  46.9422  47.1143  47.9251  50.6443  51.1885
    51.2775  52.4147  53.3230  53.4925  53.7685  53.8971  54.1891  54.3304
    54.8013  54.8885  56.2235  56.2836  56.5878  56.9233

          k = 0.2000 0.3333 0.0000 (  2656 PWs)   bands (ev):

   -77.6797 -77.6508 -36.6178 -36.6174 -36.6158 -36.6140 -36.6121 -36.6082
   -23.6790 -23.4998 -23.2874 -22.7883 -22.6097 -22.5003   2.0333   2.5232
     3.4103   4.3517   4.4358   4.6582   5.2362   5.3185   5.6576   5.6622
     5.9683   6.0039   6.0228   6.1707   6.1992   6.4262   7.4627   8.1617
    20.3736  20.4747  20.5067  20.5425  20.5552  20.5999  20.6626  20.6937
    20.7315  20.8572  30.0258  30.3099  33.8020  34.1496  34.1712  34.6475
    34.7906  35.5073  35.8556  36.1310  36.3900  36.7271  37.1766  37.4415
    38.1347  38.3857  38.4216  39.3683  39.6412  40.2843  41.1670  41.1802
    42.2283  42.2406  43.7237  43.8890  44.3222  44.3559  45.0271  45.1286
    45.9680  46.3090  46.5590  47.3072  47.9865  48.5831  49.7530  51.0165
    51.4405  52.5802  53.1389  53.4596  53.4889  53.9453  54.1401  54.3063
    54.3834  54.9048  55.2177  55.9815  55.9875  56.1733

          k = 0.2000 0.3333 0.1429 (  2657 PWs)   bands (ev):

   -77.6828 -77.6484 -36.6179 -36.6166 -36.6164 -36.6144 -36.6123 -36.6091
   -23.6436 -23.4778 -23.2924 -22.7904 -22.6106 -22.5584   2.2741   2.5323
     3.3941   4.4243   4.4626   4.6725   5.0404   5.4898   5.5809   5.7343
     5.8606   5.9938   6.1000   6.1245   6.1838   6.4432   7.4613   7.7918
    20.4034  20.4601  20.5307  20.5401  20.5536  20.5833  20.6370  20.6685
    20.7235  20.7937  30.1136  30.4617  33.9699  34.3242  34.4155  34.8758
    35.1590  35.4820  35.8244  36.1843  36.5516  36.6301  36.9295  37.8440
    38.0044  38.4830  38.5965  39.1346  39.6461  40.2715  40.6919  40.9029
    42.1192  42.6869  43.4484  43.7082  43.9179  44.2041  44.4075  45.2637
    45.9383  46.3034  46.5831  47.0573  47.6926  48.3136  50.0033  50.7500
    51.3857  52.7514  53.4422  53.6337  53.7010  53.9340  53.9429  54.3578
    54.7407  55.2585  55.4989  55.9339  56.1217  56.3366

          k = 0.2000 0.3333 0.2857 (  2656 PWs)   bands (ev):

   -77.6777 -77.6490 -36.6187 -36.6172 -36.6157 -36.6147 -36.6116 -36.6081
   -23.5670 -23.4091 -23.2926 -22.7962 -22.7138 -22.6126   2.5166   2.9866
     3.3848   4.5075   4.6031   4.7029   4.8827   5.5115   5.5542   5.6931
     5.8664   5.9110   6.0608   6.1447   6.1924   6.4592   6.8409   7.4619
    20.4358  20.4432  20.5178  20.5277  20.5504  20.5748  20.5915  20.6137
    20.6513  20.7614  30.3707  30.7949  34.4019  34.6315  34.8458  34.9424
    35.3734  35.8766  36.0905  36.2407  36.9227  37.2276  37.2497  37.5541
    37.9134  38.7146  38.8180  39.1711  39.5209  39.7517  40.2672  40.4218
    42.1390  42.4021  42.8502  43.3703  43.4999  43.8578  44.0230  45.1477
    45.4453  45.8516  46.2563  46.6896  46.9106  48.2339  49.6945  50.9690
    51.2054  52.3428  53.3949  53.5357  53.8200  54.1422  54.3722  55.1401
    55.5123  55.5614  55.8644  56.1833  56.4557  56.7495

          k = 0.2000 0.3333 0.4286 (  2643 PWs)   bands (ev):

   -77.6480 -77.6408 -36.6165 -36.6159 -36.6117 -36.6113 -36.6092 -36.6046
   -23.5137 -23.3711 -23.1704 -22.9478 -22.7811 -22.6147   2.5275   3.3238
     4.0655   4.5864   4.6059   4.7497   4.9742   5.3987   5.4545   5.4681
     5.7054   5.8341   5.9911   6.1305   6.1579   6.2011   6.4681   7.4642
    20.3902  20.4087  20.4732  20.5089  20.5496  20.5678  20.5803  20.6035
    20.6261  20.7842  30.7337  30.9662  34.2819  34.8159  35.2520  35.2951
    35.7221  35.9702  36.1554  36.4429  36.7901  37.4135  37.7666  37.8527
    38.3336  38.4297  38.7673  39.0848  39.8330  39.8562  40.2044  40.6559
    41.4408  42.3529  42.7488  42.8754  42.9537  43.6095  43.7731  44.3463
    44.8224  45.1028  45.6958  46.4850  46.6691  48.2386  49.5467  50.7859
    51.4482  51.8156  53.1603  53.6504  54.2457  54.5552  54.6781  54.9714
    55.5561  56.2764  56.3251  56.6661  56.9070  57.1064

          k = 0.2000-0.5000 0.0000 (  2658 PWs)   bands (ev):

   -77.6657 -77.6654 -36.6158 -36.6155 -36.6150 -36.6149 -36.6135 -36.6133
   -23.6186 -23.5378 -23.0603 -23.0476 -22.6106 -22.5010   2.0422   2.5243
     4.3422   4.3697   4.8034   4.8230   4.9111   5.1135   5.3200   5.5747
     5.5764   5.9518   6.0402   6.1091   6.1871   6.2316   7.4616   8.1604
    20.3714  20.4141  20.4172  20.4975  20.5957  20.5982  20.6574  20.7007
    20.7207  20.8672  30.2763  30.2820  34.2598  34.3834  34.5500  34.7039
    34.9561  35.2329  35.7529  36.0452  37.0360  37.2747  37.4781  37.6471
    37.8775  38.1110  38.8699  38.9695  39.4865  40.6237  41.0066  41.5027
    41.8290  41.8767  42.5987  43.0847  44.0100  44.0678  44.9741  45.2318
    45.8096  46.0942  46.7498  46.8435  47.5722  48.8092  50.3404  51.2875
    51.6119  51.9940  52.8656  53.1557  53.3319  53.9117  54.0155  54.2994
    54.4233  55.3546  55.7889  56.1198  56.4460  56.5186

          k = 0.2000-0.5000 0.1429 (  2658 PWs)   bands (ev):

   -77.6660 -77.6655 -36.6182 -36.6180 -36.6160 -36.6158 -36.6105 -36.6105
   -23.5701 -23.5307 -23.0590 -23.0534 -22.6117 -22.5593   2.2910   2.5235
     4.3764   4.3925   4.8103   4.8189   4.9278   5.0049   5.4093   5.4663
     5.7194   5.8240   6.1172   6.1329   6.1648   6.1789   7.4614   7.7885
    20.3843  20.3934  20.4705  20.4982  20.5823  20.5875  20.6303  20.6589
    20.7339  20.8044  30.4121  30.4136  34.4196  34.5840  34.7321  34.7976
    35.3406  35.4264  35.7303  36.0374  36.9575  37.1803  37.6783  37.8625
    37.9232  38.1403  38.4552  38.8057  40.0906  40.4292  40.7650  40.8821
    41.8758  41.9385  43.0394  43.1547  43.5394  43.6103  44.6330  44.6424
    45.9818  46.3730  46.5689  46.5762  47.3345  47.9418  50.6878  51.1900
    51.9084  51.9934  53.1747  53.4064  53.6155  53.7473  54.2558  54.4603
    54.5347  54.7615  56.2059  56.5723  56.7733  56.7905

          k = 0.2000-0.5000 0.2857 (  2648 PWs)   bands (ev):

   -77.6518 -77.6510 -36.6164 -36.6162 -36.6141 -36.6141 -36.6075 -36.6074
   -23.5128 -23.4330 -23.0661 -23.0566 -22.7152 -22.6139   2.5275   3.0033
     4.4259   4.4714   4.7535   4.7936   4.9305   5.0367   5.4284   5.4349
     5.7194   5.8096   6.0341   6.1342   6.1558   6.1928   6.8382   7.4621
    20.3924  20.3947  20.4815  20.5295  20.5307  20.5670  20.5917  20.6046
    20.6659  20.7759  30.7562  30.7579  34.3797  34.8702  35.1243  35.1597
    35.6801  35.8254  36.0251  36.6290  36.8129  37.2158  37.6509  37.9785
    38.1538  38.1736  38.6522  38.9795  39.9887  40.0702  40.5406  40.7597
    41.7252  41.8398  42.6158  42.8544  43.0842  43.7179  43.8942  44.1352
    45.3944  45.6196  45.7166  46.4372  46.8318  47.8447  50.0963  50.8028
    51.7407  51.8944  53.2818  53.6723  53.8717  54.4291  54.6044  54.6736
    55.4160  55.7424  56.2807  56.8025  56.9433  56.9778

          k = 0.2000-0.5000 0.4286 (  2646 PWs)   bands (ev):

   -77.6483 -77.6475 -36.6160 -36.6158 -36.6150 -36.6147 -36.6063 -36.6062
   -23.4982 -23.2395 -23.0773 -23.0645 -22.9159 -22.6163   2.5280   4.0359
     4.4276   4.5795   4.6586   4.7725   4.9135   5.2301   5.2844   5.3979
     5.5007   5.8147   5.8855   5.9001   6.1698   6.1724   6.2059   7.4617
    20.3722  20.3891  20.4136  20.4936  20.5487  20.5595  20.5636  20.6128
    20.6158  20.8015  31.0997  31.1017  33.9921  34.7211  35.4193  35.6704
    36.1480  36.3475  36.5257  36.5805  36.7048  37.2100  37.5489  38.1203
    38.1713  38.3945  38.4383  39.5035  40.5516  40.6067  40.6569  40.8587
    41.6478  41.8879  42.2043  42.5197  42.7212  42.9177  43.1017  43.8388
    44.2714  44.5629  44.7729  46.3807  46.8916  48.6277  48.9733  50.2741
    51.4511  51.5563  52.6164  54.0022  54.1057  54.5398  55.2231  55.8216
    56.0606  56.8895  56.9145  57.0351  57.1590  57.5344

          k = 0.4000 0.0000 0.0000 (  2657 PWs)   bands (ev):

   -77.6854 -77.6423 -36.6186 -36.6186 -36.6163 -36.6118 -36.6118 -36.6086
   -23.6889 -23.5810 -23.2002 -22.8880 -22.4982 -22.4982   2.0057   2.0833
     3.9440   4.2873   4.2873   4.8202   5.2394   5.4562   5.4562   5.7864
     5.7892   5.9577   6.0160   6.0160   6.1874   6.1874   8.1601   8.1601
    20.3601  20.4550  20.4646  20.4646  20.5691  20.6111  20.7779  20.7877
    20.8038  20.8038  29.9376  30.1010  33.7430  33.9310  33.9310  34.7290
    34.7487  35.3068  35.3068  35.6928  36.8913  36.8950  37.2825  37.2825
    38.0163  38.8636  38.9857  39.2899  39.2899  39.2946  41.2543  41.8714
    41.8714  43.0310  43.1860  43.8867  44.3501  44.3501  45.9450  45.9450
    46.6135  46.7482  47.1060  47.2443  47.2443  48.4590  50.2076  50.8106
    50.8106  52.2783  52.6959  52.6960  52.8768  53.7740  54.2388  54.3050
    55.1814  55.1814  55.6950  56.0989  56.2635  56.2637

          k = 0.4000 0.0000 0.1429 (  2659 PWs)   bands (ev):

   -77.6801 -77.6570 -36.6176 -36.6174 -36.6172 -36.6150 -36.6122 -36.6096
   -23.6634 -23.5516 -23.2015 -22.8901 -22.5573 -22.5015   2.0341   2.2954
     3.9129   4.3291   4.3777   4.8004   5.1806   5.3684   5.5377   5.7022
     5.7729   5.9615   5.9898   6.1440   6.1455   6.1963   7.7898   8.1646
    20.3704  20.4390  20.4583  20.5027  20.5688  20.6047  20.7140  20.7421
    20.7439  20.8453  30.0294  30.2448  33.8549  34.1389  34.1663  34.7219
    35.0368  35.4418  35.4983  35.6582  36.9288  36.9359  37.2512  37.4957
    38.1198  38.2188  38.9805  39.1530  39.2809  40.0952  41.0262  41.3538
    42.1725  42.4223  43.6788  43.6870  43.8288  44.4013  45.2163  45.4328
    46.3222  46.3413  46.6257  47.3197  48.0435  48.2033  50.3394  50.7432
    51.1645  52.3393  52.8201  53.1777  53.5732  53.9146  54.0694  54.2317
    54.2933  55.5048  55.7249  56.0219  56.0555  56.5528

          k = 0.4000 0.0000 0.2857 (  2657 PWs)   bands (ev):

   -77.6795 -77.6541 -36.6205 -36.6163 -36.6161 -36.6160 -36.6125 -36.6062
   -23.6221 -23.4440 -23.2042 -22.8984 -22.7132 -22.5027   2.0397   2.9957
     3.8794   4.4280   4.5572   4.7357   5.1590   5.2419   5.4673   5.6048
     5.7438   5.9369   6.0589   6.1182   6.2236   6.2428   6.8374   8.1544
    20.3711  20.4235  20.4317  20.5370  20.5754  20.5792  20.6018  20.6426
    20.7026  20.8867  30.2912  30.5681  33.9788  34.5366  34.7109  34.8275
    34.8503  35.7771  36.0037  36.6773  36.8059  36.8757  37.3385  37.5146
    38.2070  38.2781  38.9213  39.2524  39.8739  40.3125  40.6816  40.8953
    41.4592  41.9889  43.0385  43.4305  43.5343  44.2296  44.4758  44.9685
    45.2913  45.6059  46.2077  46.9703  47.3854  49.2128  50.5890  50.8037
    51.5795  52.1948  52.9181  53.2223  53.4415  53.8792  54.0573  54.5562
    54.8938  55.1087  55.5182  55.6630  56.1451  56.9002

          k = 0.4000 0.0000 0.4286 (  2657 PWs)   bands (ev):

   -77.6711 -77.6609 -36.6214 -36.6180 -36.6177 -36.6151 -36.6100 -36.6072
   -23.6005 -23.3118 -23.1539 -22.9715 -22.8590 -22.5028   2.0459   3.7889
     4.0945   4.5338   4.6935   4.7085   5.1818   5.2010   5.2717   5.4096
     5.5521   5.8848   5.9280   6.0113   6.2213   6.2518   6.2861   8.1445
    20.3540  20.3708  20.3716  20.5051  20.5447  20.5578  20.6306  20.6389
    20.6810  20.9101  30.6259  30.7799  33.6670  34.6204  34.7583  35.5937
    35.6769  35.7507  36.2530  36.5126  36.6843  36.7288  37.7788  38.0749
    38.1616  38.2954  39.3788  39.9186  40.2875  40.5030  40.7685  40.7888
    40.8782  41.0968  42.7031  43.0013  43.1739  43.4423  43.6947  44.7599
    44.7685  44.8838  45.2999  46.9645  47.3404  49.7677  50.2332  51.1184
    51.3295  51.8497  52.8428  53.0890  53.3029  53.6713  54.2183  54.7749
    55.3276  55.3559  55.5685  56.4276  56.9562  57.2703

          k = 0.4000 0.1667 0.0000 (  2659 PWs)   bands (ev):

   -77.6748 -77.6625 -36.6189 -36.6169 -36.6158 -36.6144 -36.6131 -36.6101
   -23.6559 -23.5397 -23.2023 -22.8910 -22.5776 -22.5020   2.0352   2.3824
     3.9059   4.3421   4.4045   4.7931   5.1704   5.3458   5.5548   5.6651
     5.7684   5.9820   5.9856   6.1328   6.1650   6.2001   7.6628   8.1642
    20.3723  20.4378  20.4558  20.5102  20.5698  20.6032  20.6921  20.7252
    20.7345  20.8532  30.0618  30.2926  33.8943  34.2028  34.2500  34.7162
    35.0040  35.5324  35.5646  35.7621  36.9322  36.9507  37.2673  37.4537
    38.1435  38.1485  39.0180  39.2121  39.2616  40.1643  40.9947  41.2317
    42.2283  42.2492  43.5761  43.7200  43.8076  44.3333  45.1028  45.2488
    46.1984  46.2146  46.6648  47.2442  47.8911  48.3968  50.4052  50.7221
    51.2894  52.3425  52.8757  53.2584  53.6242  53.9177  54.1089  54.2125
    54.2840  55.5133  55.5153  55.8998  56.1272  56.5454

          k = 0.4000 0.1667 0.1429 (  2662 PWs)   bands (ev):

   -77.6771 -77.6671 -36.6190 -36.6184 -36.6168 -36.6157 -36.6140 -36.6099
   -23.6208 -23.5195 -23.2061 -22.8942 -22.5787 -22.5591   2.2765   2.3932
     3.8848   4.4119   4.4405   4.7920   5.0348   5.4562   5.4869   5.7348
     5.7594   5.8197   6.1127   6.1331   6.1621   6.1662   7.6615   7.7881
    20.3915  20.4195  20.4945  20.5101  20.5634  20.5906  20.6593  20.6716
    20.7612  20.7900  30.1670  30.4363  34.0292  34.3997  34.4683  35.0821
    35.2288  35.5192  35.5620  35.7810  36.8220  37.0551  37.2059  37.7619
    38.1667  38.1951  38.6395  39.0807  39.6577  40.2559  40.5717  40.9884
    41.8339  42.9442  43.3256  43.5283  43.6701  43.8813  44.5860  44.9966
    46.1321  46.3902  46.4973  47.1507  47.5197  48.0369  50.7310  50.7507
    51.1972  52.5181  53.3889  53.5370  53.6407  53.7727  54.0426  54.3383
    54.6539  54.8654  55.8265  56.1869  56.4900  56.6982

          k = 0.4000 0.1667 0.2857 (  2650 PWs)   bands (ev):

   -77.6558 -77.6541 -36.6173 -36.6152 -36.6140 -36.6138 -36.6096 -36.6085
   -23.5606 -23.4276 -23.2099 -22.8975 -22.7144 -22.5805   2.3782   3.0014
     3.8621   4.5220   4.5708   4.7562   4.9470   5.4333   5.4785   5.6469
     5.7347   5.8582   6.0499   6.1516   6.1654   6.2104   6.8390   7.6641
    20.4015  20.4126  20.4879  20.5255  20.5555  20.5735  20.5897  20.6270
    20.6538  20.8034  30.4596  30.7726  34.2558  34.7607  34.9400  35.0164
    35.4369  35.8063  35.9211  36.4234  36.9602  37.2275  37.3965  37.5365
    38.2608  38.4305  38.8535  39.2909  39.5401  39.9988  40.2016  40.6383
    41.6262  42.4822  42.9201  43.1866  43.3649  43.8040  43.9314  44.7064
    45.3458  45.6073  46.2987  46.5943  46.8650  48.3949  50.0358  51.2130
    51.3324  52.1275  53.2152  53.4319  53.8719  54.1807  54.2719  54.7712
    55.3025  55.6246  55.8969  56.3519  56.5106  57.0512

          k = 0.4000 0.1667 0.4286 (  2652 PWs)   bands (ev):

   -77.6590 -77.6552 -36.6180 -36.6179 -36.6159 -36.6134 -36.6113 -36.6058
   -23.5324 -23.2992 -23.1585 -22.9659 -22.8680 -22.5832   2.3817   3.8009
     4.0750   4.6269   4.6413   4.6804   5.0548   5.3174   5.3852   5.4423
     5.5972   5.8413   5.9292   6.0009   6.1830   6.1925   6.2340   7.6608
    20.3708  20.3886  20.4265  20.4981  20.5538  20.5622  20.5953  20.6109
    20.6219  20.8280  30.8278  30.9958  33.9911  34.7599  35.3936  35.4169
    35.7061  36.1044  36.4089  36.4458  36.7001  37.2013  37.6301  38.1230
    38.2906  38.4113  39.0129  39.1861  39.9612  40.2888  40.4484  40.7693
    41.3064  42.0305  42.6872  42.7895  42.8264  43.3182  43.7194  44.1090
    44.5226  44.6956  45.1632  46.5932  46.9897  48.9009  49.3993  50.8865
    51.4583  51.6613  52.6983  53.4635  53.9966  54.1872  54.8754  55.0613
    55.8824  56.1992  56.6280  57.0403  57.1201  57.2776

          k = 0.4000 0.3333 0.0000 (  2652 PWs)   bands (ev):

   -77.6660 -77.6531 -36.6182 -36.6172 -36.6159 -36.6147 -36.6086 -36.6067
   -23.6127 -23.3936 -23.1995 -22.9052 -22.7754 -22.5018   2.0434   3.3083
     3.8793   4.4679   4.6161   4.7144   5.1734   5.2144   5.3936   5.5980
     5.7235   5.9168   6.0292   6.1657   6.2351   6.2635   6.4598   8.1506
    20.3665  20.4069  20.4137  20.5400  20.5417  20.5715  20.6107  20.6341
    20.6932  20.8968  30.4042  30.6714  33.8939  34.5813  34.6702  35.0921
    35.1132  35.9004  36.2128  36.3667  36.7311  36.8770  37.6494  37.8863
    38.3088  38.3913  38.6570  39.3428  40.2308  40.4242  40.5121  40.8250
    41.2172  41.5721  43.0731  43.2863  43.3357  43.8654  44.6319  44.7446
    44.9740  45.4070  45.6813  47.1109  47.2307  49.4387  50.5010  50.9744
    51.4145  52.0616  52.8787  53.2707  53.5747  53.7370  54.0804  54.5052
    54.8316  55.2509  55.7088  55.9134  56.2739  57.0999

          k = 0.4000 0.3333 0.1429 (  2654 PWs)   bands (ev):

   -77.6644 -77.6573 -36.6183 -36.6177 -36.6175 -36.6146 -36.6083 -36.6080
   -23.5646 -23.3827 -23.2046 -22.9044 -22.7788 -22.5618   2.2910   3.3120
     3.8644   4.5419   4.6106   4.7156   4.9986   5.3934   5.4172   5.6213
     5.7233   5.8720   6.0191   6.1611   6.1823   6.2316   6.4666   7.7879
    20.3905  20.3989  20.4599  20.5148  20.5559  20.5786  20.5957  20.6222
    20.6353  20.8348  30.5367  30.8255  34.1279  34.6804  35.1487  35.1847
    35.2768  35.9154  36.1112  36.3247  36.8941  37.1959  37.5612  37.9094
    38.2741  38.4760  38.7332  39.4079  39.5925  40.0635  40.2350  40.7061
    41.4495  42.1713  42.8799  43.0433  43.2950  43.7581  44.1027  44.6861
    44.8406  45.2513  45.7895  46.7899  46.9507  48.8229  49.9033  51.2558
    51.3800  51.9114  53.0109  53.2584  53.9348  54.1797  54.2460  54.7199
    55.3000  55.8023  56.1278  56.4113  56.5453  57.2049

          k = 0.4000 0.3333 0.2857 (  2651 PWs)   bands (ev):

   -77.6546 -77.6540 -36.6191 -36.6160 -36.6146 -36.6128 -36.6091 -36.6088
   -23.4395 -23.3449 -23.2173 -22.9029 -22.7885 -22.7199   3.0017   3.3239
     3.8430   4.5471   4.6119   4.8204   4.9366   5.4523   5.5773   5.6129
     5.6827   5.8423   5.9866   6.0835   6.1352   6.1483   6.4722   6.8431
    20.4086  20.4414  20.4940  20.5023  20.5287  20.5595  20.5614  20.5865
    20.6281  20.6857  30.9026  31.2076  34.6521  34.8558  35.3004  35.3599
    35.5446  36.2588  36.3864  36.5237  37.1458  37.5702  37.7837  38.0716
    38.3278  38.5153  39.0084  39.1335  39.3177  39.4163  40.0794  40.2524
    41.7437  42.2329  42.6592  42.9536  43.0876  43.4587  43.4735  44.2951
    44.8514  44.9941  45.6745  45.8785  46.2999  47.4229  48.6643  49.9996
    51.3852  51.6815  53.8441  54.4157  54.5104  55.0268  55.3869  55.5020
    55.6714  56.1537  56.5177  56.7264  57.2163  57.4396

          k = 0.4000 0.3333 0.4286 (  2646 PWs)   bands (ev):

   -77.6483 -77.6443 -36.6170 -36.6147 -36.6134 -36.6118 -36.6093 -36.6074
   -23.3517 -23.2596 -23.1755 -22.9564 -22.8896 -22.7920   3.3279   3.8256
     4.0610   4.5244   4.5272   4.9124   5.0627   5.3817   5.4590   5.5959
     5.6609   5.7874   5.9107   5.9742   6.0596   6.0795   6.0933   6.4720
    20.4090  20.4340  20.4723  20.4941  20.5126  20.5604  20.5656  20.5768
    20.5856  20.6416  31.3512  31.5146  34.6868  34.8247  35.4763  35.6069
    35.6791  35.9045  36.7970  36.8433  37.5991  37.6569  37.7550  37.9925
    38.2938  38.9844  39.0771  39.2282  39.7561  39.8505  40.0010  40.2389
    41.6306  42.2211  42.5931  42.7710  43.0834  43.1141  43.2292  43.7540
    44.0295  44.3348  45.1288  45.5089  45.6905  46.9714  47.5394  48.6665
    51.5694  51.5838  54.2047  55.2544  55.4772  55.4980  55.7678  55.8299
    56.2571  56.5804  56.8426  57.1784  57.5357  57.7348

          k = 0.4000-0.5000 0.0000 (  2650 PWs)   bands (ev):

   -77.6565 -77.6563 -36.6183 -36.6182 -36.6163 -36.6158 -36.6058 -36.6054
   -23.5966 -23.2950 -23.0791 -23.0567 -22.8681 -22.5021   2.0484   3.8155
     4.4025   4.5555   4.7228   4.8589   4.9126   5.1840   5.2324   5.2389
     5.5343   5.8720   5.8951   6.0021   6.2372   6.2565   6.2911   8.1436
    20.3465  20.3585  20.3636  20.4994  20.5442  20.5567  20.6365  20.6418
    20.6784  20.9133  30.7450  30.7487  33.6000  34.6104  34.8525  35.5517
    35.7853  35.8945  36.3410  36.4251  36.6570  36.8783  37.5996  38.0769
    38.2113  38.2152  39.4046  40.2341  40.3383  40.5839  40.7922  40.8265
    41.0356  41.4480  41.7744  42.9461  43.0938  43.4418  43.5247  44.4808
    44.7829  44.8198  45.3224  46.8964  47.4040  49.9701  50.0323  51.0643
    51.5957  51.6553  52.6746  53.2177  53.2982  53.4545  54.3220  55.1140
    55.2219  55.2806  56.1425  56.1493  57.2992  57.3425

          k = 0.4000-0.5000 0.1429 (  2650 PWs)   bands (ev):

   -77.6553 -77.6535 -36.6164 -36.6163 -36.6158 -36.6156 -36.6076 -36.6075
   -23.5463 -23.2869 -23.0774 -23.0581 -22.8744 -22.5624   2.2955   3.8181
     4.4171   4.5676   4.6897   4.8285   4.8839   5.1801   5.2810   5.3468
     5.5776   5.8407   5.9024   5.9868   6.1969   6.2139   6.2543   7.7863
    20.3631  20.3704  20.4036  20.4976  20.5456  20.5627  20.6102  20.6250
    20.6272  20.8521  30.9040  30.9045  33.8428  34.7997  35.2296  35.4165
    35.8238  36.0901  36.4018  36.5305  36.8155  37.1378  37.5313  38.1063
    38.1210  38.3294  39.0349  39.2687  40.4997  40.5371  40.6603  40.8446
    41.6642  41.7525  41.8297  42.6962  42.8841  43.2366  43.5708  44.1898
    44.4804  44.7231  45.0443  46.6565  47.1506  49.1552  49.5694  50.9680
    51.5777  51.6959  52.4677  53.4134  53.5217  53.9724  54.8168  55.2830
    55.6091  56.4067  56.7745  56.8083  57.2815  57.3584

          k = 0.4000-0.5000 0.2857 (  2640 PWs)   bands (ev):

   -77.6388 -77.6383 -36.6155 -36.6155 -36.6102 -36.6100 -36.6072 -36.6072
   -23.4063 -23.2647 -23.0729 -23.0631 -22.8877 -22.7230   3.0067   3.8280
     4.4481   4.5188   4.6615   4.7053   5.0249   5.2123   5.4044   5.4979
     5.6716   5.7703   5.9190   5.9532   6.1015   6.1087   6.1240   6.8437
    20.3992  20.4207  20.4614  20.4942  20.5031  20.5534  20.5705  20.5860
    20.5974  20.6996  31.3287  31.3290  34.4266  34.7767  35.4206  35.7566
    36.0310  36.0465  36.6775  36.7409  37.1989  37.5144  37.7430  38.0382
    38.1078  38.6275  38.8094  39.1462  40.0516  40.2125  40.4479  40.6414
    41.7149  41.9307  42.5572  42.7407  42.7672  42.9174  43.2841  43.6294
    43.9365  44.6610  44.9012  45.8217  46.0954  47.3306  48.3121  49.0363
    51.4966  51.5670  53.5842  54.9844  55.1831  55.3981  55.6490  55.7511
    56.3136  56.3603  56.8902  57.0165  57.4430  57.5354

          k = 0.4000-0.5000 0.4286 (  2640 PWs)   bands (ev):

   -77.6361 -77.6361 -36.6146 -36.6146 -36.6110 -36.6109 -36.6071 -36.6070
   -23.2422 -23.2012 -23.0717 -23.0707 -22.9447 -22.9006   3.8359   4.0612
     4.4459   4.4547   4.6477   4.6492   5.0754   5.1845   5.5282   5.5765
     5.6916   5.7295   5.8806   5.8915   5.9565   5.9726   5.9743   6.0166
    20.4334  20.4379  20.4671  20.4715  20.5197  20.5485  20.5618  20.5635
    20.5728  20.5798  31.7875  31.7888  34.8545  34.8758  35.3992  35.4588
    35.5735  35.6300  37.2245  37.2291  37.5752  37.5920  37.6679  37.7819
    39.0959  39.1969  39.3978  39.6350  39.7009  39.8384  40.5633  40.6616
    41.5579  41.6629  42.6964  42.7212  42.7974  42.9089  43.3403  43.5196
    43.6127  44.0623  44.7251  44.9300  45.4596  45.8783  46.8246  46.9721
    51.7998  51.8011  54.9982  55.4626  56.0016  56.0909  56.2941  56.3625
    56.5766  56.6818  57.0184  57.0894  57.7625  58.0549

     the Fermi energy is    49.0850 ev

!    total energy              =   -2020.39719692 Ry
     Harris-Foulkes estimate   =   -2020.39719797 Ry
     estimated scf accuracy    <       0.00000204 Ry

     The total energy is the sum of the following terms:

     one-electron contribution =      58.47051793 Ry
     hartree contribution      =     187.59535331 Ry
     xc contribution           =    -193.55388599 Ry
     ewald contribution        =   -2072.78700597 Ry
     smearing contrib. (-TS)   =      -0.12217620 Ry

     convergence has been achieved in   8 iterations

     Forces acting on atoms (Ry/au):

     atom    1 type  1   force =     0.00000000    0.00000000    0.00000000
     atom    2 type  1   force =     0.00000000    0.00000000    0.00000000
     atom    3 type  1   force =     0.00000000    0.00000000    0.00000000
     atom    4 type  1   force =     0.00000000    0.00000000    0.00000000
     atom    5 type  1   force =     0.00000000    0.00000000    0.00000000
     atom    6 type  1   force =     0.00000000    0.00000000    0.00000000
     atom    7 type  2   force =     0.00000000    0.00000000    0.00000000
     atom    8 type  2   force =     0.00000000    0.00000000    0.00000000

     Total force =     0.000000     Total SCF correction =     0.000000


     entering subroutine stress ...

          total   stress  (Ry/bohr**3)                   (kbar)     P= 5309.50
   0.03609324   0.00000000   0.00000000       5309.50      0.00      0.00
   0.00000000   0.03609324   0.00000000          0.00   5309.50      0.00
   0.00000000   0.00000000   0.03609324          0.00      0.00   5309.50


     BFGS Geometry Optimization

     number of scf cycles    =   1
     number of bfgs steps    =   0

     enthalpy new            =   -2020.3971969227 Ry

     new trust radius        =       0.5000000000 bohr
     new conv_thr            =       0.0001000000 Ry

     new unit-cell volume =    828.02266 a.u.^3 (   122.70030 Ang^3 )

CELL_PARAMETERS (alat=  8.53457320)
   1.100269143   0.000000000   0.000000000
   0.000000000   1.100269143   0.000000000
   0.000000000   0.000000000   1.100269143

ATOMIC_POSITIONS (crystal)
Cr       0.000000000   0.500000000   0.250000000
Cr       0.000000000   0.500000000   0.750000000
Cr       0.500000000   0.750000000   0.000000000
Cr       0.500000000   0.250000000   0.000000000
Cr       0.750000000   0.000000000   0.500000000
Cr       0.250000000   0.000000000   0.500000000
Si       0.500000000   0.500000000   0.500000000
Si       0.000000000   0.000000000   0.000000000



     Writing output data file Prototype-La-cP8-Cr3Si.save
     NEW-OLD atomic charge density approx. for the potential
     NEW k-points:
        k(    1) = (   0.0000000   0.0000000   0.0000000), wk =   0.0095238
        k(    2) = (   0.0000000   0.0000000   0.1298384), wk =   0.0190476
        k(    3) = (   0.0000000   0.0000000   0.2596767), wk =   0.0190476
        k(    4) = (   0.0000000   0.0000000   0.3895151), wk =   0.0190476
        k(    5) = (   0.0000000   0.1514781   0.0000000), wk =   0.0190476
        k(    6) = (   0.0000000   0.1514781   0.1298384), wk =   0.0380952
        k(    7) = (   0.0000000   0.1514781   0.2596767), wk =   0.0380952
        k(    8) = (   0.0000000   0.1514781   0.3895151), wk =   0.0380952
        k(    9) = (   0.0000000   0.3029562   0.0000000), wk =   0.0190476
        k(   10) = (   0.0000000   0.3029562   0.1298384), wk =   0.0380952
        k(   11) = (   0.0000000   0.3029562   0.2596767), wk =   0.0380952
        k(   12) = (   0.0000000   0.3029562   0.3895151), wk =   0.0380952
        k(   13) = (   0.0000000  -0.4544343   0.0000000), wk =   0.0095238
        k(   14) = (   0.0000000  -0.4544343   0.1298384), wk =   0.0190476
        k(   15) = (   0.0000000  -0.4544343   0.2596767), wk =   0.0190476
        k(   16) = (   0.0000000  -0.4544343   0.3895151), wk =   0.0190476
        k(   17) = (   0.1817737   0.0000000   0.0000000), wk =   0.0190476
        k(   18) = (   0.1817737   0.0000000   0.1298384), wk =   0.0380952
        k(   19) = (   0.1817737   0.0000000   0.2596767), wk =   0.0380952
        k(   20) = (   0.1817737   0.0000000   0.3895151), wk =   0.0380952
        k(   21) = (   0.1817737   0.1514781   0.0000000), wk =   0.0380952
        k(   22) = (   0.1817737   0.1514781   0.1298384), wk =   0.0761905
        k(   23) = (   0.1817737   0.1514781   0.2596767), wk =   0.0761905
        k(   24) = (   0.1817737   0.1514781   0.3895151), wk =   0.0761905
        k(   25) = (   0.1817737   0.3029562   0.0000000), wk =   0.0380952
        k(   26) = (   0.1817737   0.3029562   0.1298384), wk =   0.0761905
        k(   27) = (   0.1817737   0.3029562   0.2596767), wk =   0.0761905
        k(   28) = (   0.1817737   0.3029562   0.3895151), wk =   0.0761905
        k(   29) = (   0.1817737  -0.4544343   0.0000000), wk =   0.0190476
        k(   30) = (   0.1817737  -0.4544343   0.1298384), wk =   0.0380952
        k(   31) = (   0.1817737  -0.4544343   0.2596767), wk =   0.0380952
        k(   32) = (   0.1817737  -0.4544343   0.3895151), wk =   0.0380952
        k(   33) = (   0.3635474   0.0000000   0.0000000), wk =   0.0190476
        k(   34) = (   0.3635474   0.0000000   0.1298384), wk =   0.0380952
        k(   35) = (   0.3635474   0.0000000   0.2596767), wk =   0.0380952
        k(   36) = (   0.3635474   0.0000000   0.3895151), wk =   0.0380952
        k(   37) = (   0.3635474   0.1514781   0.0000000), wk =   0.0380952
        k(   38) = (   0.3635474   0.1514781   0.1298384), wk =   0.0761905
        k(   39) = (   0.3635474   0.1514781   0.2596767), wk =   0.0761905
        k(   40) = (   0.3635474   0.1514781   0.3895151), wk =   0.0761905
        k(   41) = (   0.3635474   0.3029562   0.0000000), wk =   0.0380952
        k(   42) = (   0.3635474   0.3029562   0.1298384), wk =   0.0761905
        k(   43) = (   0.3635474   0.3029562   0.2596767), wk =   0.0761905
        k(   44) = (   0.3635474   0.3029562   0.3895151), wk =   0.0761905
        k(   45) = (   0.3635474  -0.4544343   0.0000000), wk =   0.0190476
        k(   46) = (   0.3635474  -0.4544343   0.1298384), wk =   0.0380952
        k(   47) = (   0.3635474  -0.4544343   0.2596767), wk =   0.0380952
        k(   48) = (   0.3635474  -0.4544343   0.3895151), wk =   0.0380952

     total cpu time spent up to now is      251.7 secs

     Self-consistent Calculation

     iteration #  1     ecut=    40.00 Ry     beta=0.70
     CG style diagonalization
     c_bands:  1 eigenvalues not converged
     c_bands:  3 eigenvalues not converged
     c_bands:  1 eigenvalues not converged
     c_bands:  1 eigenvalues not converged
     c_bands:  1 eigenvalues not converged
     c_bands:  1 eigenvalues not converged
     c_bands:  2 eigenvalues not converged
     c_bands:  1 eigenvalues not converged
     c_bands:  1 eigenvalues not converged
     c_bands:  2 eigenvalues not converged
     c_bands:  1 eigenvalues not converged
     c_bands:  2 eigenvalues not converged
     c_bands:  2 eigenvalues not converged
     c_bands:  1 eigenvalues not converged
     c_bands:  1 eigenvalues not converged
     c_bands:  2 eigenvalues not converged
     c_bands:  1 eigenvalues not converged
     c_bands:  1 eigenvalues not converged
     c_bands:  1 eigenvalues not converged
     c_bands:  1 eigenvalues not converged
     c_bands:  2 eigenvalues not converged
     c_bands:  1 eigenvalues not converged
     c_bands:  2 eigenvalues not converged
     c_bands:  1 eigenvalues not converged
     c_bands:  1 eigenvalues not converged
     c_bands:  1 eigenvalues not converged
     c_bands:  3 eigenvalues not converged
     c_bands:  1 eigenvalues not converged
     c_bands:  1 eigenvalues not converged
     c_bands:  3 eigenvalues not converged
     c_bands:  4 eigenvalues not converged
     ethr =  1.00E-06,  avg # of iterations = 21.8

     total cpu time spent up to now is      347.8 secs

     total energy              =   -2012.08624152 Ry
     Harris-Foulkes estimate   =   -2040.20281711 Ry
     estimated scf accuracy    <      35.99577267 Ry

     iteration #  2     ecut=    40.00 Ry     beta=0.70
     CG style diagonalization
     ethr =  1.00E-02,  avg # of iterations =  4.0

     total cpu time spent up to now is      363.4 secs

     total energy              =   -2022.38560601 Ry
     Harris-Foulkes estimate   =   -2026.08717377 Ry
     estimated scf accuracy    <       5.69173186 Ry

     iteration #  3     ecut=    40.00 Ry     beta=0.70
     CG style diagonalization
     ethr =  3.65E-03,  avg # of iterations =  3.6

     total cpu time spent up to now is      379.7 secs

     total energy              =   -2023.82881050 Ry
     Harris-Foulkes estimate   =   -2024.07529106 Ry
     estimated scf accuracy    <       0.41968044 Ry

     iteration #  4     ecut=    40.00 Ry     beta=0.70
     CG style diagonalization
     ethr =  2.69E-04,  avg # of iterations =  3.7

     total cpu time spent up to now is      396.7 secs

     total energy              =   -2023.94611779 Ry
     Harris-Foulkes estimate   =   -2023.94722429 Ry
     estimated scf accuracy    <       0.00207473 Ry

     iteration #  5     ecut=    40.00 Ry     beta=0.70
     CG style diagonalization
     c_bands:  2 eigenvalues not converged
     c_bands:  1 eigenvalues not converged
     c_bands:  2 eigenvalues not converged
     c_bands:  1 eigenvalues not converged
     c_bands:  3 eigenvalues not converged
     c_bands:  1 eigenvalues not converged
     c_bands:  2 eigenvalues not converged
     c_bands:  2 eigenvalues not converged
     c_bands:  1 eigenvalues not converged
     c_bands:  3 eigenvalues not converged
     c_bands:  3 eigenvalues not converged
     c_bands:  3 eigenvalues not converged
     c_bands:  2 eigenvalues not converged
     c_bands:  4 eigenvalues not converged
     c_bands:  2 eigenvalues not converged
     c_bands:  1 eigenvalues not converged
     c_bands:  2 eigenvalues not converged
     c_bands:  2 eigenvalues not converged
     c_bands:  2 eigenvalues not converged
     c_bands:  2 eigenvalues not converged
     c_bands:  3 eigenvalues not converged
     c_bands:  2 eigenvalues not converged
     c_bands:  3 eigenvalues not converged
     c_bands:  3 eigenvalues not converged
     c_bands:  2 eigenvalues not converged
     c_bands:  1 eigenvalues not converged
     c_bands:  2 eigenvalues not converged
     c_bands:  2 eigenvalues not converged
     c_bands:  2 eigenvalues not converged
     c_bands:  1 eigenvalues not converged
     c_bands:  1 eigenvalues not converged
     c_bands:  2 eigenvalues not converged
     ethr =  1.33E-06,  avg # of iterations =  5.4

     total cpu time spent up to now is      422.1 secs

     total energy              =   -2023.94803142 Ry
     Harris-Foulkes estimate   =   -2023.94867517 Ry
     estimated scf accuracy    <       0.00117685 Ry

     iteration #  6     ecut=    40.00 Ry     beta=0.70
     CG style diagonalization
     c_bands:  1 eigenvalues not converged
     c_bands:  1 eigenvalues not converged
     c_bands:  1 eigenvalues not converged
     c_bands:  1 eigenvalues not converged
     c_bands:  1 eigenvalues not converged
     c_bands:  1 eigenvalues not converged
     c_bands:  2 eigenvalues not converged
     c_bands:  1 eigenvalues not converged
     c_bands:  1 eigenvalues not converged
     c_bands:  1 eigenvalues not converged
     ethr =  7.54E-07,  avg # of iterations =  3.6

     total cpu time spent up to now is      437.4 secs

     End of self-consistent calculation

          k = 0.0000 0.0000 0.0000 (  2601 PWs)   bands (ev):

   -88.8868 -88.7289 -49.1620 -49.1620 -49.1620 -49.1587 -49.1587 -49.1587
   -34.4634 -34.4414 -34.4414 -33.9910 -33.9910 -33.9910  -7.0566  -7.0566
    -6.8423  -5.8394  -5.8394  -5.8394  -5.2177  -5.2177  -5.2177  -5.2127
    -5.2127  -5.2127  -5.0321  -5.0321  -5.0321  -4.1120  -4.1120  -4.1120
     8.6501   8.6501   8.7321   8.7321   8.8022   8.8022   8.8022   8.8025
     8.8025   8.8025  19.3967  20.4884  24.3063  24.3063  24.3063  24.8439
    24.8439  24.8439  25.1900  25.2033  25.2033  26.5199  27.9927  27.9927
    27.9927  28.3130  28.3130  28.3130  28.5552  28.5552  30.6011  30.6011
    30.6011  32.3900  32.3900  32.9523  32.9523  32.9523  33.0047  33.0047
    33.0047  33.9826  35.0818  35.3620  35.3620  35.3620  35.6104  35.6104
    37.2240  37.2240  37.2240  41.3693  41.3693  41.3693  41.7807  41.7807
    41.8152  41.8152  41.8152  42.5346  42.5346  42.5346

          k = 0.0000 0.0000 0.1298 (  2657 PWs)   bands (ev):

   -89.0198 -88.9051 -49.1705 -49.1705 -49.1685 -49.1630 -49.1630 -49.1629
   -34.4702 -34.4510 -34.4192 -34.0677 -34.0420 -34.0420  -7.0840  -7.0370
    -6.8180  -5.8398  -5.8398  -5.8092  -5.3082  -5.3082  -5.2441  -5.2310
    -5.1704  -5.1704  -5.0827  -5.0827  -5.0791  -4.2739  -4.1262  -4.1262
     8.6436   8.6565   8.7133   8.7182   8.7695   8.7695   8.7847   8.7933
     8.7933   8.7976  19.5038  20.4463  24.4121  24.4121  24.5083  24.6559
    24.9553  24.9553  25.1910  25.2931  25.6343  26.6329  27.3970  27.5472
    27.5472  28.2760  28.6082  28.6653  28.6962  28.6962  30.5952  30.5952
    30.6119  32.0657  32.1540  32.7317  32.7317  32.8658  32.8658  33.1280
    33.2359  34.0405  34.1142  34.9284  35.2060  35.2116  35.2116  36.9476
    37.2378  37.2378  37.7351  40.5628  41.3740  41.3740  41.3994  41.5485
    41.7042  41.7042  42.3483  42.3483  42.4417  42.8186

          k = 0.0000 0.0000 0.2597 (  2677 PWs)   bands (ev):

   -89.0489 -88.9870 -49.1710 -49.1710 -49.1705 -49.1695 -49.1651 -49.1651
   -34.4853 -34.4604 -34.3798 -34.1244 -34.0513 -34.0513  -7.0714  -7.0078
    -6.5128  -5.8304  -5.8304  -5.7258  -5.3492  -5.3492  -5.3442  -5.2214
    -5.1337  -5.1337  -5.1104  -5.1104  -5.1099  -4.7527  -4.1362  -4.1362
     8.6418   8.6796   8.6980   8.7154   8.7316   8.7316   8.7824   8.7875
     8.7875   8.7939  19.8231  20.3735  24.1214  24.6851  24.6851  25.0864
    25.1990  25.1990  25.3603  25.6312  26.3150  26.7457  26.9473  27.2157
    27.2157  28.1369  28.6234  28.6889  28.7004  28.7004  30.3101  30.6268
    30.6268  31.6268  31.7766  32.3903  32.3903  32.7568  32.7890  32.7890
    33.3626  33.4767  33.6039  34.7228  34.7367  34.7367  35.6184  37.1234
    37.1234  38.0903  38.2761  39.5058  41.2528  41.2528  41.6018  42.0540
    42.0650  42.0650  42.1577  42.4824  42.4825  42.8053

          k = 0.0000 0.0000 0.3895 (  2658 PWs)   bands (ev):

   -88.9677 -88.9637 -49.1672 -49.1672 -49.1668 -49.1664 -49.1664 -49.1646
   -34.4722 -34.4456 -34.2925 -34.2018 -34.0441 -34.0441  -7.0508  -7.0247
    -5.9731  -5.8246  -5.8246  -5.5833  -5.4653  -5.3564  -5.3564  -5.3348
    -5.1827  -5.1412  -5.1350  -5.1350  -5.0730  -5.0730  -4.1298  -4.1298
     8.6653   8.6776   8.7053   8.7053   8.7074   8.7224   8.7881   8.7883
     8.7910   8.7910  20.1597  20.3102  24.1539  24.7077  24.9821  24.9821
    25.3204  25.3204  25.3888  25.5264  26.9804  27.2952  27.2952  27.3901
    27.8308  28.0135  28.2091  28.2091  28.3994  28.6427  29.7717  30.6425
    30.6425  31.0420  31.4083  31.4850  32.1336  32.1336  33.2715  33.2715
    33.5159  33.5636  33.6027  34.0807  34.0807  34.0883  36.8670  36.8670
    37.3441  38.1879  38.1979  39.5845  40.6758  41.2503  41.2503  41.5090
    42.3947  42.3947  42.7068  42.7577  42.7578  43.1012

          k = 0.0000 0.1515 0.0000 (  2653 PWs)   bands (ev):

   -89.0002 -88.9050 -49.1697 -49.1697 -49.1670 -49.1630 -49.1630 -49.1629
   -34.4662 -34.4448 -34.4111 -34.0753 -34.0426 -34.0426  -7.0820  -7.0244
    -6.7891  -5.8345  -5.8345  -5.7884  -5.3158  -5.3158  -5.2423  -5.2410
    -5.1597  -5.1597  -5.0860  -5.0860  -5.0828  -4.3256  -4.1241  -4.1241
     8.6440   8.6598   8.7114   8.7193   8.7669   8.7669   8.7845   8.7935
     8.7935   8.7974  19.5493  20.4356  24.4320  24.4486  24.4486  24.7748
    24.9923  24.9923  25.1892  25.3106  25.7771  26.6727  27.2298  27.4711
    27.4711  28.2620  28.6193  28.6779  28.7433  28.7433  30.5971  30.5971
    30.6015  31.9866  32.0918  32.6690  32.6690  32.8337  32.8337  33.1703
    33.2851  33.8454  34.0994  34.8845  35.1534  35.1540  35.1540  37.2172
    37.2346  37.2346  37.8268  40.3031  41.3770  41.3770  41.4063  41.6140
    41.7063  41.7063  42.3632  42.3631  42.4880  42.8730

          k = 0.0000 0.1515 0.1298 (  2662 PWs)   bands (ev):

   -89.0420 -88.9153 -49.1715 -49.1707 -49.1687 -49.1672 -49.1624 -49.1611
   -34.4834 -34.4296 -34.4106 -34.0738 -34.0681 -34.0453  -7.0610  -6.9494
    -6.7708  -5.8252  -5.8071  -5.7900  -5.3563  -5.3499  -5.2305  -5.2189
    -5.1845  -5.1358  -5.1231  -5.0992  -5.0589  -4.3463  -4.2870  -4.1260
     8.6494   8.6643   8.7101   8.7155   8.7612   8.7621   8.7681   8.7791
     8.7922   8.7952  19.6689  20.4219  24.4813  24.5605  24.6235  24.7161
    25.0455  25.1132  25.3018  25.6192  25.8497  26.7725  26.8459  27.2807
    27.4922  28.2548  28.3504  28.6466  28.8663  29.0212  30.4459  30.4983
    30.6815  31.6825  31.9856  32.4945  32.6018  32.6046  32.9063  33.1154
    33.2707  33.6161  34.0669  34.4957  34.6306  35.1609  35.6563  36.5152
    37.1968  38.2066  38.4244  40.3610  40.8614  41.0651  41.2167  41.3878
    41.5644  42.1409  42.2417  42.3601  42.4976  42.9561

          k = 0.0000 0.1515 0.2597 (  2666 PWs)   bands (ev):

   -89.0129 -88.9680 -49.1697 -49.1694 -49.1690 -49.1676 -49.1651 -49.1633
   -34.4768 -34.4318 -34.3659 -34.1267 -34.0772 -34.0480  -7.0513  -6.8689
    -6.5167  -5.8063  -5.7880  -5.7213  -5.4137  -5.3842  -5.2647  -5.2313
    -5.1591  -5.1389  -5.1203  -5.1037  -5.0608  -4.7308  -4.3475  -4.1282
     8.6540   8.6833   8.6972   8.7158   8.7275   8.7379   8.7686   8.7728
     8.7867   8.7916  19.9768  20.4023  24.2648  24.8005  24.8528  24.9116
    25.2867  25.3831  25.7578  25.8576  26.2268  26.7571  26.9725  27.1295
    27.1347  28.1777  28.2159  28.6616  28.7545  29.1350  30.0800  30.3284
    30.7039  31.1915  31.8727  31.9995  32.2719  32.3525  32.7359  32.7751
    33.2005  33.4360  33.5274  34.0244  34.5503  35.0088  35.8821  36.8765
    37.0005  38.6765  39.2787  39.6116  40.5034  40.6547  41.1818  41.6117
    41.7592  42.3065  42.5068  42.8393  43.0772  43.0404

          k = 0.0000 0.1515 0.3895 (  2658 PWs)   bands (ev):

   -88.9833 -88.9516 -49.1686 -49.1680 -49.1679 -49.1658 -49.1655 -49.1629
   -34.4529 -34.4360 -34.2911 -34.1998 -34.0716 -34.0538  -7.0496  -6.8686
    -5.9858  -5.7911  -5.7718  -5.5971  -5.4785  -5.3930  -5.3468  -5.3038
    -5.2571  -5.1527  -5.1327  -5.0997  -5.0757  -5.0737  -4.3478  -4.1196
     8.6657   8.6787   8.7016   8.7068   8.7153   8.7187   8.7678   8.7741
     8.7823   8.7968  20.2732  20.3939  24.2825  24.7212  25.1323  25.1815
    25.2323  25.5077  25.5087  25.8783  26.9314  27.1122  27.1384  27.4627
    27.8057  27.9440  28.1961  28.2668  28.5073  29.1152  29.6847  30.2004
    30.6666  30.9032  31.0108  31.5432  31.8389  32.0388  32.6765  32.7000
    33.1271  33.3179  33.7341  33.8290  33.9132  34.7610  36.6840  37.0013
[...]
    24.2187  24.5283  24.5404  24.7933  24.9603  25.3288  26.6900  27.0474
    28.3625  28.4613  30.3891  30.7303  31.4261  31.6103  31.6808  32.2803
    33.2178  33.3138  33.7611  33.8049  34.5278  34.5371

          k = 0.1679-0.4197 0.3598 (  4506 PWs)   bands (ev):

   -98.3571 -98.3570 -57.1092 -57.1091 -57.1087 -57.1086 -57.1060 -57.1059
   -42.1081 -42.0644 -42.0448 -42.0439 -42.0261 -41.9809 -13.7966 -13.3976
   -13.2571 -13.2349 -13.1806 -13.1738 -13.1571 -13.0932 -13.0903 -13.0663
   -13.0514 -13.0077 -12.9902 -12.9895 -12.9412 -12.9397 -12.9377 -12.6203
     1.0266   1.0268   1.0345   1.0345   1.0361   1.0450   1.0461   1.0495
     1.0550   1.0584  13.7547  13.7549  18.1450  18.5457  19.1969  19.1977
    19.4052  19.4683  19.7169  20.0436  20.0608  20.3845  20.5990  20.8814
    21.2630  21.3656  21.4767  21.4944  21.8262  21.8848  22.0154  22.0451
    22.3190  22.4194  22.9189  23.0743  23.3086  23.3766  23.4388  23.8861
    24.0271  24.2321  24.3154  24.9300  25.0116  25.6641  25.8886  26.6663
    28.4771  28.5034  30.8620  31.5152  31.7330  31.8231  32.1600  32.7365
    32.8801  33.4841  33.9564  34.0374  34.3590  34.5423

          k = 0.3358 0.0000 0.0000 (  4492 PWs)   bands (ev):

   -98.3447 -98.3374 -57.1091 -57.1091 -57.1064 -57.1057 -57.1057 -57.0992
   -42.1296 -42.1200 -42.0657 -42.0176 -41.9628 -41.9628 -13.9322 -13.9100
   -13.4355 -13.2473 -13.2473 -13.1606 -13.0862 -13.0542 -13.0542 -12.9924
   -12.9824 -12.9631 -12.9631 -12.9533 -12.9356 -12.9356 -12.4761 -12.4761
     1.0205   1.0260   1.0308   1.0359   1.0443   1.0444   1.0613   1.0634
     1.0645   1.0645  13.3044  13.5540  17.9257  18.3155  18.7901  18.7901
    18.9590  18.9590  19.1883  19.3089  20.0871  20.6182  20.6182  20.7655
    20.7967  21.1676  21.2667  21.2667  21.4618  21.6131  22.3034  23.0929
    23.0929  23.3507  23.6210  23.6902  24.1067  24.1067  24.6526  24.7741
    24.7741  24.9321  24.9684  24.9805  25.5678  25.5678  27.3898  27.5642
    27.5643  28.5326  28.6635  30.2766  30.8490  31.6387  31.6387  32.4023
    32.7623  32.7623  33.0905  33.2458  34.2869  34.3336

          k = 0.3358 0.0000 0.1199 (  4484 PWs)   bands (ev):

   -98.3373 -98.3315 -57.1091 -57.1068 -57.1065 -57.1036 -57.1017 -57.1011
   -42.1255 -42.1144 -42.0652 -42.0175 -41.9709 -41.9629 -13.9219 -13.8519
   -13.4387 -13.2353 -13.2323 -13.1620 -13.0955 -13.0641 -13.0381 -13.0032
   -12.9946 -12.9681 -12.9573 -12.9452 -12.9360 -12.9320 -12.5506 -12.4727
     1.0216   1.0265   1.0311   1.0357   1.0435   1.0450   1.0589   1.0608
     1.0626   1.0647  13.3623  13.5817  17.9837  18.3322  18.7471  18.8808
    19.0213  19.0580  19.2604  19.4451  20.1190  20.4389  20.5221  20.8029
    20.8228  21.1224  21.2261  21.3324  21.5005  21.8586  22.2861  22.8698
    23.0728  23.3159  23.3861  23.8032  23.8319  24.0504  24.4530  24.5019
    24.5748  24.8552  24.8935  25.1750  25.2985  25.8448  27.3130  27.4327
    27.6199  28.9243  29.2118  29.7399  30.9417  31.1588  31.5728  32.1458
    32.7986  33.1826  33.2177  33.7185  34.0663  34.3233

          k = 0.3358 0.0000 0.2398 (  4484 PWs)   bands (ev):

   -98.3424 -98.3286 -57.1094 -57.1082 -57.1064 -57.1045 -57.1026 -57.0981
   -42.1233 -42.0944 -42.0645 -42.0186 -41.9938 -41.9634 -13.9221 -13.6692
   -13.4454 -13.2126 -13.2038 -13.1704 -13.0990 -13.0818 -13.0432 -13.0247
   -13.0035 -12.9788 -12.9610 -12.9352 -12.9303 -12.9205 -12.7556 -12.4701
     1.0229   1.0263   1.0325   1.0355   1.0399   1.0462   1.0527   1.0537
     1.0623   1.0651  13.4978  13.6484  18.0357  18.2493  18.7734  19.1212
    19.2211  19.3139  19.3850  19.9985  20.0300  20.1442  20.3478  20.7757
    20.8313  21.3586  21.3912  21.4338  21.6454  21.9748  22.1875  22.4990
    22.8923  22.9257  23.1684  23.3665  23.6988  23.9247  24.0036  24.0806
    24.4584  24.6586  24.6619  25.0371  25.3127  26.3487  27.0625  27.1583
    27.6086  28.6791  29.8000  30.4035  30.4889  31.1714  31.7641  32.3865
    32.9276  33.2684  33.6718  33.8749  33.9781  34.5091

          k = 0.3358 0.0000 0.3598 (  4487 PWs)   bands (ev):

   -98.3429 -98.3352 -57.1103 -57.1072 -57.1058 -57.1051 -57.1019 -57.1016
   -42.1210 -42.0722 -42.0563 -42.0270 -42.0185 -41.9651 -13.9258 -13.4593
   -13.3866 -13.1877 -13.1837 -13.1725 -13.0922 -13.0899 -13.0759 -13.0653
   -13.0315 -12.9957 -12.9837 -12.9632 -12.9281 -12.9261 -12.9202 -12.4665
     1.0236   1.0246   1.0347   1.0354   1.0358   1.0465   1.0476   1.0512
     1.0622   1.0655  13.6341  13.6842  17.9324  18.2039  19.0003  19.3495
    19.3729  19.4086  19.5350  19.8461  20.0047  20.2374  20.6503  20.7022
    21.1873  21.4897  21.5121  21.5740  21.9373  22.0634  22.1065  22.2010
    22.4574  22.5757  22.8142  22.9956  23.3983  23.4660  23.5894  24.1415
    24.2387  24.4446  24.5263  25.1729  25.3970  26.6881  26.9472  27.0447
    27.3854  28.1185  30.0980  30.3780  31.1643  31.9334  32.2775  32.6543
    33.0470  33.3176  33.3995  33.6376  33.9564  34.0289

          k = 0.3358 0.1399 0.0000 (  4490 PWs)   bands (ev):

   -98.3424 -98.3365 -57.1088 -57.1078 -57.1066 -57.1047 -57.1032 -57.1026
   -42.1252 -42.1126 -42.0658 -42.0178 -41.9742 -41.9632 -13.9238 -13.8299
   -13.4395 -13.2326 -13.2293 -13.1656 -13.0968 -13.0692 -13.0362 -13.0113
   -12.9963 -12.9697 -12.9536 -12.9475 -12.9356 -12.9295 -12.5775 -12.4730
     1.0218   1.0265   1.0312   1.0355   1.0431   1.0451   1.0580   1.0597
     1.0625   1.0647  13.3803  13.5903  17.9987  18.3304  18.7331  18.9122
    19.0528  19.0921  19.2772  19.5077  20.1254  20.3799  20.4944  20.8027
    20.8109  21.1553  21.2443  21.3503  21.5079  21.8957  22.2768  22.8098
    23.0662  23.3009  23.3128  23.7080  23.8688  24.0106  24.3708  24.4788
    24.5122  24.8262  24.8940  25.2031  25.2134  25.9272  27.2701  27.3906
    27.6375  29.0159  29.3789  29.6183  30.9603  31.0382  31.5450  32.1794
    32.8140  33.2354  33.2701  33.8363  34.0417  34.3182

          k = 0.3358 0.1399 0.1199 (  4479 PWs)   bands (ev):

   -98.3343 -98.3265 -57.1073 -57.1068 -57.1063 -57.1042 -57.1027 -57.0976
   -42.1193 -42.1093 -42.0655 -42.0169 -41.9739 -41.9703 -13.8581 -13.8278
   -13.4409 -13.2219 -13.2200 -13.1589 -13.1145 -13.0507 -13.0450 -13.0006
   -12.9984 -12.9846 -12.9468 -12.9446 -12.9373 -12.9307 -12.5737 -12.5487
     1.0232   1.0272   1.0311   1.0351   1.0439   1.0445   1.0576   1.0591
     1.0601   1.0613  13.4347  13.6234  18.0859  18.3958  18.7984  18.8830
    19.0698  19.1912  19.4226  19.5390  20.1749  20.2623  20.4813  20.8022
    20.8226  21.1453  21.2197  21.3433  21.6028  21.9468  22.2147  22.5906
    22.9271  23.2510  23.4596  23.6422  23.8014  23.8587  24.2421  24.3780
    24.5456  24.6860  24.9256  25.0107  25.2995  25.4629  27.1386  27.4771
    27.8261  29.1134  29.4285  29.7094  31.1125  31.3116  31.6019  31.7995
    32.6728  33.2534  33.6936  33.8281  34.1724  34.3210

          k = 0.3358 0.1399 0.2398 (  4486 PWs)   bands (ev):

   -98.3422 -98.3339 -57.1096 -57.1082 -57.1065 -57.1044 -57.1032 -57.0992
   -42.1132 -42.0943 -42.0656 -42.0184 -41.9937 -41.9743 -13.8323 -13.6678
   -13.4468 -13.2051 -13.1955 -13.1627 -13.1280 -13.0546 -13.0448 -13.0168
   -13.0069 -12.9864 -12.9606 -12.9431 -12.9373 -12.9285 -12.7554 -12.5745
     1.0251   1.0278   1.0318   1.0345   1.0413   1.0455   1.0520   1.0536
     1.0577   1.0603  13.5635  13.6905  18.1945  18.4263  18.8450  19.0503
    19.1946  19.4253  19.5362  20.0088  20.0489  20.1904  20.4202  20.7590
    20.8462  21.2596  21.3462  21.4704  21.6431  21.8250  22.0434  22.2651
    22.7851  23.1435  23.2700  23.3982  23.6400  23.8168  23.9093  24.0534
    24.2949  24.5179  24.7429  24.8143  25.0366  25.6429  26.4845  27.4529
    28.0980  28.4716  30.1999  30.5998  31.2679  31.3701  31.5619  32.2789
    32.8753  33.1048  33.9298  34.1904  34.3059  34.4466

          k = 0.3358 0.1399 0.3598 (  4498 PWs)   bands (ev):

   -98.3526 -98.3462 -57.1095 -57.1089 -57.1083 -57.1068 -57.1038 -57.1037
   -42.1123 -42.0721 -42.0592 -42.0271 -42.0185 -41.9756 -13.8342 -13.4577
   -13.3891 -13.1875 -13.1812 -13.1718 -13.1186 -13.0752 -13.0642 -13.0587
   -13.0267 -13.0009 -12.9846 -12.9677 -12.9358 -12.9355 -12.9304 -12.5750
     1.0257   1.0266   1.0339   1.0349   1.0369   1.0458   1.0470   1.0505
     1.0571   1.0603  13.6893  13.7320  18.1125  18.4361  19.0601  19.2129
    19.3712  19.4801  19.6020  19.9785  20.0822  20.3839  20.6215  20.7235
    21.1389  21.3552  21.4648  21.5747  21.6004  21.9159  22.0017  22.0701
    22.5197  22.7858  23.0251  23.0723  23.3238  23.4833  23.5703  23.9862
    24.1114  24.2842  24.4503  24.9277  25.1177  25.9027  26.0783  27.1135
    28.2015  28.2521  30.6544  31.2027  31.3811  31.7474  32.0151  32.7309
    32.9426  33.1793  33.6452  34.0189  34.3871  34.5636

          k = 0.3358 0.2798 0.0000 (  4479 PWs)   bands (ev):

   -98.3376 -98.3261 -57.1086 -57.1074 -57.1055 -57.1029 -57.1018 -57.0990
   -42.1221 -42.0855 -42.0635 -42.0186 -42.0035 -41.9634 -13.9215 -13.5861
   -13.4454 -13.2041 -13.1945 -13.1720 -13.0941 -13.0866 -13.0556 -13.0237
   -13.0073 -12.9832 -12.9633 -12.9296 -12.9281 -12.9160 -12.8444 -12.4688
     1.0232   1.0259   1.0333   1.0356   1.0383   1.0467   1.0503   1.0526
     1.0623   1.0653  13.5489  13.6680  18.0116  18.2195  18.8396  19.2194
    19.2765  19.4090  19.4165  19.8957  20.1048  20.2955  20.3138  20.7447
    20.8770  21.4103  21.4577  21.4594  21.7781  21.9758  22.1370  22.3832
    22.7187  22.7839  23.1265  23.3203  23.5977  23.6579  23.8141  24.1425
    24.4541  24.4621  24.6007  25.0900  25.3475  26.4915  27.0158  27.0726
    27.5573  28.4283  30.0600  30.3183  30.6802  31.4574  31.9427  32.4407
    32.9814  33.2641  33.6192  33.8842  33.9159  34.3178

          k = 0.3358 0.2798 0.1199 (  4494 PWs)   bands (ev):

   -98.3526 -98.3375 -57.1097 -57.1086 -57.1079 -57.1065 -57.1046 -57.1004
   -42.1158 -42.0861 -42.0655 -42.0188 -42.0043 -41.9720 -13.8562 -13.5883
   -13.4468 -13.1998 -13.1897 -13.1688 -13.1215 -13.0609 -13.0547 -13.0208
   -13.0096 -12.9878 -12.9657 -12.9389 -12.9381 -12.9276 -12.8462 -12.5483
     1.0248   1.0271   1.0327   1.0348   1.0393   1.0461   1.0497   1.0521
     1.0585   1.0615  13.5928  13.6997  18.1376  18.3745  18.8900  19.1517
    19.2697  19.4586  19.4995  19.9622  20.1287  20.3232  20.3936  20.7139
    20.8716  21.3477  21.3951  21.5078  21.6897  21.8243  22.0381  22.1986
    22.7237  23.0522  23.1605  23.3066  23.5538  23.6786  23.8147  23.9703
    24.3159  24.4062  24.6132  24.8846  25.1465  25.9217  26.3673  27.4901
    27.9819  28.2763  30.3188  30.8493  31.0884  31.4647  31.7368  32.4479
    32.9004  33.0929  33.8384  34.0365  34.3639  34.4314

          k = 0.3358 0.2798 0.2398 (  4495 PWs)   bands (ev):

   -98.3524 -98.3425 -57.1094 -57.1086 -57.1072 -57.1057 -57.1047 -57.1028
   -42.0951 -42.0844 -42.0674 -42.0189 -42.0042 -41.9943 -13.6693 -13.5845
   -13.4504 -13.1960 -13.1774 -13.1532 -13.1371 -13.0530 -13.0357 -13.0241
   -13.0185 -12.9851 -12.9665 -12.9541 -12.9469 -12.9424 -12.8469 -12.7570
     1.0285   1.0299   1.0316   1.0331   1.0421   1.0444   1.0482   1.0505
     1.0521   1.0537  13.7068  13.7775  18.4469  18.6584  18.9620  19.0747
    19.1488  19.5358  19.9769  20.1294  20.1929  20.3787  20.5150  20.7553
    20.9070  21.1188  21.3888  21.4195  21.4996  21.6379  21.8860  22.0387
    22.7143  22.9495  23.3254  23.4033  23.4919  23.6410  23.6909  23.8283
    24.0706  24.2274  24.4064  24.5511  24.7941  25.1645  25.6744  26.6255
    28.8003  28.9100  31.0084  31.1336  31.3897  31.7691  32.3412  32.6853
    33.0247  33.1173  33.7034  34.4957  34.6196  34.6982

          k = 0.3358 0.2798 0.3598 (  4496 PWs)   bands (ev):

   -98.3576 -98.3390 -57.1102 -57.1082 -57.1067 -57.1055 -57.1053 -57.1034
   -42.0849 -42.0695 -42.0604 -42.0267 -42.0196 -42.0038 -13.5842 -13.4559
   -13.3933 -13.1928 -13.1867 -13.1420 -13.1178 -13.0677 -13.0579 -13.0347
   -13.0224 -13.0018 -12.9800 -12.9736 -12.9566 -12.9552 -12.9525 -12.8449
     1.0302   1.0307   1.0325   1.0330   1.0407   1.0440   1.0453   1.0479
     1.0492   1.0505  13.8096  13.8376  18.5797  18.7928  19.0115  19.1916
    19.2235  19.4295  20.2272  20.3185  20.3692  20.5409  20.6568  20.7235
    20.9504  21.0238  21.3389  21.5270  21.5388  21.7000  21.8162  21.8931
    22.4751  22.5301  23.2928  23.3205  23.4597  23.5079  23.5465  23.6585
    23.9089  24.0157  24.1739  24.4586  24.5435  25.0221  25.2388  25.8747
    29.2856  29.4550  31.3324  31.5431  31.6323  32.0480  32.7354  32.9027
    32.9587  33.4737  33.8799  34.7281  34.8589  34.9097

          k = 0.3358-0.4197 0.0000 (  4484 PWs)   bands (ev):

   -98.3369 -98.3368 -57.1082 -57.1081 -57.1049 -57.1049 -57.1018 -57.1016
   -42.1214 -42.0705 -42.0433 -42.0416 -42.0181 -41.9644 -13.9235 -13.4565
   -13.2613 -13.2188 -13.1815 -13.1694 -13.1570 -13.0916 -13.0864 -13.0795
   -13.0371 -13.0017 -12.9883 -12.9652 -12.9258 -12.9241 -12.9184 -12.4656
     1.0240   1.0241   1.0347   1.0355   1.0355   1.0457   1.0476   1.0510
     1.0622   1.0656  13.6718  13.6726  17.9077  18.2031  19.0740  19.2837
    19.4051  19.4955  19.5325  19.8780  19.9452  20.2358  20.6091  20.7491
    21.3948  21.5017  21.5418  21.6521  21.9375  22.1215  22.1495  22.2919
    22.3117  22.4314  22.5228  22.9130  23.4031  23.4364  23.5382  24.0584
    24.2699  24.4222  24.5184  25.1938  25.4095  26.7376  26.9136  27.1140
    27.2771  28.0573  30.0479  30.4374  31.4093  31.8798  32.2901  33.0530
    33.1100  33.2585  33.4448  33.4666  33.8552  33.8681

          k = 0.3358-0.4197 0.1199 (  4488 PWs)   bands (ev):

   -98.3406 -98.3406 -57.1072 -57.1070 -57.1064 -57.1062 -57.1030 -57.1028
   -42.1139 -42.0704 -42.0436 -42.0423 -42.0183 -41.9726 -13.8576 -13.4551
   -13.2573 -13.2288 -13.1764 -13.1659 -13.1651 -13.0991 -13.0813 -13.0705
   -13.0288 -13.0020 -12.9849 -12.9677 -12.9331 -12.9310 -12.9222 -12.5447
     1.0256   1.0256   1.0348   1.0350   1.0358   1.0453   1.0473   1.0505
     1.0584   1.0616  13.7108  13.7122  18.0432  18.3830  19.1123  19.2326
    19.4050  19.5047  19.5675  19.9710  20.0173  20.3478  20.5899  20.7660
    21.3405  21.3472  21.4857  21.6328  21.8040  21.9538  22.0738  22.0913
    22.3359  22.5399  22.8905  22.9827  23.3542  23.4641  23.4891  24.0096
    24.1136  24.3147  24.4312  25.0267  25.2083  25.9540  26.2880  27.2244
    28.0158  28.0852  30.6292  30.9513  31.5868  31.7759  32.1197  32.6784
    33.0300  33.2814  33.7476  33.7572  34.1395  34.3999

          k = 0.3358-0.4197 0.2398 (  4504 PWs)   bands (ev):

   -98.3552 -98.3551 -57.1101 -57.1100 -57.1078 -57.1077 -57.1052 -57.1051
   -42.0948 -42.0698 -42.0446 -42.0440 -42.0202 -41.9944 -13.6686 -13.4571
   -13.2528 -13.2419 -13.1865 -13.1840 -13.1315 -13.0969 -13.0682 -13.0503
   -13.0151 -13.0134 -12.9857 -12.9759 -12.9501 -12.9491 -12.9483 -12.7584
     1.0290   1.0291   1.0334   1.0336   1.0387   1.0439   1.0462   1.0490
     1.0501   1.0530  13.8026  13.8029  18.4135  18.7258  19.1173  19.1821
    19.3275  19.3791  20.0388  20.2364  20.2379  20.5275  20.5866  20.7484
    21.0507  21.1821  21.4542  21.4781  21.6936  21.7612  21.9359  21.9528
    22.3217  22.3760  23.1690  23.3599  23.3808  23.4335  23.5117  23.7576
    23.8441  24.1901  24.3049  24.4514  24.6994  25.1208  25.6345  26.0056
    29.1051  29.1221  31.1652  31.5219  31.8477  31.9614  32.4159  32.8176
    32.9304  33.4625  34.2909  34.3401  34.6214  34.7914

          k = 0.3358-0.4197 0.3598 (  4512 PWs)   bands (ev):

   -98.3605 -98.3604 -57.1104 -57.1103 -57.1090 -57.1089 -57.1069 -57.1067
   -42.0700 -42.0635 -42.0449 -42.0447 -42.0269 -42.0201 -13.4547 -13.3954
   -13.2484 -13.2463 -13.1961 -13.1942 -13.1248 -13.0988 -13.0526 -13.0425
   -13.0247 -13.0205 -12.9920 -12.9869 -12.9808 -12.9727 -12.9726 -12.9640
     1.0317   1.0317   1.0327   1.0328   1.0412   1.0425   1.0447   1.0452
     1.0467   1.0469  13.8816  13.8820  18.7915  18.8918  19.1111  19.1440
    19.2756  19.3047  20.4720  20.4838  20.5577  20.5644  20.6600  20.7443
    20.9813  21.1404  21.5050  21.5525  21.6095  21.6961  21.7569  21.7738
    22.0948  22.1405  23.2362  23.3047  23.3970  23.4407  23.5744  23.6660
    23.7694  23.7953  24.2232  24.3244  24.4323  24.5879  25.0188  25.0885
    29.9735  29.9745  31.6880  31.7440  31.8851  31.8910  32.5149  32.5209
    33.7009  33.9676  34.6767  34.6931  35.0734  35.0823

     the Fermi energy is    26.3351 ev

!    total energy              =   -2027.32224221 Ry
     Harris-Foulkes estimate   =   -2027.32224257 Ry
     estimated scf accuracy    <       0.00000039 Ry

     The total energy is the sum of the following terms:

     one-electron contribution =    -411.10977481 Ry
     hartree contribution      =     308.82861526 Ry
     xc contribution           =    -184.82897177 Ry
     ewald contribution        =   -1739.95855399 Ry
     smearing contrib. (-TS)   =      -0.25355690 Ry

     convergence has been achieved in  19 iterations

     Forces acting on atoms (Ry/au):

     atom    1 type  1   force =     0.00000000    0.00000000    0.00000000
     atom    2 type  1   force =     0.00000000    0.00000000    0.00000000
     atom    3 type  1   force =     0.00000000    0.00000000    0.00000000
     atom    4 type  1   force =     0.00000000    0.00000000    0.00000000
     atom    5 type  1   force =     0.00000000    0.00000000    0.00000000
     atom    6 type  1   force =     0.00000000    0.00000000    0.00000000
     atom    7 type  2   force =     0.00000000    0.00000000    0.00000000
     atom    8 type  2   force =     0.00000000    0.00000000    0.00000000

     Total force =     0.000000     Total SCF correction =     0.000000


     entering subroutine stress ...

          total   stress  (Ry/bohr**3)                   (kbar)     P=  -28.66
  -0.00019484   0.00000000   0.00000000        -28.66      0.00      0.00
   0.00000000  -0.00019484   0.00000000          0.00    -28.66      0.00
   0.00000000   0.00000000  -0.00019484          0.00      0.00    -28.66


     Writing output data file Prototype-La-cP8-Cr3Si.save
 
     init_run     :      8.00s CPU      9.77s WALL (       2 calls)
     electrons    :   1532.76s CPU   1759.84s WALL (       5 calls)
     update_pot   :      1.40s CPU      1.42s WALL (       3 calls)
     forces       :      5.96s CPU      6.28s WALL (       5 calls)
     stress       :     16.29s CPU     16.62s WALL (       5 calls)

     Called by init_run:
     wfcinit      :      7.44s CPU      9.18s WALL (       2 calls)
     potinit      :      0.22s CPU      0.22s WALL (       2 calls)

     Called by electrons:
     c_bands      :   1477.69s CPU   1669.09s WALL (      48 calls)
     sum_band     :     54.70s CPU     69.26s WALL (      48 calls)
     v_of_rho     :      0.08s CPU      0.08s WALL (      53 calls)
     mix_rho      :      0.09s CPU      0.10s WALL (      48 calls)

     Called by c_bands:
     init_us_2    :      2.49s CPU      3.46s WALL (    5184 calls)
     ccgdiagg     :   1310.03s CPU   1460.59s WALL (    2494 calls)
     wfcrot       :    172.14s CPU    212.05s WALL (    2542 calls)

     Called by *cgdiagg:
     h_psi        :   1023.54s CPU   1185.59s WALL ( 1100559 calls)
     cdiaghg      :      8.98s CPU      9.52s WALL (    2542 calls)

     Called by h_psi:
     add_vuspsi   :     97.97s CPU    119.08s WALL ( 1100559 calls)

     General routines
     calbec       :    331.09s CPU    338.37s WALL ( 2199056 calls)
     fft          :      0.25s CPU      0.27s WALL (     235 calls)
     fftw         :    735.97s CPU    851.72s WALL ( 2890506 calls)
     davcio       :      1.87s CPU      4.15s WALL (    7488 calls)
 
     Parallel routines
     fft_scatter  :    367.83s CPU    406.41s WALL ( 2890741 calls)
 
     PWSCF        : 26m 5.11s CPU    29m58.95s WALL

 
   This run was terminated on:  23:20:28  22Mar2018            

=------------------------------------------------------------------------------=
   JOB DONE.
=------------------------------------------------------------------------------=
