
     Program PWSCF v.5.0.2 starts on 22Mar2018 at 21:11:56 

     This program is part of the open-source Quantum ESPRESSO suite
     for quantum simulation of materials; please cite
         "P. Giannozzi et al., J. Phys.:Condens. Matter 21 395502 (2009);
          URL http://www.quantum-espresso.org", 
     in publications or presentations arising from this work. More details at
     http://www.quantum-espresso.org/quote.php

     Parallel version (MPI), running on     4 processors
     R & G space division:  proc/nbgrp/npool/nimage =       4

     Current dimensions of program PWSCF are:
     Max number of different atomic species (ntypx) = 10
     Max number of k-points (npk) =  40000
     Max angular momentum in pseudopotentials (lmaxx) =  3
     Waiting for input...
     Reading input from standard input

     Subspace diagonalization in iterative solution of the eigenvalue problem:
     a serial algorithm will be used

 
     Parallelization info
     --------------------
     sticks:   dense  smooth     PW     G-vecs:    dense   smooth      PW
     Min         233     233     69                 5311     5311     851
     Max         234     234     70                 5314     5314     854
     Sum         933     933    277                21247    21247    3407
 


     bravais-lattice index     =            0
     lattice parameter (alat)  =       8.5346  a.u.
     unit-cell volume          =     621.6493 (a.u.)^3
     number of atoms/cell      =            8
     number of atomic types    =            2
     number of electrons       =       142.00
     number of Kohn-Sham states=           85
     kinetic-energy cutoff     =      40.0000  Ry
     charge density cutoff     =     160.0000  Ry
     convergence threshold     =      1.0E-04
     mixing beta               =       0.7000
     number of iterations used =            8  plain     mixing
     Exchange-correlation      = SLA-PZ-NOGX-NOGC ( 1 1 0 0 0)
     EXX-fraction              =        0.00
     nstep                     =           50


     celldm(1)=   8.534573  celldm(2)=   0.000000  celldm(3)=   0.000000
     celldm(4)=   0.000000  celldm(5)=   0.000000  celldm(6)=   0.000000

     crystal axes: (cart. coord. in units of alat)
               a(1) = (   1.000000   0.000000   0.000000 )  
               a(2) = (   0.000000   1.000000   0.000000 )  
               a(3) = (   0.000000   0.000000   1.000000 )  

     reciprocal axes: (cart. coord. in units 2 pi/alat)
               b(1) = (  1.000000  0.000000  0.000000 )  
               b(2) = (  0.000000  1.000000  0.000000 )  
               b(3) = (  0.000000  0.000000  1.000000 )  


     PseudoPot. # 1 for Eu read from file:
     /home/cwx6513/pp.La/Eu.UPF
     MD5 check sum: 5efdbbfc50c6a10138933a6429836ad2
     Pseudo is Norm-conserving, Zval = 17.0
     Generated in analytical, separable form
     Using radial grid of 1261 points,  6 beta functions with: 
                l(1) =   0
                l(2) =   0
                l(3) =   1
                l(4) =   1
                l(5) =   2
                l(6) =   3

     PseudoPot. # 2 for Dy read from file:
     /home/cwx6513/pp.La/Dy.UPF
     MD5 check sum: 9597327bec62616a94a14d07f3fd9936
     Pseudo is Norm-conserving, Zval = 20.0
     Generated in analytical, separable form
     Using radial grid of 1265 points,  6 beta functions with: 
                l(1) =   0
                l(2) =   0
                l(3) =   1
                l(4) =   1
                l(5) =   2
                l(6) =   3

     atomic species   valence    mass     pseudopotential
        Cr            17.00    51.99610     Eu( 1.00)
        Si            20.00    28.08550     Dy( 1.00)

     48 Sym. Ops., with inversion, found (24 have fractional translation)



   Cartesian axes

     site n.     atom                  positions (alat units)
         1           Cr  tau(   1) = (   0.0000000   0.5000000   0.2500000  )
         2           Cr  tau(   2) = (   0.0000000   0.5000000   0.7500000  )
         3           Cr  tau(   3) = (   0.5000000   0.7500000   0.0000000  )
         4           Cr  tau(   4) = (   0.5000000   0.2500000   0.0000000  )
         5           Cr  tau(   5) = (   0.7500000   0.0000000   0.5000000  )
         6           Cr  tau(   6) = (   0.2500000   0.0000000   0.5000000  )
         7           Si  tau(   7) = (   0.5000000   0.5000000   0.5000000  )
         8           Si  tau(   8) = (   0.0000000   0.0000000   0.0000000  )

     number of k points=    48  gaussian smearing, width (Ry)=  0.1000
                       cart. coord. in units 2pi/alat
        k(    1) = (   0.0000000   0.0000000   0.0000000), wk =   0.0095238
        k(    2) = (   0.0000000   0.0000000   0.1428571), wk =   0.0190476
        k(    3) = (   0.0000000   0.0000000   0.2857143), wk =   0.0190476
        k(    4) = (   0.0000000   0.0000000   0.4285714), wk =   0.0190476
        k(    5) = (   0.0000000   0.1666667   0.0000000), wk =   0.0190476
        k(    6) = (   0.0000000   0.1666667   0.1428571), wk =   0.0380952
        k(    7) = (   0.0000000   0.1666667   0.2857143), wk =   0.0380952
        k(    8) = (   0.0000000   0.1666667   0.4285714), wk =   0.0380952
        k(    9) = (   0.0000000   0.3333333   0.0000000), wk =   0.0190476
        k(   10) = (   0.0000000   0.3333333   0.1428571), wk =   0.0380952
        k(   11) = (   0.0000000   0.3333333   0.2857143), wk =   0.0380952
        k(   12) = (   0.0000000   0.3333333   0.4285714), wk =   0.0380952
        k(   13) = (   0.0000000  -0.5000000   0.0000000), wk =   0.0095238
        k(   14) = (   0.0000000  -0.5000000   0.1428571), wk =   0.0190476
        k(   15) = (   0.0000000  -0.5000000   0.2857143), wk =   0.0190476
        k(   16) = (   0.0000000  -0.5000000   0.4285714), wk =   0.0190476
        k(   17) = (   0.2000000   0.0000000   0.0000000), wk =   0.0190476
        k(   18) = (   0.2000000   0.0000000   0.1428571), wk =   0.0380952
        k(   19) = (   0.2000000   0.0000000   0.2857143), wk =   0.0380952
        k(   20) = (   0.2000000   0.0000000   0.4285714), wk =   0.0380952
        k(   21) = (   0.2000000   0.1666667   0.0000000), wk =   0.0380952
        k(   22) = (   0.2000000   0.1666667   0.1428571), wk =   0.0761905
        k(   23) = (   0.2000000   0.1666667   0.2857143), wk =   0.0761905
        k(   24) = (   0.2000000   0.1666667   0.4285714), wk =   0.0761905
        k(   25) = (   0.2000000   0.3333333   0.0000000), wk =   0.0380952
        k(   26) = (   0.2000000   0.3333333   0.1428571), wk =   0.0761905
        k(   27) = (   0.2000000   0.3333333   0.2857143), wk =   0.0761905
        k(   28) = (   0.2000000   0.3333333   0.4285714), wk =   0.0761905
        k(   29) = (   0.2000000  -0.5000000   0.0000000), wk =   0.0190476
        k(   30) = (   0.2000000  -0.5000000   0.1428571), wk =   0.0380952
        k(   31) = (   0.2000000  -0.5000000   0.2857143), wk =   0.0380952
        k(   32) = (   0.2000000  -0.5000000   0.4285714), wk =   0.0380952
        k(   33) = (   0.4000000   0.0000000   0.0000000), wk =   0.0190476
        k(   34) = (   0.4000000   0.0000000   0.1428571), wk =   0.0380952
        k(   35) = (   0.4000000   0.0000000   0.2857143), wk =   0.0380952
        k(   36) = (   0.4000000   0.0000000   0.4285714), wk =   0.0380952
        k(   37) = (   0.4000000   0.1666667   0.0000000), wk =   0.0380952
        k(   38) = (   0.4000000   0.1666667   0.1428571), wk =   0.0761905
        k(   39) = (   0.4000000   0.1666667   0.2857143), wk =   0.0761905
        k(   40) = (   0.4000000   0.1666667   0.4285714), wk =   0.0761905
        k(   41) = (   0.4000000   0.3333333   0.0000000), wk =   0.0380952
        k(   42) = (   0.4000000   0.3333333   0.1428571), wk =   0.0761905
        k(   43) = (   0.4000000   0.3333333   0.2857143), wk =   0.0761905
        k(   44) = (   0.4000000   0.3333333   0.4285714), wk =   0.0761905
        k(   45) = (   0.4000000  -0.5000000   0.0000000), wk =   0.0190476
        k(   46) = (   0.4000000  -0.5000000   0.1428571), wk =   0.0380952
        k(   47) = (   0.4000000  -0.5000000   0.2857143), wk =   0.0380952
        k(   48) = (   0.4000000  -0.5000000   0.4285714), wk =   0.0380952

     Dense  grid:    21247 G-vectors     FFT dimensions: (  36,  36,  36)

     Largest allocated arrays     est. size (Mb)     dimensions
        Kohn-Sham Wavefunctions         0.89 Mb     (    683,   85)
        NL pseudopotentials             1.67 Mb     (    683,  160)
        Each V/rho on FFT grid          0.18 Mb     (  11664)
        Each G-vector array             0.04 Mb     (   5314)
        G-vector shells                 0.04 Mb     (   5314)
     Largest temporary arrays     est. size (Mb)     dimensions
        Each subspace H/S matrix        0.11 Mb     (  85,  85)
        Each <psi_i|beta_j> matrix      0.21 Mb     (    160,   85)
        Arrays for rho mixing           1.42 Mb     (  11664,   8)

     Initial potential from superposition of free atoms

     Starting from uniform charge
     Starting wfc are    0 randomized atomic wfcs

     total cpu time spent up to now is        3.6 secs

     Self-consistent Calculation

     iteration #  1     ecut=    40.00 Ry     beta=0.70
     CG style diagonalization
     c_bands:  2 eigenvalues not converged
     c_bands:  5 eigenvalues not converged
     c_bands:  2 eigenvalues not converged
     c_bands:  4 eigenvalues not converged
     c_bands:  3 eigenvalues not converged
     c_bands:  4 eigenvalues not converged
     c_bands:  3 eigenvalues not converged
     c_bands:  5 eigenvalues not converged
     c_bands:  4 eigenvalues not converged
     c_bands:  2 eigenvalues not converged
     c_bands:  3 eigenvalues not converged
     c_bands:  1 eigenvalues not converged
     c_bands:  4 eigenvalues not converged
     c_bands:  4 eigenvalues not converged
     c_bands:  4 eigenvalues not converged
     c_bands:  3 eigenvalues not converged
     c_bands:  5 eigenvalues not converged
     ethr =  1.00E-02,  avg # of iterations = 13.1

     total cpu time spent up to now is       50.3 secs

     total energy              =   -1248.33749558 Ry
     Harris-Foulkes estimate   =   -1735.70078291 Ry
     estimated scf accuracy    <     604.70426981 Ry

     iteration #  2     ecut=    40.00 Ry     beta=0.70
     CG style diagonalization
     c_bands:  1 eigenvalues not converged
     c_bands:  1 eigenvalues not converged
     c_bands:  1 eigenvalues not converged
     c_bands:  1 eigenvalues not converged
     c_bands:  2 eigenvalues not converged
     c_bands:  1 eigenvalues not converged
     c_bands:  1 eigenvalues not converged
     c_bands:  1 eigenvalues not converged
     c_bands:  2 eigenvalues not converged
     c_bands:  1 eigenvalues not converged
     c_bands:  2 eigenvalues not converged
     c_bands:  2 eigenvalues not converged
     c_bands:  2 eigenvalues not converged
     c_bands:  1 eigenvalues not converged
     c_bands:  2 eigenvalues not converged
     c_bands:  3 eigenvalues not converged
     c_bands:  1 eigenvalues not converged
     c_bands:  1 eigenvalues not converged
     c_bands:  1 eigenvalues not converged
     c_bands:  2 eigenvalues not converged
     c_bands:  2 eigenvalues not converged
     c_bands:  2 eigenvalues not converged
     c_bands:  1 eigenvalues not converged
     c_bands:  1 eigenvalues not converged
     c_bands:  1 eigenvalues not converged
     c_bands:  1 eigenvalues not converged
     c_bands:  2 eigenvalues not converged
     c_bands:  1 eigenvalues not converged
     c_bands:  1 eigenvalues not converged
     ethr =  1.00E-02,  avg # of iterations =  9.0

     total cpu time spent up to now is       83.2 secs

     total energy              =   -1470.52610123 Ry
     Harris-Foulkes estimate   =   -1818.34983680 Ry
     estimated scf accuracy    <     638.69341288 Ry

     iteration #  3     ecut=    40.00 Ry     beta=0.70
     CG style diagonalization
     c_bands:  1 eigenvalues not converged
     c_bands:  1 eigenvalues not converged
     c_bands:  1 eigenvalues not converged
     ethr =  1.00E-02,  avg # of iterations =  9.8

     total cpu time spent up to now is      118.0 secs

     total energy              =   -1564.46931284 Ry
     Harris-Foulkes estimate   =   -1571.85956915 Ry
     estimated scf accuracy    <      13.80211988 Ry

     iteration #  4     ecut=    40.00 Ry     beta=0.70
     CG style diagonalization
     ethr =  9.72E-03,  avg # of iterations =  3.5

     total cpu time spent up to now is      130.0 secs

     total energy              =   -1565.32555580 Ry
     Harris-Foulkes estimate   =   -1566.53472706 Ry
     estimated scf accuracy    <       1.86742347 Ry

     iteration #  5     ecut=    40.00 Ry     beta=0.70
     CG style diagonalization
     ethr =  1.32E-03,  avg # of iterations =  4.1

     total cpu time spent up to now is      144.2 secs

     total energy              =   -1566.01866402 Ry
     Harris-Foulkes estimate   =   -1566.17354262 Ry
     estimated scf accuracy    <       0.29348900 Ry

     iteration #  6     ecut=    40.00 Ry     beta=0.70
     CG style diagonalization
     c_bands:  1 eigenvalues not converged
     c_bands:  1 eigenvalues not converged
     c_bands:  1 eigenvalues not converged
     c_bands:  1 eigenvalues not converged
     c_bands:  2 eigenvalues not converged
     c_bands:  1 eigenvalues not converged
     ethr =  2.07E-04,  avg # of iterations =  4.0

     total cpu time spent up to now is      158.1 secs

     total energy              =   -1566.07630929 Ry
     Harris-Foulkes estimate   =   -1566.08181071 Ry
     estimated scf accuracy    <       0.00821623 Ry

     iteration #  7     ecut=    40.00 Ry     beta=0.70
     CG style diagonalization
     c_bands:  1 eigenvalues not converged
     c_bands:  1 eigenvalues not converged
     c_bands:  1 eigenvalues not converged
     c_bands:  2 eigenvalues not converged
     c_bands:  1 eigenvalues not converged
     c_bands:  1 eigenvalues not converged
     c_bands:  1 eigenvalues not converged
     c_bands:  1 eigenvalues not converged
     c_bands:  1 eigenvalues not converged
     c_bands:  1 eigenvalues not converged
     c_bands:  1 eigenvalues not converged
     c_bands:  1 eigenvalues not converged
     c_bands:  1 eigenvalues not converged
     c_bands:  1 eigenvalues not converged
     c_bands:  1 eigenvalues not converged
     ethr =  5.79E-06,  avg # of iterations =  5.0

     total cpu time spent up to now is      175.5 secs

     total energy              =   -1566.08137886 Ry
     Harris-Foulkes estimate   =   -1566.08296755 Ry
     estimated scf accuracy    <       0.00205910 Ry

     iteration #  8     ecut=    40.00 Ry     beta=0.70
     CG style diagonalization
     c_bands:  1 eigenvalues not converged
     c_bands:  1 eigenvalues not converged
     c_bands:  1 eigenvalues not converged
     c_bands:  1 eigenvalues not converged
     c_bands:  1 eigenvalues not converged
     c_bands:  1 eigenvalues not converged
     ethr =  1.45E-06,  avg # of iterations =  3.8

     total cpu time spent up to now is      188.7 secs

     total energy              =   -1566.08206506 Ry
     Harris-Foulkes estimate   =   -1566.08277982 Ry
     estimated scf accuracy    <       0.00119244 Ry

     iteration #  9     ecut=    40.00 Ry     beta=0.70
     CG style diagonalization
     ethr =  8.40E-07,  avg # of iterations =  3.5

     total cpu time spent up to now is      200.8 secs

     End of self-consistent calculation

          k = 0.0000 0.0000 0.0000 (  2601 PWs)   bands (ev):

   -39.7163 -39.6976 -20.4592 -19.9649 -19.9649 -18.7171 -18.7171 -18.7171
    -7.0808  -7.0808  -7.0808  -7.0404  -7.0404  -7.0404   3.1573   3.1573
     3.8450   6.1296   6.1296   6.1296   7.6105   7.6105   7.6105   8.0050
     8.0050   8.0050   8.3049   8.3049   8.3049  10.5882  10.5882  10.5882
    30.9654  30.9654  32.1944  32.4851  32.4851  32.4851  32.6176  32.6176
    32.6176  32.9920  32.9920  33.3289  33.3289  33.3289  33.9539  34.6435
    34.7216  35.4317  35.4317  35.6091  35.6091  35.6091  39.8217  39.8217
    39.8217  40.2207  40.2207  41.2875  41.2875  41.2875  41.7005  41.7005
    41.7005  44.6637  44.6637  45.6615  45.6615  45.6615  46.8007  46.8007
    46.8007  49.2358  50.7666  50.7666  50.7666  51.1096  51.1096  51.1096
    53.4613  53.4615  53.7249  53.7249  53.7251

          k = 0.0000 0.0000 0.1429 (  2657 PWs)   bands (ev):

   -39.7349 -39.7183 -20.4302 -19.9896 -19.9206 -18.7988 -18.7221 -18.7221
    -7.0863  -7.0863  -7.0789  -7.0789  -7.0673  -7.0624   3.1679   3.2841
     3.9384   6.1158   6.1158   6.2099   7.5563   7.5563   7.6190   7.8808
     8.0867   8.0867   8.2448   8.2551   8.2551  10.1256  10.5770  10.5770
    30.8595  31.2121  31.7703  32.1690  32.1690  32.4371  32.4754  32.7658
    32.8278  32.8278  33.0906  33.1996  33.1996  33.3920  34.8052  35.0448
    35.2137  35.2318  35.4070  35.9137  35.9137  35.9289  39.4716  39.4716
    39.7289  39.7588  39.8854  41.2600  41.4238  41.4238  42.0191  42.0191
    42.7396  44.0929  44.1230  45.4444  45.4444  46.2075  46.2427  46.2427
    47.0875  49.4112  49.4497  50.8837  50.8837  51.4849  51.7134  51.7134
    52.7705  53.5020  53.5670  53.5670  53.7964

          k = 0.0000 0.0000 0.2857 (  2677 PWs)   bands (ev):

   -39.7383 -39.7284 -20.3535 -20.0552 -19.7859 -19.0026 -18.7217 -18.7217
    -7.1018  -7.1018  -7.0831  -7.0831  -7.0544  -7.0413   3.2351   3.3966
     4.5893   6.0923   6.0923   6.4269   7.5194   7.5372   7.5372   7.7093
     8.1407   8.1883   8.1883   8.2330   8.2330   8.9050  10.5619  10.5619
    30.4551  31.4877  31.5451  31.5451  31.7476  32.0909  32.4672  32.7685
    33.0591  33.0590  33.3217  33.3416  33.3416  33.3485  34.6070  35.0028
    35.0928  36.2590  36.4501  36.4501  37.2960  37.7411  38.9959  38.9959
    39.2048  39.3486  39.4688  40.8077  41.0339  41.0339  42.4364  42.4364
    43.1862  43.3249  43.8753  45.4357  45.4357  46.1402  46.1402  46.9131
    47.1239  47.4544  50.0457  50.1997  50.1997  50.9146  51.9460  51.9461
    52.8781  53.1592  53.6543  54.2530  54.2531

          k = 0.0000 0.0000 0.4286 (  2658 PWs)   bands (ev):

   -39.7267 -39.7266 -20.2509 -20.1454 -19.5601 -19.2790 -18.7197 -18.7197
    -7.1072  -7.1072  -7.0775  -7.0775  -7.0136  -7.0095   3.3108   3.3709
     5.8135   6.0715   6.0715   6.7568   7.0537   7.4215   7.5458   7.5458
     7.8465   8.0013   8.1394   8.1394   8.3509   8.3509  10.5590  10.5590
    30.4258  30.9187  31.1081  31.1081  32.0732  32.1379  32.4842  32.5705
    32.9827  32.9827  33.2005  33.4090  33.8724  33.8724  34.6644  34.8806
    36.0070  36.7912  36.7912  37.5129  37.7200  38.6367  38.6367  38.7038
    39.0626  39.2008  40.4073  40.4073  40.4994  41.0146  42.6617  42.7685
    42.7685  42.7795  43.2404  44.1353  44.9470  44.9470  47.3843  47.4892
    47.4892  47.5643  49.4432  49.4432  50.2976  51.5126  51.9849  51.9849
    52.4695  53.1793  53.1795  53.3428  54.3843

          k = 0.0000 0.1667 0.0000 (  2653 PWs)   bands (ev):

   -39.7326 -39.7183 -20.4192 -19.9972 -19.9044 -18.8251 -18.7220 -18.7220
    -7.0873  -7.0873  -7.0776  -7.0776  -7.0624  -7.0549   3.1772   3.3185
     3.9969   6.1147   6.1147   6.2437   7.5512   7.5512   7.6304   7.8342
     8.1112   8.1112   8.2317   8.2468   8.2468   9.9702  10.5772  10.5772
    30.8006  31.2805  31.7035  32.0724  32.0724  32.4737  32.4773  32.7426
    32.8966  32.8966  33.0317  33.1720  33.1720  33.3944  34.8277  35.1324
    35.2000  35.3632  35.5603  36.0022  36.0022  36.1352  39.3911  39.3911
    39.6428  39.7323  39.7903  41.2213  41.4000  41.4000  42.1146  42.1146
    42.9862  43.9590  43.9678  45.4527  45.4527  46.1022  46.1022  46.3342
    47.1595  49.1076  49.5066  50.8437  50.8437  51.4790  51.8233  51.8233
    52.7244  53.4706  53.6533  53.6533  53.7516

          k = 0.0000 0.1667 0.1429 (  2662 PWs)   bands (ev):

   -39.7378 -39.7195 -20.3900 -19.9796 -19.9012 -18.8303 -18.7937 -18.7217
    -7.0899  -7.0895  -7.0843  -7.0763  -7.0597  -7.0491   3.2516   3.4788
     4.0430   6.1168   6.1982   6.2327   7.4548   7.4657   7.7367   7.9271
     8.0100   8.1185   8.1628   8.2145   8.3160   9.9515  10.1194  10.5719
    30.9067  31.3367  31.7445  31.8311  31.9096  32.0069  32.2008  32.7655
    32.8737  32.8800  32.9341  33.0756  33.1682  34.4355  35.0098  35.2891
    35.5909  35.7127  35.8495  35.8785  36.1195  36.3287  39.0659  39.3095
    39.4469  39.5342  39.9760  40.9746  41.6673  41.7594  41.9124  42.4561
    43.0010  43.4704  43.8698  45.3515  45.6774  45.7370  45.9017  46.5231
    46.6997  48.8556  49.6123  50.0635  51.1104  51.4461  52.2606  52.4196
    52.9112  53.4284  53.6977  53.8178  54.0352

          k = 0.0000 0.1667 0.2857 (  2666 PWs)   bands (ev):

   -39.7338 -39.7264 -20.3108 -20.0161 -19.7914 -19.0084 -18.8226 -18.7204
    -7.0992  -7.0958  -7.0885  -7.0743  -7.0359  -7.0236   3.3106   3.7057
     4.5805   6.1193   6.2108   6.4168   7.3107   7.3998   7.7524   7.7801
     8.0475   8.1001   8.1482   8.2708   8.3286   8.9296   9.9543  10.5618
    30.6042  31.3255  31.4265  31.5873  31.6531  31.9451  32.1039  32.5619
    32.7514  32.8478  32.9917  33.4267  33.6499  34.7346  34.8357  35.3346
    35.7131  36.2699  36.5879  36.8944  37.5008  37.6717  38.5736  38.9946
    38.9984  39.2638  39.8877  40.6422  41.0321  41.3989  41.8837  42.7129
    42.7460  43.7209  43.9551  45.0785  45.5533  45.6782  45.7586  46.6838
    47.0240  47.0787  48.9137  50.5472  50.8363  51.0342  51.9415  52.8301
    52.9724  53.3395  54.0475  54.2184  54.4896

          k = 0.0000 0.1667 0.4286 (  2658 PWs)   bands (ev):

   -39.7292 -39.7246 -20.2163 -20.0934 -19.5694 -19.2862 -18.8227 -18.7198
    -7.1068  -7.0989  -7.0868  -7.0710  -7.0089  -6.9951   3.3454   3.7293
     5.7617   6.1208   6.2184   6.7115   7.0336   7.3539   7.4155   7.6584
     7.7025   8.0782   8.0829   8.2594   8.2961   8.3693   9.9495  10.5609
    30.4452  30.8185  30.9763  31.3579  31.9619  32.1106  32.1572  32.4078
    32.5696  32.9859  33.0372  33.5615  34.1768  34.5673  35.1681  35.2871
    36.0959  36.9667  37.1926  37.6318  37.6797  38.5480  38.6002  38.9093
    39.0418  39.5575  40.1802  40.2149  40.4358  41.2639  41.9501  42.1302
    42.8075  43.6825  43.8194  44.0574  44.7841  45.0544  46.0313  46.8779
    46.8944  47.7695  48.2478  50.1674  50.6326  50.9191  52.0443  52.7981
    52.9214  53.4573  53.6647  53.8494  54.8892

          k = 0.0000 0.3333 0.0000 (  2677 PWs)   bands (ev):

   -39.7379 -39.7284 -20.3207 -20.0840 -19.7194 -19.0919 -18.7203 -18.7203
    -7.1076  -7.1076  -7.0849  -7.0849  -7.0342  -7.0316   3.2610   3.3974
     4.9403   6.0827   6.0827   6.5224   7.3682   7.5380   7.5380   7.7513
     8.1009   8.1675   8.1675   8.2790   8.2790   8.4312  10.5537  10.5537
    30.3831  31.3604  31.3604  31.3708  31.8512  32.0416  32.4684  32.6885
    33.0261  33.0261  33.2721  33.5316  33.5402  33.5402  34.5301  35.0197
    35.1856  36.6017  36.6017  36.6634  37.9207  38.5973  38.8478  38.8478
    38.9402  39.2771  39.2825  40.6664  40.8075  40.8075  42.5465  42.5465
    42.9408  43.1074  43.8931  45.2282  45.2282  46.1804  46.6285  46.6285
    47.0999  47.5223  49.8854  49.8854  50.0401  51.2182  51.9288  51.9288
    52.4447  53.0796  54.0418  54.0420  54.1293

          k = 0.0000 0.3333 0.1429 (  2660 PWs)   bands (ev):

   -39.7302 -39.7255 -20.2880 -20.0513 -19.7257 -19.0943 -18.7969 -18.7203
    -7.1013  -7.0994  -7.0844  -7.0720  -7.0265  -7.0143   3.3183   3.6231
     4.9342   6.1117   6.1768   6.5178   7.2611   7.4246   7.6636   7.7804
     8.0352   8.1187   8.1652   8.2927   8.3136   8.4770  10.1093  10.5646
    30.4863  31.1561  31.2732  31.5252  31.8232  32.0107  32.1845  32.5729
    32.6674  32.8591  33.0176  33.5515  33.7651  34.6743  34.7608  35.1620
    35.5901  36.5070  36.8692  36.9519  38.0743  38.3846  38.5623  38.8433
    39.0268  39.1859  39.7106  40.2758  40.7698  41.2325  41.9833  42.5878
    42.7158  43.8240  43.9024  44.8959  45.3702  45.9556  45.9590  46.4364
    46.9079  47.2911  48.8971  50.3972  50.5274  51.3050  51.7651  52.6460
    52.7792  53.1872  53.9022  54.3654  54.5782

          k = 0.0000 0.3333 0.2857 (  2658 PWs)   bands (ev):

   -39.7316 -39.7233 -20.2242 -19.9623 -19.7178 -19.1177 -18.9883 -18.7196
    -7.1018  -7.0982  -7.0851  -7.0618  -7.0125  -6.9893   3.3534   4.3915
     4.9459   6.1731   6.3766   6.4865   7.1467   7.3001   7.5934   7.7460
     7.9711   8.0430   8.1833   8.3397   8.4052   8.4770   8.9742  10.5566
    30.5243  30.9264  30.9702  31.2396  31.7051  31.8073  32.1682  32.2755
    32.7219  32.9882  33.1957  33.7739  34.3694  34.6821  35.0097  35.7062
    36.7815  37.3708  37.4427  37.4538  37.9188  38.3675  38.4386  38.6585
    38.7733  39.0882  39.1060  40.1221  41.3752  41.7076  41.9926  42.1549
    43.0790  43.7431  44.5703  44.5738  45.0576  45.1101  45.5060  45.8853
    46.0860  47.0243  47.6754  50.0572  50.6980  51.4251  51.7817  52.9746
    53.0608  53.5108  54.0936  54.5318  54.7952

          k = 0.0000 0.3333 0.4286 (  2654 PWs)   bands (ev):

   -39.7266 -39.7244 -20.1808 -19.9036 -19.5785 -19.3119 -19.0783 -18.7177
    -7.1118  -7.1055  -7.0863  -7.0545  -6.9860  -6.9590   3.3778   4.8087
     5.7201   6.2261   6.4441   6.5798   7.0847   7.2714   7.3073   7.4111
     7.6921   7.9683   8.0744   8.2992   8.3798   8.4484   8.5247  10.5439
    30.3528  30.5578  30.6020  31.3281  31.6172  31.7020  32.3943  32.4130
    32.6569  33.1079  33.5196  34.0108  34.5122  34.7381  35.0454  36.0369
    37.2122  37.3307  37.7174  37.8889  38.1123  38.1821  38.3535  38.7530
    39.1343  39.4795  39.5891  40.2466  41.6098  41.8344  41.9525  42.3716
    42.9325  43.5379  44.0073  44.4711  44.6562  45.1026  45.2087  45.4188
    45.7698  45.8177  48.1430  48.4058  50.1937  52.0504  52.1959  52.7423
    52.8686  53.5129  53.7943  54.4612  54.7207

          k = 0.0000-0.5000 0.0000 (  2666 PWs)   bands (ev):

   -39.7290 -39.7290 -20.1982 -20.1982 -19.4233 -19.4233 -18.7196 -18.7196
    -7.1099  -7.1099  -7.0805  -7.0805  -7.0104  -7.0104   3.3394   3.3394
     6.0688   6.0688   6.5237   6.5237   6.9621   6.9621   7.5466   7.5466
     7.9224   7.9224   8.1280   8.1280   8.3650   8.3650  10.5575  10.5575
    30.6167  30.6167  31.0478  31.0478  32.1625  32.1625  32.5160  32.5160
    32.9724  32.9724  33.2451  33.2451  33.9654  33.9654  34.7781  34.7781
    36.8254  36.8254  36.8749  36.8749  38.1387  38.1387  38.5876  38.5876
    39.1681  39.1681  40.2926  40.2926  41.5225  41.5225  42.6504  42.6504
    42.8374  42.8374  42.8837  42.8837  44.8776  44.8776  47.5115  47.5115
    47.7202  47.7202  49.3626  49.3626  50.8349  50.8350  52.0892  52.0893
    52.7667  52.7668  53.5087  53.5087  53.9654

          k = 0.0000-0.5000 0.1429 (  2666 PWs)   bands (ev):

   -39.7292 -39.7291 -20.1926 -20.1394 -19.4327 -19.4275 -18.7963 -18.7194
    -7.1097  -7.1060  -7.0862  -7.0782  -7.0078  -6.9980   3.3499   3.6273
     6.0955   6.1078   6.5427   6.5527   6.8537   6.9912   7.4483   7.6105
     7.7297   8.0518   8.0862   8.2682   8.2910   8.3743  10.1005  10.5560
    30.4829  30.7013  30.9520  31.2684  32.0784  32.1813  32.1979  32.4731
    32.5320  33.0276  33.0324  33.4274  34.1870  34.5531  35.0597  35.1406
    36.4758  37.0753  37.1379  37.1782  38.1475  38.1890  38.6976  38.7726
    38.9797  39.5559  40.1127  40.1420  41.1827  41.9878  42.0451  42.1440
    42.3110  42.8045  43.6585  43.8763  44.6004  44.9532  46.3573  47.0509
    47.2868  47.8509  48.5102  50.1622  50.4338  50.8533  52.1099  52.6931
    53.1200  53.2644  53.6417  53.6735  54.2688

          k = 0.0000-0.5000 0.2857 (  2658 PWs)   bands (ev):

   -39.7268 -39.7267 -20.1789 -19.9726 -19.4531 -19.4383 -18.9991 -18.7186
    -7.1154  -7.1038  -7.0889  -7.0583  -6.9892  -6.9654   3.3698   4.4486
     6.1212   6.1997   6.5988   6.6418   6.6629   7.0831   7.3093   7.4538
     7.6781   7.9884   8.1265   8.2589   8.3630   8.4277   8.9611  10.5452
    30.3495  30.6331  30.6793  31.4171  31.5462  31.7723  32.3635  32.3849
    32.6170  33.1013  33.3453  33.9356  34.3793  34.8753  34.9938  36.2020
    37.2775  37.4094  37.4332  37.6466  37.6937  38.1567  38.2912  38.5479
    39.2123  39.3987  40.2236  41.2766  41.3093  41.6127  41.8511  42.0689
    42.2920  42.9435  44.1913  44.4059  44.6917  45.1388  45.2156  45.9240
    46.1169  46.4183  48.1027  48.6531  50.3963  52.0790  52.4753  52.4754
    52.7647  53.5896  53.9065  54.1043  55.0587

          k = 0.0000-0.5000 0.4286 (  2662 PWs)   bands (ev):

   -39.7281 -39.7281 -20.1699 -19.7551 -19.4706 -19.4604 -19.2328 -18.7164
    -7.1136  -7.1122  -7.0907  -7.0534  -6.9752  -6.9446   3.3980   5.6384
     6.1166   6.2947   6.4872   6.6643   6.7227   7.1969   7.2375   7.2549
     7.2703   7.9073   7.9358   7.9567   8.3932   8.4031   8.4834  10.5332
    30.2502  30.3008  30.3038  31.5263  31.5353  31.6105  32.5728  32.5792
    32.6648  33.2060  33.9942  34.3159  34.3403  34.4993  35.5724  35.8231
    36.7096  37.1417  37.4084  37.8392  37.9530  39.0199  39.0862  39.1378
    39.5711  39.6702  40.0237  41.2672  41.5841  41.6412  41.9880  42.4167
    42.7917  43.2430  43.7633  44.1686  44.5844  44.7984  44.9865  45.0602
    45.1826  46.1155  46.5944  48.4658  49.4700  51.6792  52.2750  52.3694
    53.4876  53.8564  53.9382  54.1121  54.1752

          k = 0.2000 0.0000 0.0000 (  2661 PWs)   bands (ev):

   -39.7384 -39.7181 -20.4047 -20.0108 -19.8778 -18.8676 -18.7217 -18.7217
    -7.0917  -7.0917  -7.0807  -7.0807  -7.0572  -7.0547   3.1921   3.3572
     4.1121   6.1088   6.1088   6.2890   7.5445   7.5445   7.6491   7.7528
     8.1436   8.1436   8.2104   8.2343   8.2343   9.7091  10.5704  10.5704
    30.6998  31.3722  31.6643  31.9265  31.9265  32.4125  32.4710  32.8432
    32.9511  33.0061  33.0061  33.1362  33.1362  33.3854  34.8502  34.9855
    35.2085  35.5922  36.0024  36.1292  36.1292  36.4952  39.2794  39.2794
    39.5388  39.6452  39.6830  41.1363  41.3380  41.3381  42.2286  42.2286
    43.3125  43.7421  43.7729  45.5343  45.5343  45.9025  45.9025  46.5081
    47.2559  48.5872  49.6662  50.7230  50.7230  51.3222  51.9130  51.9130
    52.8351  53.3436  53.6317  53.8435  53.8435

          k = 0.2000 0.0000 0.1429 (  2667 PWs)   bands (ev):

   -39.7357 -39.7249 -20.3732 -19.9886 -19.8791 -18.8711 -18.7957 -18.7220
    -7.0959  -7.0922  -7.0870  -7.0757  -7.0533  -7.0459   3.2658   3.5378
     4.1364   6.1152   6.1935   6.2772   7.4332   7.4388   7.7574   7.8726
     8.0466   8.0906   8.1855   8.2019   8.3171   9.6981  10.1128  10.5696
    30.8247  31.4162  31.6928  31.7427  31.8592  31.8912  32.1891  32.8058
    32.8234  32.8542  32.9915  33.0408  33.2607  34.5049  35.0038  35.2712
    35.5765  35.9081  35.9269  36.2557  36.4563  36.4629  38.9557  39.2357
    39.3272  39.4788  39.9998  40.8613  41.5504  41.7095  41.9433  42.5336
    43.1900  43.2911  43.8435  45.3896  45.6216  45.6268  45.9060  46.4928
    46.8001  48.4229  49.5610  50.1325  51.0433  51.3022  52.3115  52.5763
    52.9653  53.3494  53.6928  53.9794  54.2228

          k = 0.2000 0.0000 0.2857 (  2659 PWs)   bands (ev):

   -39.7306 -39.7251 -20.2938 -20.0010 -19.7900 -19.0117 -18.8633 -18.7204
    -7.0991  -7.0890  -7.0885  -7.0684  -7.0319  -7.0166   3.3212   3.8579
     4.5881   6.1297   6.2567   6.4129   7.2782   7.3686   7.7603   7.7874
     8.0656   8.0657   8.1276   8.2840   8.3495   8.9309   9.7110  10.5628
    30.6308  31.2827  31.3557  31.4960  31.6294  31.9708  32.0035  32.4561
    32.7717  32.9173  32.9592  33.4715  33.7734  34.7668  34.9386  35.5261
    35.9167  36.4159  36.7265  37.0300  37.5553  37.6677  38.4977  38.8849
    38.9931  39.1924  39.7947  40.9186  40.9429  41.3839  41.7884  42.6454
    42.8426  43.6328  44.1208  45.0253  45.4058  45.5966  45.6669  46.5343
    46.9163  47.1429  48.5231  50.6794  50.9960  51.0737  51.6314  52.9820
    53.1659  53.5401  53.9607  54.3109  54.5234

          k = 0.2000 0.0000 0.4286 (  2660 PWs)   bands (ev):

   -39.7297 -39.7253 -20.2074 -20.0657 -19.5727 -19.2898 -18.8653 -18.7196
    -7.1073  -7.0975  -7.0901  -7.0703  -7.0053  -6.9901   3.3510   3.8939
     5.7480   6.1386   6.2646   6.6897   7.0308   7.3412   7.3803   7.6420
     7.6807   8.0600   8.1240   8.2275   8.3233   8.3823   9.7025  10.5595
    30.4359  30.8185  30.9115  31.3786  31.8434  31.9984  32.1878  32.3440
    32.5876  33.0354  33.0465  33.6562  34.3133  34.5435  35.1946  35.6100
    36.2886  36.9779  37.2741  37.6600  37.7592  38.4787  38.5524  38.8182
    38.9722  39.6700  40.0391  40.3448  40.6106  41.3178  41.8719  41.9997
    42.8753  43.6573  43.8188  44.3442  44.7559  45.0496  45.7101  46.6008
    46.6839  47.8196  47.8288  49.9130  50.8093  50.9663  52.1276  52.8550
    53.0757  53.3446  53.8703  54.3099  54.5481

          k = 0.2000 0.1667 0.0000 (  2672 PWs)   bands (ev):

   -39.7353 -39.7293 -20.3629 -19.9848 -19.8745 -18.8749 -18.8199 -18.7218
    -7.1018  -7.0958  -7.0895  -7.0717  -7.0528  -7.0416   3.2751   3.6074
     4.1527   6.1183   6.2228   6.2737   7.4063   7.4198   7.7704   7.8942
     8.0215   8.0743   8.1829   8.1970   8.3256   9.6931   9.9612  10.5656
    30.8351  31.4235  31.6534  31.6870  31.8137  31.8668  32.1220  32.7311
    32.8570  32.8735  33.0051  33.0061  33.3298  34.6341  35.0512  35.3108
    35.6695  36.0162  36.0432  36.3226  36.4782  36.5575  38.8896  39.2202
    39.2431  39.4220  40.0536  40.8633  41.5378  41.6952  41.8796  42.6560
    43.1485  43.1883  43.8712  45.3767  45.5630  45.5915  45.8896  46.5444
    46.7219  48.2799  49.3823  50.1934  51.0775  51.2674  52.3289  52.7402
    52.9524  53.3060  53.8157  53.9977  54.3840

          k = 0.2000 0.1667 0.1429 (  2665 PWs)   bands (ev):

   -39.7349 -39.7248 -20.3272 -19.9470 -19.8934 -18.8754 -18.8269 -18.7906
    -7.1102  -7.0794  -7.0756  -7.0616  -7.0491  -7.0461   3.5221   3.6427
     4.1589   6.2043   6.2335   6.2808   7.1689   7.6422   7.7065   7.9303
     7.9952   8.0575   8.1143   8.2627   8.3015   9.6950   9.9544  10.1151
    31.0478  31.3581  31.6095  31.6519  31.8340  31.9061  31.9668  32.1124
    32.4937  32.7495  32.7735  33.1527  34.4112  34.7178  35.6376  35.6942
    35.8361  36.1498  36.2690  36.3172  36.3814  36.5553  38.7680  38.9134
    39.4332  39.8242  40.1114  40.9603  41.4059  41.5823  41.9140  42.1783
    42.4709  43.9296  44.0220  45.1003  45.1307  45.5079  45.5393  46.4671
    46.6135  48.3003  49.7078  50.0681  50.5432  51.5359  51.8305  53.4854
    53.6926  53.9730  54.0444  54.2277  54.4099

          k = 0.2000 0.1667 0.2857 (  2655 PWs)   bands (ev):

   -39.7325 -39.7195 -20.2402 -19.9587 -19.8082 -19.0141 -18.8691 -18.8200
    -7.0968  -7.0808  -7.0742  -7.0570  -7.0274  -7.0194   3.6842   3.8972
     4.5668   6.2449   6.2895   6.4340   6.9944   7.6098   7.6762   7.7929
     7.9638   8.0817   8.1754   8.2567   8.3219   8.9489   9.7084   9.9558
    30.8540  31.1525  31.4007  31.5340  31.7020  31.8341  31.9303  32.2431
    32.3466  32.5304  32.6343  33.5914  34.7716  35.1344  35.6484  35.8360
    36.0702  36.5707  36.7447  37.0859  37.5474  37.7536  38.3188  38.7708
    39.3535  39.7207  40.3466  40.6731  40.7468  41.2904  41.5644  41.7404
    42.9366  43.8992  44.2653  44.5782  44.8624  44.9719  45.3583  46.5007
    46.7796  47.2183  49.0298  49.7055  51.2230  51.3821  51.5373  53.5678
    53.6145  53.9271  54.1759  54.4524  54.8027

          k = 0.2000 0.1667 0.4286 (  2655 PWs)   bands (ev):

   -39.7266 -39.7241 -20.1411 -20.0398 -19.5832 -19.2962 -18.8676 -18.8236
    -7.0990  -7.0867  -7.0748  -7.0633  -6.9993  -6.9949   3.7384   3.9109
     5.7191   6.2457   6.3193   6.6958   6.8687   7.2991   7.4861   7.5455
     7.8034   7.9002   8.2306   8.2613   8.2840   8.3223   9.7040   9.9478
    30.5695  30.6654  31.2480  31.4331  31.7598  31.9016  31.9779  32.1373
    32.4255  32.6068  33.0191  33.5528  35.1192  35.2422  35.5293  35.7400
    36.2259  37.0488  37.4819  37.7527  38.0386  38.6000  38.8009  38.9739
    39.4667  39.6313  39.8634  40.2604  40.5946  41.1100  41.4169  41.8611
    43.0520  43.4835  44.0682  44.3145  44.3936  44.8869  44.9876  45.5095
    46.9115  47.2370  48.9465  49.5377  50.0538  50.6925  52.9436  53.1481
    53.6341  53.7274  53.8792  54.2029  54.6450

          k = 0.2000 0.3333 0.0000 (  2656 PWs)   bands (ev):

   -39.7310 -39.7223 -20.2634 -20.0210 -19.7284 -19.0991 -18.8642 -18.7196
    -7.1012  -7.0897  -7.0896  -7.0667  -7.0223  -7.0042   3.3355   3.8835
     4.9280   6.1333   6.2511   6.5048   7.2096   7.3676   7.7161   7.7207
     8.0696   8.0871   8.1081   8.3134   8.3552   8.4871   9.7084  10.5599
    30.5341  31.0989  31.1691  31.4608  31.7264  31.9977  32.0477  32.3880
    32.6966  32.9440  32.9935  33.6345  33.9730  34.7198  34.9065  35.5941
    36.0052  36.5455  37.0547  37.1778  38.1261  38.2717  38.5315  38.8324
    38.8403  39.1296  39.5141  40.5898  40.8648  41.2931  41.8069  42.3943
    42.8646  43.8597  44.2156  44.7284  45.3496  45.5814  45.6971  46.2432
    46.5932  47.4045  48.2310  50.4946  50.9138  51.2611  51.4305  52.9246
    53.1731  53.5693  53.7096  54.4569  54.7550

          k = 0.2000 0.3333 0.1429 (  2657 PWs)   bands (ev):

   -39.7316 -39.7216 -20.2212 -19.9938 -19.7398 -19.1023 -18.8666 -18.7961
    -7.0975  -7.0844  -7.0767  -7.0646  -7.0192  -7.0093   3.6119   3.9026
     4.9102   6.2254   6.2756   6.5188   6.9937   7.5440   7.6179   7.7928
     7.9412   8.0726   8.2217   8.2428   8.3276   8.5158   9.7052  10.1057
    30.6828  30.9688  31.3160  31.5448  31.7596  31.8672  31.9532  32.2784
    32.3967  32.6157  32.7470  33.6092  34.7906  35.1235  35.3225  35.7341
    36.0527  36.7240  37.0378  37.3102  38.0750  38.3423  38.3840  38.8455
    39.1941  39.3359  40.0398  40.3893  40.7190  41.2382  41.5438  41.7657
    43.3945  43.7054  44.2093  44.5052  44.9123  45.0838  45.1952  46.4241
    46.6735  47.0845  48.7912  49.7652  50.9231  51.2566  51.8582  53.2939
    53.5144  53.7839  53.9604  54.3107  54.7784

          k = 0.2000 0.3333 0.2857 (  2656 PWs)   bands (ev):

   -39.7299 -39.7216 -20.1304 -19.9117 -19.7474 -19.1165 -19.0004 -18.8673
    -7.0970  -7.0783  -7.0662  -7.0460  -7.0102  -6.9990   3.9029   4.4292
     4.9090   6.3249   6.4241   6.5496   6.7922   7.5181   7.6037   7.7423
     7.9396   7.9834   8.1694   8.2651   8.3350   8.5294   8.9679   9.7038
    30.8286  30.8616  31.2225  31.3584  31.5867  31.7558  31.9312  32.0891
    32.1931  32.5048  32.7946  34.0360  35.1747  35.3951  35.8624  36.1600
    36.7582  37.2715  37.3154  37.8796  38.0203  38.2514  38.5528  38.6299
    39.4621  39.6805  40.0381  40.2444  41.0172  41.0674  41.2951  41.9020
    43.0012  43.7485  43.9079  44.1543  44.1943  44.7132  44.8167  45.9451
    46.5730  46.9974  47.9819  49.3881  50.2481  51.2932  52.3420  52.9980
    53.2649  53.7360  53.9258  54.3991  54.8849

          k = 0.2000 0.3333 0.4286 (  2643 PWs)   bands (ev):

   -39.7216 -39.7204 -20.0634 -19.8780 -19.5958 -19.3150 -19.0902 -18.8710
    -7.0867  -7.0779  -7.0576  -7.0459  -6.9885  -6.9720   3.9322   4.8296
     5.6991   6.3943   6.4305   6.5823   6.8745   7.3083   7.4031   7.4984
     7.7541   7.9007   8.0854   8.2518   8.2789   8.3476   8.5363   9.7036
    30.5877  30.6292  31.0638  31.3165  31.5903  31.7512  31.9102  32.0442
    32.1513  32.6430  33.4459  34.1524  35.1891  35.3510  35.7479  36.1271
    37.3152  37.7080  37.8746  37.9917  38.3142  38.5283  38.9171  39.0830
    39.3288  39.7683  39.9298  40.2424  40.7918  41.1994  41.9300  42.4080
    43.0142  43.2933  43.4006  43.7766  44.0051  44.3005  44.9981  45.3456
    45.5220  47.0629  47.4711  48.5961  49.4339  50.9562  52.4066  52.5609
    52.9213  53.4849  54.2453  54.5260  55.4087

          k = 0.2000-0.5000 0.0000 (  2658 PWs)   bands (ev):

   -39.7265 -39.7264 -20.1873 -20.0833 -19.4399 -19.4309 -18.8656 -18.7187
    -7.1083  -7.0949  -7.0893  -7.0665  -7.0040  -6.9886   3.3576   3.8968
     6.1090   6.1396   6.5631   6.5827   6.7768   7.0228   7.3917   7.6186
     7.6467   8.0490   8.1375   8.2337   8.3241   8.3951   9.7052  10.5573
    30.4237  30.7436  30.8500  31.3530  31.8556  32.0004  32.2279  32.3544
    32.5608  33.0599  33.0791  33.5980  34.4109  34.5136  35.2893  35.6065
    36.5079  37.1340  37.2666  37.4070  38.2147  38.2419  38.4775  38.5587
    38.9328  39.8770  40.0225  40.5746  40.9820  41.8829  41.9118  42.1604
    42.1639  42.7855  43.9854  44.3932  44.4104  44.9413  45.7607  46.7047
    46.8707  47.7639  47.9323  49.6251  50.7621  51.0919  52.2587  52.6134
    53.1860  53.6704  53.7767  54.1669  54.5982

          k = 0.2000-0.5000 0.1429 (  2658 PWs)   bands (ev):

   -39.7265 -39.7263 -20.1270 -20.0763 -19.4436 -19.4398 -18.8670 -18.7970
    -7.1017  -7.0964  -7.0768  -7.0667  -6.9961  -6.9892   3.6436   3.9036
     6.1428   6.1624   6.5915   6.5971   6.7880   6.8946   7.4513   7.4965
     7.7996   7.9059   8.2290   8.2675   8.2854   8.3334   9.7039  10.1004
    30.5170  30.5984  31.1924  31.3642  31.7634  32.0091  32.0509  32.1628
    32.4120  32.7056  33.2125  33.3688  34.9921  35.1151  35.4803  35.6852
    36.5936  36.7307  37.7195  37.7900  38.2969  38.3720  38.5413  38.7608
    39.3145  39.6829  39.9331  40.3892  41.1328  41.3793  41.6728  41.9741
    42.4922  42.6965  44.2203  44.3830  44.4891  44.6407  45.2810  45.4469
    46.9697  47.4799  48.9073  49.5567  50.1983  50.3764  53.1636  53.2742
    53.3796  53.7109  53.8401  54.1052  54.5091

          k = 0.2000-0.5000 0.2857 (  2648 PWs)   bands (ev):

   -39.7229 -39.7226 -20.0593 -19.9564 -19.4592 -19.4528 -19.0054 -18.8702
    -7.0841  -7.0833  -7.0618  -7.0549  -6.9891  -6.9769   3.9276   4.4625
     6.1770   6.2343   6.5888   6.6157   6.7352   6.9086   7.4340   7.4473
     7.7957   7.8824   8.1410   8.2585   8.2798   8.3373   8.9589   9.7019
    30.5667  30.6012  31.2009  31.4307  31.4829  31.7666  31.8980  32.0292
    32.2300  32.5972  33.5523  33.7107  35.3343  35.3504  35.9111  36.1140
    37.0622  37.2843  37.8019  38.0360  38.2941  38.4381  38.7978  38.8190
    39.5672  39.7785  40.2670  40.4670  40.8373  41.4936  41.7026  42.1519
    42.4571  42.6836  43.8202  43.8679  44.4181  44.5297  44.8261  44.9150
    46.0516  47.1957  48.2243  48.6788  49.6141  50.4031  52.7698  52.8902
    53.1917  53.5698  54.4608  54.4716  55.0782

          k = 0.2000-0.5000 0.4286 (  2646 PWs)   bands (ev):

   -39.7218 -39.7216 -20.0455 -19.7238 -19.4759 -19.4680 -19.2608 -18.8732
    -7.0795  -7.0789  -7.0669  -7.0455  -6.9752  -6.9550   3.9453   5.6579
     6.1554   6.3405   6.4602   6.5976   6.7098   7.1649   7.2132   7.4060
     7.4569   7.8501   7.9707   7.9791   8.2950   8.2966   8.3592   9.6986
    30.4922  30.5331  30.6860  31.4898  31.5988  31.7252  31.7846  32.1629
    32.1732  32.7845  34.2561  34.3946  34.8826  35.2499  35.4643  35.8033
    37.1502  38.1645  38.3450  38.4093  38.5631  38.6981  38.9074  39.3655
    39.5015  39.7807  40.0821  40.1784  41.4811  41.7379  42.0450  42.3058
    42.7655  43.2364  43.2390  43.4560  44.1462  44.4191  44.4443  45.1391
    45.4716  46.1357  46.6350  47.4934  49.1585  51.2997  51.6493  52.4285
    52.6966  52.9605  53.6516  55.2931  55.8447

          k = 0.4000 0.0000 0.0000 (  2657 PWs)   bands (ev):

   -39.7319 -39.7204 -20.2715 -20.1261 -19.6113 -19.2213 -18.7194 -18.7194
    -7.1067  -7.1067  -7.0792  -7.0792  -7.0175  -7.0088   3.2974   3.3819
     5.5404   6.0752   6.0752   6.6853   7.1623   7.5439   7.5439   7.7166
     7.8192   8.0348   8.1484   8.1484   8.3322   8.3322  10.5584  10.5584
    30.3867  31.0583  31.1646  31.1646  32.0122  32.1059  32.4779  32.6010
    32.9928  32.9928  33.2133  33.4837  33.7914  33.7914  34.6130  34.9212
    35.7026  36.7526  36.7526  37.2575  37.9919  38.6834  38.6834  38.9019
    38.9573  39.2157  39.9232  40.5072  40.5072  40.7956  42.7094  42.7094
    42.7145  42.8621  43.5082  44.7591  45.0119  45.0119  47.2775  47.2775
    47.3133  47.5655  49.5356  49.5356  50.1539  51.7946  51.9547  51.9547
    52.0404  53.2068  53.4536  53.4537  54.4582

          k = 0.4000 0.0000 0.1429 (  2659 PWs)   bands (ev):

   -39.7307 -39.7240 -20.2424 -20.0913 -19.6179 -19.2263 -18.7962 -18.7202
    -7.1054  -7.1009  -7.0848  -7.0751  -7.0131  -7.0025   3.3363   3.6286
     5.5092   6.1103   6.1763   6.6627   7.1145   7.4356   7.5646   7.7403
     7.7559   8.0410   8.1039   8.2753   8.2785   8.3489  10.1037  10.5631
    30.4409  30.9077  31.0717  31.3807  31.9747  32.1111  32.1910  32.5047
    32.5848  32.9408  33.0264  33.5471  34.0124  34.5858  34.9749  35.1438
    35.8338  36.8355  37.0903  37.4048  37.8532  38.6319  38.6462  38.9607
    39.2764  39.3575  39.8309  40.1025  40.3836  41.1664  42.0109  42.3189
    42.8101  43.7308  43.8372  44.3366  45.0450  45.1235  46.2051  46.8297
    47.0111  47.6207  48.5904  50.3251  50.3958  51.2011  51.8721  52.6575
    52.7335  53.3349  53.6455  53.8266  54.9283

          k = 0.4000 0.0000 0.2857 (  2657 PWs)   bands (ev):

   -39.7304 -39.7233 -20.1969 -19.9652 -19.6269 -19.2442 -18.9965 -18.7188
    -7.1102  -7.1014  -7.0876  -7.0595  -6.9980  -6.9725   3.3632   4.4351
     5.4762   6.1883   6.3757   6.5851   7.0885   7.2977   7.5132   7.5451
     7.7697   8.0115   8.1519   8.2287   8.3621   8.4187   8.9639  10.5499
    30.4222  30.7444  30.7865  31.2934  31.6753  31.7822  32.2763  32.3227
    32.6583  33.0552  33.2770  33.8942  34.5656  34.6593  34.9115  36.0167
    37.0234  37.3850  37.4230  37.6879  37.7844  38.3017  38.5375  38.6792
    39.1023  39.3739  39.7252  39.7385  41.4548  41.7717  41.8518  42.0176
    43.0085  43.8189  44.0076  44.6692  44.9116  45.1257  45.3166  45.4946
    46.0872  46.6453  47.9361  49.2882  50.5173  51.6188  52.3255  52.6736
    52.9682  53.5046  53.8775  54.4052  55.0860

          k = 0.4000 0.0000 0.4286 (  2657 PWs)   bands (ev):

   -39.7279 -39.7250 -20.1736 -19.8155 -19.5617 -19.3452 -19.1781 -18.7172
    -7.1147  -7.1101  -7.0863  -7.0506  -6.9799  -6.9503   3.3892   5.3505
     5.7354   6.2646   6.5127   6.5352   7.1191   7.2416   7.2835   7.3219
     7.4791   7.9333   8.0036   8.0748   8.3556   8.3954   8.4720  10.5371
    30.3030  30.4017  30.4112  31.3913  31.6080  31.6402  32.4940  32.5125
    32.6656  33.1616  33.8689  34.0238  34.4786  34.6186  35.4537  35.7856
    36.9078  37.2811  37.6405  37.8834  38.0469  38.7731  38.9130  39.0796
    39.3427  39.5117  39.5124  40.2593  41.4227  41.9095  42.4673  42.6813
    42.8599  43.6262  43.9606  44.2600  44.2623  44.7303  45.0675  45.1724
    45.3249  45.9073  47.4930  48.3226  49.7875  51.8377  52.2828  52.4629
    53.3716  53.5568  54.0627  54.0911  54.2617

          k = 0.4000 0.1667 0.0000 (  2659 PWs)   bands (ev):

   -39.7294 -39.7253 -20.2341 -20.0772 -19.6201 -19.2282 -18.8227 -18.7202
    -7.1055  -7.0988  -7.0868  -7.0714  -7.0123  -6.9999   3.3405   3.7290
     5.5020   6.1209   6.2066   6.6543   7.1044   7.4098   7.5655   7.7177
     7.7472   8.0696   8.0898   8.2580   8.3000   8.3569   9.9492  10.5625
    30.4487  30.8964  31.0344  31.3995  31.9214  32.1082  32.1232  32.4208
    32.5947  32.9515  33.0302  33.6000  34.0939  34.5893  35.0950  35.2965
    35.9399  36.8373  37.1707  37.4600  37.8454  38.5808  38.6403  38.9819
    39.1949  39.3378  39.8366  40.3029  40.3121  41.1982  41.9350  42.2159
    42.8604  43.7732  44.0359  44.2386  45.0353  45.1368  45.9688  46.6663
    46.8731  47.6633  48.3217  50.2758  50.6109  51.0525  51.8937  52.7870
    52.8703  53.4589  53.6033  54.0451  54.9069

          k = 0.4000 0.1667 0.1429 (  2662 PWs)   bands (ev):

   -39.7298 -39.7263 -20.1920 -20.0528 -19.6288 -19.2335 -18.8241 -18.7965
    -7.1053  -7.0916  -7.0797  -7.0710  -7.0081  -7.0015   3.6181   3.7494
     5.4794   6.2065   6.2421   6.6521   6.9680   7.4650   7.5270   7.6932
     7.8194   7.9029   8.2283   8.2566   8.2952   8.3109   9.9467  10.1009
    30.5494  30.7610  31.2350  31.4536  31.8948  31.9776  32.0188  32.2392
    32.5088  32.6693  32.8812  33.4659  34.9685  35.0266  35.2241  35.4678
    35.9459  37.1035  37.2392  37.5855  37.7717  38.7858  38.9280  38.9789
    39.1982  39.6252  39.7922  39.9679  40.4052  41.1860  41.5713  41.8521
    43.2287  43.9005  43.9921  44.2020  44.5569  45.2403  45.4210  45.8287
    47.0428  47.2607  49.1170  49.5168  50.6306  50.8590  52.4102  53.1017
    53.4861  53.6074  53.7632  53.9951  54.7201

          k = 0.4000 0.1667 0.2857 (  2650 PWs)   bands (ev):

   -39.7243 -39.7232 -20.1212 -19.9435 -19.6411 -19.2464 -19.0020 -18.8249
    -7.0972  -7.0825  -7.0675  -7.0537  -6.9967  -6.9822   3.7516   4.4521
     5.4575   6.3189   6.3928   6.6054   6.8589   7.4531   7.4775   7.6017
     7.7841   7.9345   8.1478   8.2714   8.2907   8.3624   8.9628   9.9478
    30.6081  30.6785  31.1612  31.3006  31.6551  31.8004  31.9831  32.1465
    32.2083  32.6845  33.1195  33.9525  35.1053  35.2716  35.5247  36.1074
    36.9721  37.3482  37.6586  37.7688  38.1146  38.3911  38.8740  39.1411
    39.1997  39.6880  39.7087  39.8839  41.0778  41.1240  41.6409  41.9979
    43.2325  43.6765  43.7698  44.1830  44.3215  44.3564  44.8961  45.7506
    45.9613  47.2985  47.8046  49.4335  49.7233  51.1711  52.6685  52.9551
    53.1722  53.7720  53.8291  54.5509  54.9447

          k = 0.4000 0.1667 0.4286 (  2652 PWs)   bands (ev):

   -39.7243 -39.7238 -20.0883 -19.7954 -19.5754 -19.3426 -19.1950 -18.8271
    -7.0929  -7.0877  -7.0707  -7.0474  -6.9825  -6.9598   3.7730   5.3741
     5.7137   6.4167   6.4667   6.4906   6.9771   7.2738   7.3297   7.4296
     7.5523   7.8871   8.0090   8.0731   8.3085   8.3195   8.3948   9.9420
    30.4632  30.5089  30.7350  31.3829  31.6510  31.7099  31.9912  32.1973
    32.2451  32.8610  33.7803  34.3484  34.9205  35.1073  35.4202  35.9495
    37.1531  38.0234  38.0530  38.3273  38.3915  38.6046  38.9786  39.1868
    39.2928  39.4963  39.7269  40.2938  40.8214  41.5421  42.5038  42.5996
    42.9501  43.4201  43.5130  43.6971  44.1055  44.2563  44.4172  45.4620
    45.5729  46.0867  47.6253  47.7231  49.4740  51.5855  52.3095  52.3744
    52.6237  53.1936  54.2495  54.5373  55.3477

          k = 0.4000 0.3333 0.0000 (  2652 PWs)   bands (ev):

   -39.7270 -39.7230 -20.1866 -19.9078 -19.6210 -19.2577 -19.0740 -18.7177
    -7.1095  -7.1046  -7.0854  -7.0549  -6.9880  -6.9617   3.3748   4.7942
     5.4794   6.2185   6.4392   6.5560   7.1032   7.2705   7.4403   7.5278
     7.7381   7.9799   8.1060   8.2861   8.3771   8.4435   8.5331  10.5450
    30.3871  30.6088  30.6512  31.2810  31.6595  31.7111  32.3558  32.3787
    32.6701  33.0860  33.4751  33.9567  34.5916  34.7740  34.9328  35.9376
    37.2311  37.4000  37.6806  37.8023  38.1565  38.3397  38.3976  38.7506
    39.1128  39.2930  39.5689  39.6949  41.7085  41.8015  41.8438  42.5523
    43.0186  43.8470  43.9643  44.4846  44.6796  45.0944  45.2844  45.3843
    45.8024  45.8768  48.0707  48.7043  50.2754  51.9318  52.2830  52.6500
    52.7726  53.7973  53.8000  54.3691  54.7319

          k = 0.4000 0.3333 0.1429 (  2654 PWs)   bands (ev):

   -39.7264 -39.7238 -20.1270 -19.8924 -19.6328 -19.2580 -19.0816 -18.7984
    -7.0997  -7.0902  -7.0746  -7.0543  -6.9904  -6.9703   3.6586   4.8063
     5.4626   6.3255   6.4345   6.5563   6.9228   7.4044   7.4441   7.5565
     7.7550   7.9357   8.1017   8.2808   8.3115   8.3913   8.5408  10.0985
    30.5359  30.5853  30.9353  31.2826  31.6613  31.7685  32.1228  32.1891
    32.2432  32.8265  33.3375  34.1021  35.0090  35.0702  35.3490  36.0321
    37.2615  37.6208  37.9176  37.9840  38.2190  38.3125  38.6924  39.0422
    39.1375  39.5257  39.6445  39.7097  41.1874  41.4004  41.8891  42.5156
    43.1180  43.6248  43.7199  44.1457  44.2813  44.3345  45.0643  45.4118
    45.7318  46.8319  47.6998  48.8071  49.8516  51.4923  52.5081  52.7520
    52.9952  53.7019  53.7735  54.5493  54.9470

          k = 0.4000 0.3333 0.2857 (  2651 PWs)   bands (ev):

   -39.7235 -39.7228 -19.9716 -19.8389 -19.6618 -19.2589 -19.1027 -19.0111
    -7.0831  -7.0618  -7.0525  -7.0303  -6.9961  -6.9882   4.4739   4.8391
     5.4431   6.3690   6.4422   6.6671   6.8133   7.4105   7.5436   7.6090
     7.7330   7.9144   8.0805   8.1816   8.2502   8.2665   8.5333   8.9598
    30.7482  30.8666  31.2298  31.3049  31.4158  31.6813  31.7430  31.9172
    32.0632  32.2644  33.4293  34.4190  35.3446  35.5112  36.4793  36.5278
    37.0720  37.5769  37.8037  38.1834  38.2828  38.5835  38.9652  39.4156
    39.7493  39.9635  40.2895  40.3855  40.7284  41.0539  41.6017  41.9705
    42.9259  43.3362  43.3845  43.5663  43.8430  44.0862  44.6883  45.3497
    45.9940  46.2430  47.5226  48.3712  49.2531  50.2352  51.4117  52.3129
    52.8818  53.0629  54.4649  55.1648  55.5418

          k = 0.4000 0.3333 0.4286 (  2646 PWs)   bands (ev):

   -39.7213 -39.7207 -19.8577 -19.7358 -19.6129 -19.3342 -19.2372 -19.1107
    -7.0640  -7.0477  -7.0410  -7.0200  -6.9955  -6.9846   4.8594   5.4265
     5.7050   6.3283   6.3322   6.7640   6.9547   7.2894   7.4004   7.5719
     7.6678   7.8295   7.9899   8.0603   8.1427   8.1808   8.1836   8.5190
    30.8139  30.9335  31.2386  31.2486  31.3656  31.6544  31.7127  31.8045
    31.8960  32.1061  34.0903  34.7590  35.3387  35.3842  36.3736  36.5691
    37.1768  37.7427  37.9051  38.0144  38.6498  38.9062  39.5103  39.7313
    39.9240  40.1250  40.4501  40.5927  40.9515  41.5548  41.8508  41.9589
    42.9646  43.2147  43.4180  43.5986  43.8219  44.1353  44.1774  44.5676
    45.4777  45.9607  46.5979  47.8701  48.2177  49.5048  50.0484  51.2392
    52.8516  53.1401  54.7109  55.8892  56.4101

          k = 0.4000-0.5000 0.0000 (  2650 PWs)   bands (ev):

   -39.7242 -39.7241 -20.1701 -19.7949 -19.4676 -19.4537 -19.1930 -18.7166
    -7.1127  -7.1099  -7.0858  -7.0495  -6.9720  -6.9418   3.3948   5.3889
     6.1224   6.2801   6.5261   6.6487   6.7134   7.1797   7.2474   7.2827
     7.4622   7.9236   7.9701   8.0570   8.3766   8.3994   8.4784  10.5361
    30.2655  30.3501  30.3623  31.5040  31.5211  31.6269  32.5387  32.5483
    32.6612  33.1863  33.9067  34.2732  34.3904  34.4398  35.6352  35.7773
    36.8200  37.1639  37.6014  37.8511  37.9720  38.8001  38.9550  39.0930
    39.4520  39.5242  39.7809  41.3281  41.5757  41.6529  41.9540  42.4044
    42.9585  43.1859  43.9106  44.2251  44.5543  44.8648  44.9532  45.0732
    45.3003  46.0065  47.0318  48.4003  49.6461  51.7593  52.3116  52.4879
    53.3404  53.7365  54.0481  54.0789  54.2200

          k = 0.4000-0.5000 0.1429 (  2650 PWs)   bands (ev):

   -39.7237 -39.7231 -20.1065 -19.7812 -19.4709 -19.4587 -19.2050 -18.7988
    -7.0929  -7.0922  -7.0755  -7.0486  -6.9771  -6.9530   3.6773   5.3980
     6.1423   6.3135   6.5075   6.6527   6.6683   7.1178   7.2773   7.3652
     7.5348   7.8857   7.9857   8.0478   8.3278   8.3452   8.4237  10.0952
    30.4059  30.4122  30.6069  31.4768  31.5550  31.7206  32.0905  32.3147
    32.3201  32.9741  34.0258  34.2893  34.7737  34.7823  35.6503  35.7428
    37.0225  37.9378  37.9507  38.2630  38.5064  38.6659  38.7099  39.0408
    39.4520  39.6577  39.7223  40.7949  41.3471  41.6762  41.8697  42.4499
    42.8749  43.5282  43.6654  43.8184  43.9122  44.4783  44.6038  45.1092
    45.6526  46.1242  47.0675  47.9448  49.4585  51.9416  52.1815  52.3210
    52.8505  52.9207  54.3808  54.5243  55.2005

          k = 0.4000-0.5000 0.2857 (  2640 PWs)   bands (ev):

   -39.7193 -39.7192 -19.9265 -19.7469 -19.4780 -19.4715 -19.2330 -19.0190
    -7.0630  -7.0607  -7.0411  -7.0335  -6.9840  -6.9731   4.4923   5.4259
     6.1920   6.2935   6.4539   6.5158   6.8617   7.1263   7.3510   7.4951
     7.6629   7.8111   8.0108   8.0264   8.2052   8.2120   8.2383   8.9549
    30.7049  30.7715  31.0543  31.3634  31.4178  31.6745  31.7826  31.8631
    31.9659  32.3369  34.2960  34.3857  35.2089  35.4186  36.0963  36.2810
    37.5099  37.7977  38.0317  38.1081  38.3046  39.2257  39.4604  39.6347
    39.7306  39.8933  40.0342  40.4605  41.5115  41.8321  42.0335  42.0998
    42.5264  42.7359  42.8971  43.7881  44.0088  44.3552  44.5562  44.9149
    44.9201  46.3284  47.0563  47.1192  48.6333  49.7721  50.7539  51.9864
    52.8113  52.8958  54.1736  56.1133  56.2741

          k = 0.4000-0.5000 0.4286 (  2640 PWs)   bands (ev):

   -39.7182 -39.7182 -19.7136 -19.6616 -19.4855 -19.4847 -19.3158 -19.2586
    -7.0388  -7.0380  -7.0158  -7.0153  -6.9981  -6.9967   5.4517   5.7114
     6.2091   6.2247   6.4171   6.4227   6.9435   7.0898   7.4574   7.5355
     7.6848   7.7492   7.9441   7.9653   8.0191   8.0201   8.0627   8.0671
    31.0251  31.0557  31.2471  31.2739  31.4328  31.5566  31.6433  31.6554
    31.7761  31.8261  34.9496  34.9692  35.4360  35.4455  36.1838  36.3393
    36.9944  37.0091  38.1510  38.1755  38.9421  38.9573  39.5664  39.6502
    40.0117  40.4821  41.3162  41.4024  41.7362  41.8267  42.1297  42.1383
    42.7527  42.7984  43.3504  43.5937  43.6641  43.9969  44.1457  44.2651
    45.2585  45.3155  46.8405  47.3490  47.3823  47.9794  49.1448  49.5117
    53.4248  53.4285  55.3862  55.8323  56.4123

     the Fermi energy is    45.7198 ev

!    total energy              =   -1566.08232533 Ry
     Harris-Foulkes estimate   =   -1566.08232711 Ry
     estimated scf accuracy    <       0.00000221 Ry

     The total energy is the sum of the following terms:

     one-electron contribution =     197.04242432 Ry
     hartree contribution      =     109.78997768 Ry
     xc contribution           =    -165.92176269 Ry
     ewald contribution        =   -1706.72691547 Ry
     smearing contrib. (-TS)   =      -0.26604918 Ry

     convergence has been achieved in   9 iterations

     Forces acting on atoms (Ry/au):

     atom    1 type  1   force =     0.00000000    0.00000000    0.00000000
     atom    2 type  1   force =     0.00000000    0.00000000    0.00000000
     atom    3 type  1   force =     0.00000000    0.00000000    0.00000000
     atom    4 type  1   force =     0.00000000    0.00000000    0.00000000
     atom    5 type  1   force =     0.00000000    0.00000000    0.00000000
     atom    6 type  1   force =     0.00000000    0.00000000    0.00000000
     atom    7 type  2   force =     0.00000000    0.00000000    0.00000000
     atom    8 type  2   force =     0.00000000    0.00000000    0.00000000

     Total force =     0.000000     Total SCF correction =     0.000000


     entering subroutine stress ...

          total   stress  (Ry/bohr**3)                   (kbar)     P= 4778.16
   0.03248125   0.00000000   0.00000000       4778.16      0.00      0.00
   0.00000000   0.03248125   0.00000000          0.00   4778.16      0.00
   0.00000000   0.00000000   0.03248125          0.00      0.00   4778.16


     BFGS Geometry Optimization

     number of scf cycles    =   1
     number of bfgs steps    =   0

     enthalpy new            =   -1566.0823253317 Ry

     new trust radius        =       0.5000000000 bohr
     new conv_thr            =       0.0001000000 Ry

     new unit-cell volume =    828.02266 a.u.^3 (   122.70030 Ang^3 )

CELL_PARAMETERS (alat=  8.53457320)
   1.100269143   0.000000000   0.000000000
   0.000000000   1.100269143   0.000000000
   0.000000000   0.000000000   1.100269143

ATOMIC_POSITIONS (crystal)
Cr       0.000000000   0.500000000   0.250000000
Cr       0.000000000   0.500000000   0.750000000
Cr       0.500000000   0.750000000   0.000000000
Cr       0.500000000   0.250000000   0.000000000
Cr       0.750000000   0.000000000   0.500000000
Cr       0.250000000   0.000000000   0.500000000
Si       0.500000000   0.500000000   0.500000000
Si       0.000000000   0.000000000   0.000000000



     Writing output data file Prototype-La-cP8-Cr3Si.save
     NEW-OLD atomic charge density approx. for the potential
     NEW k-points:
        k(    1) = (   0.0000000   0.0000000   0.0000000), wk =   0.0095238
        k(    2) = (   0.0000000   0.0000000   0.1298384), wk =   0.0190476
        k(    3) = (   0.0000000   0.0000000   0.2596767), wk =   0.0190476
        k(    4) = (   0.0000000   0.0000000   0.3895151), wk =   0.0190476
        k(    5) = (   0.0000000   0.1514781   0.0000000), wk =   0.0190476
        k(    6) = (   0.0000000   0.1514781   0.1298384), wk =   0.0380952
        k(    7) = (   0.0000000   0.1514781   0.2596767), wk =   0.0380952
        k(    8) = (   0.0000000   0.1514781   0.3895151), wk =   0.0380952
        k(    9) = (   0.0000000   0.3029562   0.0000000), wk =   0.0190476
        k(   10) = (   0.0000000   0.3029562   0.1298384), wk =   0.0380952
        k(   11) = (   0.0000000   0.3029562   0.2596767), wk =   0.0380952
        k(   12) = (   0.0000000   0.3029562   0.3895151), wk =   0.0380952
        k(   13) = (   0.0000000  -0.4544343   0.0000000), wk =   0.0095238
        k(   14) = (   0.0000000  -0.4544343   0.1298384), wk =   0.0190476
        k(   15) = (   0.0000000  -0.4544343   0.2596767), wk =   0.0190476
        k(   16) = (   0.0000000  -0.4544343   0.3895151), wk =   0.0190476
        k(   17) = (   0.1817737   0.0000000   0.0000000), wk =   0.0190476
        k(   18) = (   0.1817737   0.0000000   0.1298384), wk =   0.0380952
        k(   19) = (   0.1817737   0.0000000   0.2596767), wk =   0.0380952
        k(   20) = (   0.1817737   0.0000000   0.3895151), wk =   0.0380952
        k(   21) = (   0.1817737   0.1514781   0.0000000), wk =   0.0380952
        k(   22) = (   0.1817737   0.1514781   0.1298384), wk =   0.0761905
        k(   23) = (   0.1817737   0.1514781   0.2596767), wk =   0.0761905
        k(   24) = (   0.1817737   0.1514781   0.3895151), wk =   0.0761905
        k(   25) = (   0.1817737   0.3029562   0.0000000), wk =   0.0380952
        k(   26) = (   0.1817737   0.3029562   0.1298384), wk =   0.0761905
        k(   27) = (   0.1817737   0.3029562   0.2596767), wk =   0.0761905
        k(   28) = (   0.1817737   0.3029562   0.3895151), wk =   0.0761905
        k(   29) = (   0.1817737  -0.4544343   0.0000000), wk =   0.0190476
        k(   30) = (   0.1817737  -0.4544343   0.1298384), wk =   0.0380952
        k(   31) = (   0.1817737  -0.4544343   0.2596767), wk =   0.0380952
        k(   32) = (   0.1817737  -0.4544343   0.3895151), wk =   0.0380952
        k(   33) = (   0.3635474   0.0000000   0.0000000), wk =   0.0190476
        k(   34) = (   0.3635474   0.0000000   0.1298384), wk =   0.0380952
        k(   35) = (   0.3635474   0.0000000   0.2596767), wk =   0.0380952
        k(   36) = (   0.3635474   0.0000000   0.3895151), wk =   0.0380952
        k(   37) = (   0.3635474   0.1514781   0.0000000), wk =   0.0380952
        k(   38) = (   0.3635474   0.1514781   0.1298384), wk =   0.0761905
        k(   39) = (   0.3635474   0.1514781   0.2596767), wk =   0.0761905
        k(   40) = (   0.3635474   0.1514781   0.3895151), wk =   0.0761905
        k(   41) = (   0.3635474   0.3029562   0.0000000), wk =   0.0380952
        k(   42) = (   0.3635474   0.3029562   0.1298384), wk =   0.0761905
        k(   43) = (   0.3635474   0.3029562   0.2596767), wk =   0.0761905
        k(   44) = (   0.3635474   0.3029562   0.3895151), wk =   0.0761905
        k(   45) = (   0.3635474  -0.4544343   0.0000000), wk =   0.0190476
        k(   46) = (   0.3635474  -0.4544343   0.1298384), wk =   0.0380952
        k(   47) = (   0.3635474  -0.4544343   0.2596767), wk =   0.0380952
        k(   48) = (   0.3635474  -0.4544343   0.3895151), wk =   0.0380952

     total cpu time spent up to now is      205.4 secs

     Self-consistent Calculation

     iteration #  1     ecut=    40.00 Ry     beta=0.70
     CG style diagonalization
     c_bands:  4 eigenvalues not converged
     c_bands:  4 eigenvalues not converged
     c_bands:  1 eigenvalues not converged
     c_bands:  4 eigenvalues not converged
     c_bands:  1 eigenvalues not converged
     c_bands:  1 eigenvalues not converged
     c_bands:  1 eigenvalues not converged
     c_bands:  1 eigenvalues not converged
     c_bands:  1 eigenvalues not converged
     c_bands:  1 eigenvalues not converged
     c_bands:  1 eigenvalues not converged
     c_bands:  1 eigenvalues not converged
     c_bands:  1 eigenvalues not converged
     c_bands:  1 eigenvalues not converged
     c_bands:  1 eigenvalues not converged
     c_bands:  1 eigenvalues not converged
     c_bands:  1 eigenvalues not converged
     c_bands:  1 eigenvalues not converged
     c_bands:  1 eigenvalues not converged
     c_bands:  1 eigenvalues not converged
     c_bands:  1 eigenvalues not converged
     ethr =  1.00E-06,  avg # of iterations = 20.9

     total cpu time spent up to now is      275.8 secs

     total energy              =   -1559.95349707 Ry
     Harris-Foulkes estimate   =   -1581.56443125 Ry
     estimated scf accuracy    <      28.22782565 Ry

     iteration #  2     ecut=    40.00 Ry     beta=0.70
     CG style diagonalization
     ethr =  1.00E-02,  avg # of iterations =  4.0

     total cpu time spent up to now is      289.2 secs

     total energy              =   -1568.45856551 Ry
     Harris-Foulkes estimate   =   -1570.59446406 Ry
     estimated scf accuracy    <       3.36307429 Ry

     iteration #  3     ecut=    40.00 Ry     beta=0.70
     CG style diagonalization
     ethr =  2.37E-03,  avg # of iterations =  3.7

     total cpu time spent up to now is      301.9 secs

     total energy              =   -1569.13666476 Ry
     Harris-Foulkes estimate   =   -1569.15366622 Ry
     estimated scf accuracy    <       0.02513494 Ry

     iteration #  4     ecut=    40.00 Ry     beta=0.70
     CG style diagonalization
     c_bands:  2 eigenvalues not converged
     c_bands:  1 eigenvalues not converged
     c_bands:  1 eigenvalues not converged
     c_bands:  1 eigenvalues not converged
     c_bands:  2 eigenvalues not converged
     c_bands:  1 eigenvalues not converged
     c_bands:  1 eigenvalues not converged
     c_bands:  1 eigenvalues not converged
     c_bands:  1 eigenvalues not converged
     c_bands:  1 eigenvalues not converged
     c_bands:  1 eigenvalues not converged
     c_bands:  1 eigenvalues not converged
     c_bands:  1 eigenvalues not converged
     c_bands:  1 eigenvalues not converged
     c_bands:  1 eigenvalues not converged
     c_bands:  2 eigenvalues not converged
     c_bands:  1 eigenvalues not converged
     c_bands:  2 eigenvalues not converged
     c_bands:  1 eigenvalues not converged
     ethr =  1.77E-05,  avg # of iterations =  4.8

     total cpu time spent up to now is      318.5 secs

     total energy              =   -1569.15360722 Ry
     Harris-Foulkes estimate   =   -1569.16320296 Ry
     estimated scf accuracy    <       0.01839965 Ry

     iteration #  5     ecut=    40.00 Ry     beta=0.70
     CG style diagonalization
     c_bands:  1 eigenvalues not converged
     c_bands:  1 eigenvalues not converged
     c_bands:  1 eigenvalues not converged
     c_bands:  1 eigenvalues not converged
     ethr =  1.30E-05,  avg # of iterations =  3.6

     total cpu time spent up to now is      330.9 secs

     total energy              =   -1569.15696707 Ry
     Harris-Foulkes estimate   =   -1569.15728008 Ry
     estimated scf accuracy    <       0.00059017 Ry

     iteration #  6     ecut=    40.00 Ry     beta=0.70
     CG style diagonalization
     c_bands:  1 eigenvalues not converged
     c_bands:  1 eigenvalues not converged
     c_bands:  1 eigenvalues not converged
     c_bands:  1 eigenvalues not converged
     ethr =  4.16E-07,  avg # of iterations =  4.0

     total cpu time spent up to now is      344.4 secs

     End of self-consistent calculation

          k = 0.0000 0.0000 0.0000 (  2601 PWs)   bands (ev):

   -50.1445 -50.0790 -31.0315 -30.9366 -30.9366 -30.3901 -30.3901 -30.3901
   -17.3446 -17.3446 -17.3446 -17.3154 -17.3154 -17.3154  -5.5660  -5.5660
    -5.2798  -3.9298  -3.9298  -3.9298  -3.1429  -3.1429  -3.1429  -3.1196
    -3.1196  -3.1196  -2.9006  -2.9006  -2.9006  -1.9134  -1.9134  -1.9134
    21.8097  21.8097  22.4690  22.6589  22.6589  22.6589  22.9105  22.9105
    23.2598  23.2598  23.2598  24.0125  24.0125  24.0125  24.2270  24.4100
    25.3564  25.3564  25.7511  25.7511  25.7511  25.8494  28.7705  28.7705
    28.7705  28.9580  28.9580  29.3543  29.3543  29.3543  30.4536  30.4536
    30.4536  32.1968  32.1968  32.9753  32.9753  32.9753  33.3986  33.3986
    33.3986  36.8736  36.8736  36.8736  37.5834  37.9900  37.9900  38.9951
    40.9905  40.9904  42.4688  42.4690  42.4690

          k = 0.0000 0.0000 0.1298 (  2657 PWs)   bands (ev):

   -50.1918 -50.1510 -31.0312 -30.9469 -30.9131 -30.4572 -30.4257 -30.4257
   -17.3681 -17.3681 -17.3596 -17.3486 -17.3486 -17.3447  -5.5983  -5.5420
    -5.2539  -3.9321  -3.9321  -3.8936  -3.2511  -3.2511  -3.1824  -3.1405
    -3.0688  -3.0688  -2.9656  -2.9656  -2.9619  -2.1203  -1.9316  -1.9316
    21.7742  21.9482  22.5507  22.5507  22.6634  22.6673  22.6732  22.7870
    23.1779  23.1816  23.1816  23.7127  24.1525  24.1525  24.5048  25.0819
    25.3974  25.4221  25.7507  25.9095  25.9095  26.0792  28.4449  28.4449
    28.5756  28.7317  28.8077  29.3600  29.6009  29.6009  30.5533  30.5533
    30.8727  31.8932  31.9136  32.8963  32.8963  33.1722  33.1722  33.2142
    33.5627  35.4024  36.8140  36.8139  37.4178  37.9022  38.2930  39.9644
    41.0912  41.0911  41.4260  41.5700  42.4057

          k = 0.0000 0.0000 0.2597 (  2677 PWs)   bands (ev):

   -50.2038 -50.1816 -31.0281 -30.9632 -30.8592 -30.5331 -30.4321 -30.4321
   -17.3742 -17.3742 -17.3686 -17.3599 -17.3569 -17.3569  -5.5786  -5.4977
    -4.8944  -3.9235  -3.9235  -3.7908  -3.2944  -3.2941  -3.2941  -3.1523
    -3.0222  -3.0222  -3.0032  -3.0032  -3.0030  -2.7275  -1.9451  -1.9451
    21.6587  22.1639  22.2976  22.2976  22.5004  22.5507  22.6909  23.0103
    23.0942  23.0942  23.2036  23.6170  24.4935  24.4935  24.5817  25.0794
    25.1810  26.2311  26.2311  26.6662  26.6912  26.7453  27.7006  28.1516
    28.1516  28.5600  28.6154  29.2224  29.3981  29.3981  30.7848  30.7848
    31.3387  31.3726  31.4717  32.7849  32.7849  33.2165  33.2165  33.3663
    33.5502  33.7756  36.3864  36.3865  36.5512  37.8208  38.8332  40.3236
    40.5897  40.5898  41.1179  41.4665  42.1361

          k = 0.0000 0.0000 0.3895 (  2658 PWs)   bands (ev):

   -50.1739 -50.1716 -31.0017 -30.9673 -30.7547 -30.6382 -30.4271 -30.4271
   -17.3643 -17.3643 -17.3569 -17.3569 -17.3458 -17.3374  -5.5494  -5.5165
    -4.2399  -3.9202  -3.9202  -3.6123  -3.4938  -3.4189  -3.3004  -3.3004
    -3.1006  -3.0452  -3.0268  -3.0268  -2.9532  -2.9532  -1.9378  -1.9378
    21.6714  21.9266  22.0998  22.0998  22.5487  22.6036  22.7505  22.8565
    23.0576  23.0576  23.5991  23.6117  24.7178  24.8176  24.8176  24.8977
    25.4200  26.4905  26.4905  26.4937  27.4180  28.0198  28.0198  28.0460
    28.1181  28.3928  28.5006  28.9108  28.9108  29.3162  30.8750  30.9518
    30.9518  31.0739  31.1426  31.1963  32.4987  32.4987  33.7746  33.8518
    34.0474  34.0474  35.7134  35.7135  36.4128  37.0303  39.8902  39.8903
    40.1618  40.4223  40.5532  41.9948  41.9945

          k = 0.0000 0.1515 0.0000 (  2653 PWs)   bands (ev):

   -50.1845 -50.1509 -31.0262 -30.9439 -30.9046 -30.4671 -30.4261 -30.4261
   -17.3656 -17.3656 -17.3532 -17.3487 -17.3487 -17.3439  -5.5953  -5.5252
    -5.2208  -3.9258  -3.9258  -3.8680  -3.2593  -3.2593  -3.1784  -3.1566
    -3.0559  -3.0559  -2.9700  -2.9700  -2.9668  -2.1861  -1.9289  -1.9289
    21.7586  21.9895  22.5148  22.5148  22.6298  22.6663  22.7373  22.7458
    23.1527  23.1635  23.1635  23.6893  24.1995  24.1995  24.5245  25.1492
    25.3734  25.5634  25.8264  25.9595  25.9595  26.1573  28.3835  28.3835
    28.4619  28.7158  28.7721  29.3452  29.6148  29.6148  30.5919  30.5919
    30.9816  31.8069  31.8398  32.8961  32.8961  33.1117  33.1117  33.2738
    33.6038  35.0798  36.7758  36.7758  37.2743  38.0080  38.2584  40.2385
    41.0744  41.0744  41.3119  41.5228  42.3480

          k = 0.0000 0.1515 0.1298 (  2662 PWs)   bands (ev):

   -50.2011 -50.1546 -31.0323 -30.9300 -30.9028 -30.4669 -30.4569 -30.4281
   -17.3746 -17.3694 -17.3629 -17.3608 -17.3461 -17.3358  -5.5678  -5.4371
    -5.1972  -3.9160  -3.8921  -3.8705  -3.3064  -3.2991  -3.1616  -3.1253
    -3.0948  -3.0268  -3.0194  -2.9875  -2.9349  -2.2142  -2.1360  -1.9320
    21.8185  22.0284  22.4470  22.4635  22.5800  22.5940  22.6101  22.9194
    23.0366  23.0553  23.1457  23.4693  24.3385  24.5331  24.8540  25.3640
    25.5033  25.7107  25.7890  25.9732  26.1386  26.3545  27.9437  28.2578
    28.5826  28.6531  28.9156  29.0547  29.7331  29.7973  30.5168  30.7861
    30.9995  31.5356  31.7861  32.7734  32.8832  32.9224  33.0400  33.3577
    33.5089  34.9987  35.4493  36.8845  37.4293  38.0340  38.4958  40.0008
    41.0594  41.2368  41.4766  41.7701  42.2904

          k = 0.0000 0.1515 0.2597 (  2666 PWs)   bands (ev):

   -50.1905 -50.1746 -31.0138 -30.9361 -30.8503 -30.5354 -30.4684 -30.4298
   -17.3710 -17.3690 -17.3638 -17.3578 -17.3538 -17.3393  -5.5514  -5.3324
    -4.8980  -3.8968  -3.8709  -3.7860  -3.3815  -3.3383  -3.1920  -3.1565
    -3.0607  -3.0427  -3.0180  -2.9886  -2.9370  -2.6963  -2.2141  -1.9356
    21.7398  22.1678  22.2105  22.2738  22.3956  22.5411  22.6036  22.8682
    22.9667  23.0685  23.3903  23.4995  24.5545  24.6869  25.2416  25.3089
    25.5621  26.0123  26.4986  26.6843  26.8712  26.8901  27.3581  28.0955
    28.3085  28.4936  28.5428  29.1264  29.4171  29.7695  30.4476  30.9075
    31.0691  31.2888  31.7847  32.4640  32.7172  32.8669  32.8910  33.4061
    33.4239  33.8274  34.9043  36.7970  36.8505  37.3330  39.0809  40.0727
    40.4491  40.6037  41.2957  41.9454  42.4357

          k = 0.0000 0.1515 0.3895 (  2658 PWs)   bands (ev):

   -50.1794 -50.1677 -30.9829 -30.9497 -30.7549 -30.6376 -30.4643 -30.4337
   -17.3669 -17.3664 -17.3593 -17.3581 -17.3438 -17.3303  -5.5458  -5.3289
    -4.2503  -3.8809  -3.8597  -3.6303  -3.4945  -3.4384  -3.3453  -3.2438
    -3.1878  -3.0518  -3.0343  -2.9919  -2.9597  -2.9491  -2.2149  -1.9249
    21.7022  21.8957  21.9986  22.2035  22.5030  22.5684  22.6384  22.7924
    22.8699  23.0506  23.6065  23.7740  24.6213  25.0288  25.3242  25.3878
    25.5424  26.3176  26.6402  26.7937  27.5311  27.8594  28.0214  28.0279
    28.1212  28.3036  28.5236  28.8258  29.0535  29.6928  30.4292  30.6471
    30.7246  31.0208  31.4120  31.8224  32.2817  32.5147  32.9363  33.5440
    33.5458  34.2456  34.5412  35.9973  36.6292  36.7019  39.7118  39.7614
    40.3670  40.7092  41.1799  41.8109  42.0261

          k = 0.0000 0.3030 0.0000 (  2677 PWs)   bands (ev):

   -50.2038 -50.1809 -31.0225 -30.9699 -30.8255 -30.5777 -30.4268 -30.4268
   -17.3742 -17.3742 -17.3636 -17.3636 -17.3603 -17.3501  -5.5699  -5.4947
    -4.7219  -3.9250  -3.9250  -3.7419  -3.3641  -3.3012  -3.3012  -3.1361
    -3.0243  -3.0243  -3.0087  -2.9913  -2.9913  -2.9275  -1.9557  -1.9557
    21.6363  22.1390  22.2152  22.2152  22.4710  22.5659  22.7065  22.9550
    23.0772  23.0772  23.3964  23.6006  24.6097  24.6189  24.6189  25.0200
    25.1640  26.3330  26.3330  26.9080  27.2184  27.2435  27.3224  28.0920
    28.0920  28.4484  28.5633  29.1989  29.2269  29.2269  30.8469  30.8469
    31.2342  31.2990  31.3415  32.6308  32.6709  32.6709  33.4809  33.4809
    33.6402  33.8176  36.1665  36.1665  36.3903  37.5666  39.2965  40.1644
    40.3181  40.3180  40.9112  41.8459  42.0767

          k = 0.0000 0.3030 0.1298 (  2660 PWs)   bands (ev):

   -50.1803 -50.1715 -31.0020 -30.9424 -30.8219 -30.5663 -30.4590 -30.4310
   -17.3709 -17.3638 -17.3578 -17.3567 -17.3519 -17.3342  -5.5511  -5.3850
    -4.7052  -3.8961  -3.8783  -3.7279  -3.3985  -3.3331  -3.2275  -3.1534
    -3.0538  -3.0474  -3.0181  -2.9722  -2.9485  -2.9032  -2.1390  -1.9269
    21.6950  22.0940  22.1490  22.2624  22.4231  22.5519  22.6363  22.8816
    22.9298  23.0634  23.4850  23.5714  24.5659  24.7660  25.1848  25.2040
    25.4124  26.2111  26.5481  27.0402  27.0842  27.2352  27.3315  28.0667
    28.2357  28.4083  28.4900  28.9547  29.2294  29.6848  30.4974  30.8771
    31.0050  31.3464  31.7113  32.2694  32.6973  32.7763  32.9507  33.1887
    33.5356  33.9344  35.0466  36.5645  36.6443  37.1803  39.4396  39.9873
    40.2121  40.5551  41.1708  41.8919  42.3076

          k = 0.0000 0.3030 0.2597 (  2658 PWs)   bands (ev):

   -50.1852 -50.1646 -30.9795 -30.8968 -30.8143 -30.5707 -30.5311 -30.4363
   -17.3683 -17.3631 -17.3596 -17.3569 -17.3428 -17.3326  -5.5450  -4.9633
    -4.7025  -3.8500  -3.7890  -3.7323  -3.4442  -3.3951  -3.2448  -3.1753
    -3.1015  -3.0617  -3.0052  -2.9585  -2.9197  -2.9108  -2.6625  -1.9289
    21.7260  21.9339  22.0172  22.1978  22.3544  22.5252  22.5869  22.6666
    22.9757  23.0135  23.6513  23.8509  24.5187  25.1661  25.3457  25.7734
    26.3463  26.4688  26.8406  26.9607  27.1644  27.3808  27.5092  27.8474
    28.0739  28.1418  28.2978  28.8841  29.8757  30.0541  30.2278  30.5553
    30.9072  31.3637  31.9583  32.0531  32.2912  32.3693  32.6766  32.8096
    33.1297  33.3155  34.2034  35.6409  36.6387  37.4314  39.4819  39.7277
    39.7978  40.8509  41.7918  42.0523  42.2873

          k = 0.0000 0.3030 0.3895 (  2654 PWs)   bands (ev):

   -50.1723 -50.1672 -30.9726 -30.8589 -30.7578 -30.6413 -30.5628 -30.4318
   -17.3732 -17.3682 -17.3611 -17.3574 -17.3248 -17.3214  -5.5412  -4.7466
    -4.2652  -3.8126  -3.7666  -3.6800  -3.4824  -3.4365  -3.4106  -3.3330
    -3.2073  -3.0924  -3.0469  -2.9609  -2.9368  -2.9161  -2.8807  -1.9428
    21.6741  21.7370  21.8032  22.2276  22.3482  22.4884  22.6269  22.6701
    22.9662  23.0336  23.9141  24.1140  24.4935  25.1071  25.6157  26.0255
    26.5200  26.8571  26.9587  27.2632  27.2638  27.7782  27.8884  28.0757
    28.1122  28.1463  28.2823  28.5852  30.1768  30.1849  30.2058  30.2879
    30.7497  30.8535  31.5734  31.9120  31.9413  32.1759  32.5004  32.5259
    32.6499  32.9927  34.3558  34.4638  36.3307  37.9518  39.0487  39.2149
    40.2903  40.8386  42.0024  42.1706  42.2710

          k = 0.0000-0.4544 0.0000 (  2666 PWs)   bands (ev):

   -50.1803 -50.1803 -30.9882 -30.9882 -30.6991 -30.6991 -30.4281 -30.4281
   -17.3660 -17.3660 -17.3621 -17.3621 -17.3449 -17.3449  -5.5405  -5.5405
    -3.9198  -3.9198  -3.8655  -3.8655  -3.5412  -3.5412  -3.3041  -3.3041
    -3.0748  -3.0748  -3.0392  -3.0392  -2.9476  -2.9476  -1.9388  -1.9388
    21.7722  21.7722  22.0719  22.0719  22.5966  22.5966  22.7970  22.7970
    23.0532  23.0532  23.6186  23.6186  24.8076  24.8076  24.8707  24.8707
    25.8946  25.8946  26.5320  26.5320  27.7893  27.7893  28.0029  28.0029
    28.3331  28.3331  28.8184  28.8184  29.2367  29.2367  30.6030  30.6030
    30.9830  30.9830  31.0659  31.0659  32.4524  32.4524  33.8324  33.8324
    34.2554  34.2554  35.5414  35.5414  36.6697  36.6697  39.7765  39.7765
    40.3201  40.3200  41.3651  41.3651  41.9672

          k = 0.0000-0.4544 0.1298 (  2666 PWs)   bands (ev):

   -50.1809 -50.1808 -30.9845 -30.9655 -30.7018 -30.6990 -30.4558 -30.4307
   -17.3719 -17.3684 -17.3658 -17.3626 -17.3404 -17.3386  -5.5389  -5.3852
    -3.9484  -3.8881  -3.8636  -3.8048  -3.5820  -3.5240  -3.3345  -3.2701
    -3.1738  -3.0529  -3.0441  -2.9841  -2.9630  -2.9544  -2.1499  -1.9347
    21.7403  21.8079  21.9962  22.1609  22.5637  22.5668  22.6785  22.8365
    22.8380  23.0508  23.6283  23.7458  24.6551  25.0282  25.1848  25.3960
    25.6803  26.0203  26.6503  26.7709  27.8157  27.8503  27.9268  28.0101
    28.0708  28.4246  28.7464  28.9166  29.2507  29.5827  30.2391  30.4963
    30.6278  30.7606  31.3551  31.7128  32.2491  32.4735  33.1194  33.6267
    33.8933  34.3099  34.6994  36.0149  36.3716  36.6575  39.6383  39.7854
    40.6344  40.7125  41.2266  41.5423  42.0043

          k = 0.0000-0.4544 0.2597 (  2658 PWs)   bands (ev):

   -50.1737 -50.1734 -30.9718 -30.8892 -30.7030 -30.7001 -30.5308 -30.4360
   -17.3745 -17.3728 -17.3627 -17.3592 -17.3260 -17.3233  -5.5467  -4.9410
    -3.9827  -3.8473  -3.8289  -3.7039  -3.6369  -3.4712  -3.3987  -3.3104
    -3.2084  -3.0871  -3.0252  -2.9729  -2.9512  -2.9351  -2.6709  -1.9433
    21.6855  21.7844  21.8114  22.2562  22.3524  22.5174  22.5986  22.6816
[...]

   -56.6914 -56.6913 -37.3257 -37.3144 -37.2051 -37.2047 -37.1009 -37.0886
   -23.6215 -23.6212 -23.6155 -23.6154 -23.6123 -23.6122 -11.1399 -11.0555
   -10.2710 -10.2606 -10.1401 -10.1330 -10.0310 -10.0115  -9.8973  -9.8862
    -9.8145  -9.7940  -9.7311  -9.7152  -9.7151  -9.7066  -9.3771  -9.2758
    16.6457  16.6605  16.8134  16.8883  17.0239  17.0372  17.1805  17.2135
    17.2312  17.2823  18.4131  18.4270  19.3925  19.6821  20.1160  20.2267
    20.2339  20.3461  21.0213  21.1163  21.5093  21.6785  22.0510  22.0703
    22.1637  22.2388  22.5766  22.7039  22.9320  23.0426  23.4429  23.5432
    23.9922  24.0044  24.7615  24.9265  25.1537  25.1853  25.4191  25.4585
    26.1186  26.4511  27.2192  27.5039  28.0389  28.1858  31.2297  31.3423
    32.5356  32.5973  32.8603  33.2507  34.7118

          k = 0.1700-0.4250 0.2429 (  4330 PWs)   bands (ev):

   -56.6926 -56.6925 -37.3133 -37.2906 -37.2062 -37.2055 -37.1253 -37.1011
   -23.6189 -23.6185 -23.6176 -23.6175 -23.6158 -23.6157 -11.0557 -10.8805
   -10.2788 -10.2636 -10.1105 -10.1034 -10.0465 -10.0116  -9.8972  -9.8969
    -9.8198  -9.8047  -9.7519  -9.7229  -9.7142  -9.7078  -9.5752  -9.3776
    16.6595  16.6612  16.7923  16.9147  16.9523  16.9959  17.1050  17.1342
    17.1685  17.2039  18.6236  18.6385  19.6523  20.0622  20.3063  20.3856
    20.5687  20.7154  21.1781  21.1824  21.3159  21.4921  22.0991  22.1329
    22.2300  22.2336  22.6225  22.8724  23.0416  23.0530  23.3062  23.5064
    23.9167  23.9279  24.7553  24.8302  24.8517  25.0387  25.1276  25.2541
    25.4842  26.2034  26.8151  26.8605  27.6595  28.1955  30.3344  30.5904
    32.6049  32.6699  33.3478  34.1408  34.9082

          k = 0.1700-0.4250 0.3643 (  4334 PWs)   bands (ev):

   -56.6931 -56.6930 -37.3120 -37.2422 -37.2074 -37.2060 -37.1748 -37.1014
   -23.6203 -23.6198 -23.6195 -23.6191 -23.6143 -23.6142 -11.0537 -10.4944
   -10.2889 -10.2593 -10.1062 -10.0852 -10.0770  -9.9971  -9.9598  -9.9142
    -9.9087  -9.8209  -9.7981  -9.7922  -9.7143  -9.7142  -9.7073  -9.3758
    16.6081  16.6460  16.6670  16.9466  16.9494  17.0503  17.0618  17.0660
    17.1417  17.1994  18.8659  18.8714  19.6072  19.9017  20.4657  20.7470
    20.7516  21.3327  21.4420  21.5018  21.5546  21.7173  21.8379  22.0791
    22.1940  22.1999  22.4036  22.7396  22.9268  23.0056  23.6466  23.8508
    23.8642  23.9686  23.9904  24.4987  24.7701  24.7744  24.8672  25.3447
    25.3861  25.8465  25.8934  26.2858  27.6831  28.9475  29.3153  29.8853
    32.8223  32.8548  33.2853  34.9492  35.4312

          k = 0.3400 0.0000 0.0000 (  4312 PWs)   bands (ev):

   -56.6936 -56.6826 -37.3478 -37.3305 -37.2408 -37.1650 -37.0747 -37.0747
   -23.6202 -23.6202 -23.6178 -23.6098 -23.6074 -23.6074 -11.2425 -11.2122
   -10.5549 -10.1877 -10.1877 -10.0660  -9.9694  -9.8988  -9.8812  -9.8812
    -9.7816  -9.7467  -9.7467  -9.7395  -9.7077  -9.7077  -9.1662  -9.1662
    16.5567  16.7612  16.8800  16.8800  17.0396  17.1249  17.2167  17.3294
    17.4129  17.4129  17.9689  18.2548  19.1335  19.3678  19.6250  19.6250
    19.8947  20.7083  20.7519  20.7519  21.5490  21.6887  21.7900  21.9820
    21.9820  22.1936  22.4383  22.6998  22.6998  22.8138  24.1401  24.2501
    24.2501  24.4471  24.4969  24.5112  25.4739  25.4739  26.2321  26.2931
    26.4148  26.4148  28.0842  28.0842  28.3669  28.8743  31.6159  31.6220
    31.8959  31.8960  32.5823  33.6093  34.9532

          k = 0.3400 0.0000 0.1214 (  4319 PWs)   bands (ev):

   -56.6915 -56.6882 -37.3434 -37.3224 -37.2418 -37.1649 -37.0883 -37.0751
   -23.6192 -23.6178 -23.6158 -23.6145 -23.6122 -23.6122 -11.2312 -11.1377
   -10.5565 -10.1754 -10.1730 -10.0662  -9.9724  -9.9235  -9.9021  -9.8607
    -9.8083  -9.7551  -9.7466  -9.7236  -9.7109  -9.7036  -9.2747  -9.1648
    16.5826  16.7517  16.8299  16.9140  17.0208  17.1027  17.1922  17.3013
    17.3132  17.4122  18.0850  18.2946  19.1157  19.5409  19.7476  19.9067
    19.9932  20.5941  20.7686  20.9118  21.6207  21.6218  21.7938  21.9390
    22.0953  22.2101  22.2202  22.6758  22.6808  23.1894  23.9477  24.0077
    24.2752  24.3540  24.5060  24.8306  25.3546  25.4776  25.7437  26.1264
    26.1423  26.5950  27.1634  28.2457  28.5854  28.6580  31.4111  31.6795
    32.1734  32.3636  32.4769  33.5106  34.5258

          k = 0.3400 0.0000 0.2429 (  4329 PWs)   bands (ev):

   -56.6929 -56.6913 -37.3386 -37.2928 -37.2422 -37.1661 -37.1243 -37.0759
   -23.6220 -23.6205 -23.6168 -23.6162 -23.6150 -23.6135 -11.2321 -10.8803
   -10.5617 -10.1430 -10.1339 -10.0780  -9.9693  -9.9358  -9.9305  -9.8692
    -9.8407  -9.7793  -9.7580  -9.7180  -9.7024  -9.6889  -9.5803  -9.1636
    16.5990  16.6934  16.7227  16.9315  16.9879  17.0926  17.1365  17.1598
    17.3278  17.4071  18.3565  18.4319  19.0476  19.8220  20.0866  20.2733
    20.5613  20.6034  20.8352  21.2532  21.4010  21.6115  21.8066  21.8900
    21.9117  22.2108  22.2420  22.4695  23.3699  23.5202  23.6984  23.8923
    23.9894  24.2268  24.6060  25.0314  25.1063  25.2497  25.3038  25.5732
    25.7125  25.8634  26.7400  27.1932  28.5284  29.4808  31.1313  31.1745
    31.8573  32.5837  33.4307  33.8896  34.0318

          k = 0.3400 0.0000 0.3643 (  4325 PWs)   bands (ev):

   -56.6931 -56.6893 -37.3362 -37.2581 -37.2285 -37.1808 -37.1610 -37.0759
   -23.6213 -23.6205 -23.6199 -23.6144 -23.6128 -23.6092 -11.2310 -10.5872
   -10.4778 -10.1132 -10.1078 -10.0907 -10.0106  -9.9520  -9.9502  -9.9352
    -9.9232  -9.8068  -9.7935  -9.7867  -9.6974  -9.6895  -9.6807  -9.1608
    16.5752  16.5806  16.6245  16.9429  16.9821  17.1094  17.1253  17.1333
    17.3406  17.4112  18.6216  18.6299  18.9907  19.5854  20.4937  20.5017
    20.6082  21.1054  21.2368  21.3790  21.5206  21.7264  21.8648  22.0074
    22.0461  22.0860  22.1942  22.3187  23.5940  23.6208  23.7088  23.8149
    23.9223  24.1362  24.2087  24.4596  24.7722  24.9446  24.9598  25.4495
    25.5483  25.6694  26.1785  26.8664  28.3552  30.1697  30.7454  30.8497
    31.8693  32.1715  33.3993  34.2416  34.9279

          k = 0.3400 0.1417 0.0000 (  4312 PWs)   bands (ev):

   -56.6897 -56.6870 -37.3420 -37.3187 -37.2418 -37.1646 -37.0927 -37.0750
   -23.6191 -23.6168 -23.6139 -23.6115 -23.6113 -23.6104 -11.2301 -11.1056
   -10.5570 -10.1683 -10.1670 -10.0666  -9.9727  -9.9246  -9.9065  -9.8552
    -9.8158  -9.7569  -9.7410  -9.7265  -9.7071  -9.7001  -9.3118  -9.1620
    16.5887  16.7496  16.8117  16.9219  17.0154  17.0963  17.1829  17.2714
    17.3132  17.4114  18.1228  18.3102  19.1053  19.6217  19.7911  19.9430
    20.0659  20.5657  20.7747  20.9630  21.6036  21.6466  21.7849  21.9286
    22.0429  22.2015  22.2264  22.6660  22.7646  23.2454  23.8947  23.9939
    24.2145  24.3434  24.5254  24.9004  25.3179  25.4558  25.6570  26.0221
    26.1025  26.6197  26.9357  28.1116  28.6318  28.7293  31.3793  31.6077
    32.1853  32.4569  32.5724  33.4766  34.5624

          k = 0.3400 0.1417 0.1214 (  4323 PWs)   bands (ev):

   -56.6917 -56.6902 -37.3321 -37.3157 -37.2427 -37.1655 -37.0934 -37.0886
   -23.6201 -23.6189 -23.6162 -23.6158 -23.6132 -23.6124 -11.1445 -11.1042
   -10.5617 -10.1606 -10.1583 -10.0652  -9.9938  -9.9314  -9.8801  -9.8736
    -9.8085  -9.7880  -9.7264  -9.7208  -9.7170  -9.7046  -9.3140  -9.2747
    16.6207  16.7335  16.8618  16.8977  16.9864  17.0640  17.1688  17.2368
    17.2821  17.3022  18.2411  18.3501  19.3393  19.5891  20.0098  20.1165
    20.1643  20.5944  20.7655  20.9927  21.5294  21.6765  21.7797  21.8310
    22.0745  22.3486  22.3912  22.5395  22.8695  23.2878  23.6759  23.8066
    24.2489  24.3439  24.7037  24.8214  25.2162  25.3774  25.4422  25.6069
    26.2349  26.3602  27.2884  27.6970  28.2398  28.5177  31.2568  31.5435
    32.4221  32.5366  32.6055  33.2741  34.5579

          k = 0.3400 0.1417 0.2429 (  4320 PWs)   bands (ev):

   -56.6915 -56.6892 -37.3221 -37.2903 -37.2429 -37.1662 -37.1246 -37.0932
   -23.6200 -23.6178 -23.6151 -23.6149 -23.6136 -23.6107 -11.1055 -10.8795
   -10.5643 -10.1315 -10.1239 -10.0673 -10.0122  -9.9301  -9.8890  -9.8790
    -9.8267  -9.7891  -9.7514  -9.7178  -9.7129  -9.6979  -9.5769  -9.3142
    16.6530  16.6971  16.7978  16.9154  16.9552  17.0271  17.1080  17.1246
    17.2365  17.2503  18.4973  18.5145  19.4542  20.0189  20.2489  20.4432
    20.5811  20.6534  20.8516  21.1780  21.3462  21.6028  21.7330  21.8269
    22.1142  22.3682  22.4528  22.6471  23.1550  23.3519  23.5043  23.6483
    24.1804  24.2354  24.6276  24.8480  24.9800  25.0679  25.1097  25.4335
    25.6042  26.3414  26.3983  27.3817  27.7104  28.8071  30.2818  31.0972
    32.4890  32.5792  33.1173  33.9034  34.8201

          k = 0.3400 0.1417 0.3643 (  4329 PWs)   bands (ev):

   -56.6929 -56.6915 -37.3196 -37.2557 -37.2300 -37.1804 -37.1629 -37.0936
   -23.6217 -23.6195 -23.6176 -23.6173 -23.6138 -23.6121 -11.1072 -10.5838
   -10.4817 -10.1127 -10.1021 -10.0874 -10.0227  -9.9759  -9.9401  -9.9067
    -9.9001  -9.8119  -9.7877  -9.7846  -9.7086  -9.7074  -9.6987  -9.3134
    16.6131  16.6354  16.6836  16.9283  16.9663  17.0650  17.0789  17.0850
    17.2133  17.2398  18.7176  18.7607  19.4268  19.8772  20.4769  20.6568
    20.7141  21.1636  21.2464  21.3038  21.6109  21.6745  21.8275  21.9299
    22.0974  22.2302  22.3474  22.5255  23.0561  23.4134  23.7610  23.8779
    23.8900  24.0431  24.2054  24.5606  24.7067  24.8442  24.8907  25.2730
    25.5687  25.7448  26.3503  26.4548  27.8255  29.2144  29.6399  30.4494
    32.6209  32.6792  33.1508  34.9586  35.0241

          k = 0.3400 0.2833 0.0000 (  4327 PWs)   bands (ev):

   -56.6941 -56.6893 -37.3375 -37.2793 -37.2409 -37.1671 -37.1393 -37.0758
   -23.6215 -23.6185 -23.6173 -23.6168 -23.6153 -23.6117 -11.2316 -10.7637
   -10.5615 -10.1312 -10.1186 -10.0829  -9.9638  -9.9437  -9.9328  -9.8903
    -9.8426  -9.7861  -9.7687  -9.7082  -9.6991  -9.6989  -9.6867  -9.1653
    16.5933  16.6453  16.6929  16.9273  16.9869  17.1070  17.1239  17.1396
    17.3342  17.4073  18.4587  18.4970  19.0250  19.7510  20.2294  20.4005
    20.6441  20.8461  20.9642  21.2763  21.3614  21.6033  21.8717  21.8914
    21.9035  22.2062  22.2349  22.3368  23.5762  23.6559  23.6800  23.7742
    24.0040  24.1998  24.5797  24.8659  24.9128  25.0915  25.2729  25.3345
    25.5752  25.7703  26.7883  26.8150  28.4706  29.7579  31.0024  31.0127
    31.8221  32.4471  33.7473  33.7698  34.2808

          k = 0.3400 0.2833 0.1214 (  4317 PWs)   bands (ev):

   -56.6902 -56.6892 -37.3248 -37.2773 -37.2415 -37.1669 -37.1398 -37.0887
   -23.6186 -23.6166 -23.6162 -23.6148 -23.6112 -23.6110 -11.1383 -10.7631
   -10.5635 -10.1215 -10.1124 -10.0764 -10.0017  -9.9295  -9.9002  -9.8922
    -9.8341  -9.7920  -9.7621  -9.7167  -9.7100  -9.6941  -9.6882  -9.2746
    16.6361  16.6605  16.7427  16.9167  16.9670  17.0594  17.1029  17.1084
    17.2600  17.2712  18.5498  18.5755  19.3339  19.9487  20.3247  20.5182
    20.7143  20.8044  20.9711  21.1993  21.3789  21.6111  21.7717  21.8494
    22.0763  22.2498  22.4123  22.5127  23.2902  23.4521  23.5571  23.7639
    24.0974  24.2028  24.5822  24.7946  24.8593  25.0198  25.0677  25.2047
    25.6045  26.0085  26.5030  26.9570  27.9252  29.1792  30.1482  30.9666
    32.4740  32.5408  33.1102  34.3116  34.8066

          k = 0.3400 0.2833 0.2429 (  4334 PWs)   bands (ev):

   -56.6946 -56.6919 -37.2918 -37.2729 -37.2445 -37.1675 -37.1415 -37.1257
   -23.6205 -23.6198 -23.6190 -23.6178 -23.6167 -23.6143 -10.8810 -10.7632
   -10.5702 -10.1209 -10.0951 -10.0605 -10.0300  -9.9270  -9.8982  -9.8638
    -9.8348  -9.7976  -9.7614  -9.7482  -9.7247  -9.7213  -9.6896  -9.5771
    16.7142  16.7259  16.8380  16.8631  16.9148  16.9450  17.0166  17.0224
    17.1175  17.1364  18.7392  18.8371  20.1730  20.3971  20.4674  20.7308
    20.7860  20.8524  20.9752  21.1983  21.3029  21.4355  21.5711  21.8315
    22.4064  22.5125  22.6908  22.8591  22.9109  23.1240  23.4311  23.4935
    24.1886  24.2907  24.4817  24.6571  24.7292  24.8707  24.9162  25.0234
    25.5180  25.7001  26.2634  26.8386  27.3998  28.0900  28.9591  30.0293
    32.6187  33.1066  33.8620  34.3384  35.4097

          k = 0.3400 0.2833 0.3643 (  4344 PWs)   bands (ev):

   -56.6972 -56.6933 -37.2737 -37.2503 -37.2345 -37.1796 -37.1663 -37.1424
   -23.6271 -23.6215 -23.6211 -23.6180 -23.6165 -23.6145 -10.7641 -10.5814
   -10.4880 -10.1173 -10.1112 -10.0788 -10.0291  -9.9704  -9.9218  -9.8903
    -9.8583  -9.8241  -9.7861  -9.7721  -9.7548  -9.7450  -9.7416  -9.6949
    16.7155  16.7477  16.8062  16.8578  16.9060  16.9334  16.9614  16.9751
    17.0424  17.0640  19.0074  19.0813  20.3806  20.5306  20.6562  20.8277
    20.9800  21.1265  21.1827  21.2278  21.3389  21.5609  21.7803  21.8585
    22.2416  22.3638  22.6136  22.9130  22.9649  23.3144  23.4607  23.4854
    23.9385  24.0959  24.3342  24.5397  24.6052  24.7603  24.8501  24.9338
    25.0798  25.6949  26.0039  26.7302  26.9074  27.7879  28.1650  28.9886
    33.0157  33.4104  34.3025  35.0464  35.3667

          k = 0.3400-0.4250 0.0000 (  4328 PWs)   bands (ev):

   -56.6919 -56.6918 -37.3364 -37.2546 -37.2070 -37.2048 -37.1629 -37.0756
   -23.6222 -23.6214 -23.6181 -23.6175 -23.6111 -23.6109 -11.2309 -10.5795
   -10.2955 -10.2461 -10.1019 -10.0871 -10.0736  -9.9517  -9.9504  -9.9369
    -9.9361  -9.8071  -9.8032  -9.7905  -9.6924  -9.6855  -9.6792  -9.1618
    16.5579  16.5796  16.6016  16.9629  16.9667  17.1065  17.1245  17.1402
    17.3415  17.4130  18.6625  18.6767  18.9815  19.5324  20.4771  20.5778
    20.6326  21.0755  21.3010  21.4363  21.5650  21.7948  21.8433  21.9753
    22.0978  22.1256  22.1380  22.8344  23.0589  23.5467  23.6165  23.8630
    23.9559  23.9941  24.1610  24.5942  24.7444  24.8754  24.9656  25.4794
    25.5161  25.6655  25.9773  26.8879  28.3200  30.2761  30.6806  30.8121
    31.9370  32.0517  33.3050  34.3893  35.0639

          k = 0.3400-0.4250 0.1214 (  4334 PWs)   bands (ev):

   -56.6933 -56.6932 -37.3240 -37.2533 -37.2072 -37.2053 -37.1643 -37.0891
   -23.6223 -23.6216 -23.6184 -23.6178 -23.6141 -23.6140 -11.1393 -10.5797
   -10.2912 -10.2548 -10.0922 -10.0814 -10.0811  -9.9725  -9.9515  -9.9175
    -9.9085  -9.8119  -9.7975  -9.7882  -9.7043  -9.7035  -9.6942  -9.2761
    16.5882  16.6166  16.6486  16.9547  16.9553  17.0789  17.0879  17.1006
    17.2517  17.2653  18.7456  18.7583  19.3078  19.7612  20.4800  20.6420
    20.7002  21.1577  21.3163  21.4384  21.5870  21.7247  21.8993  22.0583
    22.1103  22.1318  22.2607  22.9084  22.9731  23.0935  23.6267  23.8702
    23.8972  24.0408  24.1856  24.6149  24.6979  24.8163  24.8977  25.3892
    25.4176  25.8372  26.0253  26.5875  27.9686  29.3557  29.9250  30.4623
    32.5418  32.5934  33.0750  34.9285  35.0976

          k = 0.3400-0.4250 0.2429 (  4340 PWs)   bands (ev):

   -56.6942 -56.6942 -37.2886 -37.2507 -37.2075 -37.2068 -37.1659 -37.1262
   -23.6211 -23.6209 -23.6199 -23.6196 -23.6161 -23.6158 -10.8824 -10.5771
   -10.2812 -10.2680 -10.1065 -10.1005 -10.0462  -9.9717  -9.9413  -9.8873
    -9.8782  -9.8251  -9.7871  -9.7776  -9.7386  -9.7349  -9.7272  -9.5772
    16.6737  16.7053  16.7576  16.9122  16.9132  16.9654  17.0158  17.0163
    17.0419  17.0969  18.9873  18.9912  20.2098  20.2355  20.4971  20.8720
    20.8840  21.2074  21.2576  21.2804  21.4246  21.5729  21.9538  22.0912
    22.2244  22.2926  22.6120  22.7456  22.9014  23.1246  23.5690  23.6283
    23.8466  23.8726  24.2772  24.5009  24.6878  24.7367  24.9451  25.1881
    25.2795  25.5684  26.1569  26.3290  27.1744  27.9776  28.7856  29.1539
    33.0665  33.1078  33.9714  35.0654  35.4418

          k = 0.3400-0.4250 0.3643 (  4322 PWs)   bands (ev):

   -56.6904 -56.6904 -37.2475 -37.2367 -37.2072 -37.2072 -37.1781 -37.1670
   -23.6171 -23.6171 -23.6159 -23.6158 -23.6128 -23.6127 -10.5766 -10.4938
   -10.2753 -10.2730 -10.1197 -10.1178 -10.0711 -10.0094  -9.9139  -9.8914
    -9.8580  -9.8411  -9.8036  -9.7936  -9.7730  -9.7692  -9.7595  -9.7589
    16.7610  16.7749  16.8278  16.8590  16.8819  16.8847  16.9306  16.9392
    16.9700  16.9749  19.2796  19.2798  20.5303  20.5774  20.8974  20.9207
    21.0113  21.0358  21.2115  21.3960  21.6228  21.6612  21.9250  21.9682
    22.1639  22.2544  22.7601  22.8152  23.1654  23.2917  23.4140  23.4432
    23.6611  23.7816  24.3037  24.4430  24.5738  24.6126  24.6453  24.7205
    25.5374  25.5744  26.2969  26.4992  26.7188  27.0383  27.7236  27.8078
    33.5870  33.5901  34.9648  35.2397  35.8057

     the Fermi energy is    25.6951 ev

!    total energy              =   -1571.81725519 Ry
     Harris-Foulkes estimate   =   -1571.81725573 Ry
     estimated scf accuracy    <       0.00000060 Ry

     The total energy is the sum of the following terms:

     one-electron contribution =    -155.31386804 Ry
     hartree contribution      =     192.49328857 Ry
     xc contribution           =    -157.77016533 Ry
     ewald contribution        =   -1450.75432484 Ry
     smearing contrib. (-TS)   =      -0.47218554 Ry

     convergence has been achieved in  11 iterations

     Forces acting on atoms (Ry/au):

     atom    1 type  1   force =     0.00000000    0.00000000    0.00000000
     atom    2 type  1   force =     0.00000000    0.00000000    0.00000000
     atom    3 type  1   force =     0.00000000    0.00000000    0.00000000
     atom    4 type  1   force =     0.00000000    0.00000000    0.00000000
     atom    5 type  1   force =     0.00000000    0.00000000    0.00000000
     atom    6 type  1   force =     0.00000000    0.00000000    0.00000000
     atom    7 type  2   force =     0.00000000    0.00000000    0.00000000
     atom    8 type  2   force =     0.00000000    0.00000000    0.00000000

     Total force =     0.000000     Total SCF correction =     0.000000


     entering subroutine stress ...

          total   stress  (Ry/bohr**3)                   (kbar)     P=  -14.09
  -0.00009577   0.00000000   0.00000000        -14.09      0.00      0.00
   0.00000000  -0.00009577   0.00000000          0.00    -14.09      0.00
   0.00000000   0.00000000  -0.00009577          0.00      0.00    -14.09


     Writing output data file Prototype-La-cP8-Cr3Si.save
 
     init_run     :      6.67s CPU      8.66s WALL (       2 calls)
     electrons    :    980.26s CPU   1153.11s WALL (       5 calls)
     update_pot   :      1.50s CPU      1.51s WALL (       3 calls)
     forces       :      4.60s CPU      5.00s WALL (       5 calls)
     stress       :     13.24s CPU     13.66s WALL (       5 calls)

     Called by init_run:
     wfcinit      :      6.02s CPU      7.98s WALL (       2 calls)
     potinit      :      0.25s CPU      0.26s WALL (       2 calls)

     Called by electrons:
     c_bands      :    940.97s CPU   1107.68s WALL (      39 calls)
     sum_band     :     39.04s CPU     44.95s WALL (      39 calls)
     v_of_rho     :      0.06s CPU      0.06s WALL (      44 calls)
     mix_rho      :      0.05s CPU      0.06s WALL (      39 calls)

     Called by c_bands:
     init_us_2    :      2.26s CPU      3.00s WALL (    4320 calls)
     ccgdiagg     :    839.17s CPU    971.84s WALL (    2077 calls)
     wfcrot       :    105.39s CPU    138.88s WALL (    2125 calls)

     Called by *cgdiagg:
     h_psi        :    648.33s CPU    790.75s WALL (  876922 calls)
     cdiaghg      :      5.83s CPU      6.15s WALL (    2125 calls)

     Called by h_psi:
     add_vuspsi   :     61.34s CPU     83.88s WALL (  876922 calls)

     General routines
     calbec       :    211.10s CPU    213.07s WALL ( 1752199 calls)
     fft          :      0.11s CPU      0.12s WALL (     199 calls)
     fftw         :    478.89s CPU    573.94s WALL ( 2269964 calls)
     davcio       :      1.58s CPU      4.04s WALL (    6192 calls)
 
     Parallel routines
     fft_scatter  :    216.38s CPU    247.95s WALL ( 2270163 calls)
 
     PWSCF        : 16m46.95s CPU    19m43.84s WALL

 
   This run was terminated on:  21:31:40  22Mar2018            

=------------------------------------------------------------------------------=
   JOB DONE.
=------------------------------------------------------------------------------=
