
     Program PWSCF v.5.0.2 starts on 22Mar2018 at 21:33:57 

     This program is part of the open-source Quantum ESPRESSO suite
     for quantum simulation of materials; please cite
         "P. Giannozzi et al., J. Phys.:Condens. Matter 21 395502 (2009);
          URL http://www.quantum-espresso.org", 
     in publications or presentations arising from this work. More details at
     http://www.quantum-espresso.org/quote.php

     Parallel version (MPI), running on     4 processors
     R & G space division:  proc/nbgrp/npool/nimage =       4

     Current dimensions of program PWSCF are:
     Max number of different atomic species (ntypx) = 10
     Max number of k-points (npk) =  40000
     Max angular momentum in pseudopotentials (lmaxx) =  3
     Waiting for input...
     Reading input from standard input

     Subspace diagonalization in iterative solution of the eigenvalue problem:
     a serial algorithm will be used

 
     Parallelization info
     --------------------
     sticks:   dense  smooth     PW     G-vecs:    dense   smooth      PW
     Min         207     207     61                 7381     7381    1191
     Max         208     208     62                 7386     7386    1192
     Sum         829     829    247                29529    29529    4767
 


     bravais-lattice index     =            0
     lattice parameter (alat)  =       7.0151  a.u.
     unit-cell volume          =     862.2778 (a.u.)^3
     number of atoms/cell      =           12
     number of atomic types    =            2
     number of electrons       =       252.00
     number of Kohn-Sham states=          151
     kinetic-energy cutoff     =      40.0000  Ry
     charge density cutoff     =     160.0000  Ry
     convergence threshold     =      1.0E-04
     mixing beta               =       0.7000
     number of iterations used =            8  plain     mixing
     Exchange-correlation      = SLA-PZ-NOGX-NOGC ( 1 1 0 0 0)
     EXX-fraction              =        0.00
     nstep                     =           50


     celldm(1)=   7.015105  celldm(2)=   0.000000  celldm(3)=   0.000000
     celldm(4)=   0.000000  celldm(5)=   0.000000  celldm(6)=   0.000000

     crystal axes: (cart. coord. in units of alat)
               a(1) = (   1.000000   0.000000   0.000000 )  
               a(2) = (   0.000000   1.315963   0.000000 )  
               a(3) = (   0.000000   0.000000   1.898020 )  

     reciprocal axes: (cart. coord. in units 2 pi/alat)
               b(1) = (  1.000000  0.000000  0.000000 )  
               b(2) = (  0.000000  0.759900  0.000000 )  
               b(3) = (  0.000000  0.000000  0.526865 )  


     PseudoPot. # 1 for Tm read from file:
     /home/cwx6513/pp.La/Tm.UPF
     MD5 check sum: 245516e0878b5372ceeb9443ded2c4e1
     Pseudo is Norm-conserving, Zval = 23.0
     Generated in analytical, separable form
     Using radial grid of 1269 points,  6 beta functions with: 
                l(1) =   0
                l(2) =   0
                l(3) =   1
                l(4) =   1
                l(5) =   2
                l(6) =   3

     PseudoPot. # 2 for Eu read from file:
     /home/cwx6513/pp.La/Eu.UPF
     MD5 check sum: 5efdbbfc50c6a10138933a6429836ad2
     Pseudo is Norm-conserving, Zval = 17.0
     Generated in analytical, separable form
     Using radial grid of 1261 points,  6 beta functions with: 
                l(1) =   0
                l(2) =   0
                l(3) =   1
                l(4) =   1
                l(5) =   2
                l(6) =   3

     atomic species   valence    mass     pseudopotential
        Co            23.00    58.93320     Tm( 1.00)
        Si            17.00    28.08550     Eu( 1.00)

      8 Sym. Ops., with inversion, found ( 6 have fractional translation)



   Cartesian axes

     site n.     atom                  positions (alat units)
         1           Co  tau(   1) = (   0.7500000   1.0875135   0.8270358  )
         2           Co  tau(   2) = (   0.2500000   0.2284499   1.0709846  )
         3           Co  tau(   3) = (   0.7500000   0.4295318   0.1219744  )
         4           Co  tau(   4) = (   0.2500000   0.8864316   1.7760460  )
         5           Co  tau(   5) = (   0.2500000   0.7067855   0.5358966  )
         6           Co  tau(   6) = (   0.7500000   0.6091779   1.3621238  )
         7           Co  tau(   7) = (   0.2500000   0.0488038   0.4131136  )
         8           Co  tau(   8) = (   0.7500000   1.2671596   1.4849068  )
         9           Si  tau(   9) = (   0.2500000   0.2669484   1.6960710  )
        10           Si  tau(  10) = (   0.7500000   1.0490149   0.2019494  )
        11           Si  tau(  11) = (   0.2500000   0.9249301   1.1509596  )
        12           Si  tau(  12) = (   0.7500000   0.3910333   0.7470608  )

     number of k points=    12  gaussian smearing, width (Ry)=  0.1000
                       cart. coord. in units 2pi/alat
        k(    1) = (   0.0000000   0.0000000   0.0000000), wk =   0.0833333
        k(    2) = (   0.0000000   0.0000000   0.1317162), wk =   0.1666667
        k(    3) = (   0.0000000   0.0000000  -0.2634324), wk =   0.0833333
        k(    4) = (   0.0000000   0.2532999   0.0000000), wk =   0.1666667
        k(    5) = (   0.0000000   0.2532999   0.1317162), wk =   0.3333333
        k(    6) = (   0.0000000   0.2532999  -0.2634324), wk =   0.1666667
        k(    7) = (  -0.5000000   0.0000000   0.0000000), wk =   0.0833333
        k(    8) = (  -0.5000000   0.0000000   0.1317162), wk =   0.1666667
        k(    9) = (  -0.5000000   0.0000000  -0.2634324), wk =   0.0833333
        k(   10) = (  -0.5000000   0.2532999   0.0000000), wk =   0.1666667
        k(   11) = (  -0.5000000   0.2532999   0.1317162), wk =   0.3333333
        k(   12) = (  -0.5000000   0.2532999  -0.2634324), wk =   0.1666667

     Dense  grid:    29529 G-vectors     FFT dimensions: (  30,  40,  54)

     Largest allocated arrays     est. size (Mb)     dimensions
        Kohn-Sham Wavefunctions         2.12 Mb     (    922,  151)
        NL pseudopotentials             3.38 Mb     (    922,  240)
        Each V/rho on FFT grid          0.26 Mb     (  16800)
        Each G-vector array             0.06 Mb     (   7386)
        G-vector shells                 0.06 Mb     (   7386)
     Largest temporary arrays     est. size (Mb)     dimensions
        Each subspace H/S matrix        0.35 Mb     ( 151, 151)
        Each <psi_i|beta_j> matrix      0.55 Mb     (    240,  151)
        Arrays for rho mixing           2.05 Mb     (  16800,   8)

     Initial potential from superposition of free atoms

     Starting from uniform charge
     Starting wfc are    0 randomized atomic wfcs

     total cpu time spent up to now is        2.8 secs

     Self-consistent Calculation

     iteration #  1     ecut=    40.00 Ry     beta=0.70
     CG style diagonalization
     c_bands:  4 eigenvalues not converged
     c_bands:  3 eigenvalues not converged
     c_bands:  1 eigenvalues not converged
     c_bands:  3 eigenvalues not converged
     c_bands:  2 eigenvalues not converged
     c_bands:  2 eigenvalues not converged
     c_bands:  3 eigenvalues not converged
     c_bands:  1 eigenvalues not converged
     c_bands:  1 eigenvalues not converged
     ethr =  1.00E-02,  avg # of iterations = 11.4

     total cpu time spent up to now is       42.9 secs

     total energy              =   -3019.75977889 Ry
     Harris-Foulkes estimate   =   -4221.31805184 Ry
     estimated scf accuracy    <    1495.55778872 Ry

     iteration #  2     ecut=    40.00 Ry     beta=0.70
     CG style diagonalization
     c_bands:  1 eigenvalues not converged
     c_bands:  5 eigenvalues not converged
     c_bands:  2 eigenvalues not converged
     ethr =  1.00E-02,  avg # of iterations = 10.5

     total cpu time spent up to now is       77.7 secs

     total energy              =   -3225.44503171 Ry
     Harris-Foulkes estimate   =   -3934.11301974 Ry
     estimated scf accuracy    <    1247.47139919 Ry

     iteration #  3     ecut=    40.00 Ry     beta=0.70
     CG style diagonalization
     ethr =  1.00E-02,  avg # of iterations =  8.1

     total cpu time spent up to now is      105.1 secs

     total energy              =   -3592.62364946 Ry
     Harris-Foulkes estimate   =   -3676.96718502 Ry
     estimated scf accuracy    <     177.44073274 Ry

     iteration #  4     ecut=    40.00 Ry     beta=0.70
     CG style diagonalization
     ethr =  1.00E-02,  avg # of iterations =  4.1

     total cpu time spent up to now is      117.3 secs

     total energy              =   -3619.73397077 Ry
     Harris-Foulkes estimate   =   -3625.03719461 Ry
     estimated scf accuracy    <      11.85711434 Ry

     iteration #  5     ecut=    40.00 Ry     beta=0.70
     CG style diagonalization
     ethr =  4.71E-03,  avg # of iterations =  3.2

     total cpu time spent up to now is      126.9 secs

     total energy              =   -3621.09050024 Ry
     Harris-Foulkes estimate   =   -3621.97560192 Ry
     estimated scf accuracy    <       1.95385391 Ry

     iteration #  6     ecut=    40.00 Ry     beta=0.70
     CG style diagonalization
     ethr =  7.75E-04,  avg # of iterations =  3.5

     total cpu time spent up to now is      137.8 secs

     total energy              =   -3621.26815735 Ry
     Harris-Foulkes estimate   =   -3621.42856869 Ry
     estimated scf accuracy    <       0.25440457 Ry

     iteration #  7     ecut=    40.00 Ry     beta=0.70
     CG style diagonalization
     c_bands:  1 eigenvalues not converged
     c_bands:  2 eigenvalues not converged
     c_bands:  1 eigenvalues not converged
     ethr =  1.01E-04,  avg # of iterations =  4.2

     total cpu time spent up to now is      150.1 secs

     total energy              =   -3621.35595288 Ry
     Harris-Foulkes estimate   =   -3621.38992661 Ry
     estimated scf accuracy    <       0.07444260 Ry

     iteration #  8     ecut=    40.00 Ry     beta=0.70
     CG style diagonalization
     c_bands:  1 eigenvalues not converged
     ethr =  2.95E-05,  avg # of iterations =  3.3

     total cpu time spent up to now is      160.1 secs

     total energy              =   -3621.36378581 Ry
     Harris-Foulkes estimate   =   -3621.36817788 Ry
     estimated scf accuracy    <       0.00755754 Ry

     iteration #  9     ecut=    40.00 Ry     beta=0.70
     CG style diagonalization
     c_bands:  1 eigenvalues not converged
     ethr =  3.00E-06,  avg # of iterations =  3.8

     total cpu time spent up to now is      172.1 secs

     total energy              =   -3621.36576694 Ry
     Harris-Foulkes estimate   =   -3621.36592572 Ry
     estimated scf accuracy    <       0.00029971 Ry

     iteration # 10     ecut=    40.00 Ry     beta=0.70
     CG style diagonalization
     ethr =  1.19E-07,  avg # of iterations =  3.8

     total cpu time spent up to now is      182.9 secs

     End of self-consistent calculation

          k = 0.0000 0.0000 0.0000 (  3675 PWs)   bands (ev):

   -58.0683 -58.0608 -58.0181 -57.9886 -57.9777 -57.9678 -57.9444 -57.9254
   -17.7121 -17.5581 -17.4636 -17.3842 -17.3445 -17.2913 -17.2741 -17.1661
   -17.1401 -17.0917 -17.0565 -17.0459 -17.0345 -16.9571 -16.9450 -16.9296
   -16.9083 -16.8508 -16.8271 -16.8181 -16.8038 -16.6714 -16.6322 -16.5934
   -11.9150 -11.7506 -11.7176 -11.7156  13.4934  13.7677  13.8206  13.8254
    13.8955  13.9125  13.9894  14.0563  14.3130  14.5841  14.6339  14.9484
    27.6723  27.9073  27.9317  27.9412  28.1118  28.3338  28.3551  28.5621
    29.0493  29.2429  29.2824  29.4810  29.6727  30.0090  30.1247  30.6040
    30.6661  30.7533  30.7784  30.7863  30.8144  31.0005  31.2191  31.2436
    31.3706  31.4567  31.5768  31.6071  31.9207  32.2037  32.2662  32.3684
    32.3999  32.5581  32.8479  33.0691  33.1895  33.2192  33.4911  33.5504
    33.6609  37.8289  37.8614  38.1929  41.6303  42.2321  42.4314  42.9634
    43.1202  44.1385  44.2655  44.6906  44.9688  45.3817  45.4438  45.8004
    45.8879  46.6947  47.1376  47.3445  48.0460  48.1580  48.2438  48.2671
    48.6830  49.7908  50.2770  51.2724  51.9512  52.8180  53.1507  54.4984
    55.0509  55.7460  55.9170  56.0561  56.6427  56.7682  57.1444  57.3669
    57.6141  57.6924  57.7975  58.2822  58.5263  58.6273  58.8314  58.8814
    58.9140  59.3350  59.4871  59.5989  59.6516  59.7917  60.0094  60.2410
    60.4390  60.6373  60.7302  62.1807  62.3302  62.4472  63.0668

          k = 0.0000 0.0000 0.1317 (  3675 PWs)   bands (ev):

   -58.0811 -58.0640 -58.0262 -57.9847 -57.9746 -57.9709 -57.9413 -57.9141
   -17.6995 -17.5850 -17.4432 -17.3824 -17.3556 -17.3397 -17.2407 -17.1299
   -17.1298 -17.0945 -17.0892 -17.0382 -17.0358 -16.9657 -16.9498 -16.9334
   -16.9052 -16.8268 -16.8154 -16.8079 -16.7971 -16.7095 -16.6297 -16.6031
   -11.8884 -11.7559 -11.7419 -11.7064  13.5298  13.7110  13.8248  13.8290
    13.9074  13.9276  13.9955  14.0384  14.3323  14.4923  14.7241  14.9102
    27.6723  27.7250  27.8818  27.9178  28.1872  28.2525  28.3953  28.7386
    29.0880  29.3690  29.3991  29.6539  29.8142  30.1457  30.1763  30.5576
    30.6182  30.6823  30.8642  30.8795  30.9119  30.9390  30.9640  31.0856
    31.3889  31.4174  31.5020  31.6606  31.8520  31.8761  32.1012  32.3956
    32.6399  32.6413  32.9486  33.0827  33.1397  33.2661  33.4942  33.5873
    33.6986  36.1462  38.1964  39.4520  41.0667  41.3570  43.1643  43.3126
    43.3946  44.0907  44.2944  44.3044  44.6046  45.2326  45.5935  45.6494
    45.8374  46.0666  47.5446  47.7794  47.9047  48.0914  48.5384  48.6988
    50.1348  50.1754  50.7719  51.3347  51.9020  52.5607  53.3316  54.0559
    55.0050  55.2788  55.5319  55.8159  56.1827  56.2813  56.3669  57.1132
    57.5321  57.5372  57.5389  57.7275  58.2105  58.2595  58.5344  58.6533
    58.6841  59.1946  59.2392  59.8776  59.9987  60.1877  60.2732  60.5661
    60.7160  61.5765  61.8638  61.9911  62.0923  62.5501  62.5870

          k = 0.0000 0.0000-0.2634 (  3690 PWs)   bands (ev):

   -58.0809 -58.0809 -58.0311 -58.0311 -57.9806 -57.9806 -57.9236 -57.9236
   -17.6643 -17.6643 -17.3949 -17.3949 -17.3603 -17.3603 -17.1755 -17.1755
   -17.1051 -17.1051 -17.0563 -17.0563 -17.0146 -17.0146 -16.9547 -16.9547
   -16.8663 -16.8663 -16.8053 -16.8053 -16.7868 -16.7868 -16.6255 -16.6255
   -11.8247 -11.8247 -11.7209 -11.7209  13.6147  13.6147  13.8319  13.8319
    13.9281  13.9281  14.0006  14.0006  14.3912  14.3912  14.8226  14.8226
    27.6864  27.6864  27.7732  27.7732  28.1353  28.1353  28.9764  28.9764
    29.1690  29.1690  29.5936  29.5936  30.0866  30.0866  30.4497  30.4497
    30.5774  30.5774  30.6719  30.6719  30.8607  30.8607  31.1517  31.1517
    31.4129  31.4129  31.5620  31.5620  31.9497  31.9497  31.9794  31.9794
    32.7167  32.7167  32.8677  32.8677  33.3154  33.3154  33.7011  33.7011
    34.4001  34.4001  39.2454  39.2454  40.7569  40.7569  43.3922  43.3922
    44.0768  44.0768  44.2908  44.2908  44.7675  44.7675  45.1093  45.1093
    45.8325  45.8325  47.8758  47.8758  48.1301  48.1301  49.7672  49.7672
    50.0559  50.0559  51.6853  51.6853  52.3537  52.3537  53.1145  53.1145
    54.7535  54.7535  55.3730  55.3730  55.8047  55.8047  56.1012  56.1012
    57.0789  57.0789  57.4877  57.4877  58.2894  58.2894  58.6672  58.6672
    59.0956  59.0956  59.7629  59.7630  59.9228  59.9228  60.8957  60.8958
    61.1981  61.1983  61.6271  61.6272  62.3672  62.3676  62.6419

          k = 0.0000 0.2533 0.0000 (  3664 PWs)   bands (ev):

   -58.0532 -58.0203 -58.0090 -57.9966 -57.9749 -57.9530 -57.9425 -57.9423
   -17.5821 -17.4374 -17.3962 -17.3933 -17.3007 -17.2684 -17.2541 -17.2439
   -17.1703 -17.1454 -17.1385 -17.0540 -17.0279 -16.9789 -16.9380 -16.8902
   -16.8863 -16.8411 -16.8368 -16.8132 -16.7676 -16.7593 -16.6932 -16.6681
   -11.8480 -11.7672 -11.6906 -11.6863  13.5383  13.6959  13.8129  13.8615
    13.8678  13.8752  13.9097  13.9702  14.2657  14.3313  14.6752  14.8091
    27.9904  28.1732  28.2523  28.2911  28.6054  28.7459  28.7594  28.9020
    29.0533  29.2873  29.2930  29.6056  29.7171  29.7281  30.1179  30.1701
    30.4119  30.4848  30.5948  30.6278  30.9969  31.1159  31.1821  31.5076
    31.5576  31.6550  31.7349  31.7500  31.8455  31.9719  32.2296  32.3723
    32.5055  32.6042  32.9002  32.9090  33.0015  33.3703  33.5842  33.8050
    34.2165  36.9039  38.2529  38.5485  40.7774  41.7787  41.8974  42.7994
    43.0325  43.2486  43.4237  43.9952  44.2537  45.1705  45.4617  45.5748
    46.1874  46.2233  46.8286  47.0693  47.1106  47.4496  47.8111  48.0302
    49.1260  49.6678  51.1784  51.3867  52.1012  53.4965  53.9780  54.5072
    55.0512  55.6853  55.9881  56.0356  56.1805  56.7051  57.2543  57.4867
    57.6272  57.7072  57.9657  58.3618  58.6305  58.9919  58.9973  59.2012
    59.2354  59.5509  59.6487  59.7549  60.1188  60.1323  60.2060  60.4670
    60.7679  60.8437  60.9137  62.1129  62.4465  62.5021  62.8640

          k = 0.0000 0.2533 0.1317 (  3669 PWs)   bands (ev):

   -58.0507 -58.0373 -58.0143 -57.9853 -57.9777 -57.9694 -57.9524 -57.9393
   -17.5811 -17.4735 -17.3848 -17.3830 -17.3313 -17.3115 -17.2132 -17.1978
   -17.1707 -17.1425 -17.1330 -17.0665 -17.0300 -16.9548 -16.9524 -16.9228
   -16.8986 -16.8859 -16.8266 -16.7846 -16.7724 -16.7569 -16.6852 -16.6742
   -11.8272 -11.7597 -11.7110 -11.6914  13.5608  13.6762  13.8166  13.8583
    13.8666  13.8759  13.9054  13.9570  14.2664  14.3109  14.6967  14.7940
    27.9885  28.0715  28.1307  28.3301  28.6127  28.6484  28.8492  29.0467
    29.0568  29.3633  29.5165  29.5990  29.7376  29.8890  29.9725  30.1713
    30.5193  30.6194  30.6811  30.8394  30.9818  31.1252  31.1641  31.3351
    31.4228  31.4664  31.6061  31.7908  31.8494  31.9846  31.9882  32.3168
    32.5884  32.5985  32.8632  32.8890  33.0672  33.3380  33.5941  33.7679
    34.5286  36.8200  37.3317  38.9729  40.4216  41.4024  42.5811  43.0028
    43.0327  43.1442  43.4612  43.9638  44.0838  44.8071  45.3048  45.6656
    46.1835  46.4049  46.8831  47.1395  47.4418  47.6874  47.6874  48.5081
    49.6206  50.0888  51.1858  51.8313  52.1940  53.4088  53.7819  54.0547
    54.7042  54.9029  55.5132  55.6084  56.5038  56.7330  56.7567  57.2947
    57.4703  57.5485  57.9815  58.2294  58.6734  58.8332  58.9745  59.1573
    59.3852  59.5697  59.8065  59.8138  60.0765  60.5072  60.6361  61.0148
    61.0336  61.2872  61.3667  61.6063  62.2953  62.2989  62.5530

          k = 0.0000 0.2533-0.2634 (  3666 PWs)   bands (ev):

   -58.0403 -58.0403 -58.0005 -58.0005 -57.9697 -57.9697 -57.9463 -57.9463
   -17.5315 -17.5315 -17.3558 -17.3558 -17.3479 -17.3479 -17.1910 -17.1910
   -17.1355 -17.1355 -17.1039 -17.1039 -16.9869 -16.9869 -16.9322 -16.9322
   -16.9248 -16.9248 -16.8070 -16.8070 -16.7692 -16.7692 -16.6720 -16.6720
   -11.7798 -11.7798 -11.7124 -11.7124  13.6185  13.6185  13.8356  13.8356
    13.8833  13.8833  13.9152  13.9152  14.2824  14.2824  14.7497  14.7497
    27.9893  27.9893  28.1236  28.1236  28.8156  28.8156  28.8236  28.8236
    29.2906  29.2906  29.7877  29.7877  29.8361  29.8361  30.1015  30.1015
    30.6312  30.6312  30.7930  30.7930  31.0070  31.0070  31.1359  31.1359
    31.4034  31.4034  31.6490  31.6490  31.8430  31.8430  32.1066  32.1066
    32.7047  32.7047  32.7300  32.7300  33.2386  33.2386  33.6745  33.6745
    35.4669  35.4669  38.0967  38.0967  40.7954  40.7954  42.8614  42.8614
    43.4730  43.4730  43.6470  43.6470  44.0668  44.0668  45.4666  45.4666
    46.6339  46.6339  46.7247  46.7247  47.7779  47.7779  48.3199  48.3199
    50.6610  50.6610  51.7461  51.7461  52.9165  52.9165  53.1442  53.1442
    54.0538  54.0538  55.8464  55.8464  56.2507  56.2506  56.9211  56.9211
    57.6282  57.6282  58.0447  58.0447  58.4112  58.4112  59.0915  59.0916
    59.6422  59.6423  59.7644  59.7645  60.1332  60.1332  60.7527  60.7527
    61.7266  61.7269  61.9772  61.9773  62.3804  62.3805  63.2594

          k =-0.5000 0.0000 0.0000 (  3722 PWs)   bands (ev):

   -58.0739 -58.0739 -58.0202 -58.0202 -58.0160 -58.0160 -57.9908 -57.9908
   -17.6335 -17.6335 -17.4779 -17.4779 -17.4767 -17.4767 -17.2614 -17.2614
   -17.2277 -17.2277 -17.0359 -17.0359 -16.9849 -16.9849 -16.9846 -16.9846
   -16.8144 -16.8144 -16.7636 -16.7636 -16.7137 -16.7137 -16.6562 -16.6562
   -11.7504 -11.7504 -11.6889 -11.6889  13.6024  13.6024  13.8529  13.8529
    14.0391  14.0391  14.1598  14.1598  14.5505  14.5505  14.6700  14.6700
    28.2228  28.2228  28.4639  28.4639  28.5989  28.5989  28.9976  28.9976
    29.5083  29.5083  29.5683  29.5683  29.7698  29.7698  29.8493  29.8493
    30.0709  30.0709  30.4475  30.4475  30.5870  30.5870  30.6108  30.6108
    31.0147  31.0147  31.2952  31.2952  31.6800  31.6800  31.7764  31.7764
    31.8854  31.8854  32.8642  32.8642  33.4432  33.4432  33.5171  33.5171
    37.9412  37.9412  40.4466  40.4466  40.6346  40.6346  42.8707  42.8707
    43.6995  43.6995  43.8019  43.8019  44.4884  44.4884  45.4880  45.4880
    45.5838  45.5838  47.1779  47.1779  47.3426  47.3426  47.8857  47.8857
    48.2702  48.2702  48.7392  48.7392  52.5592  52.5592  53.6949  53.6949
    53.9693  53.9693  55.1677  55.1677  55.6772  55.6772  56.8682  56.8682
    57.5899  57.5899  58.3914  58.3914  58.7972  58.7972  58.9980  58.9980
    59.2759  59.2760  59.5286  59.5286  60.2949  60.2951  60.8296  60.8297
    61.7505  61.7506  62.7186  62.7188  63.1271  63.1277  63.5075

          k =-0.5000 0.0000 0.1317 (  3710 PWs)   bands (ev):

   -58.0668 -58.0668 -58.0191 -58.0191 -57.9952 -57.9952 -57.9874 -57.9874
   -17.6476 -17.6476 -17.4818 -17.4818 -17.3879 -17.3879 -17.2910 -17.2910
   -17.2134 -17.2134 -17.0587 -17.0587 -17.0339 -17.0339 -16.9459 -16.9459
   -16.7980 -16.7980 -16.7576 -16.7576 -16.7132 -16.7132 -16.6586 -16.6586
   -11.7480 -11.7480 -11.6885 -11.6885  13.5987  13.5987  13.8807  13.8807
    14.0437  14.0437  14.1389  14.1389  14.5487  14.5487  14.6643  14.6643
    28.1783  28.1783  28.5141  28.5141  28.6354  28.6354  29.0541  29.0541
    29.4628  29.4628  29.5336  29.5336  29.7208  29.7208  29.9750  29.9750
    30.0628  30.0628  30.5057  30.5057  30.6094  30.6094  30.7072  30.7072
    30.9317  30.9317  31.2575  31.2575  31.6228  31.6228  31.7115  31.7115
    32.1257  32.1257  32.7991  32.7991  33.3478  33.3478  33.5101  33.5101
    37.8928  37.8928  39.4211  39.4211  41.1670  41.1670  43.0210  43.0210
    43.8050  43.8050  44.0416  44.0416  44.6829  44.6829  45.1759  45.1759
    45.7291  45.7291  46.9204  46.9204  47.3231  47.3231  48.2154  48.2154
    48.3971  48.3971  49.1774  49.1774  51.8170  51.8170  53.2719  53.2719
    54.8369  54.8369  55.1164  55.1164  56.1860  56.1860  56.5060  56.5060
    57.0395  57.0395  57.9857  57.9857  58.6438  58.6438  59.0514  59.0514
    59.4819  59.4819  60.1540  60.1540  60.3678  60.3679  60.8813  60.8815
    61.7179  61.7180  62.1391  62.1393  62.9356  62.9361  63.3543

          k =-0.5000 0.0000-0.2634 (  3680 PWs)   bands (ev):

   -58.0280 -58.0280 -57.9929 -57.9929 -57.9892 -57.9892 -57.9839 -57.9839
   -17.6631 -17.6631 -17.4542 -17.4542 -17.2998 -17.2998 -17.2896 -17.2896
   -17.2248 -17.2248 -17.0998 -17.0998 -17.0308 -17.0308 -16.9426 -16.9426
   -16.7910 -16.7910 -16.7345 -16.7345 -16.6984 -16.6984 -16.6505 -16.6505
   -11.7454 -11.7454 -11.6875 -11.6875  13.5972  13.5972  13.9132  13.9132
    14.0481  14.0481  14.1183  14.1183  14.5501  14.5501  14.6597  14.6597
    28.1332  28.1332  28.4669  28.4669  28.8777  28.8777  29.0973  29.0973
    29.3314  29.3314  29.4115  29.4115  29.8417  29.8417  29.9059  29.9059
    30.1581  30.1581  30.5347  30.5347  30.5878  30.5878  30.7229  30.7229
    31.2083  31.2083  31.3188  31.3188  31.4152  31.4152  31.5386  31.5386
    32.2382  32.2382  32.9707  32.9707  33.1073  33.1073  33.5050  33.5050
    37.8790  37.8790  38.8079  38.8079  41.5011  41.5011  42.7728  42.7728
    44.0580  44.0580  44.1619  44.1619  44.7876  44.7876  44.8206  44.8206
    46.6575  46.6575  46.7577  46.7577  46.8416  46.8416  48.3140  48.3140
    48.8557  48.8557  49.9904  49.9904  50.3432  50.3432  53.5820  53.5820
    55.0494  55.0494  55.1736  55.1736  56.0926  56.0926  56.1853  56.1853
    57.3751  57.3751  58.2909  58.2909  58.3251  58.3251  58.7365  58.7365
    59.1069  59.1069  60.2476  60.2476  60.9620  60.9622  61.5453  61.5457
    61.5637  61.5640  62.0527  62.0531  62.4474  62.4478  62.7253

          k =-0.5000 0.2533 0.0000 (  3686 PWs)   bands (ev):

   -58.0302 -58.0302 -58.0146 -58.0146 -57.9908 -57.9908 -57.9815 -57.9815
   -17.5276 -17.5276 -17.5078 -17.5078 -17.4376 -17.4376 -17.2348 -17.2348
   -17.1581 -17.1581 -17.0796 -17.0796 -17.0242 -17.0242 -16.9548 -16.9548
   -16.8035 -16.8035 -16.7796 -16.7796 -16.7306 -16.7306 -16.6953 -16.6953
   -11.7128 -11.7128 -11.6817 -11.6817  13.6358  13.6358  13.7521  13.7521
    14.0640  14.0640  14.1033  14.1033  14.5020  14.5020  14.5294  14.5294
    28.4082  28.4082  28.8422  28.8422  28.9653  28.9653  29.0370  29.0370
    29.3445  29.3445  29.5818  29.5818  30.0673  30.0673  30.0892  30.0892
    30.2412  30.2412  30.4936  30.4936  30.6985  30.6985  30.8881  30.8881
    31.1165  31.1165  31.2409  31.2409  31.5925  31.5925  31.9306  31.9306
    32.2081  32.2081  32.4266  32.4266  33.0035  33.0035  33.2334  33.2333
    38.3463  38.3463  39.7907  39.7907  40.9186  40.9186  41.8535  41.8535
    43.0395  43.0395  43.2399  43.2399  45.1015  45.1015  45.2888  45.2888
    45.7908  45.7908  46.3759  46.3759  46.6454  46.6454  47.0125  47.0125
    49.0209  49.0209  49.6702  49.6702  51.6781  51.6781  52.2277  52.2277
    54.4472  54.4472  55.6723  55.6723  56.6570  56.6570  56.9019  56.9019
    57.8131  57.8131  58.2997  58.2997  58.9312  58.9312  58.9524  58.9525
    60.1362  60.1363  60.3043  60.3044  61.2589  61.2590  61.6196  61.6198
    62.2701  62.2703  62.3009  62.3011  62.9856  62.9864  63.3457

          k =-0.5000 0.2533 0.1317 (  3692 PWs)   bands (ev):

   -58.0405 -58.0405 -58.0151 -58.0151 -57.9986 -57.9986 -57.9769 -57.9769
   -17.5428 -17.5428 -17.4713 -17.4713 -17.4006 -17.4006 -17.2936 -17.2936
   -17.1932 -17.1932 -17.0888 -17.0888 -16.9849 -16.9849 -16.9276 -16.9276
   -16.8264 -16.8264 -16.7827 -16.7827 -16.7382 -16.7382 -16.7043 -16.7043
   -11.7116 -11.7116 -11.6813 -11.6813  13.6377  13.6377  13.7678  13.7678
    14.0570  14.0570  14.0833  14.0833  14.4949  14.4949  14.5308  14.5308
    28.3578  28.3578  28.8685  28.8685  28.9819  28.9819  29.0998  29.0998
    29.3779  29.3779  29.6450  29.6450  29.8644  29.8644  30.1645  30.1645
    30.2935  30.2935  30.5759  30.5759  30.7686  30.7686  30.9377  30.9377
    31.0326  31.0326  31.3421  31.3421  31.5039  31.5039  31.8199  31.8199
    32.2169  32.2169  32.4615  32.4615  32.9605  32.9605  33.2222  33.2222
    38.2934  38.2934  39.1517  39.1517  41.0262  41.0262  41.9716  41.9716
    43.2906  43.2906  43.6368  43.6368  44.5630  44.5630  45.5825  45.5825
    45.6877  45.6877  46.3548  46.3548  46.6194  46.6194  46.9901  46.9901
    49.2856  49.2856  50.0669  50.0669  51.3374  51.3374  52.3927  52.3927
    54.5880  54.5880  55.5352  55.5352  56.6044  56.6044  56.8524  56.8524
    57.6698  57.6698  58.4044  58.4044  58.6965  58.6965  59.3684  59.3684
    59.9286  59.9286  60.3020  60.3020  61.0443  61.0444  61.5555  61.5556
    62.0158  62.0160  62.3182  62.3184  62.6645  62.6649  63.1867

          k =-0.5000 0.2533-0.2634 (  3704 PWs)   bands (ev):

   -58.0496 -58.0496 -58.0177 -58.0177 -58.0074 -58.0074 -57.9874 -57.9874
   -17.5568 -17.5568 -17.4178 -17.4178 -17.3797 -17.3797 -17.3093 -17.3093
   -17.2946 -17.2946 -17.0963 -17.0963 -16.9489 -16.9489 -16.9045 -16.9045
   -16.8374 -16.8374 -16.8215 -16.8215 -16.7237 -16.7237 -16.7081 -16.7081
   -11.7107 -11.7107 -11.6816 -11.6816  13.6351  13.6351  13.7852  13.7852
    14.0514  14.0514  14.0605  14.0605  14.4913  14.4913  14.5269  14.5269
    28.3089  28.3089  28.8411  28.8411  29.0472  29.0472  29.2144  29.2144
    29.4414  29.4414  29.5830  29.5830  29.7702  29.7702  30.2336  30.2336
    30.3453  30.3453  30.5964  30.5964  30.7423  30.7423  31.0806  31.0806
    31.1442  31.1442  31.3302  31.3302  31.3655  31.3655  31.7804  31.7804
    31.9858  31.9858  32.7164  32.7164  32.8608  32.8608  33.1904  33.1904
    38.4314  38.4314  38.4748  38.4748  41.1225  41.1225  41.9431  41.9431
    43.6845  43.6845  43.7583  43.7583  44.4302  44.4302  45.2642  45.2642
    46.0195  46.0195  46.2191  46.2191  46.8536  46.8536  46.8657  46.8657
    49.3994  49.3994  50.2127  50.2127  51.1847  51.1847  53.2404  53.2404
    53.8416  53.8416  55.8385  55.8385  56.2983  56.2983  56.9040  56.9040
    57.2095  57.2095  58.6855  58.6855  59.1478  59.1478  59.4234  59.4234
    59.8534  59.8535  60.2535  60.2536  60.4411  60.4412  61.2149  61.2152
    62.1386  62.1387  62.1896  62.1899  62.9775  62.9899  63.0039

     the Fermi energy is    56.5653 ev

!    total energy              =   -3621.36584497 Ry
     Harris-Foulkes estimate   =   -3621.36591868 Ry
     estimated scf accuracy    <       0.00007966 Ry

     The total energy is the sum of the following terms:

     one-electron contribution =      68.60922599 Ry
     hartree contribution      =     349.47857005 Ry
     xc contribution           =    -330.49030227 Ry
     ewald contribution        =   -3708.54486360 Ry
     smearing contrib. (-TS)   =      -0.41847515 Ry

     convergence has been achieved in  10 iterations

     Forces acting on atoms (Ry/au):

     atom    1 type  1   force =     0.00000000   -0.12318758   -0.13165919
     atom    2 type  1   force =     0.00000000    0.12318758    0.13165919
     atom    3 type  1   force =     0.00000000   -0.12318758    0.13165919
     atom    4 type  1   force =     0.00000000    0.12318758   -0.13165919
     atom    5 type  1   force =     0.00000000    0.11571311   -0.07146318
     atom    6 type  1   force =     0.00000000   -0.11571311    0.07146318
     atom    7 type  1   force =     0.00000000    0.11571311    0.07146318
     atom    8 type  1   force =     0.00000000   -0.11571311   -0.07146318
     atom    9 type  2   force =     0.00000000   -0.22446947    0.02142817
     atom   10 type  2   force =     0.00000000    0.22446947   -0.02142817
     atom   11 type  2   force =     0.00000000   -0.22446947   -0.02142817
     atom   12 type  2   force =     0.00000000    0.22446947    0.02142817

     Total force =     0.638284     Total SCF correction =     0.000000


     entering subroutine stress ...

          total   stress  (Ry/bohr**3)                   (kbar)     P= 7258.78
   0.05088042   0.00000000   0.00000000       7484.77      0.00      0.00
   0.00000000   0.04783769   0.00000000          0.00   7037.17      0.00
   0.00000000   0.00000000   0.04931450          0.00      0.00   7254.41


     number of scf cycles    =   2
     number of bfgs steps    =   1

     enthalpy old            =   -3621.3658448808 Ry
     enthalpy new            =   -3621.3658449704 Ry

     CASE: enthalpy_new < enthalpy_old


     WARNING: unexpected behaviour in update_inverse_hessian
              resetting bfgs history

     small trust_radius: resetting bfgs history

     new trust radius        =       7.4704072679 bohr
     new conv_thr            =       0.0000010000 Ry

     new unit-cell volume =   9605.95224 a.u.^3 (  1423.45524 Ang^3 )

CELL_PARAMETERS (alat=  7.01510508)
   2.272010442   0.000000000   0.000000000
   0.000000000   2.889779581   0.000000000
   0.000000000   0.000000000   4.238018418

ATOMIC_POSITIONS (crystal)
Co       0.750000000   0.813056911   0.425847826
Co       0.250000000   0.186943089   0.574152174
Co       0.750000000   0.313056911   0.074152174
Co       0.250000000   0.686943089   0.925847826
Co       0.250000000   0.549620430   0.276977806
Co       0.750000000   0.450379570   0.723022194
Co       0.250000000   0.049620430   0.223022194
Co       0.750000000   0.950379570   0.776977806
Si       0.250000000   0.178538719   0.895209348
Si       0.750000000   0.821461281   0.104790652
Si       0.250000000   0.678538719   0.604790652
Si       0.750000000   0.321461281   0.395209348



     Writing output data file Prototype-La-oP12-Co2Si.save
     NEW-OLD atomic charge density approx. for the potential
     NEW k-points:
        k(    1) = (   0.0000000   0.0000000   0.0000000), wk =   0.0833333
        k(    2) = (   0.0000000   0.0000000   0.0589898), wk =   0.1666667
        k(    3) = (   0.0000000   0.0000000  -0.1179797), wk =   0.0833333
        k(    4) = (   0.0000000   0.1153491   0.0000000), wk =   0.1666667
        k(    5) = (   0.0000000   0.1153491   0.0589898), wk =   0.3333333
        k(    6) = (   0.0000000   0.1153491  -0.1179797), wk =   0.1666667
        k(    7) = (  -0.2200694   0.0000000   0.0000000), wk =   0.0833333
        k(    8) = (  -0.2200694   0.0000000   0.0589898), wk =   0.1666667
        k(    9) = (  -0.2200694   0.0000000  -0.1179797), wk =   0.0833333
        k(   10) = (  -0.2200694   0.1153491   0.0000000), wk =   0.1666667
        k(   11) = (  -0.2200694   0.1153491   0.0589898), wk =   0.3333333
        k(   12) = (  -0.2200694   0.1153491  -0.1179797), wk =   0.1666667

     total cpu time spent up to now is      187.0 secs

     Self-consistent Calculation

     iteration #  1     ecut=    40.00 Ry     beta=0.70
     CG style diagonalization
     c_bands:  3 eigenvalues not converged
     c_bands:  3 eigenvalues not converged
     c_bands:  3 eigenvalues not converged
     c_bands:  5 eigenvalues not converged
     c_bands:  3 eigenvalues not converged
     c_bands:  4 eigenvalues not converged
     c_bands:  4 eigenvalues not converged
     c_bands:  2 eigenvalues not converged
     c_bands:  4 eigenvalues not converged
     c_bands:  2 eigenvalues not converged
     c_bands:  3 eigenvalues not converged
     c_bands:  3 eigenvalues not converged
     ethr =  1.00E-06,  avg # of iterations = 43.1

     total cpu time spent up to now is      318.8 secs

     total energy              =   -3904.44810603 Ry
     Harris-Foulkes estimate   =   -3913.25843342 Ry
     estimated scf accuracy    <      11.81862446 Ry

     iteration #  2     ecut=    40.00 Ry     beta=0.70
     CG style diagonalization
     c_bands:  1 eigenvalues not converged
     c_bands:  1 eigenvalues not converged
     c_bands:  3 eigenvalues not converged
     c_bands:  1 eigenvalues not converged
     c_bands:  1 eigenvalues not converged
     c_bands:  2 eigenvalues not converged
     c_bands:  2 eigenvalues not converged
     c_bands:  2 eigenvalues not converged
     c_bands:  1 eigenvalues not converged
     ethr =  4.69E-03,  avg # of iterations = 12.2

     negative rho (up, down):  0.133E+01 0.000E+00

     total cpu time spent up to now is      355.9 secs

     total energy              =   -3869.01066289 Ry
     Harris-Foulkes estimate   =   -3816.94122076 Ry
     estimated scf accuracy    <      31.87515503 Ry

     iteration #  3     ecut=    40.00 Ry     beta=0.70
     CG style diagonalization
     ethr =  4.69E-03,  avg # of iterations = 17.2

     total cpu time spent up to now is      400.4 secs

     total energy              =   -3860.59093094 Ry
     Harris-Foulkes estimate   =   -3998.28449728 Ry
     estimated scf accuracy    <     231.25287281 Ry

     iteration #  4     ecut=    40.00 Ry     beta=0.70
     CG style diagonalization
     c_bands:  1 eigenvalues not converged
     c_bands:  3 eigenvalues not converged
     c_bands:  1 eigenvalues not converged
     c_bands:  1 eigenvalues not converged
     c_bands:  2 eigenvalues not converged
     ethr =  4.69E-03,  avg # of iterations = 11.4

     total cpu time spent up to now is      430.4 secs

     total energy              =   -3649.11616979 Ry
     Harris-Foulkes estimate   =   -3698.35618754 Ry
     estimated scf accuracy    <     338.44715165 Ry

     iteration #  5     ecut=    40.00 Ry     beta=0.70
     CG style diagonalization
     c_bands:  1 eigenvalues not converged
     c_bands:  2 eigenvalues not converged
     c_bands:  1 eigenvalues not converged
     ethr =  4.69E-03,  avg # of iterations =  5.7

     total cpu time spent up to now is      445.3 secs

     total energy              =   -3611.48199231 Ry
     Harris-Foulkes estimate   =   -3640.64757223 Ry
     estimated scf accuracy    <     244.25426868 Ry

     iteration #  6     ecut=    40.00 Ry     beta=0.70
     CG style diagonalization
     c_bands:  1 eigenvalues not converged
     c_bands:  2 eigenvalues not converged
     ethr =  4.69E-03,  avg # of iterations =  5.0

     total cpu time spent up to now is      458.3 secs

     total energy              =   -3741.46486721 Ry
     Harris-Foulkes estimate   =   -3603.49204922 Ry
     estimated scf accuracy    <     346.47077956 Ry

     iteration #  7     ecut=    40.00 Ry     beta=0.70
     CG style diagonalization
     c_bands:  1 eigenvalues not converged
     ethr =  4.69E-03,  avg # of iterations =  4.6

     total cpu time spent up to now is      470.5 secs

     total energy              =   -3600.54265104 Ry
     Harris-Foulkes estimate   =   -3742.48970542 Ry
     estimated scf accuracy    <     517.58478304 Ry

     iteration #  8     ecut=    40.00 Ry     beta=0.70
     CG style diagonalization
     ethr =  4.69E-03,  avg # of iterations =  4.0

     total cpu time spent up to now is      480.4 secs

     total energy              =   -3665.31136900 Ry
     Harris-Foulkes estimate   =   -3601.41336645 Ry
     estimated scf accuracy    <     306.42543198 Ry

     iteration #  9     ecut=    40.00 Ry     beta=0.70
     CG style diagonalization
     c_bands:  1 eigenvalues not converged
     ethr =  4.69E-03,  avg # of iterations =  3.7

     total cpu time spent up to now is      490.9 secs

     total energy              =   -3491.05762106 Ry
     Harris-Foulkes estimate   =   -3669.18341146 Ry
     estimated scf accuracy    <     383.86439474 Ry

     iteration # 10     ecut=    40.00 Ry     beta=0.70
     CG style diagonalization
     c_bands:  1 eigenvalues not converged
     c_bands:  2 eigenvalues not converged
     ethr =  4.69E-03,  avg # of iterations =  4.9

     total cpu time spent up to now is      504.2 secs

     total energy              =   -3484.66785029 Ry
     Harris-Foulkes estimate   =   -3485.24952896 Ry
     estimated scf accuracy    <     132.85170453 Ry

     iteration # 11     ecut=    40.00 Ry     beta=0.70
     CG style diagonalization
     ethr =  4.69E-03,  avg # of iterations =  4.8

     negative rho (up, down):  0.234E+00 0.000E+00

     total cpu time spent up to now is      516.5 secs

     total energy              =   -3350.65055371 Ry
     Harris-Foulkes estimate   =   -3484.59472128 Ry
     estimated scf accuracy    <     155.63980002 Ry

     iteration # 12     ecut=    40.00 Ry     beta=0.70
     CG style diagonalization
     c_bands:  2 eigenvalues not converged
     c_bands:  1 eigenvalues not converged
     ethr =  4.69E-03,  avg # of iterations =  7.1

     negative rho (up, down):  0.826E+00 0.000E+00

     total cpu time spent up to now is      536.3 secs

     total energy              =   -3441.27633321 Ry
     Harris-Foulkes estimate   =   -3434.44683855 Ry
     estimated scf accuracy    <     210.75511897 Ry

     iteration # 13     ecut=    40.00 Ry     beta=0.70
     CG style diagonalization
     ethr =  4.69E-03,  avg # of iterations =  4.0

     negative rho (up, down):  0.569E+00 0.000E+00

     total cpu time spent up to now is      546.8 secs

     total energy              =   -3439.16125513 Ry
     Harris-Foulkes estimate   =   -3441.11220928 Ry
     estimated scf accuracy    <     229.26177769 Ry

     iteration # 14     ecut=    40.00 Ry     beta=0.70
     CG style diagonalization
     ethr =  4.69E-03,  avg # of iterations =  5.1

     total cpu time spent up to now is      560.3 secs

     total energy              =   -3402.41076545 Ry
     Harris-Foulkes estimate   =   -3439.63348623 Ry
     estimated scf accuracy    <     219.84930134 Ry

     iteration # 15     ecut=    40.00 Ry     beta=0.70
     CG style diagonalization
     ethr =  4.69E-03,  avg # of iterations =  5.0

     total cpu time spent up to now is      573.3 secs

     total energy              =   -3406.08087072 Ry
     Harris-Foulkes estimate   =   -3407.88672858 Ry
     estimated scf accuracy    <     171.07182325 Ry

     iteration # 16     ecut=    40.00 Ry     beta=0.70
     CG style diagonalization
     ethr =  4.69E-03,  avg # of iterations =  4.0

     total cpu time spent up to now is      583.2 secs

     total energy              =   -3385.36791428 Ry
     Harris-Foulkes estimate   =   -3406.08773498 Ry
     estimated scf accuracy    <     168.67685385 Ry

     iteration # 17     ecut=    40.00 Ry     beta=0.70
     CG style diagonalization
     ethr =  4.69E-03,  avg # of iterations =  4.4

     total cpu time spent up to now is      595.0 secs

     total energy              =   -3382.89747707 Ry
     Harris-Foulkes estimate   =   -3389.18482207 Ry
     estimated scf accuracy    <     118.55323731 Ry

     iteration # 18     ecut=    40.00 Ry     beta=0.70
     CG style diagonalization
     c_bands:  2 eigenvalues not converged
     c_bands:  2 eigenvalues not converged
     c_bands:  3 eigenvalues not converged
     c_bands:  3 eigenvalues not converged
     ethr =  4.69E-03,  avg # of iterations =  7.2

     total cpu time spent up to now is      614.2 secs

     total energy              =   -3416.51541664 Ry
     Harris-Foulkes estimate   =   -3432.16668598 Ry
     estimated scf accuracy    <      92.76679092 Ry

     iteration # 19     ecut=    40.00 Ry     beta=0.70
     CG style diagonalization
     c_bands:  1 eigenvalues not converged
     ethr =  4.69E-03,  avg # of iterations =  4.8

     total cpu time spent up to now is      626.9 secs

     total energy              =   -3409.69833992 Ry
     Harris-Foulkes estimate   =   -3416.37838304 Ry
     estimated scf accuracy    <     101.16729888 Ry

     iteration # 20     ecut=    40.00 Ry     beta=0.70
     CG style diagonalization
     ethr =  4.69E-03,  avg # of iterations =  3.9

     total cpu time spent up to now is      637.4 secs

     total energy              =   -3407.48106665 Ry
     Harris-Foulkes estimate   =   -3410.15374643 Ry
     estimated scf accuracy    <      97.95344972 Ry

     iteration # 21     ecut=    40.00 Ry     beta=0.70
     CG style diagonalization
     c_bands:  5 eigenvalues not converged
     ethr =  4.69E-03,  avg # of iterations =  3.5

     total cpu time spent up to now is      647.5 secs

     total energy              =   -3411.63060270 Ry
     Harris-Foulkes estimate   =   -3407.20257015 Ry
     estimated scf accuracy    <      73.92109828 Ry

     iteration # 22     ecut=    40.00 Ry     beta=0.70
     CG style diagonalization
     c_bands:  4 eigenvalues not converged
     c_bands:  5 eigenvalues not converged
     c_bands:  5 eigenvalues not converged
     ethr =  4.69E-03,  avg # of iterations =  5.6

     total cpu time spent up to now is      663.9 secs

     total energy              =   -3433.23671913 Ry
     Harris-Foulkes estimate   =   -3417.20137568 Ry
     estimated scf accuracy    <      61.15809892 Ry

     iteration # 23     ecut=    40.00 Ry     beta=0.70
     CG style diagonalization
     c_bands:  1 eigenvalues not converged
     c_bands:  1 eigenvalues not converged
     ethr =  4.69E-03,  avg # of iterations =  5.6

     total cpu time spent up to now is      680.5 secs

     total energy              =   -3467.49771913 Ry
     Harris-Foulkes estimate   =   -3440.98913637 Ry
     estimated scf accuracy    <      87.05925429 Ry

     iteration # 24     ecut=    40.00 Ry     beta=0.70
     CG style diagonalization
     ethr =  4.69E-03,  avg # of iterations =  4.7

     total cpu time spent up to now is      694.5 secs

     total energy              =   -3463.31693115 Ry
     Harris-Foulkes estimate   =   -3473.12423347 Ry
     estimated scf accuracy    <     145.80523652 Ry

     iteration # 25     ecut=    40.00 Ry     beta=0.70
     CG style diagonalization
     c_bands:  1 eigenvalues not converged
     ethr =  4.69E-03,  avg # of iterations =  3.6

     total cpu time spent up to now is      704.8 secs

     total energy              =   -3426.35704469 Ry
     Harris-Foulkes estimate   =   -3462.61530507 Ry
     estimated scf accuracy    <     133.81974903 Ry

     iteration # 26     ecut=    40.00 Ry     beta=0.70
     CG style diagonalization
     c_bands:  2 eigenvalues not converged
     c_bands:  2 eigenvalues not converged
     c_bands:  5 eigenvalues not converged
     ethr =  4.69E-03,  avg # of iterations =  5.1

     negative rho (up, down):  0.469E-02 0.000E+00

     total cpu time spent up to now is      718.1 secs

     total energy              =   -3368.82111507 Ry
     Harris-Foulkes estimate   =   -3423.37030032 Ry
     estimated scf accuracy    <      68.51770541 Ry

     iteration # 27     ecut=    40.00 Ry     beta=0.70
     CG style diagonalization
     ethr =  4.69E-03,  avg # of iterations =  7.1

     negative rho (up, down):  0.383E-02 0.000E+00

     total cpu time spent up to now is      737.0 secs

     total energy              =   -3371.14848643 Ry
     Harris-Foulkes estimate   =   -3420.54219255 Ry
     estimated scf accuracy    <     181.66495105 Ry

     iteration # 28     ecut=    40.00 Ry     beta=0.70
     CG style diagonalization
     ethr =  4.69E-03,  avg # of iterations =  4.5

     total cpu time spent up to now is      749.0 secs

     total energy              =   -3391.59155939 Ry
     Harris-Foulkes estimate   =   -3391.26853643 Ry
     estimated scf accuracy    <     144.68014744 Ry

     iteration # 29     ecut=    40.00 Ry     beta=0.70
     CG style diagonalization
     ethr =  4.69E-03,  avg # of iterations =  4.5

     total cpu time spent up to now is      760.9 secs

     total energy              =   -3384.29800228 Ry
     Harris-Foulkes estimate   =   -3392.93783245 Ry
     estimated scf accuracy    <     130.44164033 Ry

     iteration # 30     ecut=    40.00 Ry     beta=0.70
     CG style diagonalization
     ethr =  4.69E-03,  avg # of iterations =  5.0

     total cpu time spent up to now is      773.7 secs

     total energy              =   -3390.17973077 Ry
     Harris-Foulkes estimate   =   -3389.72148826 Ry
     estimated scf accuracy    <     139.72644918 Ry

     iteration # 31     ecut=    40.00 Ry     beta=0.70
     CG style diagonalization
     ethr =  4.69E-03,  avg # of iterations =  4.6

     total cpu time spent up to now is      785.2 secs

     total energy              =   -3389.59432762 Ry
     Harris-Foulkes estimate   =   -3389.91505695 Ry
     estimated scf accuracy    <     159.25899161 Ry

     iteration # 32     ecut=    40.00 Ry     beta=0.70
     CG style diagonalization
     ethr =  4.69E-03,  avg # of iterations =  4.4

     total cpu time spent up to now is      797.1 secs

     total energy              =   -3389.29360149 Ry
     Harris-Foulkes estimate   =   -3390.40974192 Ry
     estimated scf accuracy    <     121.43232506 Ry

     iteration # 33     ecut=    40.00 Ry     beta=0.70
     CG style diagonalization
     ethr =  4.69E-03,  avg # of iterations =  3.4

     total cpu time spent up to now is      806.9 secs

     total energy              =   -3390.09271730 Ry
     Harris-Foulkes estimate   =   -3389.51828147 Ry
     estimated scf accuracy    <     109.82477865 Ry

     iteration # 34     ecut=    40.00 Ry     beta=0.70
     CG style diagonalization
     c_bands:  1 eigenvalues not converged
     c_bands:  3 eigenvalues not converged
     ethr =  4.69E-03,  avg # of iterations =  5.0

     total cpu time spent up to now is      821.7 secs

     total energy              =   -3393.25344651 Ry
     Harris-Foulkes estimate   =   -3395.00908499 Ry
     estimated scf accuracy    <      53.56135061 Ry

     iteration # 35     ecut=    40.00 Ry     beta=0.70
     CG style diagonalization
     c_bands:  5 eigenvalues not converged
     c_bands:  5 eigenvalues not converged
     c_bands:  5 eigenvalues not converged
     c_bands:  4 eigenvalues not converged
     ethr =  4.69E-03,  avg # of iterations =  5.5

     total cpu time spent up to now is      837.3 secs

     total energy              =   -3436.79037937 Ry
     Harris-Foulkes estimate   =   -3408.76854491 Ry
     estimated scf accuracy    <      79.61501792 Ry

     iteration # 36     ecut=    40.00 Ry     beta=0.70
     CG style diagonalization
     c_bands:  1 eigenvalues not converged
     ethr =  4.69E-03,  avg # of iterations =  5.5

     total cpu time spent up to now is      852.8 secs

     total energy              =   -3391.45820449 Ry
     Harris-Foulkes estimate   =   -3447.79519341 Ry
     estimated scf accuracy    <     134.82947286 Ry

     iteration # 37     ecut=    40.00 Ry     beta=0.70
     CG style diagonalization
     ethr =  4.69E-03,  avg # of iterations =  3.4

     total cpu time spent up to now is      862.7 secs

     total energy              =   -3403.60248517 Ry
     Harris-Foulkes estimate   =   -3401.63533745 Ry
     estimated scf accuracy    <      89.54226686 Ry

     iteration # 38     ecut=    40.00 Ry     beta=0.70
     CG style diagonalization
     ethr =  4.69E-03,  avg # of iterations =  6.3

     total cpu time spent up to now is      879.6 secs

     total energy              =   -3401.36654048 Ry
     Harris-Foulkes estimate   =   -3404.67376357 Ry
     estimated scf accuracy    <      91.71669882 Ry

     iteration # 39     ecut=    40.00 Ry     beta=0.70
     CG style diagonalization
     c_bands:  1 eigenvalues not converged
     c_bands:  2 eigenvalues not converged
     ethr =  4.69E-03,  avg # of iterations =  4.6

     total cpu time spent up to now is      892.9 secs

     total energy              =   -3396.40547655 Ry
     Harris-Foulkes estimate   =   -3403.41503445 Ry
     estimated scf accuracy    <      77.74083035 Ry

     iteration # 40     ecut=    40.00 Ry     beta=0.70
     CG style diagonalization
     ethr =  4.69E-03,  avg # of iterations =  4.5

     total cpu time spent up to now is      905.3 secs

     total energy              =   -3417.37669255 Ry
     Harris-Foulkes estimate   =   -3396.42674290 Ry
     estimated scf accuracy    <      70.30533188 Ry

     iteration # 41     ecut=    40.00 Ry     beta=0.70
     CG style diagonalization
     ethr =  4.69E-03,  avg # of iterations =  3.0

     total cpu time spent up to now is      914.0 secs

     total energy              =   -3433.20504578 Ry
     Harris-Foulkes estimate   =   -3417.77645455 Ry
     estimated scf accuracy    <      52.84065048 Ry

     iteration # 42     ecut=    40.00 Ry     beta=0.70
     CG style diagonalization
     c_bands:  4 eigenvalues not converged
     c_bands:  2 eigenvalues not converged
     c_bands:  4 eigenvalues not converged
     c_bands:  2 eigenvalues not converged
     ethr =  4.69E-03,  avg # of iterations =  5.4

     total cpu time spent up to now is      931.2 secs

     total energy              =   -3440.54512924 Ry
     Harris-Foulkes estimate   =   -3440.90782294 Ry
     estimated scf accuracy    <      54.96690658 Ry

     iteration # 43     ecut=    40.00 Ry     beta=0.70
     CG style diagonalization
     c_bands:  1 eigenvalues not converged
     ethr =  4.69E-03,  avg # of iterations =  5.5

     total cpu time spent up to now is      948.2 secs

     total energy              =   -3411.56029685 Ry
     Harris-Foulkes estimate   =   -3442.21449092 Ry
     estimated scf accuracy    <     127.16281163 Ry

     iteration # 44     ecut=    40.00 Ry     beta=0.70
     CG style diagonalization
     c_bands:  1 eigenvalues not converged
     ethr =  4.69E-03,  avg # of iterations =  5.0

     total cpu time spent up to now is      962.2 secs

     total energy              =   -3365.63523096 Ry
     Harris-Foulkes estimate   =   -3409.26593059 Ry
     estimated scf accuracy    <      87.81032279 Ry

     iteration # 45     ecut=    40.00 Ry     beta=0.70
     CG style diagonalization
     ethr =  4.69E-03,  avg # of iterations =  3.7

     total cpu time spent up to now is      972.6 secs

     total energy              =   -3363.91700409 Ry
     Harris-Foulkes estimate   =   -3367.99294896 Ry
     estimated scf accuracy    <      22.61357303 Ry

     iteration # 46     ecut=    40.00 Ry     beta=0.70
     CG style diagonalization
     c_bands:  1 eigenvalues not converged
     ethr =  4.69E-03,  avg # of iterations =  4.8

     total cpu time spent up to now is      986.1 secs

     total energy              =   -3361.58195952 Ry
     Harris-Foulkes estimate   =   -3361.84633273 Ry
     estimated scf accuracy    <       4.31222720 Ry

     iteration # 47     ecut=    40.00 Ry     beta=0.70
     CG style diagonalization
     c_bands:  5 eigenvalues not converged
     ethr =  1.71E-03,  avg # of iterations =  6.6

     total cpu time spent up to now is     1005.3 secs

     total energy              =   -3354.85462282 Ry
     Harris-Foulkes estimate   =   -3360.61968238 Ry
     estimated scf accuracy    <      16.35331327 Ry

     iteration # 48     ecut=    40.00 Ry     beta=0.70
     CG style diagonalization
     ethr =  1.71E-03,  avg # of iterations =  4.4

     total cpu time spent up to now is     1018.0 secs

     total energy              =   -3354.87366758 Ry
     Harris-Foulkes estimate   =   -3355.12888960 Ry
     estimated scf accuracy    <       3.78886292 Ry

     iteration # 49     ecut=    40.00 Ry     beta=0.70
     CG style diagonalization
     c_bands:  1 eigenvalues not converged
     ethr =  1.50E-03,  avg # of iterations =  3.7

     total cpu time spent up to now is     1028.1 secs

     total energy              =   -3356.23530452 Ry
     Harris-Foulkes estimate   =   -3354.80321310 Ry
     estimated scf accuracy    <       0.41385654 Ry

     iteration # 50     ecut=    40.00 Ry     beta=0.70
     CG style diagonalization
     ethr =  1.64E-04,  avg # of iterations = 20.5

     total cpu time spent up to now is     1080.6 secs

     total energy              =   -3364.88460443 Ry
     Harris-Foulkes estimate   =   -3362.62348683 Ry
     estimated scf accuracy    <       2.50380795 Ry

     iteration # 51     ecut=    40.00 Ry     beta=0.70
     CG style diagonalization
     ethr =  1.64E-04,  avg # of iterations = 22.1

     total cpu time spent up to now is     1135.9 secs

     total energy              =   -3367.71565730 Ry
     Harris-Foulkes estimate   =   -3368.28938271 Ry
     estimated scf accuracy    <       1.61089953 Ry

     iteration # 52     ecut=    40.00 Ry     beta=0.70
     CG style diagonalization
     ethr =  1.64E-04,  avg # of iterations = 22.0

     total cpu time spent up to now is     1190.5 secs

     total energy              =   -3366.00117942 Ry
     Harris-Foulkes estimate   =   -3365.65445927 Ry
     estimated scf accuracy    <       0.76123379 Ry

     iteration # 53     ecut=    40.00 Ry     beta=0.70
     CG style diagonalization
     ethr =  1.64E-04,  avg # of iterations = 22.1

     total cpu time spent up to now is     1245.5 secs

     total energy              =   -3367.87499190 Ry
     Harris-Foulkes estimate   =   -3367.68523603 Ry
     estimated scf accuracy    <       1.64855365 Ry

     iteration # 54     ecut=    40.00 Ry     beta=0.70
     CG style diagonalization
     ethr =  1.64E-04,  avg # of iterations = 22.0

     total cpu time spent up to now is     1299.7 secs

     total energy              =   -3368.04203921 Ry
     Harris-Foulkes estimate   =   -3368.42698584 Ry
     estimated scf accuracy    <       2.70113000 Ry

     iteration # 55     ecut=    40.00 Ry     beta=0.70
     CG style diagonalization
     ethr =  1.64E-04,  avg # of iterations = 22.4

     total cpu time spent up to now is     1355.5 secs

     total energy              =   -3370.76633416 Ry
     Harris-Foulkes estimate   =   -3370.07157859 Ry
     estimated scf accuracy    <       2.04761798 Ry

     iteration # 56     ecut=    40.00 Ry     beta=0.70
     CG style diagonalization
     ethr =  1.64E-04,  avg # of iterations = 22.2

     total cpu time spent up to now is     1410.2 secs

     total energy              =   -3366.48044698 Ry
     Harris-Foulkes estimate   =   -3366.95770756 Ry
     estimated scf accuracy    <       0.82605287 Ry

     iteration # 57     ecut=    40.00 Ry     beta=0.70
     CG style diagonalization
     ethr =  1.64E-04,  avg # of iterations = 22.2

     total cpu time spent up to now is     1465.5 secs

     total energy              =   -3362.23429051 Ry
     Harris-Foulkes estimate   =   -3362.11567782 Ry
     estimated scf accuracy    <       0.11570225 Ry

     iteration # 58     ecut=    40.00 Ry     beta=0.70
     CG style diagonalization
     ethr =  4.59E-05,  avg # of iterations = 23.9

     total cpu time spent up to now is     1524.5 secs

     total energy              =   -3360.06693579 Ry
     Harris-Foulkes estimate   =   -3357.88375973 Ry
     estimated scf accuracy    <       9.46173247 Ry

     iteration # 59     ecut=    40.00 Ry     beta=0.70
     CG style diagonalization
     ethr =  4.59E-05,  avg # of iterations = 24.0

     total cpu time spent up to now is     1584.4 secs

     total energy              =   -3349.79407715 Ry
     Harris-Foulkes estimate   =   -3355.64942766 Ry
     estimated scf accuracy    <      65.62533107 Ry

     iteration # 60     ecut=    40.00 Ry     beta=0.70
     CG style diagonalization
     ethr =  4.59E-05,  avg # of iterations = 24.1

     total cpu time spent up to now is     1648.4 secs

     total energy              =   -3348.27289882 Ry
     Harris-Foulkes estimate   =   -3358.11779061 Ry
     estimated scf accuracy    <      56.40083073 Ry

     iteration # 61     ecut=    40.00 Ry     beta=0.70
     CG style diagonalization
     c_bands:  1 eigenvalues not converged
     ethr =  4.59E-05,  avg # of iterations = 24.1

     total cpu time spent up to now is     1708.0 secs

     total energy              =   -3363.60428984 Ry
     Harris-Foulkes estimate   =   -3363.93285548 Ry
     estimated scf accuracy    <       4.39819096 Ry

     iteration # 62     ecut=    40.00 Ry     beta=0.70
     CG style diagonalization
     ethr =  4.59E-05,  avg # of iterations = 24.2

     total cpu time spent up to now is     1768.4 secs

     total energy              =   -3362.99551160 Ry
     Harris-Foulkes estimate   =   -3364.69702567 Ry
     estimated scf accuracy    <       4.10781366 Ry

     iteration # 63     ecut=    40.00 Ry     beta=0.70
     CG style diagonalization
     ethr =  4.59E-05,  avg # of iterations = 24.7

     total cpu time spent up to now is     1829.3 secs

     total energy              =   -3370.40942264 Ry
     Harris-Foulkes estimate   =   -3370.06245654 Ry
     estimated scf accuracy    <       1.47550184 Ry

     iteration # 64     ecut=    40.00 Ry     beta=0.70
     CG style diagonalization
     ethr =  4.59E-05,  avg # of iterations = 24.8

     total cpu time spent up to now is     1892.1 secs

     total energy              =   -3371.01484063 Ry
     Harris-Foulkes estimate   =   -3371.78138909 Ry
     estimated scf accuracy    <       2.07141416 Ry

     iteration # 65     ecut=    40.00 Ry     beta=0.70
     CG style diagonalization
     ethr =  4.59E-05,  avg # of iterations = 24.0

     total cpu time spent up to now is     1951.1 secs

     total energy              =   -3356.62140227 Ry
     Harris-Foulkes estimate   =   -3355.41182092 Ry
     estimated scf accuracy    <       0.99964597 Ry

     iteration # 66     ecut=    40.00 Ry     beta=0.70
     CG style diagonalization
     ethr =  4.59E-05,  avg # of iterations = 24.5

     total cpu time spent up to now is     2011.9 secs

     total energy              =   -3364.43716893 Ry
     Harris-Foulkes estimate   =   -3367.18930791 Ry
     estimated scf accuracy    <       3.52718214 Ry

     iteration # 67     ecut=    40.00 Ry     beta=0.70
     CG style diagonalization
     ethr =  4.59E-05,  avg # of iterations = 23.8

     total cpu time spent up to now is     2070.3 secs

     total energy              =   -3353.98932937 Ry
     Harris-Foulkes estimate   =   -3355.01890183 Ry
     estimated scf accuracy    <       3.37896504 Ry

     iteration # 68     ecut=    40.00 Ry     beta=0.70
     CG style diagonalization
     ethr =  4.59E-05,  avg # of iterations = 10.5

     total cpu time spent up to now is     2096.9 secs

     total energy              =   -3353.32405845 Ry
     Harris-Foulkes estimate   =   -3353.33148491 Ry
     estimated scf accuracy    <       0.03065769 Ry

     iteration # 69     ecut=    40.00 Ry     beta=0.70
     CG style diagonalization
     ethr =  1.22E-05,  avg # of iterations = 15.9

     total cpu time spent up to now is     2136.0 secs

     total energy              =   -3353.50053033 Ry
     Harris-Foulkes estimate   =   -3353.22027818 Ry
     estimated scf accuracy    <       1.47298503 Ry

     iteration # 70     ecut=    40.00 Ry     beta=0.70
     CG style diagonalization
     c_bands:  1 eigenvalues not converged
     ethr =  1.22E-05,  avg # of iterations = 25.6

     total cpu time spent up to now is     2199.3 secs

     total energy              =   -3353.59854848 Ry
     Harris-Foulkes estimate   =   -3353.74649714 Ry
     estimated scf accuracy    <       1.93875457 Ry

     iteration # 71     ecut=    40.00 Ry     beta=0.70
     CG style diagonalization
     c_bands:  1 eigenvalues not converged
     ethr =  1.22E-05,  avg # of iterations = 25.6

     total cpu time spent up to now is     2262.5 secs

     total energy              =   -3353.25477043 Ry
     Harris-Foulkes estimate   =   -3353.48086428 Ry
     estimated scf accuracy    <       1.68284644 Ry

     iteration # 72     ecut=    40.00 Ry     beta=0.70
     CG style diagonalization
     ethr =  1.22E-05,  avg # of iterations = 25.6

     total cpu time spent up to now is     2325.5 secs

     total energy              =   -3353.00671952 Ry
     Harris-Foulkes estimate   =   -3353.06004396 Ry
     estimated scf accuracy    <       1.07979808 Ry

     iteration # 73     ecut=    40.00 Ry     beta=0.70
     CG style diagonalization
     ethr =  1.22E-05,  avg # of iterations = 25.5

     total cpu time spent up to now is     2388.0 secs

     total energy              =   -3353.02148636 Ry
     Harris-Foulkes estimate   =   -3353.17849936 Ry
     estimated scf accuracy    <       0.90123063 Ry

     iteration # 74     ecut=    40.00 Ry     beta=0.70
     CG style diagonalization
     c_bands:  1 eigenvalues not converged
     ethr =  1.22E-05,  avg # of iterations = 25.6

     total cpu time spent up to now is     2451.0 secs

     total energy              =   -3353.52195688 Ry
     Harris-Foulkes estimate   =   -3353.59270399 Ry
     estimated scf accuracy    <       0.62679351 Ry

     iteration # 75     ecut=    40.00 Ry     beta=0.70
     CG style diagonalization
     c_bands:  1 eigenvalues not converged
     ethr =  1.22E-05,  avg # of iterations = 25.6

     total cpu time spent up to now is     2514.6 secs

     total energy              =   -3353.92276321 Ry
     Harris-Foulkes estimate   =   -3353.82071171 Ry
     estimated scf accuracy    <       0.44217622 Ry

     iteration # 76     ecut=    40.00 Ry     beta=0.70
     CG style diagonalization
     c_bands:  1 eigenvalues not converged
     ethr =  1.22E-05,  avg # of iterations = 25.5

     total cpu time spent up to now is     2577.8 secs

     total energy              =   -3353.31843145 Ry
     Harris-Foulkes estimate   =   -3353.46877941 Ry
     estimated scf accuracy    <       3.28101841 Ry

     iteration # 77     ecut=    40.00 Ry     beta=0.70
     CG style diagonalization
     ethr =  1.22E-05,  avg # of iterations = 25.5

     total cpu time spent up to now is     2654.4 secs

     total energy              =   -3353.73733072 Ry
     Harris-Foulkes estimate   =   -3353.67246231 Ry
     estimated scf accuracy    <       2.81479201 Ry

     iteration # 78     ecut=    40.00 Ry     beta=0.70
     CG style diagonalization
     ethr =  1.22E-05,  avg # of iterations = 25.5

     total cpu time spent up to now is     2725.6 secs

     total energy              =   -3353.31274575 Ry
     Harris-Foulkes estimate   =   -3353.57852651 Ry
     estimated scf accuracy    <      19.83412269 Ry

     iteration # 79     ecut=    40.00 Ry     beta=0.70
     CG style diagonalization
     c_bands:  1 eigenvalues not converged
     ethr =  1.22E-05,  avg # of iterations = 25.6

     total cpu time spent up to now is     2795.1 secs

     total energy              =   -3353.60075340 Ry
     Harris-Foulkes estimate   =   -3353.72690820 Ry
     estimated scf accuracy    <      16.35824022 Ry

     iteration # 80     ecut=    40.00 Ry     beta=0.70
     CG style diagonalization
     c_bands:  1 eigenvalues not converged
     ethr =  1.22E-05,  avg # of iterations = 25.6

     total cpu time spent up to now is     2858.5 secs

     total energy              =   -3353.57107181 Ry
     Harris-Foulkes estimate   =   -3353.80492095 Ry
     estimated scf accuracy    <      16.97901371 Ry

     iteration # 81     ecut=    40.00 Ry     beta=0.70
     CG style diagonalization
     ethr =  1.22E-05,  avg # of iterations = 25.6

     total cpu time spent up to now is     2922.6 secs

     total energy              =   -3353.79003688 Ry
     Harris-Foulkes estimate   =   -3353.94960293 Ry
     estimated scf accuracy    <      16.32244257 Ry

     iteration # 82     ecut=    40.00 Ry     beta=0.70
     CG style diagonalization
     c_bands:  1 eigenvalues not converged
     ethr =  1.22E-05,  avg # of iterations = 25.7

     total cpu time spent up to now is     2986.0 secs

     total energy              =   -3353.72527241 Ry
     Harris-Foulkes estimate   =   -3354.05161461 Ry
     estimated scf accuracy    <      15.85447849 Ry

     iteration # 83     ecut=    40.00 Ry     beta=0.70
     CG style diagonalization
     c_bands:  1 eigenvalues not converged
     ethr =  1.22E-05,  avg # of iterations = 25.6

     total cpu time spent up to now is     3048.9 secs

     total energy              =   -3354.20397094 Ry
     Harris-Foulkes estimate   =   -3354.26784713 Ry
     estimated scf accuracy    <      15.21973633 Ry

     iteration # 84     ecut=    40.00 Ry     beta=0.70
     CG style diagonalization
     ethr =  1.22E-05,  avg # of iterations = 25.5

     total cpu time spent up to now is     3112.5 secs

     total energy              =   -3354.63646800 Ry
     Harris-Foulkes estimate   =   -3354.31141006 Ry
     estimated scf accuracy    <       2.92623071 Ry

     iteration # 85     ecut=    40.00 Ry     beta=0.70
     CG style diagonalization
     c_bands:  1 eigenvalues not converged
     ethr =  1.22E-05,  avg # of iterations = 25.5

     total cpu time spent up to now is     3175.4 secs

     total energy              =   -3353.85351542 Ry
     Harris-Foulkes estimate   =   -3353.83234659 Ry
     estimated scf accuracy    <       3.34407303 Ry

     iteration # 86     ecut=    40.00 Ry     beta=0.70
     CG style diagonalization
     ethr =  1.22E-05,  avg # of iterations = 25.4

     total cpu time spent up to now is     3238.2 secs

     total energy              =   -3353.68645693 Ry
     Harris-Foulkes estimate   =   -3353.80323995 Ry
     estimated scf accuracy    <       3.37373601 Ry

     iteration # 87     ecut=    40.00 Ry     beta=0.70
     CG style diagonalization
     c_bands:  1 eigenvalues not converged
     ethr =  1.22E-05,  avg # of iterations = 25.5

     total cpu time spent up to now is     3300.8 secs

     total energy              =   -3353.92426606 Ry
     Harris-Foulkes estimate   =   -3353.96603980 Ry
     estimated scf accuracy    <       0.49703199 Ry

     iteration # 88     ecut=    40.00 Ry     beta=0.70
     CG style diagonalization
     c_bands:  1 eigenvalues not converged
     ethr =  1.22E-05,  avg # of iterations = 25.5

     total cpu time spent up to now is     3363.6 secs

     total energy              =   -3354.09670468 Ry
     Harris-Foulkes estimate   =   -3354.12394069 Ry
     estimated scf accuracy    <       0.42838810 Ry

     iteration # 89     ecut=    40.00 Ry     beta=0.70
     CG style diagonalization
     c_bands:  1 eigenvalues not converged
     c_bands:  1 eigenvalues not converged
     ethr =  1.22E-05,  avg # of iterations = 25.5

     total cpu time spent up to now is     3426.4 secs

     total energy              =   -3354.22936215 Ry
     Harris-Foulkes estimate   =   -3354.23587683 Ry
     estimated scf accuracy    <       0.38619941 Ry

     iteration # 90     ecut=    40.00 Ry     beta=0.70
     CG style diagonalization
     c_bands:  1 eigenvalues not converged
     ethr =  1.22E-05,  avg # of iterations = 25.5

     total cpu time spent up to now is     3489.4 secs

     total energy              =   -3354.06194668 Ry
     Harris-Foulkes estimate   =   -3354.26386308 Ry
     estimated scf accuracy    <       2.44052370 Ry

     iteration # 91     ecut=    40.00 Ry     beta=0.70
     CG style diagonalization
     c_bands:  1 eigenvalues not converged
     ethr =  1.22E-05,  avg # of iterations = 25.5

     total cpu time spent up to now is     3552.2 secs

     total energy              =   -3353.82661422 Ry
     Harris-Foulkes estimate   =   -3353.91985680 Ry
     estimated scf accuracy    <       2.12149015 Ry

     iteration # 92     ecut=    40.00 Ry     beta=0.70
     CG style diagonalization
     ethr =  1.22E-05,  avg # of iterations = 25.5

     total cpu time spent up to now is     3615.2 secs

     total energy              =   -3353.83142461 Ry
     Harris-Foulkes estimate   =   -3353.75672384 Ry
     estimated scf accuracy    <       1.96714054 Ry

     iteration # 93     ecut=    40.00 Ry     beta=0.70
     CG style diagonalization
     c_bands:  1 eigenvalues not converged
     ethr =  1.22E-05,  avg # of iterations = 18.2

     total cpu time spent up to now is     3660.1 secs

     total energy              =   -3353.72718491 Ry
     Harris-Foulkes estimate   =   -3353.88886738 Ry
     estimated scf accuracy    <       6.41780028 Ry

     iteration # 94     ecut=    40.00 Ry     beta=0.70
     CG style diagonalization
     ethr =  1.22E-05,  avg # of iterations =  8.4

     total cpu time spent up to now is     3681.2 secs

     total energy              =   -3353.67103550 Ry
     Harris-Foulkes estimate   =   -3353.72762156 Ry
     estimated scf accuracy    <       1.93747887 Ry

     iteration # 95     ecut=    40.00 Ry     beta=0.70
     CG style diagonalization
     c_bands:  1 eigenvalues not converged
     c_bands:  1 eigenvalues not converged
     ethr =  1.22E-05,  avg # of iterations = 25.5

     total cpu time spent up to now is     3744.0 secs

     total energy              =   -3353.63570532 Ry
     Harris-Foulkes estimate   =   -3353.62646282 Ry
     estimated scf accuracy    <       5.99468023 Ry

     iteration # 96     ecut=    40.00 Ry     beta=0.70
     CG style diagonalization
     ethr =  1.22E-05,  avg # of iterations =  3.0

     total cpu time spent up to now is     3751.2 secs

     total energy              =   -3353.62713832 Ry
     Harris-Foulkes estimate   =   -3353.63583088 Ry
     estimated scf accuracy    <       0.07214134 Ry

     iteration # 97     ecut=    40.00 Ry     beta=0.70
     CG style diagonalization
     ethr =  1.22E-05,  avg # of iterations = 23.6

     total cpu time spent up to now is     3809.7 secs

     total energy              =   -3353.48852662 Ry
     Harris-Foulkes estimate   =   -3353.55402731 Ry
     estimated scf accuracy    <       5.87897481 Ry

     iteration # 98     ecut=    40.00 Ry     beta=0.70
     CG style diagonalization
     ethr =  1.22E-05,  avg # of iterations =  3.0

     total cpu time spent up to now is     3816.8 secs

     total energy              =   -3353.47189233 Ry
     Harris-Foulkes estimate   =   -3353.48871606 Ry
     estimated scf accuracy    <       0.04849683 Ry

     iteration # 99     ecut=    40.00 Ry     beta=0.70
     CG style diagonalization
     c_bands:  1 eigenvalues not converged
     ethr =  1.22E-05,  avg # of iterations = 21.8

     total cpu time spent up to now is     3870.4 secs

     total energy              =   -3353.25653468 Ry
     Harris-Foulkes estimate   =   -3353.28399195 Ry
     estimated scf accuracy    <       5.43719719 Ry

     iteration #100     ecut=    40.00 Ry     beta=0.70
     CG style diagonalization
     ethr =  1.22E-05,  avg # of iterations =  3.0

     total cpu time spent up to now is     3878.2 secs

     total energy              =   -3353.25570200 Ry
     Harris-Foulkes estimate   =   -3353.25665988 Ry
     estimated scf accuracy    <       1.52287969 Ry

     End of self-consistent calculation

     convergence NOT achieved after 100 iterations: stopping

     Writing output data file Prototype-La-oP12-Co2Si.save
 
     init_run     :      2.18s CPU      2.64s WALL (       1 calls)
     electrons    :   3359.83s CPU   3871.26s WALL (       2 calls)
     update_pot   :      0.63s CPU      0.64s WALL (       1 calls)
     forces       :      0.95s CPU      1.00s WALL (       1 calls)
     stress       :      2.29s CPU      2.33s WALL (       1 calls)

     Called by init_run:
     wfcinit      :      1.65s CPU      2.10s WALL (       1 calls)
     potinit      :      0.28s CPU      0.28s WALL (       1 calls)

     Called by electrons:
     c_bands      :   3313.86s CPU   3779.18s WALL (     110 calls)
     sum_band     :     44.97s CPU     60.34s WALL (     110 calls)
     v_of_rho     :      0.14s CPU      0.16s WALL (     112 calls)
     mix_rho      :      0.27s CPU      0.30s WALL (     110 calls)

     Called by c_bands:
     init_us_2    :      2.52s CPU      2.99s WALL (    2676 calls)
     ccgdiagg     :   3082.84s CPU   3491.14s WALL (    1919 calls)
     wfcrot       :    229.80s CPU    284.31s WALL (    1919 calls)

     Called by *cgdiagg:
     h_psi        :   2037.99s CPU   2383.12s WALL ( 2364221 calls)
     cdiaghg      :     20.97s CPU     22.67s WALL (    1919 calls)

     Called by h_psi:
     add_vuspsi   :    343.63s CPU    397.77s WALL ( 2364221 calls)

     General routines
     calbec       :    799.51s CPU    830.24s WALL ( 4726547 calls)
     fft          :      0.16s CPU      0.18s WALL (     453 calls)
     fftw         :   1243.29s CPU   1422.11s WALL ( 5503462 calls)
     davcio       :      1.73s CPU      5.67s WALL (    3996 calls)
 
     Parallel routines
     fft_scatter  :    487.29s CPU    565.17s WALL ( 5503915 calls)
 
     PWSCF        :     0h56m CPU        1h 4m WALL

 
   This run was terminated on:  22:38:35  22Mar2018            

=------------------------------------------------------------------------------=
   JOB DONE.
=------------------------------------------------------------------------------=
