
     Program PWSCF v.5.0.2 starts on 22Mar2018 at 21:33:56 

     This program is part of the open-source Quantum ESPRESSO suite
     for quantum simulation of materials; please cite
         "P. Giannozzi et al., J. Phys.:Condens. Matter 21 395502 (2009);
          URL http://www.quantum-espresso.org", 
     in publications or presentations arising from this work. More details at
     http://www.quantum-espresso.org/quote.php

     Parallel version (MPI), running on     4 processors
     R & G space division:  proc/nbgrp/npool/nimage =       4

     Current dimensions of program PWSCF are:
     Max number of different atomic species (ntypx) = 10
     Max number of k-points (npk) =  40000
     Max angular momentum in pseudopotentials (lmaxx) =  3
     Waiting for input...
     Reading input from standard input

     Subspace diagonalization in iterative solution of the eigenvalue problem:
     a serial algorithm will be used

 
     Parallelization info
     --------------------
     sticks:   dense  smooth     PW     G-vecs:    dense   smooth      PW
     Min         256     256     78                 5240     5240     876
     Max         257     257     79                 5243     5243     879
     Sum        1027    1027    313                20965    20965    3509
 


     bravais-lattice index     =            0
     lattice parameter (alat)  =       9.6483  a.u.
     unit-cell volume          =     613.3683 (a.u.)^3
     number of atoms/cell      =            6
     number of atomic types    =            2
     number of electrons       =       108.00
     number of Kohn-Sham states=           65
     kinetic-energy cutoff     =      40.0000  Ry
     charge density cutoff     =     160.0000  Ry
     convergence threshold     =      1.0E-04
     mixing beta               =       0.7000
     number of iterations used =            8  plain     mixing
     Exchange-correlation      = SLA-PZ-NOGX-NOGC ( 1 1 0 0 0)
     EXX-fraction              =        0.00
     nstep                     =           50


     celldm(1)=   9.648295  celldm(2)=   0.000000  celldm(3)=   0.000000
     celldm(4)=   0.000000  celldm(5)=   0.000000  celldm(6)=   0.000000

     crystal axes: (cart. coord. in units of alat)
               a(1) = (   1.000000   0.000000   0.000000 )  
               a(2) = (  -0.500000   0.866025   0.000000 )  
               a(3) = (   0.000000   0.000000   0.788568 )  

     reciprocal axes: (cart. coord. in units 2 pi/alat)
               b(1) = (  1.000000  0.577350  0.000000 )  
               b(2) = (  0.000000  1.154701  0.000000 )  
               b(3) = (  0.000000  0.000000  1.268122 )  


     PseudoPot. # 1 for Tm read from file:
     /home/cwx6513/pp.La/Tm.UPF
     MD5 check sum: 245516e0878b5372ceeb9443ded2c4e1
     Pseudo is Norm-conserving, Zval = 23.0
     Generated in analytical, separable form
     Using radial grid of 1269 points,  6 beta functions with: 
                l(1) =   0
                l(2) =   0
                l(3) =   1
                l(4) =   1
                l(5) =   2
                l(6) =   3

     PseudoPot. # 2 for Eu read from file:
     /home/cwx6513/pp.La/Eu.UPF
     MD5 check sum: 5efdbbfc50c6a10138933a6429836ad2
     Pseudo is Norm-conserving, Zval = 17.0
     Generated in analytical, separable form
     Using radial grid of 1261 points,  6 beta functions with: 
                l(1) =   0
                l(2) =   0
                l(3) =   1
                l(4) =   1
                l(5) =   2
                l(6) =   3

     atomic species   valence    mass     pseudopotential
        Ca            23.00    40.07800     Tm( 1.00)
        Cu            17.00    63.54600     Eu( 1.00)

     24 Sym. Ops., with inversion, found



   Cartesian axes

     site n.     atom                  positions (alat units)
         1           Ca  tau(   1) = (   0.0000000   0.0000000   0.0000000  )
         2           Cu  tau(   2) = (  -0.0000005   0.5773506   0.0000000  )
         3           Cu  tau(   3) = (   0.5000005   0.2886748   0.0000000  )
         4           Cu  tau(   4) = (   0.5000000   0.0000000   0.3942838  )
         5           Cu  tau(   5) = (   0.2500000   0.4330127   0.3942838  )
         6           Cu  tau(   6) = (  -0.2500000   0.4330127   0.3942838  )

     number of k points=   110  gaussian smearing, width (Ry)=  0.1000

     Number of k-points >= 100: set verbosity='high' to print them.

     Dense  grid:    20965 G-vectors     FFT dimensions: (  40,  40,  32)

     Largest allocated arrays     est. size (Mb)     dimensions
        Kohn-Sham Wavefunctions         0.66 Mb     (    670,   65)
        NL pseudopotentials             1.23 Mb     (    670,  120)
        Each V/rho on FFT grid          0.20 Mb     (  12800)
        Each G-vector array             0.04 Mb     (   5243)
        G-vector shells                 0.04 Mb     (   5243)
     Largest temporary arrays     est. size (Mb)     dimensions
        Each subspace H/S matrix        0.06 Mb     (  65,  65)
        Each <psi_i|beta_j> matrix      0.12 Mb     (    120,   65)
        Arrays for rho mixing           1.56 Mb     (  12800,   8)

     Initial potential from superposition of free atoms

     Starting from uniform charge
     Starting wfc are    0 randomized atomic wfcs

     total cpu time spent up to now is        5.6 secs

     Self-consistent Calculation

     iteration #  1     ecut=    40.00 Ry     beta=0.70
     CG style diagonalization
     ethr =  1.00E-02,  avg # of iterations = 20.9

     total cpu time spent up to now is      137.2 secs

     total energy              =   -1033.14014420 Ry
     Harris-Foulkes estimate   =   -1476.08291319 Ry
     estimated scf accuracy    <     552.07396662 Ry

     iteration #  2     ecut=    40.00 Ry     beta=0.70
     CG style diagonalization
     c_bands:  2 eigenvalues not converged
     c_bands:  1 eigenvalues not converged
     c_bands:  1 eigenvalues not converged
     c_bands:  1 eigenvalues not converged
     c_bands:  1 eigenvalues not converged
     c_bands:  1 eigenvalues not converged
     c_bands:  1 eigenvalues not converged
     c_bands:  1 eigenvalues not converged
     c_bands:  2 eigenvalues not converged
     c_bands:  1 eigenvalues not converged
     c_bands:  1 eigenvalues not converged
     c_bands:  1 eigenvalues not converged
     c_bands:  1 eigenvalues not converged
     c_bands:  1 eigenvalues not converged
     c_bands:  1 eigenvalues not converged
     c_bands:  2 eigenvalues not converged
     c_bands:  1 eigenvalues not converged
     c_bands:  2 eigenvalues not converged
     c_bands:  1 eigenvalues not converged
     c_bands:  2 eigenvalues not converged
     c_bands:  1 eigenvalues not converged
     c_bands:  1 eigenvalues not converged
     c_bands:  1 eigenvalues not converged
     c_bands:  1 eigenvalues not converged
     c_bands:  2 eigenvalues not converged
     c_bands:  2 eigenvalues not converged
     c_bands:  1 eigenvalues not converged
     c_bands:  1 eigenvalues not converged
     c_bands:  1 eigenvalues not converged
     c_bands:  1 eigenvalues not converged
     c_bands:  1 eigenvalues not converged
     c_bands:  1 eigenvalues not converged
     c_bands:  1 eigenvalues not converged
     c_bands:  1 eigenvalues not converged
     c_bands:  1 eigenvalues not converged
     c_bands:  1 eigenvalues not converged
     c_bands:  1 eigenvalues not converged
     c_bands:  1 eigenvalues not converged
     c_bands:  1 eigenvalues not converged
     c_bands:  2 eigenvalues not converged
     c_bands:  1 eigenvalues not converged
     c_bands:  1 eigenvalues not converged
     c_bands:  1 eigenvalues not converged
     c_bands:  2 eigenvalues not converged
     c_bands:  1 eigenvalues not converged
     c_bands:  1 eigenvalues not converged
     c_bands:  1 eigenvalues not converged
     c_bands:  1 eigenvalues not converged
     c_bands:  2 eigenvalues not converged
     c_bands:  2 eigenvalues not converged
     c_bands:  1 eigenvalues not converged
     c_bands:  2 eigenvalues not converged
     c_bands:  1 eigenvalues not converged
     c_bands:  1 eigenvalues not converged
     c_bands:  1 eigenvalues not converged
     c_bands:  3 eigenvalues not converged
     ethr =  1.00E-02,  avg # of iterations =  8.5

     total cpu time spent up to now is      197.1 secs

     total energy              =   -1118.50125985 Ry
     Harris-Foulkes estimate   =   -1407.51158495 Ry
     estimated scf accuracy    <     508.88929660 Ry

     iteration #  3     ecut=    40.00 Ry     beta=0.70
     CG style diagonalization
     c_bands:  1 eigenvalues not converged
     c_bands:  1 eigenvalues not converged
     c_bands:  1 eigenvalues not converged
     c_bands:  1 eigenvalues not converged
     c_bands:  1 eigenvalues not converged
     ethr =  1.00E-02,  avg # of iterations =  9.7

     total cpu time spent up to now is      266.4 secs

     total energy              =   -1210.70744533 Ry
     Harris-Foulkes estimate   =   -1257.48932232 Ry
     estimated scf accuracy    <      99.65876594 Ry

     iteration #  4     ecut=    40.00 Ry     beta=0.70
     CG style diagonalization
     ethr =  1.00E-02,  avg # of iterations =  6.5

     total cpu time spent up to now is      312.3 secs

     total energy              =   -1240.01185583 Ry
     Harris-Foulkes estimate   =   -1244.47941926 Ry
     estimated scf accuracy    <      11.38125678 Ry

     iteration #  5     ecut=    40.00 Ry     beta=0.70
     CG style diagonalization
     ethr =  1.00E-02,  avg # of iterations =  3.2

     total cpu time spent up to now is      335.9 secs

     total energy              =   -1240.88496868 Ry
     Harris-Foulkes estimate   =   -1241.62711428 Ry
     estimated scf accuracy    <       1.60144308 Ry

     iteration #  6     ecut=    40.00 Ry     beta=0.70
     CG style diagonalization
     ethr =  1.48E-03,  avg # of iterations =  3.9

     total cpu time spent up to now is      363.5 secs

     total energy              =   -1241.24237279 Ry
     Harris-Foulkes estimate   =   -1241.29478733 Ry
     estimated scf accuracy    <       0.16500661 Ry

     iteration #  7     ecut=    40.00 Ry     beta=0.70
     CG style diagonalization
     c_bands:  1 eigenvalues not converged
     c_bands:  1 eigenvalues not converged
     c_bands:  1 eigenvalues not converged
     ethr =  1.53E-04,  avg # of iterations =  3.9

     total cpu time spent up to now is      392.2 secs

     total energy              =   -1241.24121364 Ry
     Harris-Foulkes estimate   =   -1241.29529496 Ry
     estimated scf accuracy    <       0.12955397 Ry

     iteration #  8     ecut=    40.00 Ry     beta=0.70
     CG style diagonalization
     c_bands:  1 eigenvalues not converged
     c_bands:  1 eigenvalues not converged
     ethr =  1.20E-04,  avg # of iterations =  3.3

     total cpu time spent up to now is      415.8 secs

     total energy              =   -1241.25933102 Ry
     Harris-Foulkes estimate   =   -1241.26169143 Ry
     estimated scf accuracy    <       0.00425789 Ry

     iteration #  9     ecut=    40.00 Ry     beta=0.70
     CG style diagonalization
     c_bands:  1 eigenvalues not converged
     c_bands:  1 eigenvalues not converged
     c_bands:  1 eigenvalues not converged
     c_bands:  1 eigenvalues not converged
     c_bands:  1 eigenvalues not converged
     c_bands:  1 eigenvalues not converged
     c_bands:  1 eigenvalues not converged
     c_bands:  1 eigenvalues not converged
     c_bands:  1 eigenvalues not converged
     c_bands:  1 eigenvalues not converged
     c_bands:  1 eigenvalues not converged
     c_bands:  1 eigenvalues not converged
     c_bands:  1 eigenvalues not converged
     c_bands:  1 eigenvalues not converged
     c_bands:  1 eigenvalues not converged
     c_bands:  1 eigenvalues not converged
     c_bands:  1 eigenvalues not converged
     ethr =  3.94E-06,  avg # of iterations =  4.9

     total cpu time spent up to now is      450.6 secs

     total energy              =   -1241.26169042 Ry
     Harris-Foulkes estimate   =   -1241.26231691 Ry
     estimated scf accuracy    <       0.00093555 Ry

     iteration # 10     ecut=    40.00 Ry     beta=0.70
     CG style diagonalization
     c_bands:  1 eigenvalues not converged
     ethr =  8.66E-07,  avg # of iterations =  3.8

     total cpu time spent up to now is      477.7 secs

     total energy              =   -1241.26201456 Ry
     Harris-Foulkes estimate   =   -1241.26228864 Ry
     estimated scf accuracy    <       0.00063380 Ry

     iteration # 11     ecut=    40.00 Ry     beta=0.70
     CG style diagonalization
     ethr =  5.87E-07,  avg # of iterations =  3.2

     total cpu time spent up to now is      500.5 secs

     End of self-consistent calculation

     Number of k-points >= 100: set verbosity='high' to print the bands.

     the Fermi energy is    34.3441 ev

!    total energy              =   -1241.26210671 Ry
     Harris-Foulkes estimate   =   -1241.26211638 Ry
     estimated scf accuracy    <       0.00001037 Ry

     The total energy is the sum of the following terms:

     one-electron contribution =     -79.16589332 Ry
     hartree contribution      =     150.48511107 Ry
     xc contribution           =    -124.54877089 Ry
     ewald contribution        =   -1187.80489075 Ry
     smearing contrib. (-TS)   =      -0.22766282 Ry

     convergence has been achieved in  11 iterations

     Forces acting on atoms (Ry/au):

     atom    1 type  1   force =     0.00000000    0.00000000    0.00000000
     atom    2 type  2   force =     0.00000000    0.00000000    0.00000000
     atom    3 type  2   force =     0.00000000    0.00000000    0.00000000
     atom    4 type  2   force =     0.00000000    0.00000000    0.00000000
     atom    5 type  2   force =     0.00000000    0.00000000    0.00000000
     atom    6 type  2   force =     0.00000000    0.00000000    0.00000000

     Total force =     0.000000     Total SCF correction =     0.000000


     entering subroutine stress ...

          total   stress  (Ry/bohr**3)                   (kbar)     P= 1627.39
   0.00895834   0.00000000   0.00000000       1317.82      0.00      0.00
   0.00000000   0.00895834   0.00000000          0.00   1317.82      0.00
   0.00000000   0.00000000   0.01527170          0.00      0.00   2246.54


     BFGS Geometry Optimization

     number of scf cycles    =   1
     number of bfgs steps    =   0

     enthalpy new            =   -1241.2621067056 Ry

     new trust radius        =       0.5000000000 bohr
     new conv_thr            =       0.0001000000 Ry

     new unit-cell volume =    757.62323 a.u.^3 (   112.26818 Ang^3 )

CELL_PARAMETERS (alat=  9.64829493)
   1.059213301   0.000000000   0.000000000
  -0.529606651   0.917305627   0.000000000
   0.000000000   0.000000000   0.868168629

ATOMIC_POSITIONS (crystal)
Ca       0.000000000   0.000000000   0.000000000
Cu       0.333333000   0.666667000   0.000000000
Cu       0.666667000   0.333333000   0.000000000
Cu       0.500000000   0.000000000   0.500000000
Cu       0.500000000   0.500000000   0.500000000
Cu       0.000000000   0.500000000   0.500000000



     Writing output data file Prototype-La-hP6-CaCu5.save
     NEW-OLD atomic charge density approx. for the potential
     NEW k-points: (use verbosity='high' to print them)

     total cpu time spent up to now is      507.2 secs

     Self-consistent Calculation

     iteration #  1     ecut=    40.00 Ry     beta=0.70
     CG style diagonalization
     c_bands:  3 eigenvalues not converged
     c_bands:  4 eigenvalues not converged
     c_bands:  1 eigenvalues not converged
     c_bands:  5 eigenvalues not converged
     c_bands:  1 eigenvalues not converged
     c_bands:  4 eigenvalues not converged
     c_bands:  1 eigenvalues not converged
     c_bands:  1 eigenvalues not converged
     c_bands:  2 eigenvalues not converged
     c_bands:  2 eigenvalues not converged
     c_bands:  1 eigenvalues not converged
     ethr =  1.00E-06,  avg # of iterations = 20.2

     total cpu time spent up to now is      632.0 secs

     total energy              =   -1236.82202011 Ry
     Harris-Foulkes estimate   =   -1247.75914114 Ry
     estimated scf accuracy    <      14.06349583 Ry

     iteration #  2     ecut=    40.00 Ry     beta=0.70
     CG style diagonalization
     ethr =  1.00E-02,  avg # of iterations =  3.9

     total cpu time spent up to now is      660.2 secs

     total energy              =   -1239.68389438 Ry
     Harris-Foulkes estimate   =   -1243.82904633 Ry
     estimated scf accuracy    <       7.03121403 Ry

     iteration #  3     ecut=    40.00 Ry     beta=0.70
     CG style diagonalization
     ethr =  6.51E-03,  avg # of iterations =  3.5

     total cpu time spent up to now is      683.3 secs

     total energy              =   -1241.39322702 Ry
     Harris-Foulkes estimate   =   -1242.45088803 Ry
     estimated scf accuracy    <       2.37338521 Ry

     iteration #  4     ecut=    40.00 Ry     beta=0.70
     CG style diagonalization
     ethr =  2.20E-03,  avg # of iterations =  3.3

     total cpu time spent up to now is      706.4 secs

     total energy              =   -1241.83267096 Ry
     Harris-Foulkes estimate   =   -1241.95762358 Ry
     estimated scf accuracy    <       0.32012095 Ry

     iteration #  5     ecut=    40.00 Ry     beta=0.70
     CG style diagonalization
     ethr =  2.96E-04,  avg # of iterations =  3.3

     total cpu time spent up to now is      728.1 secs

     total energy              =   -1241.89736893 Ry
     Harris-Foulkes estimate   =   -1241.89938694 Ry
     estimated scf accuracy    <       0.00459181 Ry

     iteration #  6     ecut=    40.00 Ry     beta=0.70
     CG style diagonalization
     c_bands:  1 eigenvalues not converged
     c_bands:  1 eigenvalues not converged
     c_bands:  1 eigenvalues not converged
     c_bands:  1 eigenvalues not converged
     c_bands:  1 eigenvalues not converged
     c_bands:  1 eigenvalues not converged
     c_bands:  1 eigenvalues not converged
     c_bands:  1 eigenvalues not converged
     ethr =  4.25E-06,  avg # of iterations =  4.3

     total cpu time spent up to now is      759.3 secs

     total energy              =   -1241.89931558 Ry
     Harris-Foulkes estimate   =   -1241.89961409 Ry
     estimated scf accuracy    <       0.00058508 Ry

     iteration #  7     ecut=    40.00 Ry     beta=0.70
     CG style diagonalization
     c_bands:  1 eigenvalues not converged
     ethr =  5.42E-07,  avg # of iterations =  3.5

     total cpu time spent up to now is      783.9 secs

     End of self-consistent calculation

     Number of k-points >= 100: set verbosity='high' to print the bands.

     the Fermi energy is    26.7174 ev

!    total energy              =   -1241.89945991 Ry
     Harris-Foulkes estimate   =   -1241.89946975 Ry
     estimated scf accuracy    <       0.00001225 Ry

     The total energy is the sum of the following terms:

     one-electron contribution =    -190.21734434 Ry
     hartree contribution      =     178.55599971 Ry
     xc contribution           =    -121.96457596 Ry
     ewald contribution        =   -1107.96847030 Ry
     smearing contrib. (-TS)   =      -0.30506902 Ry

     convergence has been achieved in   7 iterations

     Forces acting on atoms (Ry/au):

     atom    1 type  1   force =     0.00000000    0.00000000    0.00000000
     atom    2 type  2   force =     0.00000000    0.00000000    0.00000000
     atom    3 type  2   force =     0.00000000    0.00000000    0.00000000
     atom    4 type  2   force =     0.00000000    0.00000000    0.00000000
     atom    5 type  2   force =     0.00000000    0.00000000    0.00000000
     atom    6 type  2   force =     0.00000000    0.00000000    0.00000000

     Total force =     0.000000     Total SCF correction =     0.000000


     entering subroutine stress ...

          total   stress  (Ry/bohr**3)                   (kbar)     P= -188.62
  -0.00168745   0.00000000   0.00000000       -248.23      0.00      0.00
   0.00000000  -0.00168745   0.00000000          0.00   -248.23      0.00
   0.00000000   0.00000000  -0.00047180          0.00      0.00    -69.40


     number of scf cycles    =   2
     number of bfgs steps    =   1

     enthalpy old            =   -1241.2621067056 Ry
     enthalpy new            =   -1241.8994599104 Ry

     CASE: enthalpy_new < enthalpy_old

     small trust_radius: resetting bfgs history

     new trust radius        =       0.2322343507 bohr
     new conv_thr            =       0.0000010000 Ry

     new unit-cell volume =    686.85111 a.u.^3 (   101.78083 Ang^3 )

CELL_PARAMETERS (alat=  9.64829493)
   1.014529177   0.000000000   0.000000000
  -0.507264588   0.878608040   0.000000000
   0.000000000   0.000000000   0.857928659

ATOMIC_POSITIONS (crystal)
Ca       0.000000000   0.000000000   0.000000000
Cu       0.333333000   0.666667000   0.000000000
Cu       0.666667000   0.333333000   0.000000000
Cu       0.500000000   0.000000000   0.500000000
Cu       0.500000000   0.500000000   0.500000000
Cu       0.000000000   0.500000000   0.500000000



     Writing output data file Prototype-La-hP6-CaCu5.save
     NEW-OLD atomic charge density approx. for the potential
     NEW k-points: (use verbosity='high' to print them)

     total cpu time spent up to now is      790.7 secs

     Self-consistent Calculation

     iteration #  1     ecut=    40.00 Ry     beta=0.70
     CG style diagonalization
     c_bands:  1 eigenvalues not converged
     c_bands:  1 eigenvalues not converged
     c_bands:  2 eigenvalues not converged
     c_bands:  2 eigenvalues not converged
     c_bands:  1 eigenvalues not converged
     c_bands:  3 eigenvalues not converged
     c_bands:  1 eigenvalues not converged
     c_bands:  1 eigenvalues not converged
     c_bands:  2 eigenvalues not converged
     c_bands:  4 eigenvalues not converged
     c_bands:  3 eigenvalues not converged
     c_bands:  2 eigenvalues not converged
     c_bands:  2 eigenvalues not converged
     c_bands:  2 eigenvalues not converged
     c_bands:  3 eigenvalues not converged
     c_bands:  5 eigenvalues not converged
     c_bands:  1 eigenvalues not converged
     c_bands:  4 eigenvalues not converged
     c_bands:  1 eigenvalues not converged
     c_bands:  3 eigenvalues not converged
     c_bands:  5 eigenvalues not converged
     c_bands:  3 eigenvalues not converged
     c_bands:  4 eigenvalues not converged
     c_bands:  5 eigenvalues not converged
     c_bands:  1 eigenvalues not converged
     c_bands:  4 eigenvalues not converged
     c_bands:  5 eigenvalues not converged
     c_bands:  4 eigenvalues not converged
     c_bands:  2 eigenvalues not converged
     c_bands:  4 eigenvalues not converged
     c_bands:  3 eigenvalues not converged
     c_bands:  3 eigenvalues not converged
     c_bands:  2 eigenvalues not converged
     c_bands:  2 eigenvalues not converged
     c_bands:  3 eigenvalues not converged
     c_bands:  1 eigenvalues not converged
     c_bands:  2 eigenvalues not converged
     c_bands:  4 eigenvalues not converged
     c_bands:  5 eigenvalues not converged
     c_bands:  1 eigenvalues not converged
     c_bands:  4 eigenvalues not converged
     c_bands:  3 eigenvalues not converged
     c_bands:  5 eigenvalues not converged
     c_bands:  2 eigenvalues not converged
     c_bands:  2 eigenvalues not converged
     c_bands:  5 eigenvalues not converged
     c_bands:  4 eigenvalues not converged
     c_bands:  2 eigenvalues not converged
     c_bands:  1 eigenvalues not converged
     c_bands:  1 eigenvalues not converged
     c_bands:  3 eigenvalues not converged
     c_bands:  3 eigenvalues not converged
     c_bands:  2 eigenvalues not converged
     c_bands:  1 eigenvalues not converged
     c_bands:  5 eigenvalues not converged
     c_bands:  1 eigenvalues not converged
     c_bands:  5 eigenvalues not converged
     c_bands:  4 eigenvalues not converged
     c_bands:  3 eigenvalues not converged
     ethr =  1.00E-06,  avg # of iterations = 13.2

     total cpu time spent up to now is      874.9 secs

     total energy              =   -1240.71776748 Ry
     Harris-Foulkes estimate   =   -1243.26083901 Ry
     estimated scf accuracy    <       3.24574694 Ry

     iteration #  2     ecut=    40.00 Ry     beta=0.70
     CG style diagonalization
     ethr =  3.01E-03,  avg # of iterations =  3.9

     total cpu time spent up to now is      902.0 secs

     total energy              =   -1241.49969069 Ry
     Harris-Foulkes estimate   =   -1242.25105750 Ry
     estimated scf accuracy    <       1.22846727 Ry

     iteration #  3     ecut=    40.00 Ry     beta=0.70
     CG style diagonalization
     ethr =  1.14E-03,  avg # of iterations =  3.5

     total cpu time spent up to now is      926.3 secs

     total energy              =   -1241.80859143 Ry
     Harris-Foulkes estimate   =   -1241.90730398 Ry
     estimated scf accuracy    <       0.18543937 Ry

     iteration #  4     ecut=    40.00 Ry     beta=0.70
     CG style diagonalization
     c_bands:  1 eigenvalues not converged
     ethr =  1.72E-04,  avg # of iterations =  3.5

     total cpu time spent up to now is      951.0 secs

     total energy              =   -1241.85624841 Ry
     Harris-Foulkes estimate   =   -1241.85772261 Ry
     estimated scf accuracy    <       0.00271481 Ry

     iteration #  5     ecut=    40.00 Ry     beta=0.70
     CG style diagonalization
     c_bands:  1 eigenvalues not converged
     c_bands:  1 eigenvalues not converged
     c_bands:  1 eigenvalues not converged
     c_bands:  1 eigenvalues not converged
     c_bands:  1 eigenvalues not converged
     c_bands:  1 eigenvalues not converged
     c_bands:  1 eigenvalues not converged
     c_bands:  1 eigenvalues not converged
     c_bands:  1 eigenvalues not converged
     c_bands:  1 eigenvalues not converged
     ethr =  2.51E-06,  avg # of iterations =  4.3

     total cpu time spent up to now is      980.5 secs

     total energy              =   -1241.85688414 Ry
     Harris-Foulkes estimate   =   -1241.85785123 Ry
     estimated scf accuracy    <       0.00242715 Ry

     iteration #  6     ecut=    40.00 Ry     beta=0.70
     CG style diagonalization
     ethr =  2.25E-06,  avg # of iterations =  3.2

     total cpu time spent up to now is     1002.9 secs

     total energy              =   -1241.85734232 Ry
     Harris-Foulkes estimate   =   -1241.85741875 Ry
     estimated scf accuracy    <       0.00017751 Ry

     iteration #  7     ecut=    40.00 Ry     beta=0.70
     CG style diagonalization
     ethr =  1.64E-07,  avg # of iterations =  3.5

     total cpu time spent up to now is     1025.8 secs

     total energy              =   -1241.85738196 Ry
     Harris-Foulkes estimate   =   -1241.85738343 Ry
     estimated scf accuracy    <       0.00000261 Ry

     iteration #  8     ecut=    40.00 Ry     beta=0.70
     CG style diagonalization
     ethr =  2.42E-09,  avg # of iterations =  4.6

     total cpu time spent up to now is     1056.2 secs

     End of self-consistent calculation

     Number of k-points >= 100: set verbosity='high' to print the bands.

     the Fermi energy is    30.0723 ev

!    total energy              =   -1241.85738418 Ry
     Harris-Foulkes estimate   =   -1241.85738451 Ry
     estimated scf accuracy    <       0.00000041 Ry

     The total energy is the sum of the following terms:

     one-electron contribution =    -137.56555264 Ry
     hartree contribution      =     164.31338199 Ry
     xc contribution           =    -123.03760633 Ry
     ewald contribution        =   -1145.30584113 Ry
     smearing contrib. (-TS)   =      -0.26176606 Ry

     convergence has been achieved in   8 iterations

     Forces acting on atoms (Ry/au):

     atom    1 type  1   force =     0.00000000    0.00000000    0.00000000
     atom    2 type  2   force =     0.00000000    0.00000000    0.00000000
     atom    3 type  2   force =     0.00000000    0.00000000    0.00000000
     atom    4 type  2   force =     0.00000000    0.00000000    0.00000000
     atom    5 type  2   force =     0.00000000    0.00000000    0.00000000
     atom    6 type  2   force =     0.00000000    0.00000000    0.00000000

     Total force =     0.000000     Total SCF correction =     0.000000


     entering subroutine stress ...

          total   stress  (Ry/bohr**3)                   (kbar)     P=  465.94
   0.00305765   0.00000000   0.00000000        449.80      0.00      0.00
   0.00000000   0.00305765   0.00000000          0.00    449.80      0.00
   0.00000000   0.00000000   0.00338682          0.00      0.00    498.22


     number of scf cycles    =   3
     number of bfgs steps    =   2

     enthalpy old            =   -1241.8994599104 Ry
     enthalpy new            =   -1241.8573841840 Ry

     CASE: enthalpy_new > enthalpy_old

     new trust radius        =       0.0839247708 bohr

     trust_radius < trust_radius_min

     resetting bfgs history

     Message from routine bfgs:
     history already reset at previous step: stopping
     new conv_thr            =       0.0000010000 Ry

     new unit-cell volume =    685.49715 a.u.^3 (   101.58020 Ang^3 )

CELL_PARAMETERS (alat=  9.64829493)
   1.013995841   0.000000000   0.000000000
  -0.506997921   0.878146158   0.000000000
   0.000000000   0.000000000   0.857138425

ATOMIC_POSITIONS (crystal)
Ca       0.000000000   0.000000000   0.000000000
Cu       0.333333000   0.666667000   0.000000000
Cu       0.666667000   0.333333000   0.000000000
Cu       0.500000000   0.000000000   0.500000000
Cu       0.500000000   0.500000000   0.500000000
Cu       0.000000000   0.500000000   0.500000000



     Writing output data file Prototype-La-hP6-CaCu5.save
     NEW-OLD atomic charge density approx. for the potential
     NEW k-points: (use verbosity='high' to print them)

     total cpu time spent up to now is     1063.0 secs

     Self-consistent Calculation

     iteration #  1     ecut=    40.00 Ry     beta=0.70
     CG style diagonalization
     ethr =  1.00E-06,  avg # of iterations =  4.1

     total cpu time spent up to now is     1090.1 secs

     total energy              =   -1241.85259246 Ry
     Harris-Foulkes estimate   =   -1241.85347266 Ry
     estimated scf accuracy    <       0.00112863 Ry

     iteration #  2     ecut=    40.00 Ry     beta=0.70
     CG style diagonalization
     ethr =  1.05E-06,  avg # of iterations =  3.8

     total cpu time spent up to now is     1116.5 secs

     total energy              =   -1241.85284887 Ry
     Harris-Foulkes estimate   =   -1241.85306159 Ry
     estimated scf accuracy    <       0.00033310 Ry

     iteration #  3     ecut=    40.00 Ry     beta=0.70
     CG style diagonalization
     ethr =  3.08E-07,  avg # of iterations =  3.4

     total cpu time spent up to now is     1139.6 secs

     total energy              =   -1241.85291459 Ry
     Harris-Foulkes estimate   =   -1241.85301422 Ry
     estimated scf accuracy    <       0.00025498 Ry

     iteration #  4     ecut=    40.00 Ry     beta=0.70
     CG style diagonalization
     ethr =  2.36E-07,  avg # of iterations =  3.2

     total cpu time spent up to now is     1160.0 secs

     total energy              =   -1241.85296097 Ry
     Harris-Foulkes estimate   =   -1241.85296641 Ry
     estimated scf accuracy    <       0.00001153 Ry

     iteration #  5     ecut=    40.00 Ry     beta=0.70
     CG style diagonalization
     ethr =  1.07E-08,  avg # of iterations =  3.5

     total cpu time spent up to now is     1182.5 secs

     total energy              =   -1241.85296425 Ry
     Harris-Foulkes estimate   =   -1241.85296478 Ry
     estimated scf accuracy    <       0.00000106 Ry

     iteration #  6     ecut=    40.00 Ry     beta=0.70
     CG style diagonalization
     ethr =  9.78E-10,  avg # of iterations =  3.3

     total cpu time spent up to now is     1205.9 secs

     End of self-consistent calculation

     Number of k-points >= 100: set verbosity='high' to print the bands.

     the Fermi energy is    30.1428 ev

!    total energy              =   -1241.85296441 Ry
     Harris-Foulkes estimate   =   -1241.85296445 Ry
     estimated scf accuracy    <       0.00000005 Ry

     The total energy is the sum of the following terms:

     one-electron contribution =    -136.52256901 Ry
     hartree contribution      =     164.04595804 Ry
     xc contribution           =    -123.06111916 Ry
     ewald contribution        =   -1146.05428568 Ry
     smearing contrib. (-TS)   =      -0.26094859 Ry

     convergence has been achieved in   6 iterations

     Forces acting on atoms (Ry/au):

     atom    1 type  1   force =     0.00000000    0.00000000    0.00000000
     atom    2 type  2   force =     0.00000000    0.00000000    0.00000000
     atom    3 type  2   force =     0.00000000    0.00000000    0.00000000
     atom    4 type  2   force =     0.00000000    0.00000000    0.00000000
     atom    5 type  2   force =     0.00000000    0.00000000    0.00000000
     atom    6 type  2   force =     0.00000000    0.00000000    0.00000000

     Total force =     0.000000     Total SCF correction =     0.000000


     entering subroutine stress ...

          total   stress  (Ry/bohr**3)                   (kbar)     P=  481.16
   0.00314706   0.00000000   0.00000000        462.95      0.00      0.00
   0.00000000   0.00314706   0.00000000          0.00    462.95      0.00
   0.00000000   0.00000000   0.00351838          0.00      0.00    517.57


     The maximum number of steps has been reached.

     End of BFGS Geometry Optimization
Begin final coordinates
     new unit-cell volume =    685.49715 a.u.^3 (   101.58020 Ang^3 )

CELL_PARAMETERS (alat=  9.64829493)
   1.013995841   0.000000000   0.000000000
  -0.506997921   0.878146158   0.000000000
   0.000000000   0.000000000   0.857138425

ATOMIC_POSITIONS (crystal)
Ca       0.000000000   0.000000000   0.000000000
Cu       0.333333000   0.666667000   0.000000000
Cu       0.666667000   0.333333000   0.000000000
Cu       0.500000000   0.000000000   0.500000000
Cu       0.500000000   0.500000000   0.500000000
Cu       0.000000000   0.500000000   0.500000000
End final coordinates



     A final scf calculation at the relaxed structure.
     The G-vectors are recalculated for the final unit cell
     Results may differ from those at the preceding step.
 
     Parallelization info
     --------------------
     sticks:   dense  smooth     PW     G-vecs:    dense   smooth      PW
     Min         261     261     78                 5867     5867     960
     Max         262     262     79                 5868     5868     963
     Sum        1045    1045    313                23469    23469    3847
 


     bravais-lattice index     =            0
     lattice parameter (alat)  =       9.6483  a.u.
     unit-cell volume          =     685.4972 (a.u.)^3
     number of atoms/cell      =            6
     number of atomic types    =            2
     number of electrons       =       108.00
     number of Kohn-Sham states=           65
     kinetic-energy cutoff     =      40.0000  Ry
     charge density cutoff     =     160.0000  Ry
     convergence threshold     =      1.0E-06
     mixing beta               =       0.7000
     number of iterations used =            8  plain     mixing
     Exchange-correlation      = SLA-PZ-NOGX-NOGC ( 1 1 0 0 0)
     EXX-fraction              =        0.00

     celldm(1)=   9.648295  celldm(2)=   0.000000  celldm(3)=   0.000000
     celldm(4)=   0.000000  celldm(5)=   0.000000  celldm(6)=   0.000000

     crystal axes: (cart. coord. in units of alat)
               a(1) = (   1.013996   0.000000   0.000000 )  
               a(2) = (  -0.506998   0.878146   0.000000 )  
               a(3) = (   0.000000   0.000000   0.857138 )  

     reciprocal axes: (cart. coord. in units 2 pi/alat)
               b(1) = (  0.986197  0.569381  0.000000 )  
               b(2) = (  0.000000  1.138763  0.000000 )  
               b(3) = (  0.000000  0.000000  1.166673 )  


     PseudoPot. # 1 for Tm read from file:
     /home/cwx6513/pp.La/Tm.UPF
     MD5 check sum: 245516e0878b5372ceeb9443ded2c4e1
     Pseudo is Norm-conserving, Zval = 23.0
     Generated in analytical, separable form
     Using radial grid of 1269 points,  6 beta functions with: 
                l(1) =   0
                l(2) =   0
                l(3) =   1
                l(4) =   1
                l(5) =   2
                l(6) =   3

     PseudoPot. # 2 for Eu read from file:
     /home/cwx6513/pp.La/Eu.UPF
     MD5 check sum: 5efdbbfc50c6a10138933a6429836ad2
     Pseudo is Norm-conserving, Zval = 17.0
     Generated in analytical, separable form
     Using radial grid of 1261 points,  6 beta functions with: 
                l(1) =   0
                l(2) =   0
                l(3) =   1
                l(4) =   1
                l(5) =   2
                l(6) =   3

     atomic species   valence    mass     pseudopotential
        Ca            23.00    40.07800     Tm( 1.00)
        Cu            17.00    63.54600     Eu( 1.00)

     24 Sym. Ops., with inversion, found



   Cartesian axes

     site n.     atom                  positions (alat units)
         1           Ca  tau(   1) = (   0.0000000   0.0000000   0.0000000  )
         2           Cu  tau(   2) = (  -0.0000005   0.5854311   0.0000000  )
         3           Cu  tau(   3) = (   0.5069984   0.2927151   0.0000000  )
         4           Cu  tau(   4) = (   0.5069979   0.0000000   0.4285692  )
         5           Cu  tau(   5) = (   0.2534990   0.4390731   0.4285692  )
         6           Cu  tau(   6) = (  -0.2534990   0.4390731   0.4285692  )

     number of k points=   110  gaussian smearing, width (Ry)=  0.1000

     Number of k-points >= 100: set verbosity='high' to print them.

     Dense  grid:    23469 G-vectors     FFT dimensions: (  40,  40,  36)

     Largest allocated arrays     est. size (Mb)     dimensions
        Kohn-Sham Wavefunctions         0.74 Mb     (    750,   65)
        NL pseudopotentials             1.37 Mb     (    750,  120)
        Each V/rho on FFT grid          0.22 Mb     (  14400)
        Each G-vector array             0.04 Mb     (   5867)
        G-vector shells                 0.01 Mb     (   1048)
     Largest temporary arrays     est. size (Mb)     dimensions
        Each subspace H/S matrix        0.06 Mb     (  65,  65)
        Each <psi_i|beta_j> matrix      0.12 Mb     (    120,   65)
        Arrays for rho mixing           1.76 Mb     (  14400,   8)

     Initial potential from superposition of free atoms

     Starting from uniform charge
     Starting wfc are    0 randomized atomic wfcs

     Writing output data file Prototype-La-hP6-CaCu5.save

     total cpu time spent up to now is     1220.7 secs

     Self-consistent Calculation

     iteration #  1     ecut=    40.00 Ry     beta=0.70
     CG style diagonalization
     c_bands:  1 eigenvalues not converged
     c_bands:  2 eigenvalues not converged
     c_bands:  5 eigenvalues not converged
     c_bands:  1 eigenvalues not converged
     c_bands:  1 eigenvalues not converged
     c_bands:  1 eigenvalues not converged
     c_bands:  1 eigenvalues not converged
     c_bands:  2 eigenvalues not converged
     c_bands:  3 eigenvalues not converged
     c_bands:  1 eigenvalues not converged
     c_bands:  1 eigenvalues not converged
     c_bands:  4 eigenvalues not converged
     ethr =  1.00E-06,  avg # of iterations = 51.6

     total cpu time spent up to now is     1649.6 secs

     total energy              =   -1024.81981459 Ry
     Harris-Foulkes estimate   =   -1504.97723781 Ry
     estimated scf accuracy    <     597.88658297 Ry

     iteration #  2     ecut=    40.00 Ry     beta=0.70
     CG style diagonalization
     c_bands:  1 eigenvalues not converged
     c_bands:  1 eigenvalues not converged
     c_bands:  2 eigenvalues not converged
     c_bands:  2 eigenvalues not converged
     c_bands:  1 eigenvalues not converged
     c_bands:  1 eigenvalues not converged
     c_bands:  2 eigenvalues not converged
     c_bands:  2 eigenvalues not converged
     c_bands:  1 eigenvalues not converged
     c_bands:  1 eigenvalues not converged
     c_bands:  1 eigenvalues not converged
     c_bands:  2 eigenvalues not converged
     c_bands:  2 eigenvalues not converged
     c_bands:  2 eigenvalues not converged
     c_bands:  1 eigenvalues not converged
     c_bands:  1 eigenvalues not converged
     c_bands:  1 eigenvalues not converged
     c_bands:  1 eigenvalues not converged
     c_bands:  2 eigenvalues not converged
     c_bands:  2 eigenvalues not converged
     c_bands:  1 eigenvalues not converged
     c_bands:  2 eigenvalues not converged
     c_bands:  1 eigenvalues not converged
     c_bands:  3 eigenvalues not converged
     c_bands:  2 eigenvalues not converged
     c_bands:  3 eigenvalues not converged
     c_bands:  3 eigenvalues not converged
     c_bands:  1 eigenvalues not converged
     c_bands:  2 eigenvalues not converged
     c_bands:  1 eigenvalues not converged
     c_bands:  2 eigenvalues not converged
     c_bands:  2 eigenvalues not converged
     c_bands:  1 eigenvalues not converged
     c_bands:  2 eigenvalues not converged
     c_bands:  2 eigenvalues not converged
     c_bands:  1 eigenvalues not converged
     c_bands:  2 eigenvalues not converged
     c_bands:  2 eigenvalues not converged
     c_bands:  1 eigenvalues not converged
     c_bands:  2 eigenvalues not converged
     c_bands:  3 eigenvalues not converged
     c_bands:  1 eigenvalues not converged
     c_bands:  1 eigenvalues not converged
     c_bands:  1 eigenvalues not converged
     c_bands:  3 eigenvalues not converged
     c_bands:  1 eigenvalues not converged
     c_bands:  2 eigenvalues not converged
     c_bands:  1 eigenvalues not converged
     c_bands:  2 eigenvalues not converged
     c_bands:  3 eigenvalues not converged
     c_bands:  1 eigenvalues not converged
     c_bands:  3 eigenvalues not converged
     c_bands:  1 eigenvalues not converged
     c_bands:  1 eigenvalues not converged
     c_bands:  2 eigenvalues not converged
     c_bands:  1 eigenvalues not converged
     c_bands:  1 eigenvalues not converged
     c_bands:  1 eigenvalues not converged
     c_bands:  1 eigenvalues not converged
     c_bands:  1 eigenvalues not converged
     c_bands:  2 eigenvalues not converged
     c_bands:  3 eigenvalues not converged
     c_bands:  2 eigenvalues not converged
     ethr =  1.00E-02,  avg # of iterations =  8.5

     total cpu time spent up to now is     2259.7 secs

     total energy              =   -1115.10043054 Ry
     Harris-Foulkes estimate   =   -1414.00347234 Ry
     estimated scf accuracy    <     518.79658563 Ry

     iteration #  3     ecut=    40.00 Ry     beta=0.70
     CG style diagonalization
     c_bands:  1 eigenvalues not converged
     c_bands:  1 eigenvalues not converged
     c_bands:  1 eigenvalues not converged
     c_bands:  1 eigenvalues not converged
     c_bands:  1 eigenvalues not converged
     c_bands:  1 eigenvalues not converged
     c_bands:  1 eigenvalues not converged
     c_bands:  1 eigenvalues not converged
     c_bands:  1 eigenvalues not converged
     ethr =  1.00E-02,  avg # of iterations =  9.9

     total cpu time spent up to now is     3012.8 secs

     total energy              =   -1201.98700874 Ry
     Harris-Foulkes estimate   =   -1263.67497140 Ry
     estimated scf accuracy    <     140.86703301 Ry

     iteration #  4     ecut=    40.00 Ry     beta=0.70
     CG style diagonalization
     c_bands:  1 eigenvalues not converged
     c_bands:  1 eigenvalues not converged
     c_bands:  1 eigenvalues not converged
     c_bands:  1 eigenvalues not converged
     c_bands:  1 eigenvalues not converged
     ethr =  1.00E-02,  avg # of iterations =  7.4

     total cpu time spent up to now is     3074.1 secs

     total energy              =   -1241.13817147 Ry
     Harris-Foulkes estimate   =   -1247.07842810 Ry
     estimated scf accuracy    <      18.90435069 Ry

     iteration #  5     ecut=    40.00 Ry     beta=0.70
     CG style diagonalization
     ethr =  1.00E-02,  avg # of iterations =  3.4

     total cpu time spent up to now is     3097.3 secs

     total energy              =   -1241.69006713 Ry
     Harris-Foulkes estimate   =   -1243.72155529 Ry
     estimated scf accuracy    <       4.69070591 Ry

     iteration #  6     ecut=    40.00 Ry     beta=0.70
     CG style diagonalization
     ethr =  4.34E-03,  avg # of iterations =  3.4

     total cpu time spent up to now is     3123.2 secs

     total energy              =   -1242.23050976 Ry
     Harris-Foulkes estimate   =   -1242.31826694 Ry
     estimated scf accuracy    <       0.38116196 Ry

     iteration #  7     ecut=    40.00 Ry     beta=0.70
     CG style diagonalization
     c_bands:  1 eigenvalues not converged
     c_bands:  1 eigenvalues not converged
     c_bands:  1 eigenvalues not converged
     c_bands:  1 eigenvalues not converged
     c_bands:  1 eigenvalues not converged
     c_bands:  1 eigenvalues not converged
     c_bands:  1 eigenvalues not converged
     c_bands:  1 eigenvalues not converged
     ethr =  3.53E-04,  avg # of iterations =  4.0

     total cpu time spent up to now is     3153.5 secs

     total energy              =   -1242.24348548 Ry
     Harris-Foulkes estimate   =   -1242.30005041 Ry
     estimated scf accuracy    <       0.15808104 Ry

     iteration #  8     ecut=    40.00 Ry     beta=0.70
     CG style diagonalization
     c_bands:  1 eigenvalues not converged
     c_bands:  1 eigenvalues not converged
     c_bands:  1 eigenvalues not converged
     ethr =  1.46E-04,  avg # of iterations =  3.3

     total cpu time spent up to now is     3180.2 secs

     total energy              =   -1242.26152364 Ry
     Harris-Foulkes estimate   =   -1242.26628251 Ry
     estimated scf accuracy    <       0.00940676 Ry

     iteration #  9     ecut=    40.00 Ry     beta=0.70
     CG style diagonalization
     c_bands:  1 eigenvalues not converged
     c_bands:  1 eigenvalues not converged
     c_bands:  1 eigenvalues not converged
     c_bands:  1 eigenvalues not converged
     c_bands:  1 eigenvalues not converged
     c_bands:  1 eigenvalues not converged
     c_bands:  1 eigenvalues not converged
     c_bands:  1 eigenvalues not converged
     c_bands:  1 eigenvalues not converged
     c_bands:  1 eigenvalues not converged
     c_bands:  1 eigenvalues not converged
     ethr =  8.71E-06,  avg # of iterations =  4.7

     total cpu time spent up to now is     3216.2 secs

     total energy              =   -1242.26606172 Ry
     Harris-Foulkes estimate   =   -1242.26647201 Ry
     estimated scf accuracy    <       0.00077078 Ry

     iteration # 10     ecut=    40.00 Ry     beta=0.70
     CG style diagonalization
     c_bands:  1 eigenvalues not converged
     c_bands:  1 eigenvalues not converged
     c_bands:  1 eigenvalues not converged
     c_bands:  1 eigenvalues not converged
     c_bands:  1 eigenvalues not converged
     ethr =  7.14E-07,  avg # of iterations =  4.0

     total cpu time spent up to now is     3245.3 secs

     total energy              =   -1242.26636846 Ry
     Harris-Foulkes estimate   =   -1242.26651541 Ry
     estimated scf accuracy    <       0.00038804 Ry

     iteration # 11     ecut=    40.00 Ry     beta=0.70
     CG style diagonalization
     ethr =  3.59E-07,  avg # of iterations =  3.1

     total cpu time spent up to now is     3267.9 secs

     total energy              =   -1242.26640520 Ry
     Harris-Foulkes estimate   =   -1242.26641630 Ry
     estimated scf accuracy    <       0.00002410 Ry

     iteration # 12     ecut=    40.00 Ry     beta=0.70
     CG style diagonalization
     ethr =  2.23E-08,  avg # of iterations =  3.9

     total cpu time spent up to now is     3297.5 secs

     total energy              =   -1242.26641509 Ry
     Harris-Foulkes estimate   =   -1242.26641557 Ry
     estimated scf accuracy    <       0.00000155 Ry

     iteration # 13     ecut=    40.00 Ry     beta=0.70
     CG style diagonalization
     ethr =  1.43E-09,  avg # of iterations =  3.9

     total cpu time spent up to now is     3327.6 secs

     End of self-consistent calculation

     Number of k-points >= 100: set verbosity='high' to print the bands.

     the Fermi energy is    30.1292 ev

!    total energy              =   -1242.26641541 Ry
     Harris-Foulkes estimate   =   -1242.26641560 Ry
     estimated scf accuracy    <       0.00000021 Ry

     The total energy is the sum of the following terms:

     one-electron contribution =    -137.12571500 Ry
     hartree contribution      =     164.27954712 Ry
     xc contribution           =    -123.10469236 Ry
     ewald contribution        =   -1146.05428564 Ry
     smearing contrib. (-TS)   =      -0.26126954 Ry

     convergence has been achieved in  13 iterations

     Forces acting on atoms (Ry/au):

     atom    1 type  1   force =     0.00000000    0.00000000    0.00000000
     atom    2 type  2   force =     0.00000000    0.00000000    0.00000000
     atom    3 type  2   force =     0.00000000    0.00000000    0.00000000
     atom    4 type  2   force =     0.00000000    0.00000000    0.00000000
     atom    5 type  2   force =     0.00000000    0.00000000    0.00000000
     atom    6 type  2   force =     0.00000000    0.00000000    0.00000000

     Total force =     0.000000     Total SCF correction =     0.000000


     entering subroutine stress ...

          total   stress  (Ry/bohr**3)                   (kbar)     P=  699.35
   0.00415933   0.00000000   0.00000000        611.86      0.00      0.00
   0.00000000   0.00415933   0.00000000          0.00    611.86      0.00
   0.00000000   0.00000000   0.00594355          0.00      0.00    874.33


     Writing output data file Prototype-La-hP6-CaCu5.save
 
     init_run     :     10.41s CPU     13.14s WALL (       2 calls)
     electrons    :   2327.84s CPU   3286.82s WALL (       5 calls)
     update_pot   :      1.40s CPU      1.42s WALL (       3 calls)
     forces       :      7.32s CPU      7.88s WALL (       5 calls)
     stress       :     19.01s CPU     19.56s WALL (       5 calls)

     Called by init_run:
     wfcinit      :      9.89s CPU     12.60s WALL (       2 calls)
     potinit      :      0.22s CPU      0.23s WALL (       2 calls)

     Called by electrons:
     c_bands      :   2245.54s CPU   3151.63s WALL (      45 calls)
     sum_band     :     81.56s CPU    120.17s WALL (      45 calls)
     v_of_rho     :      0.06s CPU      0.09s WALL (      50 calls)
     mix_rho      :      0.06s CPU      0.07s WALL (      45 calls)

     Called by c_bands:
     init_us_2    :      4.49s CPU      6.27s WALL (   11220 calls)
     ccgdiagg     :   1988.42s CPU   2775.32s WALL (    5417 calls)
     wfcrot       :    261.85s CPU    370.66s WALL (    5527 calls)

     Called by *cgdiagg:
     h_psi        :   1511.58s CPU   2110.09s WALL ( 1689454 calls)
     cdiaghg      :     13.84s CPU     16.00s WALL (    5527 calls)

     Called by h_psi:
     add_vuspsi   :    103.04s CPU    145.30s WALL ( 1689454 calls)

     General routines
     calbec       :    428.59s CPU    565.84s WALL ( 3374481 calls)
     fft          :      0.09s CPU      0.12s WALL (     223 calls)
     fftw         :   1136.83s CPU   1587.20s WALL ( 4408114 calls)
     davcio       :      3.88s CPU     16.78s WALL (   16170 calls)
 
     Parallel routines
     fft_scatter  :    688.68s CPU   1002.47s WALL ( 4408337 calls)
 
     PWSCF        : 39m27.03s CPU    55m33.50s WALL

 
   This run was terminated on:  22:29:29  22Mar2018            

=------------------------------------------------------------------------------=
   JOB DONE.
=------------------------------------------------------------------------------=
