
     Program PWSCF v.5.0.2 starts on 22Mar2018 at 21:37: 6 

     This program is part of the open-source Quantum ESPRESSO suite
     for quantum simulation of materials; please cite
         "P. Giannozzi et al., J. Phys.:Condens. Matter 21 395502 (2009);
          URL http://www.quantum-espresso.org", 
     in publications or presentations arising from this work. More details at
     http://www.quantum-espresso.org/quote.php

     Parallel version (MPI), running on     4 processors
     R & G space division:  proc/nbgrp/npool/nimage =       4

     Current dimensions of program PWSCF are:
     Max number of different atomic species (ntypx) = 10
     Max number of k-points (npk) =  40000
     Max angular momentum in pseudopotentials (lmaxx) =  3
     Waiting for input...
     Reading input from standard input

     Subspace diagonalization in iterative solution of the eigenvalue problem:
     a serial algorithm will be used

 
     Parallelization info
     --------------------
     sticks:   dense  smooth     PW     G-vecs:    dense   smooth      PW
     Min         207     207     61                 7381     7381    1191
     Max         208     208     62                 7386     7386    1192
     Sum         829     829    247                29529    29529    4767
 


     bravais-lattice index     =            0
     lattice parameter (alat)  =       7.0151  a.u.
     unit-cell volume          =     862.2778 (a.u.)^3
     number of atoms/cell      =           12
     number of atomic types    =            2
     number of electrons       =       260.00
     number of Kohn-Sham states=          156
     kinetic-energy cutoff     =      40.0000  Ry
     charge density cutoff     =     160.0000  Ry
     convergence threshold     =      1.0E-04
     mixing beta               =       0.7000
     number of iterations used =            8  plain     mixing
     Exchange-correlation      = SLA-PZ-NOGX-NOGC ( 1 1 0 0 0)
     EXX-fraction              =        0.00
     nstep                     =           50


     celldm(1)=   7.015105  celldm(2)=   0.000000  celldm(3)=   0.000000
     celldm(4)=   0.000000  celldm(5)=   0.000000  celldm(6)=   0.000000

     crystal axes: (cart. coord. in units of alat)
               a(1) = (   1.000000   0.000000   0.000000 )  
               a(2) = (   0.000000   1.315963   0.000000 )  
               a(3) = (   0.000000   0.000000   1.898020 )  

     reciprocal axes: (cart. coord. in units 2 pi/alat)
               b(1) = (  1.000000  0.000000  0.000000 )  
               b(2) = (  0.000000  0.759900  0.000000 )  
               b(3) = (  0.000000  0.000000  0.526865 )  


     PseudoPot. # 1 for Tm read from file:
     /home/cwx6513/pp.La/Tm.UPF
     MD5 check sum: 245516e0878b5372ceeb9443ded2c4e1
     Pseudo is Norm-conserving, Zval = 23.0
     Generated in analytical, separable form
     Using radial grid of 1269 points,  6 beta functions with: 
                l(1) =   0
                l(2) =   0
                l(3) =   1
                l(4) =   1
                l(5) =   2
                l(6) =   3

     PseudoPot. # 2 for Tb read from file:
     /home/cwx6513/pp.La/Tb.UPF
     MD5 check sum: 3d6088a3f0cf7fd2e110c43f7f8e95c2
     Pseudo is Norm-conserving, Zval = 19.0
     Generated in analytical, separable form
     Using radial grid of 1263 points,  6 beta functions with: 
                l(1) =   0
                l(2) =   0
                l(3) =   1
                l(4) =   1
                l(5) =   2
                l(6) =   3

     atomic species   valence    mass     pseudopotential
        Co            23.00    58.93320     Tm( 1.00)
        Si            19.00    28.08550     Tb( 1.00)

      8 Sym. Ops., with inversion, found ( 6 have fractional translation)



   Cartesian axes

     site n.     atom                  positions (alat units)
         1           Co  tau(   1) = (   0.7500000   1.0875135   0.8270358  )
         2           Co  tau(   2) = (   0.2500000   0.2284499   1.0709846  )
         3           Co  tau(   3) = (   0.7500000   0.4295318   0.1219744  )
         4           Co  tau(   4) = (   0.2500000   0.8864316   1.7760460  )
         5           Co  tau(   5) = (   0.2500000   0.7067855   0.5358966  )
         6           Co  tau(   6) = (   0.7500000   0.6091779   1.3621238  )
         7           Co  tau(   7) = (   0.2500000   0.0488038   0.4131136  )
         8           Co  tau(   8) = (   0.7500000   1.2671596   1.4849068  )
         9           Si  tau(   9) = (   0.2500000   0.2669484   1.6960710  )
        10           Si  tau(  10) = (   0.7500000   1.0490149   0.2019494  )
        11           Si  tau(  11) = (   0.2500000   0.9249301   1.1509596  )
        12           Si  tau(  12) = (   0.7500000   0.3910333   0.7470608  )

     number of k points=    12  gaussian smearing, width (Ry)=  0.1000
                       cart. coord. in units 2pi/alat
        k(    1) = (   0.0000000   0.0000000   0.0000000), wk =   0.0833333
        k(    2) = (   0.0000000   0.0000000   0.1317162), wk =   0.1666667
        k(    3) = (   0.0000000   0.0000000  -0.2634324), wk =   0.0833333
        k(    4) = (   0.0000000   0.2532999   0.0000000), wk =   0.1666667
        k(    5) = (   0.0000000   0.2532999   0.1317162), wk =   0.3333333
        k(    6) = (   0.0000000   0.2532999  -0.2634324), wk =   0.1666667
        k(    7) = (  -0.5000000   0.0000000   0.0000000), wk =   0.0833333
        k(    8) = (  -0.5000000   0.0000000   0.1317162), wk =   0.1666667
        k(    9) = (  -0.5000000   0.0000000  -0.2634324), wk =   0.0833333
        k(   10) = (  -0.5000000   0.2532999   0.0000000), wk =   0.1666667
        k(   11) = (  -0.5000000   0.2532999   0.1317162), wk =   0.3333333
        k(   12) = (  -0.5000000   0.2532999  -0.2634324), wk =   0.1666667

     Dense  grid:    29529 G-vectors     FFT dimensions: (  30,  40,  54)

     Largest allocated arrays     est. size (Mb)     dimensions
        Kohn-Sham Wavefunctions         2.19 Mb     (    922,  156)
        NL pseudopotentials             3.38 Mb     (    922,  240)
        Each V/rho on FFT grid          0.26 Mb     (  16800)
        Each G-vector array             0.06 Mb     (   7386)
        G-vector shells                 0.06 Mb     (   7386)
     Largest temporary arrays     est. size (Mb)     dimensions
        Each subspace H/S matrix        0.37 Mb     ( 156, 156)
        Each <psi_i|beta_j> matrix      0.57 Mb     (    240,  156)
        Arrays for rho mixing           2.05 Mb     (  16800,   8)

     Initial potential from superposition of free atoms

     Starting from uniform charge
     Starting wfc are    0 randomized atomic wfcs

     total cpu time spent up to now is        3.1 secs

     Self-consistent Calculation

     iteration #  1     ecut=    40.00 Ry     beta=0.70
     CG style diagonalization
     ethr =  1.00E-02,  avg # of iterations = 18.1

     total cpu time spent up to now is       68.4 secs

     total energy              =   -3151.97144490 Ry
     Harris-Foulkes estimate   =   -4411.78512378 Ry
     estimated scf accuracy    <    1567.50427785 Ry

     iteration #  2     ecut=    40.00 Ry     beta=0.70
     CG style diagonalization
     c_bands:  3 eigenvalues not converged
     ethr =  1.00E-02,  avg # of iterations = 15.8

     total cpu time spent up to now is      118.3 secs

     total energy              =   -3401.66023341 Ry
     Harris-Foulkes estimate   =   -4285.61757907 Ry
     estimated scf accuracy    <    1630.99334101 Ry

     iteration #  3     ecut=    40.00 Ry     beta=0.70
     CG style diagonalization
     c_bands:  1 eigenvalues not converged
     ethr =  1.00E-02,  avg # of iterations =  9.3

     total cpu time spent up to now is      147.5 secs

     total energy              =   -3798.43823285 Ry
     Harris-Foulkes estimate   =   -3882.22867441 Ry
     estimated scf accuracy    <     158.46955145 Ry

     iteration #  4     ecut=    40.00 Ry     beta=0.70
     CG style diagonalization
     ethr =  1.00E-02,  avg # of iterations =  4.8

     total cpu time spent up to now is      162.5 secs

     total energy              =   -3832.44277720 Ry
     Harris-Foulkes estimate   =   -3839.93952602 Ry
     estimated scf accuracy    <      16.14864359 Ry

     iteration #  5     ecut=    40.00 Ry     beta=0.70
     CG style diagonalization
     ethr =  6.21E-03,  avg # of iterations =  3.7

     total cpu time spent up to now is      173.6 secs

     total energy              =   -3835.68863573 Ry
     Harris-Foulkes estimate   =   -3836.13006790 Ry
     estimated scf accuracy    <       0.79137170 Ry

     iteration #  6     ecut=    40.00 Ry     beta=0.70
     CG style diagonalization
     c_bands:  1 eigenvalues not converged
     c_bands:  1 eigenvalues not converged
     ethr =  3.04E-04,  avg # of iterations =  4.6

     total cpu time spent up to now is      187.5 secs

     total energy              =   -3835.94034059 Ry
     Harris-Foulkes estimate   =   -3836.02881866 Ry
     estimated scf accuracy    <       0.16507098 Ry

     iteration #  7     ecut=    40.00 Ry     beta=0.70
     CG style diagonalization
     c_bands:  1 eigenvalues not converged
     c_bands:  1 eigenvalues not converged
     ethr =  6.35E-05,  avg # of iterations =  4.1

     total cpu time spent up to now is      199.6 secs

     total energy              =   -3835.97685170 Ry
     Harris-Foulkes estimate   =   -3835.99352710 Ry
     estimated scf accuracy    <       0.02738298 Ry

     iteration #  8     ecut=    40.00 Ry     beta=0.70
     CG style diagonalization
     c_bands:  1 eigenvalues not converged
     c_bands:  1 eigenvalues not converged
     ethr =  1.05E-05,  avg # of iterations =  3.9

     total cpu time spent up to now is      212.6 secs

     total energy              =   -3835.98255611 Ry
     Harris-Foulkes estimate   =   -3835.98324817 Ry
     estimated scf accuracy    <       0.00125570 Ry

     iteration #  9     ecut=    40.00 Ry     beta=0.70
     CG style diagonalization
     ethr =  4.83E-07,  avg # of iterations =  4.3

     total cpu time spent up to now is      225.8 secs

     total energy              =   -3835.98300017 Ry
     Harris-Foulkes estimate   =   -3835.98314905 Ry
     estimated scf accuracy    <       0.00025871 Ry

     iteration # 10     ecut=    40.00 Ry     beta=0.70
     CG style diagonalization
     ethr =  9.95E-08,  avg # of iterations =  3.8

     total cpu time spent up to now is      236.0 secs

     End of self-consistent calculation

          k = 0.0000 0.0000 0.0000 (  3675 PWs)   bands (ev):

   -57.1783 -57.1578 -57.1536 -57.1343 -57.0935 -57.0412 -56.9783 -56.9758
   -24.8965 -24.8936 -24.8670 -24.8669 -16.6669 -16.5966 -16.5533 -16.4888
   -16.4055 -16.3929 -16.3503 -16.3439 -16.3413 -16.2364 -16.1589 -16.1372
   -16.0905 -16.0744 -16.0733 -16.0543 -15.9997 -15.9435 -15.9373 -15.9349
   -15.8899 -15.7718 -15.6666 -15.6317   5.6510   5.7986   5.8336   5.8370
     5.8575   5.8763   5.9106   5.9653   6.2413   6.3754   6.3768   6.5400
    28.3585  28.5827  28.6084  28.6369  28.7106  28.9596  29.0281  29.1718
    29.5602  29.7309  29.7383  30.0342  30.1904  30.6084  30.6539  31.1359
    31.1596  31.2231  31.2904  31.3129  31.4804  31.5536  31.6973  31.7763
    31.9122  32.0911  32.2815  32.3647  32.4461  32.5720  32.6407  32.7222
    32.7714  33.0167  33.0731  33.6328  33.9334  34.0341  34.2284  34.2503
    34.4536  37.1270  37.3191  37.7465  40.1699  41.0472  41.1667  41.4001
    41.4065  42.1255  42.5989  42.8001  43.1759  43.2062  43.4559  43.6927
    44.2972  44.3061  45.0586  45.1933  45.2401  45.3121  45.3293  45.5019
    47.0125  49.2522  49.6622  49.7540  49.9982  50.6300  51.7794  54.4327
    54.5884  55.4078  55.5123  55.6230  55.9330  56.2906  56.5357  56.7261
    57.2280  57.6708  57.7273  57.8506  57.9184  57.9523  58.1111  58.1242
    58.4969  58.7383  58.7783  58.8816  58.9104  58.9594  59.1833  59.6177
    60.1699  60.2232  60.9169  61.6934  61.7796  62.4990  62.6474  62.8906
    62.9972  63.1512  63.1660  63.9003

          k = 0.0000 0.0000 0.1317 (  3675 PWs)   bands (ev):

   -57.1744 -57.1630 -57.1489 -57.1386 -57.0895 -57.0778 -56.9853 -56.9412
   -24.8930 -24.8878 -24.8728 -24.8716 -16.6548 -16.5748 -16.5627 -16.5061
   -16.4582 -16.4065 -16.3772 -16.3123 -16.2911 -16.2625 -16.1710 -16.1674
   -16.0923 -16.0703 -16.0645 -16.0613 -15.9780 -15.9309 -15.9306 -15.9053
   -15.8685 -15.7878 -15.6656 -15.6412   5.6748   5.7630   5.8414   5.8534
     5.8602   5.8618   5.9265   5.9595   6.2522   6.3186   6.4323   6.5157
    28.3392  28.4099  28.5355  28.5441  28.8647  28.8933  29.0662  29.2406
    29.7251  29.8752  29.9424  30.2114  30.4100  30.6255  30.6438  30.9081
    31.0298  31.2314  31.3329  31.3653  31.4109  31.5228  31.6198  31.7032
    31.9550  32.0131  32.1750  32.1806  32.3962  32.5322  32.6751  32.7203
    32.9049  33.1376  33.4116  33.5498  33.8704  33.9671  34.1505  34.3184
    34.4882  35.6879  37.6042  38.6729  40.0223  40.0358  41.6305  41.7412
    41.9699  42.2358  42.4142  42.6758  42.9238  43.2114  43.2785  43.5925
    43.6700  44.1971  44.8499  45.0967  45.1802  45.4219  45.9498  46.3172
    48.5666  48.8557  49.5201  49.8073  50.0524  51.2069  51.8420  53.2425
    53.9932  54.8792  55.1593  55.2919  56.0044  56.1643  56.2857  56.8055
    56.9569  57.1530  57.5744  57.6312  57.7442  57.7482  58.4523  58.6135
    58.6166  58.6636  58.8761  59.2222  59.2379  59.3752  59.4673  59.7840
    60.1007  60.6367  61.2243  61.5152  61.7097  62.1197  62.1971  62.2707
    62.7068  62.7159  63.8808  64.3284

          k = 0.0000 0.0000-0.2634 (  3690 PWs)   bands (ev):

   -57.1783 -57.1783 -57.1694 -57.1694 -57.0762 -57.0762 -56.9731 -56.9731
   -24.8849 -24.8849 -24.8815 -24.8815 -16.6236 -16.6236 -16.5229 -16.5229
   -16.4727 -16.4727 -16.3277 -16.3277 -16.2482 -16.2482 -16.2087 -16.2087
   -16.0794 -16.0794 -16.0671 -16.0671 -15.9483 -15.9483 -15.9313 -15.9313
   -15.8347 -15.8347 -15.6609 -15.6609   5.7185   5.7185   5.8564   5.8564
     5.8573   5.8573   5.9301   5.9301   6.2690   6.2690   6.4711   6.4711
    28.3344  28.3344  28.4182  28.4182  28.8340  28.8340  29.6151  29.6151
    29.6478  29.6478  30.2508  30.2508  30.5223  30.5223  30.8468  30.8468
    31.0847  31.0847  31.2037  31.2037  31.3196  31.3196  31.6393  31.6393
    31.9787  31.9787  32.3035  32.3035  32.4001  32.4001  32.6358  32.6358
    33.3386  33.3386  33.5314  33.5314  33.8053  33.8053  34.3001  34.3001
    34.4575  34.4575  38.4860  38.4860  39.6541  39.6541  42.1261  42.1261
    42.3246  42.3246  42.5265  42.5265  42.6717  42.6717  43.1988  43.1988
    43.6931  43.6931  44.9665  44.9665  45.2264  45.2264  47.4434  47.4434
    48.5227  48.5227  49.8736  49.8736  50.9270  50.9270  51.6923  51.6923
    54.3268  54.3268  55.1830  55.1830  55.6799  55.6799  56.1731  56.1731
    57.0641  57.0641  57.1598  57.1598  57.7696  57.7696  58.7504  58.7504
    58.7506  58.7506  59.1774  59.1774  59.3793  59.3793  60.1686  60.1687
    60.7988  60.7989  60.9123  60.9123  61.4220  61.4220  62.0354  62.0355
    63.2441  63.2443  64.3399  64.3400

          k = 0.0000 0.2533 0.0000 (  3664 PWs)   bands (ev):

   -57.1597 -57.1566 -57.1461 -57.1294 -57.0512 -57.0347 -56.9906 -56.9855
   -24.9069 -24.9066 -24.8634 -24.8584 -16.5517 -16.5292 -16.4708 -16.4385
   -16.4003 -16.3734 -16.3707 -16.3359 -16.3170 -16.2873 -16.1925 -16.1484
   -16.1480 -16.0640 -16.0381 -16.0001 -15.9743 -15.9566 -15.9194 -15.8997
   -15.8892 -15.7932 -15.7827 -15.7334   5.6822   5.7416   5.8364   5.8538
     5.8686   5.8726   5.8866   5.9288   6.2103   6.2579   6.4233   6.4782
    28.6922  28.8004  28.9593  28.9791  29.1919  29.3435  29.4093  29.4456
    29.6414  29.8288  29.8712  30.1411  30.2419  30.2993  30.6799  30.7957
    30.8062  30.9965  31.0611  31.2660  31.4949  31.5533  31.7683  31.9159
    32.1129  32.1192  32.1520  32.2438  32.4464  32.4570  32.9158  33.0696
    33.1114  33.1139  33.5242  33.6092  33.6890  33.7745  34.1136  34.3741
    34.5700  36.4627  37.7421  37.7837  40.0339  40.4350  40.8936  41.1499
    41.3584  41.5946  42.0003  42.2261  42.3054  43.1873  43.3729  43.4415
    43.6677  43.8474  44.3888  44.5190  44.5310  44.7281  45.0301  45.3307
    46.5533  47.1311  50.5968  50.8808  51.5785  52.7340  53.4406  54.1811
    54.7614  54.8454  55.5231  55.6670  55.9270  56.0789  56.1772  56.7792
    57.0849  57.2802  57.7082  57.7257  57.8027  57.9199  58.2104  58.8383
    58.8767  58.9178  58.9305  59.1406  59.4472  59.6637  59.9060  60.0453
    60.7515  60.8784  61.1091  61.4275  61.5183  61.9815  62.1471  62.5248
    63.0267  63.4233  63.8256  64.3298

          k = 0.0000 0.2533 0.1317 (  3669 PWs)   bands (ev):

   -57.1654 -57.1595 -57.1437 -57.1358 -57.0560 -57.0508 -56.9912 -56.9859
   -24.9084 -24.9053 -24.8648 -24.8620 -16.5615 -16.5179 -16.5016 -16.4576
   -16.4416 -16.3795 -16.3329 -16.3109 -16.3051 -16.2862 -16.2089 -16.1752
   -16.1221 -16.0424 -16.0402 -16.0051 -15.9976 -15.9545 -15.9499 -15.9082
   -15.8498 -15.8005 -15.7675 -15.7412   5.6912   5.7400   5.8385   5.8462
     5.8682   5.8723   5.8882   5.9158   6.2132   6.2427   6.4257   6.4714
    28.6670  28.7045  28.7698  28.9818  29.1943  29.2987  29.4896  29.5469
    29.7558  30.0092  30.0841  30.2036  30.2572  30.2827  30.5507  30.7267
    31.0193  31.1199  31.2184  31.3095  31.4863  31.6024  31.7616  31.7857
    31.8048  31.9935  32.1128  32.3085  32.4140  32.4154  32.6273  32.9064
    33.1161  33.3245  33.5578  33.5773  33.7825  34.0077  34.1570  34.3810
    34.5354  36.3729  36.7712  38.2710  39.5860  40.1863  41.3638  41.3722
    41.5236  41.6373  41.6459  42.1222  42.2720  42.8226  43.2276  43.5245
    43.7887  43.9428  44.3831  44.6228  44.7230  44.7926  45.1138  45.4886
    47.0687  48.0236  50.8218  51.0482  51.5632  52.5834  53.0878  53.4785
    54.0868  54.3186  54.8074  55.0743  55.8056  56.2471  56.8497  57.1068
    57.1640  57.1856  57.4848  57.5878  57.8896  58.2693  58.3730  58.8768
    58.9239  58.9569  59.2988  59.5910  59.6733  59.8535  60.0968  60.2944
    60.4947  60.7336  60.8994  61.0797  61.4782  62.0144  62.3230  62.6646
    62.9988  63.2334  63.8638  64.1829

          k = 0.0000 0.2533-0.2634 (  3666 PWs)   bands (ev):

   -57.1574 -57.1574 -57.1437 -57.1437 -57.0425 -57.0425 -56.9942 -56.9942
   -24.9054 -24.9054 -24.8644 -24.8644 -16.5443 -16.5443 -16.4804 -16.4804
   -16.4228 -16.4228 -16.3075 -16.3075 -16.2779 -16.2779 -16.2063 -16.2063
   -16.0685 -16.0685 -16.0206 -16.0206 -15.9859 -15.9859 -15.9331 -15.9331
   -15.8235 -15.8235 -15.7470 -15.7470   5.7177   5.7177   5.8529   5.8529
     5.8589   5.8589   5.9009   5.9009   6.2266   6.2266   6.4505   6.4505
    28.6224  28.6224  28.7578  28.7578  29.3682  29.3682  29.5593  29.5593
    29.8703  29.8703  30.2909  30.2909  30.3927  30.3927  30.6933  30.6933
    31.1209  31.1209  31.3357  31.3357  31.4334  31.4334  31.5950  31.5950
    31.9623  31.9623  32.1475  32.1475  32.2746  32.2746  32.7167  32.7167
    33.3396  33.3396  33.4499  33.4499  33.9915  33.9915  34.4497  34.4497
    35.0097  35.0097  37.5075  37.5075  39.7270  39.7270  41.4926  41.4926
    41.7352  41.7352  42.0159  42.0159  42.0945  42.0945  43.3750  43.3750
    44.1868  44.1868  44.2154  44.2154  45.0241  45.0241  45.2616  45.2616
    48.8083  48.8083  50.3740  50.3740  52.3333  52.3333  52.6001  52.6001
    53.6674  53.6674  55.2864  55.2864  55.5335  55.5335  56.6480  56.6480
    57.4207  57.4207  57.7859  57.7859  58.3594  58.3594  58.3930  58.3930
    58.8647  58.8647  59.6528  59.6529  59.7383  59.7384  60.4150  60.4151
    60.8220  60.8221  61.4372  61.4373  61.5682  61.5682  62.6237  62.6238
    62.8981  62.8981  63.1432  63.1433

          k =-0.5000 0.0000 0.0000 (  3722 PWs)   bands (ev):

   -57.1848 -57.1848 -57.1760 -57.1760 -57.0995 -57.0995 -57.0208 -57.0208
   -24.9214 -24.9214 -24.8905 -24.8905 -16.7091 -16.7091 -16.5208 -16.5208
   -16.5071 -16.5071 -16.3799 -16.3799 -16.3055 -16.3055 -16.1543 -16.1543
   -16.1080 -16.1080 -16.0645 -16.0645 -15.9002 -15.9002 -15.8754 -15.8754
   -15.8116 -15.8116 -15.6795 -15.6795   5.6718   5.6718   5.7919   5.7919
     5.9512   5.9512   6.0029   6.0029   6.3482   6.3482   6.4057   6.4057
    28.9085  28.9085  29.0079  29.0079  29.3317  29.3317  29.6931  29.6931
    30.0103  30.0103  30.2071  30.2071  30.4150  30.4150  30.5110  30.5110
    30.6354  30.6354  30.9677  30.9677  31.1177  31.1177  31.1777  31.1777
    31.4697  31.4697  31.8695  31.8695  32.2558  32.2558  32.4672  32.4672
    32.4767  32.4767  33.5018  33.5018  34.2618  34.2618  34.3374  34.3374
    37.3005  37.3005  39.6176  39.6176  39.6560  39.6560  41.6378  41.6378
    41.8813  41.8813  42.3341  42.3341  42.7855  42.7855  43.1103  43.1103
    43.7557  43.7557  44.5240  44.5240  45.1525  45.1525  45.6348  45.6348
    46.0292  46.0292  46.7265  46.7265  51.4280  51.4280  52.2435  52.2435
    53.4699  53.4699  54.2163  54.2163  54.8459  54.8459  56.6313  56.6313
    57.1000  57.1000  57.8735  57.8735  58.2354  58.2354  58.5584  58.5584
    58.6588  58.6588  59.2246  59.2246  60.3054  60.3055  60.6694  60.6695
    61.7530  61.7531  62.6603  62.6604  62.8947  62.8947  62.9115  62.9118
    63.1982  63.1983  64.3025  64.3025

          k =-0.5000 0.0000 0.1317 (  3710 PWs)   bands (ev):

   -57.1852 -57.1852 -57.1593 -57.1593 -57.0898 -57.0898 -57.0146 -57.0146
   -24.9202 -24.9202 -24.8876 -24.8876 -16.6986 -16.6986 -16.5782 -16.5782
   -16.4248 -16.4248 -16.4107 -16.4107 -16.2537 -16.2537 -16.1604 -16.1604
   -16.1583 -16.1583 -16.0300 -16.0300 -15.9161 -15.9161 -15.8512 -15.8512
   -15.8083 -15.8083 -15.6810 -15.6810   5.6750   5.6750   5.8078   5.8078
     5.9564   5.9564   5.9982   5.9982   6.3508   6.3508   6.4028   6.4028
    28.9180  28.9180  29.0541  29.0541  29.2686  29.2686  29.7512  29.7512
    29.9809  29.9809  30.1694  30.1694  30.3538  30.3538  30.6177  30.6177
    30.6534  30.6534  31.0070  31.0070  31.0728  31.0728  31.3734  31.3734
    31.4510  31.4510  31.8177  31.8177  32.2350  32.2350  32.3450  32.3450
    32.7244  32.7244  33.4539  33.4539  34.1147  34.1147  34.3178  34.3178
    37.1957  37.1957  38.7795  38.7795  40.0848  40.0848  41.7050  41.7050
    42.2117  42.2117  42.4420  42.4420  42.7129  42.7129  42.9535  42.9535
    43.8238  43.8238  44.6910  44.6910  45.1161  45.1161  45.4545  45.4545
    46.1989  46.1989  47.3843  47.3843  50.2851  50.2851  52.4736  52.4736
    54.2634  54.2634  54.4822  54.4822  54.9124  54.9124  56.1062  56.1062
    56.7268  56.7268  57.4569  57.4569  57.9585  57.9585  58.6531  58.6531
    58.9278  58.9278  59.7000  59.7001  60.2202  60.2203  60.6488  60.6489
    61.6533  61.6534  61.9737  61.9737  62.6739  62.6740  63.2106  63.2106
    63.7501  63.7501  64.0921  64.0922

          k =-0.5000 0.0000-0.2634 (  3680 PWs)   bands (ev):

   -57.1576 -57.1576 -57.1490 -57.1490 -57.0536 -57.0536 -57.0143 -57.0143
   -24.9144 -24.9144 -24.8850 -24.8850 -16.6920 -16.6920 -16.5856 -16.5856
   -16.4463 -16.4463 -16.3397 -16.3397 -16.2022 -16.2022 -16.1845 -16.1845
   -16.1792 -16.1792 -16.0196 -16.0196 -15.9236 -15.9236 -15.8304 -15.8304
   -15.7872 -15.7872 -15.6716 -15.6716   5.6841   5.6841   5.8241   5.8241
     5.9631   5.9631   6.0049   6.0049   6.3585   6.3585   6.4018   6.4018
    28.8559  28.8559  29.1288  29.1288  29.3887  29.3887  29.6388  29.6388
    30.0008  30.0008  30.0099  30.0099  30.4786  30.4786  30.5811  30.5811
    30.7562  30.7562  31.0231  31.0231  31.0632  31.0632  31.3687  31.3687
    31.7335  31.7335  31.8983  31.8983  32.0141  32.0141  32.1355  32.1355
    32.9994  32.9994  33.5459  33.5459  33.8273  33.8273  34.3001  34.3001
    37.1026  37.1026  38.2924  38.2924  40.4223  40.4223  41.5652  41.5652
    42.2457  42.2457  42.5808  42.5808  42.6412  42.6412  42.8155  42.8155
    44.2262  44.2262  44.5897  44.5897  45.2095  45.2095  45.3665  45.3665
    46.5492  46.5492  48.3298  48.3298  48.8695  48.8695  52.8109  52.8109
    54.3608  54.3608  54.8063  54.8063  54.9164  54.9164  56.1076  56.1076
    56.8128  56.8128  57.1378  57.1378  57.2642  57.2642  58.7774  58.7774
    58.8549  58.8549  60.0033  60.0034  60.1151  60.1151  61.2426  61.2428
    61.6134  61.6134  62.0270  62.0270  62.1153  62.1153  62.8435  62.8435
    63.4945  63.4946  64.1063  64.1065

          k =-0.5000 0.2533 0.0000 (  3686 PWs)   bands (ev):

   -57.1636 -57.1636 -57.1563 -57.1563 -57.0551 -57.0551 -57.0226 -57.0226
   -24.9161 -24.9161 -24.8979 -24.8979 -16.5914 -16.5914 -16.5045 -16.5045
   -16.4549 -16.4549 -16.3243 -16.3243 -16.2492 -16.2492 -16.1776 -16.1776
   -16.1488 -16.1488 -16.0567 -16.0567 -15.9065 -15.9065 -15.8912 -15.8912
   -15.8025 -15.8025 -15.7638 -15.7638   5.6947   5.6947   5.7559   5.7559
     5.9704   5.9704   5.9855   5.9855   6.3374   6.3374   6.3583   6.3583
    29.1615  29.1615  29.3457  29.3457  29.6493  29.6493  29.7605  29.7605
    30.0273  30.0273  30.1719  30.1719  30.6588  30.6588  30.7340  30.7340
    30.8535  30.8535  31.0704  31.0704  31.1680  31.1680  31.3886  31.3886
    31.6760  31.6760  31.7317  31.7317  32.1183  32.1183  32.4875  32.4875
    32.7547  32.7547  33.0647  33.0647  33.7364  33.7364  34.0294  34.0294
    37.7050  37.7050  39.1587  39.1587  39.9473  39.9473  40.6537  40.6537
    41.6585  41.6585  41.6813  41.6813  42.9473  42.9473  43.0494  43.0494
    43.6763  43.6763  43.9551  43.9551  44.1469  44.1469  44.7933  44.7933
    47.4494  47.4494  47.4817  47.4817  49.6019  49.6019  50.2247  50.2247
    54.2900  54.2900  55.4983  55.4983  56.5086  56.5086  57.1087  57.1087
    57.7654  57.7654  58.2899  58.2899  58.3082  58.3082  58.8711  58.8711
    59.5081  59.5081  59.6592  59.6592  60.9210  60.9210  60.9893  60.9894
    61.7684  61.7685  61.8257  61.8258  62.6957  62.6958  62.8908  62.8910
    63.8231  63.8232  63.9628  63.9629

          k =-0.5000 0.2533 0.1317 (  3692 PWs)   bands (ev):

   -57.1675 -57.1675 -57.1618 -57.1618 -57.0604 -57.0604 -57.0220 -57.0220
   -24.9134 -24.9134 -24.9017 -24.9017 -16.6030 -16.6030 -16.4983 -16.4983
   -16.4354 -16.4354 -16.3608 -16.3608 -16.2517 -16.2517 -16.2017 -16.2017
   -16.1128 -16.1128 -16.0274 -16.0274 -15.9159 -15.9159 -15.9003 -15.9003
   -15.8126 -15.8126 -15.7709 -15.7709   5.7011   5.7011   5.7608   5.7608
     5.9638   5.9638   5.9785   5.9785   6.3272   6.3272   6.3581   6.3581
    29.0833  29.0833  29.4625  29.4625  29.5856  29.5856  29.8463  29.8463
    30.0356  30.0356  30.2056  30.2056  30.4580  30.4580  30.7641  30.7641
    30.9389  30.9389  31.0613  31.0613  31.2392  31.2392  31.4857  31.4857
    31.6302  31.6302  31.8548  31.8548  32.1514  32.1514  32.3459  32.3459
    32.8106  32.8106  33.0367  33.0367  33.6494  33.6494  34.0171  34.0171
    37.6372  37.6372  38.4800  38.4800  40.1593  40.1593  40.8930  40.8930
    41.7081  41.7081  41.8839  41.8839  42.5564  42.5564  43.3564  43.3564
    43.6131  43.6131  43.9465  43.9465  44.1266  44.1266  44.7549  44.7549
    47.3820  47.3820  48.0880  48.0880  49.0406  49.0406  51.1667  51.1667
    54.3491  54.3491  54.9081  54.9081  56.3383  56.3383  56.8077  56.8077
    57.3720  57.3720  58.2678  58.2678  58.6056  58.6056  59.2808  59.2808
    59.3843  59.3843  59.8076  59.8077  60.7302  60.7303  61.0059  61.0060
    61.4621  61.4621  61.8935  61.8936  62.2473  62.2474  62.9090  62.9091
    63.4384  63.4384  64.2042  64.2064

          k =-0.5000 0.2533-0.2634 (  3704 PWs)   bands (ev):

   -57.1764 -57.1764 -57.1669 -57.1669 -57.0709 -57.0709 -57.0285 -57.0285
   -24.9136 -24.9136 -24.9046 -24.9046 -16.6159 -16.6159 -16.4609 -16.4609
   -16.4580 -16.4580 -16.3904 -16.3904 -16.2800 -16.2800 -16.2108 -16.2108
   -16.0809 -16.0809 -15.9995 -15.9995 -15.9432 -15.9432 -15.9106 -15.9106
   -15.8088 -15.8088 -15.7750 -15.7750   5.6976   5.6976   5.7656   5.7656
     5.9565   5.9565   5.9731   5.9731   6.3235   6.3235   6.3482   6.3482
    29.0139  29.0139  29.5054  29.5054  29.7004  29.7004  29.9224  29.9224
    29.9351  29.9351  30.2717  30.2717  30.2770  30.2770  30.8145  30.8145
    31.0217  31.0217  31.0897  31.0897  31.1312  31.1312  31.7029  31.7029
    31.7151  31.7151  31.9043  31.9043  32.0518  32.0518  32.2799  32.2799
    32.6537  32.6537  33.3006  33.3006  33.4511  33.4511  33.9897  33.9897
    37.6967  37.6967  37.8838  37.8838  40.3895  40.3895  40.8250  40.8250
    41.7861  41.7861  41.9500  41.9500  42.6845  42.6845  43.0380  43.0380
    43.7061  43.7061  43.8998  43.8998  44.3848  44.3848  44.7081  44.7081
    47.6339  47.6339  47.8737  47.8737  49.1419  49.1419  52.4553  52.4553
    53.4029  53.4029  54.8964  54.8964  55.8109  55.8109  56.7421  56.7421
    56.7883  56.7883  58.5824  58.5824  59.1954  59.1954  59.2782  59.2782
    59.5251  59.5251  59.7408  59.7408  60.2624  60.2625  60.9806  60.9806
    61.4640  61.4642  61.9040  61.9041  62.4761  62.4762  62.5851  62.5852
    63.1987  63.1988  63.7886  63.7888

     the Fermi energy is    57.3987 ev

!    total energy              =   -3835.98304365 Ry
     Harris-Foulkes estimate   =   -3835.98307136 Ry
     estimated scf accuracy    <       0.00003035 Ry

     The total energy is the sum of the following terms:

     one-electron contribution =      68.55935585 Ry
     hartree contribution      =     364.80009996 Ry
     xc contribution           =    -345.32932780 Ry
     ewald contribution        =   -3923.51116076 Ry
     smearing contrib. (-TS)   =      -0.50201089 Ry

     convergence has been achieved in  10 iterations

     Forces acting on atoms (Ry/au):

     atom    1 type  1   force =     0.00000000   -0.06604166   -0.06598946
     atom    2 type  1   force =     0.00000000    0.06604166    0.06598946
     atom    3 type  1   force =     0.00000000   -0.06604166    0.06598946
     atom    4 type  1   force =     0.00000000    0.06604166   -0.06598946
     atom    5 type  1   force =     0.00000000    0.08679510   -0.11088127
     atom    6 type  1   force =     0.00000000   -0.08679510    0.11088127
     atom    7 type  1   force =     0.00000000    0.08679510    0.11088127
     atom    8 type  1   force =     0.00000000   -0.08679510   -0.11088127
     atom    9 type  2   force =     0.00000000   -0.18577399    0.06985978
     atom   10 type  2   force =     0.00000000    0.18577399   -0.06985978
     atom   11 type  2   force =     0.00000000   -0.18577399   -0.06985978
     atom   12 type  2   force =     0.00000000    0.18577399    0.06985978

     Total force =     0.521293     Total SCF correction =     0.000000


     entering subroutine stress ...

          total   stress  (Ry/bohr**3)                   (kbar)     P= 7498.02
   0.05349669   0.00000000   0.00000000       7869.63      0.00      0.00
   0.00000000   0.04906613   0.00000000          0.00   7217.88      0.00
   0.00000000   0.00000000   0.05034866          0.00      0.00   7406.54


     BFGS Geometry Optimization

     number of scf cycles    =   1
     number of bfgs steps    =   0

     enthalpy new            =   -3835.9830436463 Ry

     new trust radius        =       0.5000000000 bohr
     new conv_thr            =       0.0001000000 Ry

     new unit-cell volume =   1089.58127 a.u.^3 (   161.45928 Ang^3 )

CELL_PARAMETERS (alat=  7.01510508)
   1.085136619   0.000000000   0.000000000
   0.000000000   1.418721257   0.000000000
   0.000000000   0.000000000   2.050102575

ATOMIC_POSITIONS (crystal)
Co       0.750000000   0.825945604   0.435420508
Co       0.250000000   0.174054396   0.564579492
Co       0.750000000   0.325945604   0.064579492
Co       0.250000000   0.674054396   0.935420508
Co       0.250000000   0.537684504   0.281814882
Co       0.750000000   0.462315496   0.718185118
Co       0.250000000   0.037684504   0.218185118
Co       0.750000000   0.962315496   0.781814882
Si       0.250000000   0.201572978   0.893933996
Si       0.750000000   0.798427022   0.106066004
Si       0.250000000   0.701572978   0.606066004
Si       0.750000000   0.298427022   0.393933996



     Writing output data file Prototype-La-oP12-Co2Si.save
     NEW-OLD atomic charge density approx. for the potential
     NEW k-points:
        k(    1) = (   0.0000000   0.0000000   0.0000000), wk =   0.0833333
        k(    2) = (   0.0000000   0.0000000   0.1219451), wk =   0.1666667
        k(    3) = (   0.0000000   0.0000000  -0.2438902), wk =   0.0833333
        k(    4) = (   0.0000000   0.2349534   0.0000000), wk =   0.1666667
        k(    5) = (   0.0000000   0.2349534   0.1219451), wk =   0.3333333
        k(    6) = (   0.0000000   0.2349534  -0.2438902), wk =   0.1666667
        k(    7) = (  -0.4607715   0.0000000   0.0000000), wk =   0.0833333
        k(    8) = (  -0.4607715   0.0000000   0.1219451), wk =   0.1666667
        k(    9) = (  -0.4607715   0.0000000  -0.2438902), wk =   0.0833333
        k(   10) = (  -0.4607715   0.2349534   0.0000000), wk =   0.1666667
        k(   11) = (  -0.4607715   0.2349534   0.1219451), wk =   0.3333333
        k(   12) = (  -0.4607715   0.2349534  -0.2438902), wk =   0.1666667

     total cpu time spent up to now is      241.1 secs

     Self-consistent Calculation

     iteration #  1     ecut=    40.00 Ry     beta=0.70
     CG style diagonalization
     c_bands:  1 eigenvalues not converged
     c_bands:  2 eigenvalues not converged
     ethr =  1.00E-06,  avg # of iterations = 22.6

     total cpu time spent up to now is      304.7 secs

     total energy              =   -3828.98980257 Ry
     Harris-Foulkes estimate   =   -3864.22858341 Ry
     estimated scf accuracy    <      44.52974781 Ry

     iteration #  2     ecut=    40.00 Ry     beta=0.70
     CG style diagonalization
     ethr =  1.00E-02,  avg # of iterations =  4.0

     total cpu time spent up to now is      316.5 secs

     total energy              =   -3841.40368022 Ry
     Harris-Foulkes estimate   =   -3845.30576193 Ry
     estimated scf accuracy    <       5.69555794 Ry

     iteration #  3     ecut=    40.00 Ry     beta=0.70
     CG style diagonalization
     ethr =  2.19E-03,  avg # of iterations =  3.7

     total cpu time spent up to now is      327.3 secs

     total energy              =   -3842.88431519 Ry
     Harris-Foulkes estimate   =   -3843.43347016 Ry
     estimated scf accuracy    <       1.15323627 Ry

     iteration #  4     ecut=    40.00 Ry     beta=0.70
     CG style diagonalization
     ethr =  4.44E-04,  avg # of iterations =  3.5

     total cpu time spent up to now is      337.2 secs

     total energy              =   -3843.13029061 Ry
     Harris-Foulkes estimate   =   -3843.14599155 Ry
     estimated scf accuracy    <       0.02723757 Ry

     iteration #  5     ecut=    40.00 Ry     beta=0.70
     CG style diagonalization
     c_bands:  1 eigenvalues not converged
     ethr =  1.05E-05,  avg # of iterations =  4.4

     total cpu time spent up to now is      350.6 secs

     total energy              =   -3843.14225278 Ry
     Harris-Foulkes estimate   =   -3843.14398282 Ry
     estimated scf accuracy    <       0.00317610 Ry

     iteration #  6     ecut=    40.00 Ry     beta=0.70
     CG style diagonalization
     c_bands:  1 eigenvalues not converged
     ethr =  1.22E-06,  avg # of iterations =  3.8

     total cpu time spent up to now is      361.7 secs

     total energy              =   -3843.14286906 Ry
     Harris-Foulkes estimate   =   -3843.14299555 Ry
     estimated scf accuracy    <       0.00024692 Ry

     iteration #  7     ecut=    40.00 Ry     beta=0.70
     CG style diagonalization
     ethr =  9.50E-08,  avg # of iterations =  3.9

     total cpu time spent up to now is      371.8 secs

     End of self-consistent calculation

          k = 0.0000 0.0000 0.0000 (  3675 PWs)   bands (ev):

   -67.6179 -67.6090 -67.5707 -67.5253 -67.5044 -67.4465 -67.4211 -67.4146
   -34.4984 -34.4957 -34.4926 -34.4844 -27.1474 -27.1023 -27.0908 -27.0427
   -27.0371 -27.0264 -27.0098 -27.0048 -26.9996 -26.9475 -26.9260 -26.9157
   -26.8803 -26.8679 -26.8424 -26.8418 -26.8056 -26.8039 -26.8029 -26.7890
   -26.7862 -26.7104 -26.6676 -26.6490  -3.3219  -3.2647  -3.2482  -3.2255
    -3.2209  -3.2142  -3.2133  -3.2051  -2.9974  -2.9494  -2.9263  -2.8435
    19.5253  19.6034  19.6236  19.6361  19.6522  19.8482  19.9009  19.9341
    20.1053  20.2463  20.3467  20.4054  20.5885  20.8022  20.8449  20.9594
    21.0493  21.1505  21.1786  21.2350  21.2690  21.3120  21.3793  21.4139
    21.5896  21.5915  21.7732  21.7889  21.8604  21.8774  21.9563  22.0486
    22.1389  22.1724  22.5660  22.6980  22.7019  22.8842  22.8983  22.9300
    23.7019  27.3148  27.4641  28.1977  30.7242  30.8311  31.0135  31.7390
    31.7759  32.4007  32.4129  32.9864  33.0081  33.1470  33.2004  33.2681
    33.5378  34.1776  34.2207  34.4881  34.5602  34.7498  34.7585  35.0169
    35.7429  37.4162  37.7739  37.9556  38.3346  38.4495  39.3152  42.3450
    42.3627  42.8987  42.9852  43.0757  43.3477  43.4404  44.2030  44.5444
    44.9681  44.9729  45.8361  45.9110  45.9964  45.9995  46.1616  46.5518
    46.9623  46.9725  47.4629  47.6179  47.9960  48.1267  48.1904  48.7772
    48.7910  49.0124  49.0854  49.8986  50.0036  50.5474  51.1171  51.4949
    51.5591  51.7725  51.8473  52.0951

          k = 0.0000 0.0000 0.1219 (  3675 PWs)   bands (ev):

   -67.6389 -67.5962 -67.5745 -67.5591 -67.4965 -67.4752 -67.4265 -67.3499
   -34.5034 -34.4944 -34.4926 -34.4824 -27.1394 -27.1077 -27.0796 -27.0590
   -27.0578 -27.0341 -27.0151 -26.9890 -26.9791 -26.9686 -26.9294 -26.9202
   -26.8846 -26.8792 -26.8456 -26.8224 -26.8056 -26.8018 -26.7840 -26.7822
   -26.7681 -26.7258 -26.6694 -26.6504  -3.3039  -3.2564  -3.2427  -3.2413
    -3.2359  -3.2222  -3.2002  -3.1953  -2.9929  -2.9793  -2.9009  -2.8599
    19.4991  19.5424  19.5607  19.5695  19.7724  19.7954  19.8999  19.9592
    20.2934  20.3040  20.3536  20.5410  20.6783  20.7475  20.7897  20.9555
    21.0799  21.0862  21.1409  21.1840  21.2837  21.3127  21.3899  21.4020
    21.5353  21.5905  21.6964  21.6964  21.8433  21.8521  21.9701  22.0597
    22.1682  22.3384  22.5328  22.6199  22.7451  22.8790  22.8964  22.9133
    23.9537  25.9459  28.4180  28.6528  30.1489  30.4642  31.5717  31.7765
    31.8844  32.4629  32.4690  32.5596  32.8240  32.9612  33.2209  33.3208
    33.3928  33.7686  34.3691  34.5905  34.7314  34.9256  35.0511  35.2455
    36.9406  37.0778  37.8323  37.8871  38.0928  38.9714  39.4030  40.8306
    41.6220  42.5378  42.6226  43.0970  43.5931  44.3388  44.5635  44.7210
    44.9172  45.1351  45.2808  45.4054  45.8308  45.9701  46.2990  46.7089
    46.9446  47.1673  47.5437  47.6676  47.9864  48.2067  48.2688  48.5950
    48.8670  49.3774  49.5420  49.6506  49.8488  50.3362  50.7149  51.0688
    51.0902  51.8851  52.0951  52.3735

          k = 0.0000 0.0000-0.2439 (  3690 PWs)   bands (ev):

   -67.6482 -67.6482 -67.5656 -67.5656 -67.5179 -67.5179 -67.3981 -67.3981
   -34.5055 -34.5055 -34.4923 -34.4923 -27.1313 -27.1313 -27.0670 -27.0670
   -27.0575 -27.0575 -27.0052 -27.0052 -26.9634 -26.9634 -26.9370 -26.9370
   -26.8837 -26.8837 -26.8365 -26.8365 -26.8182 -26.8182 -26.7815 -26.7815
   -26.7568 -26.7568 -26.6679 -26.6679  -3.2795  -3.2795  -3.2417  -3.2417
    -3.2278  -3.2278  -3.2119  -3.2119  -3.0053  -3.0053  -2.8900  -2.8900
    19.4850  19.4850  19.5325  19.5325  19.7277  19.7277  20.1676  20.1676
    20.1901  20.1901  20.6123  20.6123  20.6357  20.6357  20.8888  20.8888
    21.0960  21.0960  21.1374  21.1374  21.1867  21.1867  21.3906  21.3906
    21.6001  21.6001  21.7362  21.7362  21.7716  21.7716  21.9564  21.9564
    22.4184  22.4184  22.4512  22.4512  22.8064  22.8064  22.9182  22.9182
    24.7187  24.7187  28.9907  28.9907  29.8944  29.8944  31.7816  31.7816
    32.3126  32.3126  32.3528  32.3528  32.9355  32.9355  33.1137  33.1137
    33.3303  33.3303  34.6742  34.6742  34.6749  34.6749  36.1274  36.1274
    36.7570  36.7570  37.9666  37.9666  38.8168  38.8168  39.4205  39.4205
    41.8813  41.8813  42.9423  42.9423  43.4537  43.4537  44.7617  44.7617
    44.7771  44.7771  45.4513  45.4513  45.9915  45.9915  46.6510  46.6510
    47.2914  47.2914  47.6237  47.6237  48.2775  48.2775  48.4123  48.4123
    48.8455  48.8455  49.7722  49.7722  50.1780  50.1781  50.2246  50.2246
    52.1215  52.1215  52.2495  52.2495

          k = 0.0000 0.2350 0.0000 (  3664 PWs)   bands (ev):

   -67.6003 -67.5796 -67.5655 -67.5644 -67.4731 -67.4094 -67.4057 -67.3984
   -34.5025 -34.5022 -34.4822 -34.4673 -27.1021 -27.0644 -27.0642 -27.0639
   -27.0289 -27.0224 -27.0005 -26.9869 -26.9714 -26.9602 -26.9307 -26.9225
   -26.9092 -26.8639 -26.8330 -26.8328 -26.8107 -26.8072 -26.7949 -26.7597
   -26.7590 -26.7216 -26.7062 -26.6929  -3.2969  -3.2941  -3.2398  -3.2273
    -3.2254  -3.2157  -3.2045  -3.1963  -2.9973  -2.9815  -2.8870  -2.8707
    19.6870  19.7198  19.7837  19.8466  19.9787  20.0091  20.0643  20.1551
    20.2161  20.3212  20.3808  20.5119  20.5882  20.6226  20.8551  20.8683
    20.8864  20.9692  21.0605  21.2183  21.2376  21.2546  21.4549  21.4863
    21.5781  21.6022  21.7126  21.7249  21.7490  21.8271  22.1349  22.1858
    22.1907  22.2179  22.4448  22.4915  22.5338  22.8321  22.8793  22.9641
    24.6075  26.8227  27.8764  28.0955  29.9403  30.3472  30.9723  31.5661
    31.6542  31.8172  31.9491  32.2834  32.5051  33.1646  33.2593  33.3632
    33.5740  33.7772  34.1492  34.1851  34.2361  34.4071  34.4721  34.5933
    35.7482  36.1185  38.5424  38.6879  39.4765  40.5684  41.1893  41.7344
    42.1288  42.5250  42.9277  42.9999  43.2766  43.3392  43.5581  44.5851
    44.6877  45.0007  45.0772  45.4852  45.6142  45.8060  46.8105  47.1001
    47.6899  47.7132  47.8134  48.1114  48.7566  48.9776  49.0715  49.1615
    49.2925  49.4046  49.4611  49.8279  50.1384  50.2231  50.5980  50.6973
    51.1464  51.2247  51.4038  51.8114

          k = 0.0000 0.2350 0.1219 (  3669 PWs)   bands (ev):

   -67.6255 -67.5958 -67.5442 -67.5402 -67.4867 -67.4715 -67.4001 -67.3933
   -34.5010 -34.4991 -34.4878 -34.4789 -27.1086 -27.0888 -27.0623 -27.0615
   -27.0371 -27.0368 -26.9881 -26.9773 -26.9748 -26.9552 -26.9351 -26.9263
   -26.9094 -26.8637 -26.8391 -26.8190 -26.8125 -26.8112 -26.7923 -26.7733
   -26.7493 -26.7276 -26.7047 -26.6958  -3.2946  -3.2845  -3.2395  -3.2296
    -3.2245  -3.2206  -3.2164  -3.1978  -3.0017  -2.9888  -2.8999  -2.8725
    19.6698  19.6716  19.6940  19.8187  19.9848  19.9962  20.0958  20.2160
    20.2852  20.4293  20.4579  20.4599  20.6263  20.6293  20.7842  20.8097
    21.0084  21.0574  21.1594  21.1935  21.2764  21.2977  21.3374  21.4699
    21.5010  21.5885  21.6372  21.7175  21.7183  21.8496  21.9897  22.0954
    22.2298  22.3095  22.4525  22.4606  22.5858  22.7988  22.8912  22.9535
    24.8477  26.6428  27.1520  28.5933  29.5106  30.5198  31.1746  31.5958
    31.6820  31.8137  31.9734  32.2425  32.4547  32.9284  33.1597  33.3963
    33.6009  33.8648  34.0235  34.1158  34.5049  34.5683  34.6365  34.8052
    35.9765  36.6873  38.5756  38.9270  39.4088  40.3621  40.7890  41.2430
    41.5815  42.0108  42.1526  42.3504  43.1232  43.7544  44.6412  44.8072
    45.0408  45.2709  45.5324  45.5845  45.8978  46.0017  46.4379  46.7650
    47.1938  47.5084  47.7662  48.1924  48.6114  48.7456  49.0364  49.2519
    49.4332  49.6558  49.7230  49.8572  50.2344  50.3586  50.5805  50.9545
    50.9692  51.1080  51.1737  52.0934

          k = 0.0000 0.2350-0.2439 (  3666 PWs)   bands (ev):

   -67.6023 -67.6023 -67.5230 -67.5230 -67.4761 -67.4761 -67.4143 -67.4143
   -34.4996 -34.4996 -34.4822 -34.4822 -27.0997 -27.0997 -27.0481 -27.0481
   -27.0470 -27.0470 -26.9791 -26.9791 -26.9656 -26.9656 -26.9224 -26.9224
   -26.8866 -26.8866 -26.8248 -26.8248 -26.8123 -26.8123 -26.7876 -26.7876
   -26.7417 -26.7417 -26.6975 -26.6975  -3.2834  -3.2834  -3.2376  -3.2376
    -3.2268  -3.2268  -3.2018  -3.2018  -2.9918  -2.9918  -2.8872  -2.8872
    19.6264  19.6264  19.7061  19.7061  20.0453  20.0453  20.1460  20.1460
    20.3727  20.3727  20.5748  20.5748  20.6350  20.6350  20.8079  20.8079
    21.1078  21.1078  21.1590  21.1590  21.2560  21.2560  21.3725  21.3725
    21.5588  21.5588  21.6454  21.6454  21.7183  21.7183  22.0004  22.0004
    22.3451  22.3451  22.3922  22.3922  22.7163  22.7163  22.9263  22.9263
    25.5654  25.5654  27.7787  27.7787  30.0520  30.0520  31.4285  31.4285
    31.9259  31.9259  32.0644  32.0644  32.4895  32.4895  33.2878  33.2878
    33.7798  33.7798  34.0305  34.0305  34.6998  34.6998  34.8172  34.8172
    37.1422  37.1422  38.3250  38.3250  40.0291  40.0291  40.2345  40.2345
    41.5443  41.5443  42.5876  42.5876  42.9438  42.9438  44.7708  44.7708
    45.4247  45.4247  45.9881  45.9881  46.0089  46.0089  46.8149  46.8149
    46.9244  46.9244  47.6423  47.6423  49.0885  49.0885  49.2491  49.2492
    49.3293  49.3293  49.8637  49.8638  50.4932  50.4932  50.5539  50.5539
    50.9840  50.9840  51.5043  51.5044

          k =-0.4608 0.0000 0.0000 (  3722 PWs)   bands (ev):

   -67.6488 -67.6488 -67.6187 -67.6187 -67.5226 -67.5226 -67.5123 -67.5123
   -34.5201 -34.5201 -34.5140 -34.5140 -27.1555 -27.1555 -27.0896 -27.0896
   -27.0868 -27.0868 -27.0063 -27.0063 -26.9971 -26.9971 -26.9247 -26.9247
   -26.9054 -26.9054 -26.8527 -26.8527 -26.7983 -26.7983 -26.7931 -26.7931
   -26.7404 -26.7404 -26.6718 -26.6718  -3.3441  -3.3441  -3.2913  -3.2913
    -3.2226  -3.2226  -3.1966  -3.1966  -2.9587  -2.9587  -2.9215  -2.9215
    19.7667  19.7667  19.7685  19.7685  19.9976  19.9976  20.2662  20.2662
    20.5111  20.5111  20.5900  20.5900  20.6739  20.6739  20.6772  20.6772
    20.9030  20.9030  21.0257  21.0257  21.0896  21.0896  21.2485  21.2485
    21.2498  21.2498  21.4673  21.4673  21.7020  21.7020  21.8685  21.8685
    21.9387  21.9387  22.4087  22.4087  22.7940  22.7940  22.9444  22.9444
    27.2329  27.2329  29.5003  29.5003  29.5810  29.5810  31.5379  31.5379
    32.1063  32.1063  32.2044  32.2044  32.8664  32.8664  33.4304  33.4304
    33.4309  33.4309  34.2147  34.2147  34.5811  34.5811  34.9084  34.9084
    35.0122  35.0122  35.5669  35.5669  39.3342  39.3342  40.2391  40.2391
    40.9301  40.9301  41.7338  41.7338  42.0526  42.0526  44.0394  44.0394
    45.0342  45.0342  46.5545  46.5545  46.8635  46.8635  47.6282  47.6282
    47.6689  47.6689  48.0358  48.0358  48.0660  48.0660  49.5976  49.5976
    50.2419  50.2419  50.5075  50.5075  51.2279  51.2279  51.6892  51.6894
    51.8818  51.8819  52.5393  52.5393

          k =-0.4608 0.0000 0.1219 (  3710 PWs)   bands (ev):

   -67.6408 -67.6408 -67.5908 -67.5908 -67.5353 -67.5353 -67.4727 -67.4727
   -34.5167 -34.5167 -34.5067 -34.5067 -27.1527 -27.1527 -27.0946 -27.0946
   -27.0537 -27.0537 -27.0242 -27.0242 -26.9763 -26.9763 -26.9332 -26.9332
   -26.9050 -26.9050 -26.8433 -26.8433 -26.8029 -26.8029 -26.7832 -26.7832
   -26.7362 -26.7362 -26.6727 -26.6727  -3.3337  -3.3337  -3.2831  -3.2831
    -3.2127  -3.2127  -3.1920  -3.1920  -2.9551  -2.9551  -2.9236  -2.9236
    19.7480  19.7480  19.8317  19.8317  19.9901  19.9901  20.2923  20.2923
    20.4287  20.4287  20.5166  20.5166  20.7041  20.7041  20.7596  20.7596
    20.8547  20.8547  21.0564  21.0564  21.0884  21.0884  21.2604  21.2604
    21.3212  21.3212  21.5225  21.5225  21.6867  21.6867  21.8130  21.8130
    22.0134  22.0134  22.3846  22.3846  22.7317  22.7317  22.9334  22.9334
    27.3602  27.3602  28.6592  28.6592  30.0010  30.0010  31.4488  31.4488
    32.3492  32.3492  32.3950  32.3950  32.9634  32.9634  33.2524  33.2524
    33.5726  33.5726  34.1161  34.1161  34.4617  34.4617  34.8199  34.8199
    35.1980  35.1980  36.1197  36.1197  38.5036  38.5036  40.2998  40.2998
    41.3705  41.3705  41.8816  41.8816  42.1374  42.1374  43.1760  43.1760
    45.6592  45.6592  45.9630  45.9630  46.6751  46.6751  47.3229  47.3229
    47.8810  47.8810  48.2676  48.2676  48.8443  48.8443  49.3379  49.3379
    50.3207  50.3207  50.4508  50.4508  50.6931  50.6931  51.7230  51.7230
    51.8617  51.8617  52.5279  52.5279

          k =-0.4608 0.0000-0.2439 (  3680 PWs)   bands (ev):

   -67.5930 -67.5930 -67.5686 -67.5686 -67.4936 -67.4936 -67.4372 -67.4372
   -34.4994 -34.4994 -34.4993 -34.4993 -27.1492 -27.1492 -27.0828 -27.0828
   -27.0424 -27.0424 -27.0001 -27.0001 -26.9603 -26.9603 -26.9396 -26.9396
   -26.9023 -26.9023 -26.8326 -26.8326 -26.8082 -26.8082 -26.7692 -26.7692
   -26.7159 -26.7159 -26.6633 -26.6633  -3.3145  -3.3145  -3.2705  -3.2705
    -3.1995  -3.1995  -3.1733  -3.1733  -2.9394  -2.9394  -2.9224  -2.9224
    19.7380  19.7380  19.8669  19.8669  20.0411  20.0411  20.2885  20.2885
    20.3515  20.3515  20.4539  20.4539  20.7426  20.7426  20.7433  20.7433
    20.8786  20.8786  21.0637  21.0637  21.1478  21.1478  21.2944  21.2944
    21.3919  21.3919  21.5888  21.5888  21.6378  21.6378  21.6931  21.6931
    22.1556  22.1556  22.4076  22.4076  22.6167  22.6167  22.9215  22.9215
    27.7085  27.7085  27.9611  27.9611  30.1800  30.1800  31.2780  31.2780
    32.4346  32.4346  32.6905  32.6905  32.9397  32.9397  33.1096  33.1096
    33.8076  33.8076  34.0838  34.0838  34.4838  34.4838  34.7039  34.7039
    35.4045  35.4045  36.9937  36.9937  37.3618  37.3618  40.4554  40.4554
    41.4104  41.4104  41.5342  41.5342  42.4277  42.4277  43.6960  43.6960
    44.6133  44.6133  45.5834  45.5834  46.8399  46.8399  47.8046  47.8046
    48.0804  48.0804  48.5125  48.5125  49.0353  49.0353  49.4284  49.4284
    49.8667  49.8667  50.3992  50.3992  50.5054  50.5054  51.7451  51.7452
    51.8279  51.8280  52.3517  52.3521

          k =-0.4608 0.2350 0.0000 (  3686 PWs)   bands (ev):

   -67.5955 -67.5955 -67.5907 -67.5907 -67.4821 -67.4821 -67.4699 -67.4699
   -34.5103 -34.5103 -34.4999 -34.4999 -27.1116 -27.1116 -27.0822 -27.0822
   -27.0483 -27.0483 -27.0028 -27.0028 -26.9489 -26.9489 -26.9131 -26.9131
   -26.9064 -26.9064 -26.8591 -26.8591 -26.8055 -26.8055 -26.7853 -26.7853
   -26.7214 -26.7214 -26.7019 -26.7019  -3.3299  -3.3299  -3.2996  -3.2996
    -3.1937  -3.1937  -3.1914  -3.1914  -2.9383  -2.9383  -2.9207  -2.9207
    19.8525  19.8525  19.9983  19.9983  20.2517  20.2517  20.3001  20.3001
    20.4714  20.4714  20.5769  20.5769  20.8377  20.8377  20.8419  20.8419
    20.9460  20.9460  21.0589  21.0589  21.1137  21.1137  21.2882  21.2882
    21.4094  21.4094  21.4374  21.4374  21.6354  21.6354  21.8378  21.8378
    22.0279  22.0279  22.1755  22.1755  22.5433  22.5433  22.7280  22.7280
    27.7768  27.7768  29.1471  29.1471  30.0013  30.0013  30.5956  30.5956
    31.8089  31.8089  31.8457  31.8457  32.9868  32.9868  33.1796  33.1796
    33.5475  33.5475  33.8039  33.8039  33.9548  33.9548  34.2398  34.2398
    35.8976  35.8976  36.0923  36.0923  37.9117  37.9117  38.2509  38.2509
    42.2372  42.2372  43.5327  43.5327  44.2379  44.2379  45.0281  45.0281
    45.6696  45.6696  46.0468  46.0468  46.4427  46.4427  47.4781  47.4781
    48.0868  48.0868  48.6823  48.6823  49.0457  49.0458  49.2663  49.2663
    49.7852  49.7853  50.2747  50.2747  50.9398  50.9398  51.0367  51.0367
    51.7964  51.7964  51.8548  51.8548

          k =-0.4608 0.2350 0.1219 (  3692 PWs)   bands (ev):

   -67.6023 -67.6023 -67.5911 -67.5911 -67.4936 -67.4936 -67.4767 -67.4767
   -34.5131 -34.5131 -34.5013 -34.5013 -27.1159 -27.1159 -27.0736 -27.0736
   -27.0421 -27.0421 -27.0119 -27.0119 -26.9528 -26.9528 -26.9314 -26.9314
   -26.8963 -26.8963 -26.8511 -26.8511 -26.8000 -26.8000 -26.7947 -26.7947
   -26.7300 -26.7300 -26.7069 -26.7069  -3.3181  -3.3181  -3.3012  -3.3012
    -3.2030  -3.2030  -3.1937  -3.1937  -2.9530  -2.9530  -2.9206  -2.9206
    19.8326  19.8326  20.0585  20.0585  20.2311  20.2311  20.3151  20.3151
    20.4526  20.4526  20.5652  20.5652  20.6833  20.6833  20.8931  20.8931
    20.9946  20.9946  21.0689  21.0689  21.1495  21.1495  21.3204  21.3204
    21.4372  21.4372  21.5120  21.5120  21.6547  21.6547  21.7735  21.7735
    22.0267  22.0267  22.1596  22.1596  22.4861  22.4861  22.7274  22.7274
    27.8467  27.8467  28.7734  28.7734  29.9518  29.9518  30.5813  30.5813
    31.9400  31.9400  32.2084  32.2084  32.7622  32.7622  33.3458  33.3458
    33.4185  33.4185  33.8172  33.8172  33.9165  33.9165  34.1633  34.1633
    36.0044  36.0044  36.4149  36.4149  37.4650  37.4650  39.1033  39.1033
    42.2040  42.2040  42.4063  42.4063  43.7177  43.7177  44.7469  44.7469
    45.5812  45.5812  46.9509  46.9509  47.0838  47.0838  47.5186  47.5186
    48.1764  48.1764  48.5911  48.5911  48.9337  48.9337  49.4231  49.4231
    50.0300  50.0300  50.3212  50.3212  50.4899  50.4899  50.8819  50.8819
    51.3723  51.3723  51.8244  51.8245

          k =-0.4608 0.2350-0.2439 (  3704 PWs)   bands (ev):

   -67.6288 -67.6288 -67.5986 -67.5986 -67.5008 -67.5008 -67.4950 -67.4950
   -34.5200 -34.5200 -34.5043 -34.5043 -27.1223 -27.1223 -27.0589 -27.0589
   -27.0460 -27.0460 -27.0255 -27.0255 -26.9716 -26.9716 -26.9469 -26.9469
   -26.8891 -26.8891 -26.8442 -26.8442 -26.8099 -26.8099 -26.7980 -26.7980
   -26.7285 -26.7285 -26.7112 -26.7112  -3.3224  -3.3224  -3.3020  -3.3020
    -3.2110  -3.2110  -3.1970  -3.1970  -2.9558  -2.9558  -2.9362  -2.9362
    19.8123  19.8123  20.1257  20.1257  20.2311  20.2311  20.3492  20.3492
    20.3744  20.3744  20.5726  20.5726  20.5958  20.5958  20.9123  20.9123
    21.0188  21.0188  21.0876  21.0876  21.1167  21.1167  21.4470  21.4470
    21.4640  21.4640  21.5568  21.5568  21.6361  21.6361  21.7329  21.7329
    21.9439  21.9439  22.2749  22.2749  22.3649  22.3649  22.7163  22.7163
    28.0590  28.0590  28.2909  28.2909  30.0377  30.0377  30.4193  30.4193
    32.2790  32.2790  32.3284  32.3284  32.6253  32.6253  33.1869  33.1869
    33.6438  33.6438  33.6592  33.6592  34.0310  34.0310  34.0762  34.0762
    36.2251  36.2251  36.3693  36.3693  37.4894  37.4894  40.0980  40.0980
    41.2514  41.2514  42.0550  42.0550  43.1348  43.1348  44.3390  44.3390
    46.2432  46.2432  46.8509  46.8509  47.7636  47.7636  47.8695  47.8695
    48.2783  48.2783  48.3274  48.3274  49.0581  49.0581  49.3790  49.3790
    49.8606  49.8606  50.3387  50.3387  50.5597  50.5597  50.7101  50.7101
    50.9865  50.9865  51.6101  51.6101

     the Fermi energy is    45.5011 ev

!    total energy              =   -3843.14293144 Ry
     Harris-Foulkes estimate   =   -3843.14295164 Ry
     estimated scf accuracy    <       0.00002875 Ry

     The total energy is the sum of the following terms:

     one-electron contribution =    -340.18893963 Ry
     hartree contribution      =     464.36176959 Ry
     xc contribution           =    -337.34313749 Ry
     ewald contribution        =   -3629.57737421 Ry
     smearing contrib. (-TS)   =      -0.39524971 Ry

     convergence has been achieved in   7 iterations

     Forces acting on atoms (Ry/au):

     atom    1 type  1   force =     0.00000000   -0.03608486   -0.02841872
     atom    2 type  1   force =     0.00000000    0.03608486    0.02841872
     atom    3 type  1   force =     0.00000000   -0.03608486    0.02841872
     atom    4 type  1   force =     0.00000000    0.03608486   -0.02841872
     atom    5 type  1   force =     0.00000000    0.02639639   -0.03935602
     atom    6 type  1   force =     0.00000000   -0.02639639    0.03935602
     atom    7 type  1   force =     0.00000000    0.02639639    0.03935602
     atom    8 type  1   force =     0.00000000   -0.02639639   -0.03935602
     atom    9 type  2   force =     0.00000000   -0.08526971    0.05083422
     atom   10 type  2   force =     0.00000000    0.08526971   -0.05083422
     atom   11 type  2   force =     0.00000000   -0.08526971   -0.05083422
     atom   12 type  2   force =     0.00000000    0.08526971    0.05083422

     Total force =     0.238415     Total SCF correction =     0.000000


     entering subroutine stress ...

          total   stress  (Ry/bohr**3)                   (kbar)     P= 2281.83
   0.01677834   0.00000000   0.00000000       2468.18      0.00      0.00
   0.00000000   0.01457787   0.00000000          0.00   2144.48      0.00
   0.00000000   0.00000000   0.01517843          0.00      0.00   2232.82


     number of scf cycles    =   2
     number of bfgs steps    =   1

     enthalpy old            =   -3835.9830436463 Ry
     enthalpy new            =   -3843.1429314444 Ry

     CASE: enthalpy_new < enthalpy_old

     small trust_radius: resetting bfgs history

     new trust radius        =       2.7691648855 bohr
     new conv_thr            =       0.0000852697 Ry

     new unit-cell volume =   2911.04047 a.u.^3 (   431.37169 Ang^3 )

CELL_PARAMETERS (alat=  7.01510508)
   1.540306410   0.000000000   0.000000000
   0.000000000   1.935769515   0.000000000
   0.000000000   0.000000000   2.828035989

ATOMIC_POSITIONS (crystal)
Co       0.750000000   0.822319888   0.433444472
Co       0.250000000   0.177680112   0.566555528
Co       0.750000000   0.322319888   0.066555528
Co       0.250000000   0.677680112   0.933444472
Co       0.250000000   0.540336746   0.279078345
Co       0.750000000   0.459663254   0.720921655
Co       0.250000000   0.040336746   0.220921655
Co       0.750000000   0.959663254   0.779078345
Si       0.250000000   0.193005293   0.897468646
Si       0.750000000   0.806994707   0.102531354
Si       0.250000000   0.693005293   0.602531354
Si       0.750000000   0.306994707   0.397468646



     Writing output data file Prototype-La-oP12-Co2Si.save
     NEW-OLD atomic charge density approx. for the potential
     NEW k-points:
        k(    1) = (   0.0000000   0.0000000   0.0000000), wk =   0.0833333
        k(    2) = (   0.0000000   0.0000000   0.0884006), wk =   0.1666667
        k(    3) = (   0.0000000   0.0000000  -0.1768011), wk =   0.0833333
        k(    4) = (   0.0000000   0.1721968   0.0000000), wk =   0.1666667
        k(    5) = (   0.0000000   0.1721968   0.0884006), wk =   0.3333333
        k(    6) = (   0.0000000   0.1721968  -0.1768011), wk =   0.1666667
        k(    7) = (  -0.3246107   0.0000000   0.0000000), wk =   0.0833333
        k(    8) = (  -0.3246107   0.0000000   0.0884006), wk =   0.1666667
        k(    9) = (  -0.3246107   0.0000000  -0.1768011), wk =   0.0833333
        k(   10) = (  -0.3246107   0.1721968   0.0000000), wk =   0.1666667
        k(   11) = (  -0.3246107   0.1721968   0.0884006), wk =   0.3333333
        k(   12) = (  -0.3246107   0.1721968  -0.1768011), wk =   0.1666667

     total cpu time spent up to now is      376.3 secs

     Self-consistent Calculation

     iteration #  1     ecut=    40.00 Ry     beta=0.70
     CG style diagonalization
     c_bands:  2 eigenvalues not converged
     c_bands:  5 eigenvalues not converged
     c_bands:  3 eigenvalues not converged
     c_bands:  2 eigenvalues not converged
     c_bands:  3 eigenvalues not converged
     c_bands:  4 eigenvalues not converged
     c_bands:  2 eigenvalues not converged
     c_bands:  2 eigenvalues not converged
     c_bands:  2 eigenvalues not converged
     c_bands:  4 eigenvalues not converged
     c_bands:  4 eigenvalues not converged
     ethr =  1.00E-06,  avg # of iterations = 35.2

     total cpu time spent up to now is      510.2 secs

     total energy              =   -3699.33368339 Ry
     Harris-Foulkes estimate   =   -4083.99662389 Ry
     estimated scf accuracy    <     482.03228744 Ry

     iteration #  2     ecut=    40.00 Ry     beta=0.70
     CG style diagonalization
     ethr =  1.00E-02,  avg # of iterations =  6.0

     total cpu time spent up to now is      550.1 secs

     total energy              =   -3781.99162282 Ry
     Harris-Foulkes estimate   =   -3821.09501106 Ry
     estimated scf accuracy    <      53.07897674 Ry

     iteration #  3     ecut=    40.00 Ry     beta=0.70
     CG style diagonalization
     ethr =  1.00E-02,  avg # of iterations =  5.2

     total cpu time spent up to now is      577.2 secs

     total energy              =   -3804.70926150 Ry
     Harris-Foulkes estimate   =   -3824.71470745 Ry
     estimated scf accuracy    <      46.04218306 Ry

     iteration #  4     ecut=    40.00 Ry     beta=0.70
     CG style diagonalization
     ethr =  1.00E-02,  avg # of iterations =  3.5

     total cpu time spent up to now is      593.5 secs

     total energy              =   -3809.75098676 Ry
     Harris-Foulkes estimate   =   -3811.01301455 Ry
     estimated scf accuracy    <       4.11983803 Ry

     iteration #  5     ecut=    40.00 Ry     beta=0.70
     CG style diagonalization
     ethr =  1.58E-03,  avg # of iterations =  3.2

     total cpu time spent up to now is      607.8 secs

     total energy              =   -3809.48012807 Ry
     Harris-Foulkes estimate   =   -3810.14010800 Ry
     estimated scf accuracy    <       1.42229228 Ry

     iteration #  6     ecut=    40.00 Ry     beta=0.70
     CG style diagonalization
     ethr =  5.47E-04,  avg # of iterations =  3.4

     total cpu time spent up to now is      623.8 secs

     total energy              =   -3809.67698821 Ry
     Harris-Foulkes estimate   =   -3809.71941355 Ry
     estimated scf accuracy    <       0.08276477 Ry

     iteration #  7     ecut=    40.00 Ry     beta=0.70
     CG style diagonalization
     c_bands:  1 eigenvalues not converged
     ethr =  3.18E-05,  avg # of iterations =  3.8

     total cpu time spent up to now is      643.3 secs

     total energy              =   -3809.69456030 Ry
     Harris-Foulkes estimate   =   -3809.70845428 Ry
     estimated scf accuracy    <       0.02732923 Ry

     iteration #  8     ecut=    40.00 Ry     beta=0.70
     CG style diagonalization
     ethr =  1.05E-05,  avg # of iterations =  3.5

     total cpu time spent up to now is      660.5 secs

     total energy              =   -3809.70044655 Ry
     Harris-Foulkes estimate   =   -3809.70172331 Ry
     estimated scf accuracy    <       0.00205926 Ry

     iteration #  9     ecut=    40.00 Ry     beta=0.70
     CG style diagonalization
     ethr =  7.92E-07,  avg # of iterations =  3.4

     total cpu time spent up to now is      675.7 secs

     total energy              =   -3809.70106416 Ry
     Harris-Foulkes estimate   =   -3809.70117886 Ry
     estimated scf accuracy    <       0.00025170 Ry

     iteration # 10     ecut=    40.00 Ry     beta=0.70
     CG style diagonalization
     ethr =  9.68E-08,  avg # of iterations =  3.5

     total cpu time spent up to now is      690.3 secs

     End of self-consistent calculation

          k = 0.0000 0.0000 0.0000 (  3675 PWs)   bands (ev):

   -95.4587 -95.4066 -95.4027 -95.3292 -95.2876 -95.2359 -95.1945 -95.1678
   -61.3525 -61.3081 -61.3022 -61.2782 -61.2674 -61.2567 -61.2563 -61.2395
   -61.2228 -61.2035 -61.1960 -61.1781 -61.1631 -61.1629 -61.1620 -61.1416
   -61.0814 -61.0366 -61.0239 -61.0066 -60.9451 -60.9332 -60.8989 -60.8896
   -56.0375 -56.0078 -55.9945 -55.9491 -28.2646 -28.2645 -28.2634 -28.2614
   -28.2613 -28.2598 -28.2586 -28.2581 -28.2502 -28.2487 -28.2472 -28.2472
    -6.7872  -6.6475  -6.6421  -6.5735  -6.5365  -6.5122  -6.4985  -6.4933
    -6.4311  -6.3931  -6.3718  -6.3701  -6.3589  -6.2686  -6.2629  -6.2336
    -6.2236  -6.1817  -6.1809  -6.1517  -6.1208  -6.1167  -6.0954  -6.0469
    -5.9467  -5.9397  -5.9231  -5.9133  -5.9069  -5.8603  -5.8270  -5.8255
    -5.8173  -5.8101  -5.7241  -5.6559  -5.6458  -5.5624  -5.5521  -5.5328
     3.6326   4.5981   4.9842   5.6773   6.0250   6.2334   6.4354   6.7127
     8.6777   8.7378   8.7641   8.8771   8.9776   8.9914   9.0171   9.1019
     9.1072   9.1151   9.1331   9.1595   9.2476   9.2584   9.3282   9.3542
     9.3787   9.3971   9.7901   9.8058  10.3783  10.4578  10.8426  11.1175
    11.4714  12.2313  12.4617  12.5795  12.6627  12.7009  12.7950  13.2338
    13.7804  13.9714  14.2378  14.3742  14.3751  14.8152  14.8506  14.9204
    15.2105  15.4070  15.8045  15.9084  16.0243  16.6651  16.8408  17.0964
    17.4576  18.3161  18.7749  19.2454  19.2889  19.7166  19.9637  19.9676
    20.6009  20.7424  20.8534  21.0832

          k = 0.0000 0.0000 0.0884 (  3675 PWs)   bands (ev):

   -95.5072 -95.4550 -95.4163 -95.2987 -95.2765 -95.2253 -95.1642 -95.1572
   -61.3516 -61.3479 -61.3016 -61.2975 -61.2655 -61.2571 -61.2479 -61.2370
   -61.2231 -61.2067 -61.1906 -61.1798 -61.1727 -61.1591 -61.1559 -61.1444
   -61.0686 -61.0536 -61.0325 -60.9513 -60.9429 -60.9148 -60.8927 -60.8784
   -56.0274 -56.0271 -55.9816 -55.9511 -28.2646 -28.2642 -28.2624 -28.2624
   -28.2612 -28.2604 -28.2585 -28.2583 -28.2517 -28.2498 -28.2472 -28.2467
    -6.7656  -6.7575  -6.6510  -6.6009  -6.5358  -6.5196  -6.4993  -6.4689
    -6.4456  -6.4090  -6.3914  -6.3887  -6.3757  -6.3108  -6.2980  -6.2621
    -6.2537  -6.2448  -6.1671  -6.1589  -6.1509  -6.1247  -6.1184  -6.0449
    -6.0385  -5.9907  -5.9158  -5.8816  -5.8682  -5.8198  -5.8110  -5.8019
    -5.7517  -5.7302  -5.7195  -5.6421  -5.5771  -5.5612  -5.4377  -5.4204
     3.7120   4.2894   5.3317   5.6996   6.0188   6.2623   6.3931   6.4979
     8.7509   8.7725   8.7973   8.9001   8.9695   8.9885   9.0235   9.0715
     9.0978   9.1727   9.1744   9.1880   9.2509   9.2544   9.3478   9.3514
     9.3670   9.3829   9.7911   9.8006  10.4478  10.6710  10.7983  11.1564
    11.4669  11.8331  11.9002  12.2496  12.5729  12.9965  13.3939  13.5017
    13.8302  13.9480  14.1455  14.3536  14.3996  14.4983  14.7803  14.8895
    14.9530  15.4611  15.5524  15.8540  16.6015  16.9847  17.0123  17.5672
    17.6406  18.2388  18.5433  19.0065  19.4710  19.7233  19.8906  19.9865
    20.4658  20.4785  20.5497  20.8551

          k = 0.0000 0.0000-0.1768 (  3690 PWs)   bands (ev):

   -95.4858 -95.4858 -95.4094 -95.4094 -95.3135 -95.3135 -95.1794 -95.1794
   -61.3579 -61.3579 -61.3159 -61.3159 -61.2807 -61.2807 -61.2659 -61.2659
   -61.2458 -61.2458 -61.2108 -61.2108 -61.1557 -61.1557 -61.1407 -61.1407
   -61.0431 -61.0431 -60.9967 -60.9967 -60.9039 -60.9039 -60.8829 -60.8829
   -56.0715 -56.0715 -55.9894 -55.9894 -28.2658 -28.2658 -28.2636 -28.2636
   -28.2609 -28.2609 -28.2585 -28.2585 -28.2524 -28.2524 -28.2483 -28.2483
    -6.8289  -6.8289  -6.7381  -6.7381  -6.5996  -6.5996  -6.5504  -6.5504
    -6.4965  -6.4965  -6.4075  -6.4075  -6.3400  -6.3400  -6.3336  -6.3336
    -6.2503  -6.2503  -6.2200  -6.2200  -6.1256  -6.1256  -6.0973  -6.0973
    -6.0246  -6.0246  -5.9349  -5.9349  -5.8392  -5.8392  -5.8244  -5.8244
    -5.7211  -5.7211  -5.6545  -5.6545  -5.6270  -5.6270  -5.4327  -5.4327
     3.9360   3.9360   5.6770   5.6770   6.1144   6.1144   6.3199   6.3199
     8.7900   8.7900   8.8635   8.8635   8.9883   8.9883   9.0334   9.0334
     9.1186   9.1186   9.2086   9.2086   9.2992   9.2992   9.3541   9.3541
     9.3566   9.3566   9.7646   9.7646  10.6093  10.6093  11.1835  11.1835
    11.3021  11.3021  11.9919  11.9919  12.5965  12.5965  13.8492  13.8492
    13.8892  13.8892  14.2321  14.2321  14.3479  14.3479  14.8492  14.8492
    14.9387  14.9387  15.6839  15.6839  16.8810  16.8810  17.9894  17.9894
    18.0148  18.0148  18.4195  18.4195  19.5721  19.5721  19.9158  19.9158
    20.1677  20.1677  20.8102  20.8102

          k = 0.0000 0.1722 0.0000 (  3664 PWs)   bands (ev):

   -95.4618 -95.3995 -95.3927 -95.3364 -95.2381 -95.2094 -95.1713 -95.1123
   -61.3352 -61.3038 -61.2902 -61.2609 -61.2538 -61.2531 -61.2402 -61.2279
   -61.2176 -61.2020 -61.1936 -61.1819 -61.1809 -61.1783 -61.1352 -61.1192
   -61.0566 -61.0442 -61.0379 -60.9857 -60.9650 -60.9209 -60.8593 -60.8379
   -56.0796 -56.0227 -55.9183 -55.8601 -28.2641 -28.2639 -28.2622 -28.2619
   -28.2619 -28.2611 -28.2581 -28.2581 -28.2507 -28.2500 -28.2467 -28.2453
    -6.6651  -6.6332  -6.6037  -6.5506  -6.5434  -6.4803  -6.4244  -6.4041
    -6.3711  -6.3557  -6.3284  -6.3185  -6.3082  -6.2993  -6.2950  -6.2895
    -6.2124  -6.1908  -6.1750  -6.1745  -6.1728  -6.1515  -6.1280  -6.0337
    -6.0061  -5.9965  -5.9315  -5.8843  -5.8400  -5.8327  -5.8206  -5.7863
    -5.7365  -5.7061  -5.6990  -5.5980  -5.5752  -5.5744  -5.3819  -5.3659
     3.9360   4.7331   4.8870   5.2679   5.7965   5.7965   6.8156   6.9217
     8.6483   8.7022   8.7583   8.7938   8.8470   8.8983   8.9910   9.0985
     9.1105   9.1355   9.1398   9.1475   9.1719   9.1920   9.3232   9.3292
     9.3405   9.3965   9.5467   9.6508  10.6565  10.6958  11.0827  11.9254
    12.1854  12.4079  12.4591  12.5693  12.8574  12.8714  12.9306  13.0058
    13.4592  13.7424  13.9694  14.0126  14.4132  14.5894  14.8183  14.8904
    15.3314  15.6960  15.9169  16.1914  16.3299  16.5540  17.3651  17.3880
    17.9355  18.2927  18.8211  18.9769  19.0915  19.2786  19.3624  19.6895
    20.2897  20.3131  20.3871  20.6503

          k = 0.0000 0.1722 0.0884 (  3669 PWs)   bands (ev):

   -95.4774 -95.4159 -95.3765 -95.3502 -95.2558 -95.2337 -95.1672 -95.1407
   -61.3388 -61.3150 -61.2969 -61.2935 -61.2712 -61.2552 -61.2523 -61.2468
   -61.2298 -61.2172 -61.2046 -61.1830 -61.1753 -61.1581 -61.1346 -61.1291
   -61.0553 -61.0466 -60.9992 -60.9809 -60.9425 -60.9187 -60.8642 -60.8396
   -56.0695 -55.9950 -55.9593 -55.9119 -28.2651 -28.2640 -28.2626 -28.2616
   -28.2614 -28.2614 -28.2581 -28.2579 -28.2517 -28.2505 -28.2463 -28.2459
    -6.7065  -6.6918  -6.6515  -6.6098  -6.5265  -6.5162  -6.4769  -6.4446
    -6.4215  -6.3997  -6.3814  -6.3369  -6.3312  -6.3004  -6.2775  -6.2648
    -6.2438  -6.2316  -6.2105  -6.1752  -6.1628  -6.1300  -6.0865  -6.0705
    -6.0138  -5.9865  -5.9606  -5.9505  -5.8582  -5.8296  -5.8020  -5.7350
    -5.7078  -5.6764  -5.6561  -5.6109  -5.5917  -5.5546  -5.4162  -5.3204
     4.0127   4.5518   4.8734   5.3004   5.7484   6.0996   6.7038   6.7694
     8.7212   8.7481   8.7657   8.8067   8.8923   8.9759   8.9854   9.0621
     9.0830   9.1343   9.1395   9.1417   9.1629   9.2198   9.3151   9.3584
     9.3687   9.3943   9.5277   9.6292  10.7032  10.7399  11.2416  11.6943
    11.8118  12.1787  12.2225  12.5173  12.5381  12.9407  13.0761  13.2348
    13.6400  13.8119  14.1242  14.4158  14.4194  14.5413  14.8952  15.0298
    15.2822  15.5627  15.9484  15.9815  16.2211  16.4788  17.4325  17.7346
    18.1768  18.3568  18.5474  18.6777  19.0619  19.1722  19.4904  19.6074
    19.9994  20.1758  20.3519  20.7481

          k = 0.0000 0.1722-0.1768 (  3666 PWs)   bands (ev):

   -95.3886 -95.3886 -95.3534 -95.3534 -95.2714 -95.2714 -95.1658 -95.1658
   -61.3180 -61.3180 -61.2958 -61.2958 -61.2633 -61.2633 -61.2477 -61.2477
   -61.2090 -61.2090 -61.1873 -61.1873 -61.1618 -61.1618 -61.1531 -61.1531
   -61.0391 -61.0391 -60.9975 -60.9975 -60.9291 -60.9291 -60.8628 -60.8628
   -56.0223 -56.0223 -55.9312 -55.9312 -28.2633 -28.2633 -28.2626 -28.2626
   -28.2612 -28.2612 -28.2580 -28.2580 -28.2507 -28.2507 -28.2464 -28.2464
    -6.6652  -6.6652  -6.5621  -6.5621  -6.5190  -6.5190  -6.4421  -6.4421
    -6.4174  -6.4174  -6.3518  -6.3518  -6.3086  -6.3086  -6.2351  -6.2351
    -6.1857  -6.1857  -6.1767  -6.1767  -6.1343  -6.1343  -6.0816  -6.0816
    -5.9800  -5.9800  -5.8836  -5.8836  -5.8767  -5.8767  -5.7942  -5.7942
    -5.7272  -5.7272  -5.7260  -5.7260  -5.5757  -5.5757  -5.3865  -5.3865
     4.2310   4.2310   5.0542   5.0542   6.1277   6.1277   6.5803   6.5803
     8.7600   8.7600   8.7822   8.7822   8.9791   8.9791   9.0569   9.0569
     9.1077   9.1077   9.1255   9.1255   9.2098   9.2098   9.3561   9.3561
     9.4048   9.4048   9.5759   9.5759  10.7775  10.7775  11.4323  11.4323
    11.6480  11.6480  12.3463  12.3463  12.8128  12.8128  12.9886  12.9886
    13.9702  13.9702  14.3988  14.3988  14.4672  14.4672  15.1250  15.1250
    15.5050  15.5050  15.7650  15.7650  16.4189  16.4189  17.7336  17.7336
    17.9177  17.9177  18.4588  18.4589  19.3548  19.3548  19.8142  19.8143
    20.1661  20.1662  20.2370  20.2370

          k =-0.3246 0.0000 0.0000 (  3722 PWs)   bands (ev):

   -95.4784 -95.4784 -95.4726 -95.4726 -95.3496 -95.3496 -95.3352 -95.3352
   -61.3147 -61.3147 -61.3046 -61.3046 -61.2901 -61.2901 -61.2609 -61.2609
   -61.2430 -61.2430 -61.2267 -61.2267 -61.2086 -61.2086 -61.1886 -61.1886
   -61.0950 -61.0950 -61.0638 -61.0638 -61.0193 -61.0193 -61.0059 -61.0059
   -56.1290 -56.1290 -56.1034 -56.1034 -28.2649 -28.2649 -28.2646 -28.2646
   -28.2588 -28.2588 -28.2585 -28.2585 -28.2501 -28.2501 -28.2501 -28.2501
    -6.8079  -6.8079  -6.6809  -6.6809  -6.6148  -6.6148  -6.6065  -6.6065
    -6.5571  -6.5571  -6.4923  -6.4923  -6.3825  -6.3825  -6.3814  -6.3814
    -6.3539  -6.3539  -6.2016  -6.2016  -6.1675  -6.1675  -6.1371  -6.1371
    -6.0647  -6.0647  -6.0253  -6.0253  -5.9870  -5.9870  -5.9693  -5.9693
    -5.9623  -5.9623  -5.8963  -5.8963  -5.8955  -5.8955  -5.8533  -5.8533
     4.5117   4.5117   5.5070   5.5070   5.6457   5.6457   6.3784   6.3784
     8.7795   8.7795   8.8972   8.8972   9.0115   9.0115   9.1206   9.1206
     9.1457   9.1457   9.1531   9.1531   9.2262   9.2262   9.2951   9.2951
     9.4449   9.4449   9.6481   9.6481  10.1290  10.1290  10.8555  10.8555
    10.9983  10.9983  11.6363  11.6363  12.0249  12.0249  12.9114  12.9114
    13.8561  13.8561  14.5532  14.5532  14.6862  14.6862  15.6362  15.6362
    16.1210  16.1210  16.8061  16.8061  16.9760  16.9760  17.3774  17.3774
    18.9669  18.9669  19.8774  19.8774  20.0408  20.0410  20.0858  20.0859
    20.7335  20.7335  21.1326  21.1326

          k =-0.3246 0.0000 0.0884 (  3710 PWs)   bands (ev):

   -95.4665 -95.4665 -95.4373 -95.4373 -95.3629 -95.3629 -95.2716 -95.2716
   -61.3238 -61.3238 -61.2972 -61.2972 -61.2782 -61.2782 -61.2416 -61.2416
   -61.2349 -61.2349 -61.2218 -61.2218 -61.2014 -61.2014 -61.1689 -61.1689
   -61.1069 -61.1069 -61.0471 -61.0471 -60.9962 -60.9962 -60.9825 -60.9825
   -56.0915 -56.0915 -56.0834 -56.0834 -28.2654 -28.2654 -28.2638 -28.2638
   -28.2590 -28.2590 -28.2582 -28.2582 -28.2509 -28.2509 -28.2493 -28.2493
    -6.7426  -6.7426  -6.6908  -6.6908  -6.5779  -6.5779  -6.5627  -6.5627
    -6.4996  -6.4996  -6.4723  -6.4723  -6.3958  -6.3958  -6.3715  -6.3715
    -6.2752  -6.2752  -6.1823  -6.1823  -6.1234  -6.1234  -6.0950  -6.0950
    -6.0775  -6.0775  -6.0148  -6.0148  -5.9734  -5.9734  -5.9479  -5.9479
    -5.8874  -5.8874  -5.8725  -5.8725  -5.8301  -5.8301  -5.7976  -5.7976
     4.5385   4.5385   5.3661   5.3661   5.7520   5.7520   6.3691   6.3691
     8.8552   8.8552   8.9334   8.9334   9.0634   9.0634   9.1069   9.1069
     9.1316   9.1316   9.1779   9.1779   9.2505   9.2505   9.2952   9.2952
     9.4484   9.4484   9.6687   9.6687  10.1771  10.1771  10.5806  10.5806
    11.1913  11.1913  11.5365  11.5365  12.1127  12.1127  12.7496  12.7496
    13.6205  13.6205  14.5299  14.5299  14.8383  14.8383  15.8954  15.8954
    16.4465  16.4465  16.7592  16.7592  17.0520  17.0520  17.4074  17.4074
    18.9811  18.9811  19.3855  19.3855  19.9854  19.9854  20.2456  20.2456
    20.6174  20.6174  20.9565  20.9565

          k =-0.3246 0.0000-0.1768 (  3680 PWs)   bands (ev):

   -95.4364 -95.4364 -95.3548 -95.3548 -95.2594 -95.2594 -95.2373 -95.2373
   -61.3139 -61.3139 -61.3086 -61.3086 -61.2453 -61.2453 -61.2370 -61.2370
   -61.2185 -61.2185 -61.1926 -61.1926 -61.1651 -61.1651 -61.1355 -61.1355
   -61.0975 -61.0975 -61.0284 -61.0284 -60.9672 -60.9672 -60.9382 -60.9382
   -56.0345 -56.0345 -55.9940 -55.9940 -28.2639 -28.2639 -28.2628 -28.2628
   -28.2585 -28.2585 -28.2581 -28.2581 -28.2499 -28.2499 -28.2485 -28.2485
    -6.6716  -6.6716  -6.6054  -6.6054  -6.4846  -6.4846  -6.4477  -6.4477
    -6.4259  -6.4259  -6.3960  -6.3960  -6.3761  -6.3761  -6.3440  -6.3440
    -6.2937  -6.2937  -6.0963  -6.0963  -6.0713  -6.0713  -6.0447  -6.0447
    -5.9830  -5.9830  -5.9729  -5.9729  -5.8959  -5.8959  -5.8736  -5.8736
    -5.7761  -5.7761  -5.7723  -5.7723  -5.6849  -5.6849  -5.6604  -5.6604
     4.5759   4.5759   5.2699   5.2699   5.8127   5.8127   6.3579   6.3579
     8.9329   8.9329   8.9363   8.9363   9.1083   9.1083   9.1419   9.1419
     9.1651   9.1651   9.1958   9.1958   9.2618   9.2618   9.2811   9.2811
     9.5103   9.5103   9.7778   9.7778  10.1644  10.1644  10.3902  10.3902
    11.0240  11.0240  11.9097  11.9097  11.9571  11.9571  12.9780  12.9780
    13.0234  13.0234  14.2922  14.2922  15.6063  15.6063  15.8567  15.8567
    16.6705  16.6705  16.8581  16.8581  17.1434  17.1434  17.2911  17.2911
    18.8484  18.8484  19.3793  19.3793  20.0007  20.0008  20.2425  20.2426
    20.5403  20.5403  20.6425  20.6425

          k =-0.3246 0.1722 0.0000 (  3686 PWs)   bands (ev):

   -95.3894 -95.3894 -95.3874 -95.3874 -95.3076 -95.3076 -95.2448 -95.2448
   -61.3017 -61.3017 -61.2837 -61.2837 -61.2484 -61.2484 -61.2465 -61.2465
   -61.2148 -61.2148 -61.2068 -61.2068 -61.1713 -61.1713 -61.1655 -61.1655
   -61.1039 -61.1039 -61.0568 -61.0568 -61.0203 -61.0203 -60.9867 -60.9867
   -56.0364 -56.0364 -56.0330 -56.0330 -28.2628 -28.2628 -28.2623 -28.2623
   -28.2580 -28.2580 -28.2578 -28.2578 -28.2476 -28.2476 -28.2472 -28.2472
    -6.6914  -6.6914  -6.5214  -6.5214  -6.4887  -6.4887  -6.4395  -6.4395
    -6.4224  -6.4224  -6.3963  -6.3963  -6.3408  -6.3408  -6.3147  -6.3147
    -6.2078  -6.2078  -6.1023  -6.1023  -6.1020  -6.1020  -6.0815  -6.0815
    -6.0571  -6.0571  -6.0064  -6.0064  -5.9810  -5.9810  -5.9603  -5.9603
    -5.9363  -5.9363  -5.8447  -5.8447  -5.8113  -5.8113  -5.8016  -5.8016
     4.7809   4.7809   5.3704   5.3704   5.7703   5.7703   5.9848   5.9848
     8.7751   8.7751   8.8215   8.8215   8.9206   8.9206   9.0076   9.0076
     9.1649   9.1649   9.1656   9.1656   9.2315   9.2315   9.2435   9.2435
     9.4610   9.4610   9.4759   9.4759  10.2318  10.2318  10.4335  10.4335
    11.5023  11.5023  12.3415  12.3415  12.8145  12.8145  13.5430  13.5430
    13.8961  13.8961  14.1070  14.1070  14.9174  14.9174  15.3066  15.3066
    16.1262  16.1262  16.4019  16.4019  16.8877  16.8878  17.3144  17.3144
    18.6603  18.6603  19.3003  19.3003  19.5703  19.5703  19.8800  19.8800
    20.4469  20.4469  20.5410  20.5410

          k =-0.3246 0.1722 0.0884 (  3692 PWs)   bands (ev):

   -95.4045 -95.4045 -95.3805 -95.3805 -95.3115 -95.3115 -95.2869 -95.2869
   -61.3188 -61.3188 -61.3010 -61.3010 -61.2546 -61.2546 -61.2414 -61.2414
   -61.2283 -61.2283 -61.2111 -61.2111 -61.1727 -61.1727 -61.1698 -61.1698
   -61.0821 -61.0821 -61.0473 -61.0473 -61.0031 -61.0031 -60.9786 -60.9786
   -56.0888 -56.0888 -56.0057 -56.0057 -28.2636 -28.2636 -28.2627 -28.2627
   -28.2584 -28.2584 -28.2579 -28.2579 -28.2488 -28.2488 -28.2473 -28.2473
    -6.6539  -6.6539  -6.5814  -6.5814  -6.5493  -6.5493  -6.5031  -6.5031
    -6.4548  -6.4548  -6.4035  -6.4035  -6.3723  -6.3723  -6.3218  -6.3218
    -6.2240  -6.2240  -6.1497  -6.1497  -6.1058  -6.1058  -6.0665  -6.0665
    -6.0403  -6.0403  -6.0084  -6.0084  -5.9709  -5.9709  -5.9334  -5.9334
    -5.9058  -5.9058  -5.8390  -5.8390  -5.8017  -5.8017  -5.7803  -5.7803
     4.8055   4.8055   5.3500   5.3500   5.7637   5.7637   5.9379   5.9379
     8.8343   8.8343   8.8872   8.8872   8.9356   8.9356   9.0173   9.0173
     9.1368   9.1368   9.1650   9.1650   9.2112   9.2112   9.2359   9.2359
     9.4691   9.4691   9.5372   9.5372  10.3190  10.3190  10.4884  10.4884
    11.4305  11.4305  11.7524  11.7524  12.7386  12.7386  13.3929  13.3929
    14.0789  14.0789  14.4128  14.4128  15.2875  15.2875  15.5784  15.5784
    15.9352  15.9352  16.2939  16.2939  16.9084  16.9084  17.3943  17.3943
    18.5698  18.5698  19.3104  19.3104  19.3832  19.3832  19.6378  19.6378
    20.1923  20.1923  20.4642  20.4643

          k =-0.3246 0.1722-0.1768 (  3704 PWs)   bands (ev):

   -95.4444 -95.4444 -95.4096 -95.4096 -95.3221 -95.3221 -95.3143 -95.3143
   -61.3441 -61.3441 -61.3130 -61.3130 -61.2564 -61.2564 -61.2561 -61.2561
   -61.2254 -61.2254 -61.2232 -61.2232 -61.1735 -61.1735 -61.1505 -61.1505
   -61.0931 -61.0931 -61.0591 -61.0591 -61.0029 -61.0029 -60.9861 -60.9861
   -56.1224 -56.1224 -56.0333 -56.0333 -28.2641 -28.2641 -28.2638 -28.2638
   -28.2586 -28.2586 -28.2581 -28.2581 -28.2494 -28.2494 -28.2487 -28.2487
    -6.7117  -6.7117  -6.6381  -6.6381  -6.5931  -6.5931  -6.4908  -6.4908
    -6.4885  -6.4885  -6.4460  -6.4460  -6.4384  -6.4384  -6.3220  -6.3220
    -6.2505  -6.2505  -6.2142  -6.2142  -6.1295  -6.1295  -6.1250  -6.1250
    -6.0601  -6.0601  -6.0451  -6.0451  -6.0302  -6.0302  -5.9769  -5.9769
    -5.8943  -5.8943  -5.8475  -5.8475  -5.7597  -5.7597  -5.7476  -5.7476
[...]
    15.4687  15.5630  15.7137  15.7565  15.8674  15.9302  15.9421  15.9645
    18.6513  20.2511  22.6941  22.8576  24.2110  24.7922  25.2950  25.6494
    26.1884  26.3144  26.4889  26.7697  26.9853  27.0154  27.2055  27.3688
    27.4390  27.7547  28.1655  28.4035  28.5277  28.6839  28.7090  28.8232
    30.0886  30.1048  30.7265  30.9041  30.9112  31.7869  31.9897  33.3103
    33.7483  34.2675  34.5375  35.5149  35.6718  36.5376  36.7814  36.8976
    37.0692  37.1991  37.3904  37.7428  38.1641  38.2521  38.4959  39.0867
    39.0957  39.6082  39.9214  40.1794  40.4693  40.6342  41.2092  41.2704
    41.6796  41.8621  42.0969  42.2885  42.8128  43.1511  43.2735  43.6251
    43.8265  44.0431  44.7340  44.9426

          k = 0.0000 0.0000-0.2309 (  5538 PWs)   bands (ev):

   -75.0758 -75.0758 -75.0434 -75.0434 -74.9968 -74.9968 -74.9754 -74.9754
   -40.7473 -40.7473 -40.7400 -40.7400 -33.8864 -33.8864 -33.8559 -33.8559
   -33.8409 -33.8409 -33.8246 -33.8246 -33.8101 -33.8100 -33.7895 -33.7895
   -33.7629 -33.7629 -33.7422 -33.7422 -33.7281 -33.7281 -33.7243 -33.7243
   -33.6951 -33.6951 -33.6470 -33.6470  -9.4366  -9.4366  -9.4206  -9.4206
    -9.3993  -9.3993  -9.3917  -9.3917  -9.2436  -9.2436  -9.2111  -9.2111
    13.7379  13.7379  13.7494  13.7494  13.8815  13.8815  14.1739  14.1739
    14.1776  14.1776  14.4510  14.4510  14.4643  14.4643  14.6431  14.6432
    14.7997  14.7998  14.8326  14.8326  14.8470  14.8470  14.9807  14.9807
    15.1517  15.1517  15.1898  15.1898  15.2101  15.2101  15.3283  15.3283
    15.6287  15.6287  15.6523  15.6523  15.9190  15.9190  15.9385  15.9385
    19.2624  19.2624  23.2470  23.2470  24.0850  24.0850  25.4623  25.4623
    26.3755  26.3755  26.5116  26.5116  27.0924  27.0924  27.2032  27.2032
    27.3412  27.3412  28.4818  28.4818  28.5221  28.5221  29.4898  29.4898
    29.8303  29.8303  30.9836  30.9836  31.6181  31.6181  32.1310  32.1310
    33.7345  33.7345  35.0646  35.0646  35.6097  35.6097  36.9822  36.9823
    37.0429  37.0429  37.9332  37.9332  38.2271  38.2271  38.9303  38.9303
    39.3694  39.3694  39.6821  39.6821  40.8908  40.8908  40.9148  40.9149
    42.0148  42.0148  42.3965  42.3966  42.9087  42.9087  43.2434  43.2434
    44.0874  44.0875  44.7642  44.8952

          k = 0.0000 0.2232 0.0000 (  5505 PWs)   bands (ev):

   -75.0598 -75.0490 -75.0410 -75.0283 -74.9815 -74.9798 -74.9745 -74.9495
   -40.7449 -40.7444 -40.7395 -40.7343 -33.8761 -33.8687 -33.8565 -33.8486
   -33.8348 -33.8200 -33.8077 -33.7984 -33.7959 -33.7886 -33.7749 -33.7739
   -33.7719 -33.7536 -33.7507 -33.7414 -33.7341 -33.7259 -33.7223 -33.7126
   -33.6881 -33.6769 -33.6699 -33.6549  -9.4382  -9.4269  -9.4167  -9.4036
    -9.4020  -9.3990  -9.3914  -9.3810  -9.2398  -9.2390  -9.2147  -9.1940
    13.8501  13.8696  13.8933  13.9701  14.0321  14.0869  14.0995  14.1916
    14.2010  14.2684  14.3219  14.4239  14.4641  14.5040  14.6267  14.6303
    14.6692  14.6807  14.7594  14.8405  14.8658  14.8984  14.9878  15.0421
    15.0732  15.1134  15.1663  15.1841  15.1998  15.2407  15.4404  15.4826
    15.4863  15.5076  15.6463  15.6849  15.7056  15.9039  15.9134  15.9569
    19.1818  21.1037  21.9604  22.3267  23.7492  24.0313  25.3930  25.9203
    25.9265  25.9414  26.2035  26.4945  26.7699  27.1136  27.3492  27.3802
    27.5886  27.8214  27.9760  28.0014  28.0996  28.3512  28.3561  28.3805
    29.3345  29.6222  30.9317  31.4145  31.7679  33.2739  33.3938  33.7839
    34.4120  35.0118  35.0251  35.2240  35.3341  35.5406  35.6065  36.7775
    36.9721  37.0761  37.2649  37.5657  37.9370  37.9436  39.1587  39.7632
    40.1295  40.1558  40.5669  40.6433  41.0319  41.4213  41.4516  41.6194
    42.0908  42.1075  42.1817  42.2780  42.5322  42.9390  43.0771  43.1156
    43.6108  43.7662  44.0226  44.0406

          k = 0.0000 0.2232 0.1155 (  5522 PWs)   bands (ev):

   -75.0668 -75.0597 -75.0458 -75.0396 -74.9907 -74.9877 -74.9769 -74.9587
   -40.7475 -40.7450 -40.7392 -40.7383 -33.8834 -33.8642 -33.8596 -33.8510
   -33.8362 -33.8262 -33.8099 -33.8059 -33.7997 -33.7897 -33.7847 -33.7763
   -33.7741 -33.7592 -33.7484 -33.7431 -33.7413 -33.7329 -33.7265 -33.7198
   -33.6954 -33.6824 -33.6623 -33.6575  -9.4393  -9.4357  -9.4192  -9.4092
    -9.4084  -9.4024  -9.3919  -9.3845  -9.2498  -9.2429  -9.2112  -9.1963
    13.8271  13.8486  13.8594  13.9371  14.0547  14.0783  14.1181  14.2310
    14.2497  14.3299  14.3363  14.3654  14.4932  14.5175  14.5834  14.6051
    14.7043  14.7507  14.8153  14.8664  14.8673  14.9119  14.9242  15.0475
    15.0563  15.0818  15.1321  15.1659  15.1755  15.2688  15.3678  15.4257
    15.5303  15.5380  15.6458  15.6561  15.7454  15.8814  15.9238  15.9554
    19.3798  20.8690  21.4175  22.7733  23.3859  24.5695  25.2580  25.7083
    26.0026  26.0928  26.2179  26.4103  26.7424  27.0801  27.1735  27.4440
    27.5972  27.8565  27.8638  28.0139  28.3241  28.4582  28.4932  28.5546
    29.4623  29.9868  30.9874  31.7280  31.7679  32.8187  33.1759  33.5945
    33.9588  34.0804  34.4296  34.6229  35.2212  35.9224  36.7158  36.9585
    37.2483  37.5293  37.6933  37.9286  38.0941  38.4014  38.6515  39.0762
    39.6644  39.7622  40.1607  40.5973  40.9232  41.3163  41.6063  41.9732
    42.1649  42.2718  42.4069  42.7495  42.7789  42.8970  42.9897  42.9924
    43.3259  43.7081  43.9378  44.2921

          k = 0.0000 0.2232-0.2309 (  5498 PWs)   bands (ev):

   -75.0495 -75.0495 -75.0394 -75.0394 -74.9733 -74.9733 -74.9606 -74.9606
   -40.7432 -40.7432 -40.7374 -40.7374 -33.8666 -33.8666 -33.8516 -33.8516
   -33.8268 -33.8268 -33.7994 -33.7994 -33.7859 -33.7859 -33.7831 -33.7830
   -33.7631 -33.7631 -33.7422 -33.7422 -33.7271 -33.7271 -33.7190 -33.7190
   -33.6843 -33.6843 -33.6583 -33.6583  -9.4333  -9.4333  -9.4054  -9.4054
    -9.3949  -9.3949  -9.3909  -9.3909  -9.2451  -9.2450  -9.1974  -9.1973
    13.8106  13.8106  13.8763  13.8763  14.0959  14.0959  14.1544  14.1544
    14.3157  14.3157  14.4344  14.4344  14.4713  14.4713  14.5919  14.5919
    14.7970  14.7970  14.8052  14.8052  14.8889  14.8889  14.9838  14.9838
    15.0714  15.0714  15.1222  15.1222  15.2007  15.2007  15.3675  15.3675
    15.5935  15.5935  15.5980  15.5980  15.8241  15.8241  15.9451  15.9451
    19.9741  19.9741  21.9481  21.9481  24.2239  24.2239  25.4186  25.4186
    26.1674  26.1674  26.2729  26.2729  26.7732  26.7732  27.3347  27.3348
    27.7022  27.7022  27.9832  27.9832  28.5246  28.5246  28.6348  28.6348
    30.2231  30.2231  31.1228  31.1228  32.4384  32.4384  32.6440  32.6440
    33.7936  33.7936  34.7825  34.7825  35.1974  35.1974  36.9009  36.9009
    37.8214  37.8214  38.1836  38.1836  38.2580  38.2580  39.0244  39.0245
    39.3742  39.3743  39.8629  39.8629  41.4257  41.4257  41.8636  41.8636
    42.0232  42.0233  42.6187  42.6187  42.6326  42.6327  43.2992  43.2992
    43.4617  43.4618  44.0826  44.0827

          k =-0.4323 0.0000 0.0000 (  5516 PWs)   bands (ev):

   -75.0526 -75.0526 -75.0519 -75.0519 -74.9916 -74.9916 -74.9676 -74.9676
   -40.7449 -40.7449 -40.7418 -40.7418 -33.8759 -33.8759 -33.8570 -33.8570
   -33.8393 -33.8393 -33.8141 -33.8141 -33.8086 -33.8086 -33.7822 -33.7822
   -33.7665 -33.7665 -33.7415 -33.7415 -33.7243 -33.7243 -33.7213 -33.7213
   -33.6849 -33.6849 -33.6438 -33.6438  -9.4436  -9.4436  -9.4389  -9.4389
    -9.3878  -9.3878  -9.3754  -9.3754  -9.2246  -9.2246  -9.2080  -9.2080
    13.8518  13.8518  13.9254  13.9254  14.0495  14.0495  14.2480  14.2480
    14.4579  14.4579  14.4704  14.4704  14.5003  14.5003  14.5219  14.5219
    14.6724  14.6724  14.7526  14.7526  14.8184  14.8184  14.8762  14.8762
    14.9565  14.9565  15.0129  15.0129  15.1776  15.1776  15.2933  15.2933
    15.3619  15.3619  15.6298  15.6298  15.8489  15.8489  15.9971  15.9971
    21.2428  21.2428  23.4529  23.4529  23.4563  23.4563  25.3926  25.3926
    26.1984  26.1984  26.4989  26.4989  27.0589  27.0589  27.4148  27.4148
    27.5874  27.5874  27.9250  27.9250  28.4045  28.4045  28.5940  28.5940
    28.7456  28.7456  29.0296  29.0296  32.0728  32.0728  32.6627  32.6627
    33.3954  33.3954  33.9808  33.9808  34.1051  34.1051  36.0317  36.0317
    36.9441  36.9441  38.9125  38.9125  39.3451  39.3451  40.3091  40.3091
    40.6886  40.6887  41.0154  41.0154  41.0703  41.0703  42.1217  42.1218
    42.5437  42.5438  42.6781  42.6781  43.7171  43.7172  43.7561  43.7562
    44.3343  44.3347  44.4621  44.4634

          k =-0.4323 0.0000 0.1155 (  5532 PWs)   bands (ev):

   -75.0624 -75.0624 -75.0519 -75.0519 -75.0010 -75.0010 -74.9756 -74.9756
   -40.7462 -40.7462 -40.7432 -40.7432 -33.8833 -33.8833 -33.8583 -33.8583
   -33.8391 -33.8391 -33.8161 -33.8161 -33.8115 -33.8115 -33.7815 -33.7815
   -33.7719 -33.7719 -33.7432 -33.7432 -33.7351 -33.7351 -33.7221 -33.7221
   -33.6882 -33.6882 -33.6501 -33.6501  -9.4404  -9.4404  -9.4379  -9.4379
    -9.3921  -9.3921  -9.3819  -9.3819  -9.2312  -9.2312  -9.2153  -9.2153
    13.8476  13.8476  13.9530  13.9530  14.0601  14.0601  14.2529  14.2529
    14.3656  14.3656  14.4202  14.4202  14.5361  14.5361  14.5666  14.5666
    14.6528  14.6528  14.7621  14.7621  14.7985  14.7985  14.9191  14.9191
    14.9793  14.9793  15.0647  15.0647  15.1661  15.1661  15.2635  15.2635
    15.3944  15.3944  15.6168  15.6168  15.8156  15.8156  15.9879  15.9879
    21.3929  21.3929  22.6587  22.6587  23.9152  23.9152  25.3017  25.3017
    26.4666  26.4666  26.6208  26.6208  27.1510  27.1510  27.4070  27.4070
    27.5860  27.5860  27.8637  27.8637  28.2324  28.2324  28.5199  28.5199
    28.8153  28.8153  29.5321  29.5321  31.4933  31.4933  32.5452  32.5452
    33.5641  33.5641  34.0272  34.0272  34.4104  34.4104  35.1925  35.1925
    37.8794  37.8794  38.2478  38.2478  38.8798  38.8798  40.5646  40.5646
    41.0174  41.0174  41.2586  41.2586  41.5448  41.5448  41.8506  41.8507
    42.5694  42.5695  42.8375  42.8375  42.9457  42.9457  43.8227  43.8228
    44.0662  44.0663  44.4808  44.4809

          k =-0.4323 0.0000-0.2309 (  5528 PWs)   bands (ev):

   -75.0545 -75.0545 -75.0530 -75.0530 -74.9955 -74.9955 -74.9781 -74.9781
   -40.7473 -40.7473 -40.7409 -40.7409 -33.8843 -33.8843 -33.8540 -33.8540
   -33.8433 -33.8433 -33.8184 -33.8184 -33.8134 -33.8134 -33.7792 -33.7792
   -33.7744 -33.7744 -33.7392 -33.7392 -33.7333 -33.7333 -33.7168 -33.7168
   -33.6870 -33.6870 -33.6444 -33.6444  -9.4474  -9.4474  -9.4328  -9.4328
    -9.3841  -9.3841  -9.3839  -9.3839  -9.2265  -9.2265  -9.2167  -9.2167
    13.8444  13.8444  13.9728  13.9728  14.0924  14.0924  14.2737  14.2737
    14.2795  14.2795  14.3806  14.3806  14.5412  14.5412  14.5632  14.5632
    14.6558  14.6558  14.7890  14.7890  14.8269  14.8269  14.9278  14.9278
    14.9973  14.9973  15.1385  15.1385  15.1420  15.1420  15.1852  15.1852
    15.4596  15.4596  15.6232  15.6232  15.7558  15.7558  15.9810  15.9810
    21.7519  21.7519  22.0163  22.0163  24.0730  24.0730  25.1689  25.1689
    26.6889  26.6889  26.7208  26.7208  27.1464  27.1464  27.3937  27.3937
    27.7276  27.7276  27.8808  27.8808  28.1783  28.1783  28.4370  28.4370
    28.9064  28.9064  30.2873  30.2873  30.5198  30.5198  32.6066  32.6066
    33.4578  33.4578  33.6203  33.6203  34.8832  34.8832  35.6935  35.6935
    36.6664  36.6664  38.0338  38.0338  40.0248  40.0248  40.5550  40.5550
    40.9357  40.9357  41.3604  41.3604  41.6096  41.6097  41.9591  41.9591
    42.2151  42.2151  42.6988  42.6989  42.9974  42.9974  43.8990  43.8991
    44.1713  44.1714  44.4025  44.4026

          k =-0.4323 0.2232 0.0000 (  5532 PWs)   bands (ev):

   -75.0624 -75.0624 -75.0539 -75.0539 -74.9905 -74.9905 -74.9815 -74.9815
   -40.7449 -40.7449 -40.7445 -40.7445 -33.8688 -33.8688 -33.8626 -33.8626
   -33.8292 -33.8292 -33.8205 -33.8205 -33.8035 -33.8035 -33.7791 -33.7791
   -33.7680 -33.7680 -33.7510 -33.7510 -33.7332 -33.7332 -33.7318 -33.7318
   -33.6854 -33.6854 -33.6623 -33.6623  -9.4446  -9.4446  -9.4404  -9.4404
    -9.3910  -9.3910  -9.3850  -9.3850  -9.2278  -9.2278  -9.2209  -9.2209
    13.9145  13.9145  14.0550  14.0550  14.2456  14.2456  14.2615  14.2615
    14.3879  14.3879  14.4761  14.4761  14.5961  14.5961  14.6226  14.6226
    14.7123  14.7123  14.7698  14.7698  14.8058  14.8058  14.9389  14.9389
    14.9747  14.9747  15.0150  15.0150  15.1342  15.1342  15.2702  15.2702
    15.3983  15.3983  15.4776  15.4776  15.7055  15.7055  15.8313  15.8313
    21.7845  21.7845  23.1548  23.1548  23.9524  23.9524  24.3859  24.3859
    25.9788  25.9788  26.0669  26.0669  27.0634  27.0634  27.3483  27.3483
    27.5838  27.5838  27.7995  27.7995  27.8950  27.8950  28.1170  28.1170
    29.1524  29.1524  29.4249  29.4249  30.9197  30.9197  31.1669  31.1669
    34.4700  34.4700  35.6565  35.6565  36.3972  36.3972  37.3562  37.3562
    37.6750  37.6750  38.0504  38.0504  38.4989  38.4989  39.8832  39.8832
    41.2416  41.2416  41.2488  41.2488  41.5742  41.5742  41.7404  41.7404
    42.2652  42.2652  42.6574  42.6574  43.2530  43.2531  43.4642  43.4642
    43.8838  43.8839  43.9603  43.9604

          k =-0.4323 0.2232 0.1155 (  5528 PWs)   bands (ev):

   -75.0638 -75.0638 -75.0523 -75.0523 -74.9876 -74.9876 -74.9777 -74.9777
   -40.7454 -40.7454 -40.7435 -40.7435 -33.8711 -33.8711 -33.8593 -33.8593
   -33.8311 -33.8311 -33.8190 -33.8190 -33.8020 -33.8020 -33.7756 -33.7756
   -33.7693 -33.7693 -33.7496 -33.7496 -33.7341 -33.7341 -33.7264 -33.7264
   -33.6844 -33.6844 -33.6642 -33.6642  -9.4442  -9.4442  -9.4361  -9.4361
    -9.3915  -9.3915  -9.3855  -9.3855  -9.2266  -9.2266  -9.2209  -9.2209
    13.9136  13.9136  14.0920  14.0920  14.2332  14.2332  14.2668  14.2668
    14.3622  14.3622  14.4558  14.4558  14.5206  14.5206  14.6493  14.6493
    14.7352  14.7352  14.7805  14.7805  14.8285  14.8285  14.9333  14.9333
    15.0246  15.0246  15.0635  15.0635  15.1440  15.1440  15.2336  15.2336
    15.3870  15.3870  15.4721  15.4721  15.6691  15.6691  15.8350  15.8350
    21.8965  21.8965  22.9616  22.9616  23.7263  23.7263  24.3425  24.3425
    26.1534  26.1534  26.4307  26.4307  26.9513  26.9513  27.3531  27.3531
    27.5092  27.5092  27.8015  27.8015  27.8617  27.8617  28.0659  28.0659
    29.3052  29.3052  29.6305  29.6305  30.6315  30.6315  31.8253  31.8253
    34.3572  34.3572  34.4879  34.4879  35.8867  35.8867  36.8937  36.8937
    37.8959  37.8959  39.1403  39.1403  39.4107  39.4107  39.9731  39.9731
    40.9678  40.9678  41.0642  41.0643  41.5332  41.5332  42.0016  42.0017
    42.3765  42.3766  42.7399  42.7399  42.9054  42.9055  43.1732  43.1734
    43.5904  43.5906  43.8623  43.8626

          k =-0.4323 0.2232-0.2309 (  5532 PWs)   bands (ev):

   -75.0656 -75.0656 -75.0550 -75.0550 -74.9876 -74.9876 -74.9836 -74.9836
   -40.7456 -40.7456 -40.7446 -40.7446 -33.8719 -33.8719 -33.8619 -33.8619
   -33.8260 -33.8260 -33.8221 -33.8221 -33.8054 -33.8054 -33.7772 -33.7772
   -33.7668 -33.7668 -33.7515 -33.7515 -33.7361 -33.7361 -33.7299 -33.7299
   -33.6854 -33.6854 -33.6651 -33.6651  -9.4484  -9.4484  -9.4411  -9.4411
    -9.3914  -9.3914  -9.3866  -9.3866  -9.2248  -9.2248  -9.2205  -9.2205
    13.9129  13.9129  14.1538  14.1538  14.1947  14.1947  14.2846  14.2846
    14.3181  14.3181  14.4441  14.4441  14.4762  14.4762  14.6810  14.6810
    14.7263  14.7263  14.7933  14.7933  14.8164  14.8164  15.0068  15.0068
    15.0364  15.0364  15.1144  15.1144  15.1308  15.1308  15.2183  15.2183
    15.3229  15.3229  15.5349  15.5349  15.6017  15.6017  15.8352  15.8352
    22.0958  22.0958  22.6060  22.6060  23.7816  23.7816  24.1205  24.1205
    26.5151  26.5151  26.6299  26.6299  26.7856  26.7856  27.2640  27.2640
    27.6409  27.6409  27.6485  27.6485  27.9261  27.9261  28.0103  28.0103
    29.5156  29.5156  29.6442  29.6442  30.6557  30.6557  32.6421  32.6421
    33.4543  33.4543  34.1103  34.1103  35.2758  35.2758  36.5503  36.5503
    38.9793  38.9793  39.0121  39.0121  40.3127  40.3127  40.4865  40.4865
    40.5710  40.5710  40.6684  40.6685  41.6802  41.6802  41.9929  41.9929
    42.3351  42.3351  42.6832  42.6832  42.9768  42.9769  42.9869  42.9871
    43.1499  43.1500  43.6436  43.6437

     the Fermi energy is    37.7376 ev

!    total energy              =   -3851.79440582 Ry
     Harris-Foulkes estimate   =   -3851.79441176 Ry
     estimated scf accuracy    <       0.00000608 Ry

     The total energy is the sum of the following terms:

     one-electron contribution =    -633.06142906 Ry
     hartree contribution      =     545.27749599 Ry
     xc contribution           =    -333.39371318 Ry
     ewald contribution        =   -3430.24674986 Ry
     smearing contrib. (-TS)   =      -0.37000971 Ry

     convergence has been achieved in  11 iterations

     Forces acting on atoms (Ry/au):

     atom    1 type  1   force =     0.00000000   -0.03851251   -0.03485102
     atom    2 type  1   force =     0.00000000    0.03851251    0.03485102
     atom    3 type  1   force =     0.00000000   -0.03851251    0.03485102
     atom    4 type  1   force =     0.00000000    0.03851251   -0.03485102
     atom    5 type  1   force =     0.00000000    0.01087378   -0.01214683
     atom    6 type  1   force =     0.00000000   -0.01087378    0.01214683
     atom    7 type  1   force =     0.00000000    0.01087378    0.01214683
     atom    8 type  1   force =     0.00000000   -0.01087378   -0.01214683
     atom    9 type  2   force =     0.00000000   -0.06018694    0.02160161
     atom   10 type  2   force =     0.00000000    0.06018694   -0.02160161
     atom   11 type  2   force =     0.00000000   -0.06018694   -0.02160161
     atom   12 type  2   force =     0.00000000    0.06018694    0.02160161

     Total force =     0.167961     Total SCF correction =     0.000000


     entering subroutine stress ...

          total   stress  (Ry/bohr**3)                   (kbar)     P= 1297.97
   0.00959354   0.00000000   0.00000000       1411.26      0.00      0.00
   0.00000000   0.00830936   0.00000000          0.00   1222.35      0.00
   0.00000000   0.00000000   0.00856731          0.00      0.00   1260.29


     Writing output data file Prototype-La-oP12-Co2Si.save
 
     init_run     :      5.17s CPU      6.68s WALL (       2 calls)
     electrons    :   1483.47s CPU   1700.14s WALL (       5 calls)
     update_pot   :      1.89s CPU      2.64s WALL (       3 calls)
     forces       :      4.73s CPU      5.12s WALL (       5 calls)
     stress       :     12.94s CPU     13.45s WALL (       5 calls)

     Called by init_run:
     wfcinit      :      4.27s CPU      5.77s WALL (       2 calls)
     potinit      :      0.45s CPU      0.45s WALL (       2 calls)

     Called by electrons:
     c_bands      :   1459.17s CPU   1636.48s WALL (      48 calls)
     sum_band     :     23.76s CPU     32.38s WALL (      48 calls)
     v_of_rho     :      0.07s CPU      0.09s WALL (      53 calls)
     mix_rho      :      0.07s CPU      0.09s WALL (      48 calls)

     Called by c_bands:
     init_us_2    :      1.53s CPU      1.78s WALL (    1296 calls)
     ccgdiagg     :   1362.44s CPU   1510.23s WALL (     686 calls)
     wfcrot       :     99.07s CPU    128.38s WALL (     698 calls)

     Called by *cgdiagg:
     h_psi        :    892.07s CPU   1040.42s WALL (  560444 calls)
     cdiaghg      :      7.30s CPU      8.31s WALL (     698 calls)

     Called by h_psi:
     add_vuspsi   :    183.52s CPU    193.66s WALL (  560444 calls)

     General routines
     calbec       :    465.64s CPU    500.55s WALL ( 1120310 calls)
     fft          :      0.15s CPU      0.17s WALL (     235 calls)
     fftw         :    392.95s CPU    482.44s WALL ( 1427124 calls)
     davcio       :      1.24s CPU      3.30s WALL (    1872 calls)
 
     Parallel routines
     fft_scatter  :    184.27s CPU    227.26s WALL ( 1427359 calls)
 
     PWSCF        : 25m 8.64s CPU    28m51.24s WALL

 
   This run was terminated on:  22: 5:57  22Mar2018            

=------------------------------------------------------------------------------=
   JOB DONE.
=------------------------------------------------------------------------------=
