
     Program PWSCF v.5.0.2 starts on 22Mar2018 at 12: 9:36 

     This program is part of the open-source Quantum ESPRESSO suite
     for quantum simulation of materials; please cite
         "P. Giannozzi et al., J. Phys.:Condens. Matter 21 395502 (2009);
          URL http://www.quantum-espresso.org", 
     in publications or presentations arising from this work. More details at
     http://www.quantum-espresso.org/quote.php

     Parallel version (MPI), running on     4 processors
     R & G space division:  proc/nbgrp/npool/nimage =       4

     Current dimensions of program PWSCF are:
     Max number of different atomic species (ntypx) = 10
     Max number of k-points (npk) =  40000
     Max angular momentum in pseudopotentials (lmaxx) =  3
     Waiting for input...
     Reading input from standard input

     Subspace diagonalization in iterative solution of the eigenvalue problem:
     a serial algorithm will be used

 
     Parallelization info
     --------------------
     sticks:   dense  smooth     PW     G-vecs:    dense   smooth      PW
     Min         521     521    161                11869    11869    2028
     Max         522     522    162                11872    11872    2030
     Sum        2087    2087    647                47485    47485    8117
 


     bravais-lattice index     =            0
     lattice parameter (alat)  =      12.8532  a.u.
     unit-cell volume          =    1390.2597 (a.u.)^3
     number of atoms/cell      =            6
     number of atomic types    =            2
     number of electrons       =       120.00
     number of Kohn-Sham states=           72
     kinetic-energy cutoff     =      40.0000  Ry
     charge density cutoff     =     160.0000  Ry
     convergence threshold     =      1.0E-04
     mixing beta               =       0.7000
     number of iterations used =            8  plain     mixing
     Exchange-correlation      = SLA-PZ-NOGX-NOGC ( 1 1 0 0 0)
     EXX-fraction              =        0.00
     nstep                     =           50


     celldm(1)=  12.853229  celldm(2)=   0.000000  celldm(3)=   0.000000
     celldm(4)=   0.000000  celldm(5)=   0.000000  celldm(6)=   0.000000

     crystal axes: (cart. coord. in units of alat)
               a(1) = (   1.000000   0.000000   0.000000 )  
               a(2) = (  -0.036574   0.999331   0.000000 )  
               a(3) = (  -0.266883  -0.706777   0.655164 )  

     reciprocal axes: (cart. coord. in units 2 pi/alat)
               b(1) = (  1.000000  0.036598  0.446834 )  
               b(2) = (  0.000000  1.000669  1.079502 )  
               b(3) = (  0.000000  0.000000  1.526336 )  


     PseudoPot. # 1 for Yb read from file:
     /home/jld5415/pp.La/Yb.UPF
     MD5 check sum: 3e859b81cc28c53ec6aa3a2e888efcdf
     Pseudo is Norm-conserving, Zval = 24.0
     Generated in analytical, separable form
     Using radial grid of 1269 points,  6 beta functions with: 
                l(1) =   0
                l(2) =   0
                l(3) =   1
                l(4) =   1
                l(5) =   2
                l(6) =   3

     PseudoPot. # 2 for Gd read from file:
     /home/jld5415/pp.La/Gd.UPF
     MD5 check sum: 09a8be538722f05520810cb6aac0efd2
     Pseudo is Norm-conserving, Zval = 18.0
     Generated in analytical, separable form
     Using radial grid of 1263 points,  6 beta functions with: 
                l(1) =   0
                l(2) =   0
                l(3) =   1
                l(4) =   1
                l(5) =   2
                l(6) =   3

     atomic species   valence    mass     pseudopotential
        K             24.00    39.09830     Yb( 1.00)
        Hg            18.00   200.59000     Gd( 1.00)

      2 Sym. Ops., with inversion, found



   Cartesian axes

     site n.     atom                  positions (alat units)
         1           K   tau(   1) = (  -0.0340766   0.4201429   0.4913727  )
         2           K   tau(   2) = (   0.7306201  -0.1275892   0.1637909  )
         3           Hg  tau(   3) = (   0.2308977  -0.0548727   0.3630373  )
         4           Hg  tau(   4) = (   0.4656458   0.3474265   0.2921263  )
         5           Hg  tau(   5) = (   0.5181090  -0.3317640   0.6197082  )
         6           Hg  tau(   6) = (   0.1784345   0.6243178   0.0354555  )

     number of k points=   253  gaussian smearing, width (Ry)=  0.1000

     Number of k-points >= 100: set verbosity='high' to print them.

     Dense  grid:    47485 G-vectors     FFT dimensions: (  54,  54,  54)

     Largest allocated arrays     est. size (Mb)     dimensions
        Kohn-Sham Wavefunctions         1.65 Mb     (   1500,   72)
        NL pseudopotentials             2.75 Mb     (   1500,  120)
        Each V/rho on FFT grid          0.62 Mb     (  40824)
        Each G-vector array             0.09 Mb     (  11872)
        G-vector shells                 0.09 Mb     (  11872)
     Largest temporary arrays     est. size (Mb)     dimensions
        Each subspace H/S matrix        0.08 Mb     (  72,  72)
        Each <psi_i|beta_j> matrix      0.13 Mb     (    120,   72)
        Arrays for rho mixing           4.98 Mb     (  40824,   8)

     Initial potential from superposition of free atoms

     Starting from uniform charge
     Starting wfc are    0 randomized atomic wfcs

     total cpu time spent up to now is      167.5 secs

     Self-consistent Calculation

     iteration #  1     ecut=    40.00 Ry     beta=0.70
     CG style diagonalization
     ethr =  1.00E-02,  avg # of iterations = 19.4

     total cpu time spent up to now is     2346.3 secs

     total energy              =   -1004.10671395 Ry
     Harris-Foulkes estimate   =   -2288.86547159 Ry
     estimated scf accuracy    <    1544.55416772 Ry

     iteration #  2     ecut=    40.00 Ry     beta=0.70
     CG style diagonalization
     c_bands:  1 eigenvalues not converged
     c_bands:  1 eigenvalues not converged
     c_bands:  1 eigenvalues not converged
     c_bands:  2 eigenvalues not converged
     c_bands:  2 eigenvalues not converged
     c_bands:  2 eigenvalues not converged
     c_bands:  1 eigenvalues not converged
     c_bands:  1 eigenvalues not converged
     c_bands:  1 eigenvalues not converged
     c_bands:  1 eigenvalues not converged
     c_bands:  1 eigenvalues not converged
     c_bands:  2 eigenvalues not converged
     c_bands:  1 eigenvalues not converged
     c_bands:  1 eigenvalues not converged
     c_bands:  2 eigenvalues not converged
     c_bands:  1 eigenvalues not converged
     c_bands:  1 eigenvalues not converged
     c_bands:  1 eigenvalues not converged
     c_bands:  1 eigenvalues not converged
     c_bands:  1 eigenvalues not converged
     c_bands:  2 eigenvalues not converged
     c_bands:  1 eigenvalues not converged
     c_bands:  1 eigenvalues not converged
     c_bands:  1 eigenvalues not converged
     c_bands:  1 eigenvalues not converged
     c_bands:  1 eigenvalues not converged
     c_bands:  1 eigenvalues not converged
     c_bands:  2 eigenvalues not converged
     c_bands:  1 eigenvalues not converged
     c_bands:  1 eigenvalues not converged
     c_bands:  1 eigenvalues not converged
     c_bands:  1 eigenvalues not converged
     c_bands:  2 eigenvalues not converged
     c_bands:  3 eigenvalues not converged
     c_bands:  1 eigenvalues not converged
     c_bands:  1 eigenvalues not converged
     c_bands:  1 eigenvalues not converged
     c_bands:  2 eigenvalues not converged
     c_bands:  1 eigenvalues not converged
     c_bands:  1 eigenvalues not converged
     c_bands:  1 eigenvalues not converged
     c_bands:  2 eigenvalues not converged
     c_bands:  1 eigenvalues not converged
     c_bands:  1 eigenvalues not converged
     c_bands:  1 eigenvalues not converged
     c_bands:  4 eigenvalues not converged
     c_bands:  1 eigenvalues not converged
     c_bands:  1 eigenvalues not converged
     c_bands:  1 eigenvalues not converged
     c_bands:  2 eigenvalues not converged
     c_bands:  2 eigenvalues not converged
     c_bands:  1 eigenvalues not converged
     c_bands:  2 eigenvalues not converged
     c_bands:  1 eigenvalues not converged
     c_bands:  2 eigenvalues not converged
     c_bands:  1 eigenvalues not converged
     c_bands:  1 eigenvalues not converged
     c_bands:  2 eigenvalues not converged
     c_bands:  1 eigenvalues not converged
     c_bands:  1 eigenvalues not converged
     c_bands:  1 eigenvalues not converged
     c_bands:  1 eigenvalues not converged
     c_bands:  1 eigenvalues not converged
     c_bands:  1 eigenvalues not converged
     c_bands:  2 eigenvalues not converged
     c_bands:  1 eigenvalues not converged
     c_bands:  3 eigenvalues not converged
     c_bands:  1 eigenvalues not converged
     c_bands:  1 eigenvalues not converged
     c_bands:  2 eigenvalues not converged
     c_bands:  1 eigenvalues not converged
     c_bands:  1 eigenvalues not converged
     c_bands:  2 eigenvalues not converged
     c_bands:  1 eigenvalues not converged
     c_bands:  1 eigenvalues not converged
     c_bands:  1 eigenvalues not converged
     c_bands:  2 eigenvalues not converged
     c_bands:  1 eigenvalues not converged
     c_bands:  1 eigenvalues not converged
     c_bands:  2 eigenvalues not converged
     c_bands:  1 eigenvalues not converged
     c_bands:  1 eigenvalues not converged
     c_bands:  1 eigenvalues not converged
     c_bands:  1 eigenvalues not converged
     c_bands:  1 eigenvalues not converged
     c_bands:  1 eigenvalues not converged
     c_bands:  1 eigenvalues not converged
     c_bands:  1 eigenvalues not converged
     c_bands:  1 eigenvalues not converged
     c_bands:  1 eigenvalues not converged
     c_bands:  1 eigenvalues not converged
     c_bands:  3 eigenvalues not converged
     c_bands:  1 eigenvalues not converged
     c_bands:  1 eigenvalues not converged
     c_bands:  1 eigenvalues not converged
     c_bands:  1 eigenvalues not converged
     c_bands:  1 eigenvalues not converged
     c_bands:  1 eigenvalues not converged
     c_bands:  1 eigenvalues not converged
     c_bands:  1 eigenvalues not converged
     c_bands:  1 eigenvalues not converged
     c_bands:  1 eigenvalues not converged
     c_bands:  1 eigenvalues not converged
     c_bands:  1 eigenvalues not converged
     c_bands:  2 eigenvalues not converged
     c_bands:  1 eigenvalues not converged
     c_bands:  2 eigenvalues not converged
     c_bands:  1 eigenvalues not converged
     c_bands:  2 eigenvalues not converged
     c_bands:  2 eigenvalues not converged
     c_bands:  1 eigenvalues not converged
     c_bands:  1 eigenvalues not converged
     c_bands:  1 eigenvalues not converged
     c_bands:  1 eigenvalues not converged
     c_bands:  3 eigenvalues not converged
     c_bands:  1 eigenvalues not converged
     ethr =  1.00E-02,  avg # of iterations = 18.4

     total cpu time spent up to now is     4251.1 secs

     total energy              =   -1373.72718974 Ry
     Harris-Foulkes estimate   =   -2283.48645315 Ry
     estimated scf accuracy    <    1663.35964711 Ry

     iteration #  3     ecut=    40.00 Ry     beta=0.70
     CG style diagonalization
     ethr =  1.00E-02,  avg # of iterations = 11.1

     total cpu time spent up to now is     5539.9 secs

     total energy              =   -1603.15866053 Ry
     Harris-Foulkes estimate   =   -1641.53414664 Ry
     estimated scf accuracy    <      57.63888758 Ry

     iteration #  4     ecut=    40.00 Ry     beta=0.70
     CG style diagonalization
     ethr =  1.00E-02,  avg # of iterations =  6.3

     total cpu time spent up to now is     5948.0 secs

     total energy              =   -1621.80180537 Ry
     Harris-Foulkes estimate   =   -1637.04350450 Ry
     estimated scf accuracy    <      44.54830057 Ry

     iteration #  5     ecut=    40.00 Ry     beta=0.70
     CG style diagonalization
     ethr =  1.00E-02,  avg # of iterations =  3.7

     total cpu time spent up to now is     6178.8 secs

     total energy              =   -1621.49283960 Ry
     Harris-Foulkes estimate   =   -1626.46832938 Ry
     estimated scf accuracy    <       6.79064955 Ry

     iteration #  6     ecut=    40.00 Ry     beta=0.70
     CG style diagonalization
     ethr =  5.66E-03,  avg # of iterations =  3.9

     total cpu time spent up to now is     6422.8 secs

     total energy              =   -1623.59351509 Ry
     Harris-Foulkes estimate   =   -1627.98002649 Ry
     estimated scf accuracy    <      14.33289533 Ry

     iteration #  7     ecut=    40.00 Ry     beta=0.70
     CG style diagonalization
     ethr =  5.66E-03,  avg # of iterations =  3.4

     total cpu time spent up to now is     6637.6 secs

     total energy              =   -1624.75672762 Ry
     Harris-Foulkes estimate   =   -1625.02840621 Ry
     estimated scf accuracy    <       1.74665131 Ry

     iteration #  8     ecut=    40.00 Ry     beta=0.70
     CG style diagonalization
     ethr =  1.46E-03,  avg # of iterations =  3.1

     total cpu time spent up to now is     6829.6 secs

     total energy              =   -1624.75286541 Ry
     Harris-Foulkes estimate   =   -1624.87391527 Ry
     estimated scf accuracy    <       0.35639463 Ry

     iteration #  9     ecut=    40.00 Ry     beta=0.70
     CG style diagonalization
     ethr =  2.97E-04,  avg # of iterations =  3.6

     total cpu time spent up to now is     7055.6 secs

     total energy              =   -1624.84116965 Ry
     Harris-Foulkes estimate   =   -1624.84142926 Ry
     estimated scf accuracy    <       0.02603317 Ry

     iteration # 10     ecut=    40.00 Ry     beta=0.70
     CG style diagonalization
     c_bands:  1 eigenvalues not converged
     c_bands:  1 eigenvalues not converged
     c_bands:  1 eigenvalues not converged
     c_bands:  1 eigenvalues not converged
     c_bands:  1 eigenvalues not converged
     c_bands:  1 eigenvalues not converged
     c_bands:  1 eigenvalues not converged
     c_bands:  1 eigenvalues not converged
     ethr =  2.17E-05,  avg # of iterations =  3.8

     total cpu time spent up to now is     7296.3 secs

     total energy              =   -1624.82710830 Ry
     Harris-Foulkes estimate   =   -1624.84915066 Ry
     estimated scf accuracy    <       0.06061111 Ry

     iteration # 11     ecut=    40.00 Ry     beta=0.70
     CG style diagonalization
     ethr =  2.17E-05,  avg # of iterations =  3.4

     total cpu time spent up to now is     7507.6 secs

     total energy              =   -1624.83836594 Ry
     Harris-Foulkes estimate   =   -1624.83889799 Ry
     estimated scf accuracy    <       0.00242949 Ry

     iteration # 12     ecut=    40.00 Ry     beta=0.70
     CG style diagonalization
     c_bands:  1 eigenvalues not converged
     ethr =  2.02E-06,  avg # of iterations =  3.3

     total cpu time spent up to now is     7713.7 secs

     total energy              =   -1624.83845233 Ry
     Harris-Foulkes estimate   =   -1624.83863796 Ry
     estimated scf accuracy    <       0.00051780 Ry

     iteration # 13     ecut=    40.00 Ry     beta=0.70
     CG style diagonalization
     c_bands:  1 eigenvalues not converged
     ethr =  4.31E-07,  avg # of iterations =  3.4

     total cpu time spent up to now is     7940.4 secs

     End of self-consistent calculation

     Number of k-points >= 100: set verbosity='high' to print the bands.

     the Fermi energy is    12.5550 ev

!    total energy              =   -1624.83857379 Ry
     Harris-Foulkes estimate   =   -1624.83858688 Ry
     estimated scf accuracy    <       0.00001471 Ry

     The total energy is the sum of the following terms:

     one-electron contribution =    -735.05326313 Ry
     hartree contribution      =     384.81648540 Ry
     xc contribution           =    -141.42132655 Ry
     ewald contribution        =   -1132.78512107 Ry
     smearing contrib. (-TS)   =      -0.39534842 Ry

     convergence has been achieved in  13 iterations

     Forces acting on atoms (Ry/au):

     atom    1 type  1   force =     0.01309296    0.01445835   -0.00033217
     atom    2 type  1   force =    -0.01309296   -0.01445835    0.00033217
     atom    3 type  2   force =     0.00740832   -0.00269504    0.00458489
     atom    4 type  2   force =    -0.00740832    0.00269504   -0.00458489
     atom    5 type  2   force =    -0.00299431    0.00809092   -0.00500302
     atom    6 type  2   force =     0.00299431   -0.00809092    0.00500302

     Total force =     0.033562     Total SCF correction =     0.000000


     entering subroutine stress ...

          total   stress  (Ry/bohr**3)                   (kbar)     P= -466.44
  -0.00316313  -0.00001787   0.00003114       -465.31     -2.63      4.58
  -0.00001787  -0.00316393  -0.00003062         -2.63   -465.43     -4.50
   0.00003114  -0.00003062  -0.00318541          4.58     -4.50   -468.59


     BFGS Geometry Optimization

     number of scf cycles    =   1
     number of bfgs steps    =   0

     enthalpy new            =   -1624.8385737852 Ry

     new trust radius        =       0.5000000000 bohr
     new conv_thr            =       0.0001000000 Ry

     new unit-cell volume =   1130.08037 a.u.^3 (   167.46063 Ang^3 )

CELL_PARAMETERS (alat= 12.85322937)
   0.933426168  -0.000376062   0.000655313
  -0.034514478   0.932798622  -0.000667898
  -0.248420408  -0.660034282   0.611520272

ATOMIC_POSITIONS (crystal)
K        0.201744512   0.951786155   0.749966792
K        0.798255488   0.048213845   0.250033208
Hg       0.391719964   0.337137540   0.554575367
Hg       0.608280036   0.662862460   0.445424633
Hg       0.782550846   0.337166557   0.945382831
Hg       0.217449154   0.662833443   0.054617169



     Writing output data file Prototype-La-oI12-KHg2.save
     NEW-OLD atomic charge density approx. for the potential
     NEW k-points: (use verbosity='high' to print them)

     total cpu time spent up to now is     7980.4 secs

     Self-consistent Calculation

     iteration #  1     ecut=    40.00 Ry     beta=0.70
     CG style diagonalization
     c_bands:  2 eigenvalues not converged
     c_bands:  1 eigenvalues not converged
     c_bands:  1 eigenvalues not converged
     c_bands:  1 eigenvalues not converged
     c_bands:  1 eigenvalues not converged
     c_bands:  1 eigenvalues not converged
     c_bands:  1 eigenvalues not converged
     c_bands:  1 eigenvalues not converged
     c_bands:  1 eigenvalues not converged
     c_bands:  1 eigenvalues not converged
     c_bands:  1 eigenvalues not converged
     c_bands:  1 eigenvalues not converged
     c_bands:  1 eigenvalues not converged
     c_bands:  1 eigenvalues not converged
     c_bands:  1 eigenvalues not converged
     c_bands:  1 eigenvalues not converged
     c_bands:  1 eigenvalues not converged
     c_bands:  1 eigenvalues not converged
     c_bands:  1 eigenvalues not converged
     ethr =  1.00E-06,  avg # of iterations = 21.7

     total cpu time spent up to now is     9299.7 secs

     total energy              =   -1615.53365157 Ry
     Harris-Foulkes estimate   =   -1635.11709085 Ry
     estimated scf accuracy    <      24.20102348 Ry

     iteration #  2     ecut=    40.00 Ry     beta=0.70
     CG style diagonalization
     ethr =  1.00E-02,  avg # of iterations =  4.5

     total cpu time spent up to now is     9579.4 secs

     total energy              =   -1622.25536116 Ry
     Harris-Foulkes estimate   =   -1630.27253415 Ry
     estimated scf accuracy    <      13.93340802 Ry

     iteration #  3     ecut=    40.00 Ry     beta=0.70
     CG style diagonalization
     ethr =  1.00E-02,  avg # of iterations =  3.4

     total cpu time spent up to now is     9793.3 secs

     total energy              =   -1624.88382431 Ry
     Harris-Foulkes estimate   =   -1625.99441937 Ry
     estimated scf accuracy    <       2.29980840 Ry

     iteration #  4     ecut=    40.00 Ry     beta=0.70
     CG style diagonalization
     ethr =  1.92E-03,  avg # of iterations =  3.4

     total cpu time spent up to now is    10009.5 secs

     total energy              =   -1625.45710843 Ry
     Harris-Foulkes estimate   =   -1625.55978314 Ry
     estimated scf accuracy    <       0.26350318 Ry

     iteration #  5     ecut=    40.00 Ry     beta=0.70
     CG style diagonalization
     ethr =  2.20E-04,  avg # of iterations =  3.4

     total cpu time spent up to now is    10226.0 secs

     total energy              =   -1625.49671122 Ry
     Harris-Foulkes estimate   =   -1625.51411840 Ry
     estimated scf accuracy    <       0.03297822 Ry

     iteration #  6     ecut=    40.00 Ry     beta=0.70
     CG style diagonalization
     c_bands:  1 eigenvalues not converged
     c_bands:  1 eigenvalues not converged
     c_bands:  1 eigenvalues not converged
     c_bands:  1 eigenvalues not converged
     ethr =  2.75E-05,  avg # of iterations =  3.6

     total cpu time spent up to now is    10455.7 secs

     total energy              =   -1625.50419223 Ry
     Harris-Foulkes estimate   =   -1625.50703490 Ry
     estimated scf accuracy    <       0.00777883 Ry

     iteration #  7     ecut=    40.00 Ry     beta=0.70
     CG style diagonalization
     c_bands:  1 eigenvalues not converged
     ethr =  6.48E-06,  avg # of iterations =  3.6

     total cpu time spent up to now is    10686.6 secs

     total energy              =   -1625.50514976 Ry
     Harris-Foulkes estimate   =   -1625.50572863 Ry
     estimated scf accuracy    <       0.00177523 Ry

     iteration #  8     ecut=    40.00 Ry     beta=0.70
     CG style diagonalization
     c_bands:  1 eigenvalues not converged
     ethr =  1.48E-06,  avg # of iterations =  3.5

     total cpu time spent up to now is    10909.5 secs

     total energy              =   -1625.50544194 Ry
     Harris-Foulkes estimate   =   -1625.50553272 Ry
     estimated scf accuracy    <       0.00023021 Ry

     iteration #  9     ecut=    40.00 Ry     beta=0.70
     CG style diagonalization
     ethr =  1.92E-07,  avg # of iterations =  3.6

     total cpu time spent up to now is    11141.2 secs

     End of self-consistent calculation

     Number of k-points >= 100: set verbosity='high' to print the bands.

     the Fermi energy is    16.9374 ev

!    total energy              =   -1625.50549520 Ry
     Harris-Foulkes estimate   =   -1625.50551570 Ry
     estimated scf accuracy    <       0.00002405 Ry

     The total energy is the sum of the following terms:

     one-electron contribution =    -608.64847137 Ry
     hartree contribution      =     339.27163428 Ry
     xc contribution           =    -142.37408267 Ry
     ewald contribution        =   -1213.42990296 Ry
     smearing contrib. (-TS)   =      -0.32467249 Ry

     convergence has been achieved in   9 iterations

     Forces acting on atoms (Ry/au):

