
     Program PWSCF v.5.0.2 starts on 22Mar2018 at  0: 3: 2 

     This program is part of the open-source Quantum ESPRESSO suite
     for quantum simulation of materials; please cite
         "P. Giannozzi et al., J. Phys.:Condens. Matter 21 395502 (2009);
          URL http://www.quantum-espresso.org", 
     in publications or presentations arising from this work. More details at
     http://www.quantum-espresso.org/quote.php

     Parallel version (MPI), running on     4 processors
     R & G space division:  proc/nbgrp/npool/nimage =       4

     Current dimensions of program PWSCF are:
     Max number of different atomic species (ntypx) = 10
     Max number of k-points (npk) =  40000
     Max angular momentum in pseudopotentials (lmaxx) =  3
     Waiting for input...
     Reading input from standard input

     Subspace diagonalization in iterative solution of the eigenvalue problem:
     a serial algorithm will be used

 
     Parallelization info
     --------------------
     sticks:   dense  smooth     PW     G-vecs:    dense   smooth      PW
     Min         521     521    161                11869    11869    2028
     Max         522     522    162                11872    11872    2030
     Sum        2087    2087    647                47485    47485    8117
 


     bravais-lattice index     =            0
     lattice parameter (alat)  =      12.8532  a.u.
     unit-cell volume          =    1390.2597 (a.u.)^3
     number of atoms/cell      =            6
     number of atomic types    =            2
     number of electrons       =       138.00
     number of Kohn-Sham states=           83
     kinetic-energy cutoff     =      40.0000  Ry
     charge density cutoff     =     160.0000  Ry
     convergence threshold     =      1.0E-04
     mixing beta               =       0.7000
     number of iterations used =            8  plain     mixing
     Exchange-correlation      = SLA-PZ-NOGX-NOGC ( 1 1 0 0 0)
     EXX-fraction              =        0.00
     nstep                     =           50


     celldm(1)=  12.853229  celldm(2)=   0.000000  celldm(3)=   0.000000
     celldm(4)=   0.000000  celldm(5)=   0.000000  celldm(6)=   0.000000

     crystal axes: (cart. coord. in units of alat)
               a(1) = (   1.000000   0.000000   0.000000 )  
               a(2) = (  -0.036574   0.999331   0.000000 )  
               a(3) = (  -0.266883  -0.706777   0.655164 )  

     reciprocal axes: (cart. coord. in units 2 pi/alat)
               b(1) = (  1.000000  0.036598  0.446834 )  
               b(2) = (  0.000000  1.000669  1.079502 )  
               b(3) = (  0.000000  0.000000  1.526336 )  


     PseudoPot. # 1 for Lu read from file:
     /home/cwx6513/pp.La/La.UPF
     MD5 check sum: 4fc038260c66a0bf25fb4835376efb80
     Pseudo is Norm-conserving, Zval = 25.0
     Generated in analytical, separable form
     Using radial grid of 1271 points,  6 beta functions with: 
                l(1) =   0
                l(2) =   0
                l(3) =   1
                l(4) =   1
                l(5) =   2
                l(6) =   3

     PseudoPot. # 2 for Er read from file:
     /home/cwx6513/pp.La/Er.UPF
     MD5 check sum: e152ae21b84514339d8526f066caf99b
     Pseudo is Norm-conserving, Zval = 22.0
     Generated in analytical, separable form
     Using radial grid of 1267 points,  6 beta functions with: 
                l(1) =   0
                l(2) =   0
                l(3) =   1
                l(4) =   1
                l(5) =   2
                l(6) =   3

     atomic species   valence    mass     pseudopotential
        K             25.00    39.09830     Lu( 1.00)
        Hg            22.00   200.59000     Er( 1.00)

      2 Sym. Ops., with inversion, found



   Cartesian axes

     site n.     atom                  positions (alat units)
         1           K   tau(   1) = (  -0.0340766   0.4201429   0.4913727  )
         2           K   tau(   2) = (   0.7306201  -0.1275892   0.1637909  )
         3           Hg  tau(   3) = (   0.2308977  -0.0548727   0.3630373  )
         4           Hg  tau(   4) = (   0.4656458   0.3474265   0.2921263  )
         5           Hg  tau(   5) = (   0.5181090  -0.3317640   0.6197082  )
         6           Hg  tau(   6) = (   0.1784345   0.6243178   0.0354555  )

     number of k points=   253  gaussian smearing, width (Ry)=  0.1000

     Number of k-points >= 100: set verbosity='high' to print them.

     Dense  grid:    47485 G-vectors     FFT dimensions: (  54,  54,  54)

     Largest allocated arrays     est. size (Mb)     dimensions
        Kohn-Sham Wavefunctions         1.90 Mb     (   1500,   83)
        NL pseudopotentials             2.75 Mb     (   1500,  120)
        Each V/rho on FFT grid          0.62 Mb     (  40824)
        Each G-vector array             0.09 Mb     (  11872)
        G-vector shells                 0.09 Mb     (  11872)
     Largest temporary arrays     est. size (Mb)     dimensions
        Each subspace H/S matrix        0.11 Mb     (  83,  83)
        Each <psi_i|beta_j> matrix      0.15 Mb     (    120,   83)
        Arrays for rho mixing           4.98 Mb     (  40824,   8)

     Initial potential from superposition of free atoms

     Starting from uniform charge
     Starting wfc are    0 randomized atomic wfcs

     total cpu time spent up to now is       41.6 secs

     Self-consistent Calculation

     iteration #  1     ecut=    40.00 Ry     beta=0.70
     CG style diagonalization
     ethr =  1.00E-02,  avg # of iterations = 21.6

     total cpu time spent up to now is     1352.9 secs

     total energy              =   -1859.37099906 Ry
     Harris-Foulkes estimate   =   -3092.03089165 Ry
     estimated scf accuracy    <    1516.21870823 Ry

     iteration #  2     ecut=    40.00 Ry     beta=0.70
     CG style diagonalization
     c_bands:  1 eigenvalues not converged
     c_bands:  1 eigenvalues not converged
     ethr =  1.00E-02,  avg # of iterations =  9.9

     total cpu time spent up to now is     2018.1 secs

     total energy              =   -1855.67509616 Ry
     Harris-Foulkes estimate   =   -2461.80501852 Ry
     estimated scf accuracy    <     984.69990804 Ry

     iteration #  3     ecut=    40.00 Ry     beta=0.70
     CG style diagonalization
     c_bands:  1 eigenvalues not converged
     c_bands:  1 eigenvalues not converged
     c_bands:  1 eigenvalues not converged
     c_bands:  1 eigenvalues not converged
     c_bands:  1 eigenvalues not converged
     c_bands:  2 eigenvalues not converged
     c_bands:  1 eigenvalues not converged
     c_bands:  1 eigenvalues not converged
     c_bands:  2 eigenvalues not converged
     c_bands:  1 eigenvalues not converged
     c_bands:  1 eigenvalues not converged
     c_bands:  2 eigenvalues not converged
     c_bands:  1 eigenvalues not converged
     c_bands:  1 eigenvalues not converged
     c_bands:  1 eigenvalues not converged
     c_bands:  1 eigenvalues not converged
     c_bands:  3 eigenvalues not converged
     c_bands:  3 eigenvalues not converged
     c_bands:  1 eigenvalues not converged
     c_bands:  1 eigenvalues not converged
     c_bands:  1 eigenvalues not converged
     c_bands:  1 eigenvalues not converged
     c_bands:  1 eigenvalues not converged
     c_bands:  2 eigenvalues not converged
     c_bands:  1 eigenvalues not converged
     c_bands:  1 eigenvalues not converged
     c_bands:  1 eigenvalues not converged
     c_bands:  1 eigenvalues not converged
     c_bands:  2 eigenvalues not converged
     c_bands:  1 eigenvalues not converged
     c_bands:  1 eigenvalues not converged
     c_bands:  1 eigenvalues not converged
     c_bands:  1 eigenvalues not converged
     c_bands:  1 eigenvalues not converged
     c_bands:  1 eigenvalues not converged
     c_bands:  2 eigenvalues not converged
     c_bands:  2 eigenvalues not converged
     c_bands:  1 eigenvalues not converged
     c_bands:  1 eigenvalues not converged
     c_bands:  1 eigenvalues not converged
     c_bands:  1 eigenvalues not converged
     c_bands:  2 eigenvalues not converged
     c_bands:  1 eigenvalues not converged
     c_bands:  1 eigenvalues not converged
     c_bands:  1 eigenvalues not converged
     c_bands:  1 eigenvalues not converged
     c_bands:  1 eigenvalues not converged
     c_bands:  1 eigenvalues not converged
     c_bands:  1 eigenvalues not converged
     c_bands:  1 eigenvalues not converged
     c_bands:  1 eigenvalues not converged
     c_bands:  1 eigenvalues not converged
     c_bands:  1 eigenvalues not converged
     c_bands:  2 eigenvalues not converged
     c_bands:  1 eigenvalues not converged
     c_bands:  1 eigenvalues not converged
     c_bands:  1 eigenvalues not converged
     c_bands:  1 eigenvalues not converged
     c_bands:  1 eigenvalues not converged
     c_bands:  1 eigenvalues not converged
     c_bands:  1 eigenvalues not converged
     c_bands:  1 eigenvalues not converged
     c_bands:  1 eigenvalues not converged
     c_bands:  1 eigenvalues not converged
     ethr =  1.00E-02,  avg # of iterations = 11.4

     total cpu time spent up to now is     2807.4 secs

     total energy              =   -2053.33527292 Ry
     Harris-Foulkes estimate   =   -2368.18281924 Ry
     estimated scf accuracy    <     877.94814057 Ry

     iteration #  4     ecut=    40.00 Ry     beta=0.70
     CG style diagonalization
     ethr =  1.00E-02,  avg # of iterations =  7.6

     total cpu time spent up to now is     3357.4 secs

     total energy              =   -2222.61730853 Ry
     Harris-Foulkes estimate   =   -2230.82496806 Ry
     estimated scf accuracy    <      19.41622587 Ry

     iteration #  5     ecut=    40.00 Ry     beta=0.70
     CG style diagonalization
     ethr =  1.00E-02,  avg # of iterations =  3.5

     total cpu time spent up to now is     3611.6 secs

     total energy              =   -2224.50202288 Ry
     Harris-Foulkes estimate   =   -2225.63342935 Ry
     estimated scf accuracy    <       2.90184869 Ry

     iteration #  6     ecut=    40.00 Ry     beta=0.70
     CG style diagonalization
     ethr =  2.10E-03,  avg # of iterations =  3.4

     total cpu time spent up to now is     3854.1 secs

     total energy              =   -2224.78605358 Ry
     Harris-Foulkes estimate   =   -2224.95310689 Ry
     estimated scf accuracy    <       0.47658373 Ry

     iteration #  7     ecut=    40.00 Ry     beta=0.70
     CG style diagonalization
     ethr =  3.45E-04,  avg # of iterations =  3.6

     total cpu time spent up to now is     4107.6 secs

     total energy              =   -2224.80692291 Ry
     Harris-Foulkes estimate   =   -2224.85505046 Ry
     estimated scf accuracy    <       0.09889080 Ry

     iteration #  8     ecut=    40.00 Ry     beta=0.70
     CG style diagonalization
     c_bands:  1 eigenvalues not converged
     c_bands:  1 eigenvalues not converged
     c_bands:  1 eigenvalues not converged
     c_bands:  1 eigenvalues not converged
     c_bands:  1 eigenvalues not converged
     ethr =  7.17E-05,  avg # of iterations =  3.7

     total cpu time spent up to now is     4388.1 secs

     total energy              =   -2224.82403190 Ry
     Harris-Foulkes estimate   =   -2224.83049936 Ry
     estimated scf accuracy    <       0.01445936 Ry

     iteration #  9     ecut=    40.00 Ry     beta=0.70
     CG style diagonalization
     c_bands:  1 eigenvalues not converged
     c_bands:  1 eigenvalues not converged
     c_bands:  1 eigenvalues not converged
     c_bands:  1 eigenvalues not converged
     c_bands:  1 eigenvalues not converged
     c_bands:  1 eigenvalues not converged
     c_bands:  1 eigenvalues not converged
     c_bands:  1 eigenvalues not converged
     c_bands:  1 eigenvalues not converged
     c_bands:  1 eigenvalues not converged
     c_bands:  1 eigenvalues not converged
     c_bands:  1 eigenvalues not converged
     c_bands:  1 eigenvalues not converged
     ethr =  1.05E-05,  avg # of iterations =  4.2

     total cpu time spent up to now is     4692.4 secs

     total energy              =   -2224.82727230 Ry
     Harris-Foulkes estimate   =   -2224.83020845 Ry
     estimated scf accuracy    <       0.00659182 Ry

     iteration # 10     ecut=    40.00 Ry     beta=0.70
     CG style diagonalization
     c_bands:  1 eigenvalues not converged
     c_bands:  1 eigenvalues not converged
     c_bands:  1 eigenvalues not converged
     ethr =  4.78E-06,  avg # of iterations =  3.6

     total cpu time spent up to now is     4949.3 secs

     total energy              =   -2224.82810113 Ry
     Harris-Foulkes estimate   =   -2224.82851713 Ry
     estimated scf accuracy    <       0.00081151 Ry

     iteration # 11     ecut=    40.00 Ry     beta=0.70
     CG style diagonalization
     c_bands:  1 eigenvalues not converged
     ethr =  5.88E-07,  avg # of iterations =  3.8

     total cpu time spent up to now is     5217.8 secs

     End of self-consistent calculation

     Number of k-points >= 100: set verbosity='high' to print the bands.

     the Fermi energy is    15.7817 ev

!    total energy              =   -2224.82822261 Ry
     Harris-Foulkes estimate   =   -2224.82829308 Ry
     estimated scf accuracy    <       0.00007753 Ry

     The total energy is the sum of the following terms:

     one-electron contribution =   -1136.09469285 Ry
     hartree contribution      =     568.01383470 Ry
     xc contribution           =    -177.10950208 Ry
     ewald contribution        =   -1479.42037829 Ry
     smearing contrib. (-TS)   =      -0.21748408 Ry

     convergence has been achieved in  11 iterations

     Forces acting on atoms (Ry/au):

     atom    1 type  1   force =    -0.02182635    0.00451042   -0.01220068
     atom    2 type  1   force =     0.02182635   -0.00451042    0.01220068
     atom    3 type  2   force =    -0.01173358   -0.03033390    0.00817801
     atom    4 type  2   force =     0.01173358    0.03033390   -0.00817801
     atom    5 type  2   force =     0.00129353    0.00816131   -0.00300170
     atom    6 type  2   force =    -0.00129353   -0.00816131    0.00300170

     Total force =     0.060788     Total SCF correction =     0.000000


     entering subroutine stress ...

          total   stress  (Ry/bohr**3)                   (kbar)     P= -595.06
  -0.00408889   0.00000037  -0.00009937       -601.50      0.05    -14.62
   0.00000037  -0.00408399   0.00009297          0.05   -600.78     13.68
  -0.00009937   0.00009297  -0.00396262        -14.62     13.68   -582.92


     BFGS Geometry Optimization

     number of scf cycles    =   1
     number of bfgs steps    =   0

     enthalpy new            =   -2224.8282226079 Ry

     new trust radius        =       0.5000000000 bohr
     new conv_thr            =       0.0001000000 Ry

     new unit-cell volume =   1131.61179 a.u.^3 (   167.68756 Ang^3 )

CELL_PARAMETERS (alat= 12.85322937)
   0.932970828   0.000006028  -0.001628908
  -0.034115991   0.932426585   0.001582558
  -0.250065476  -0.658462382   0.611962339

ATOMIC_POSITIONS (crystal)
K        0.199478804   0.950420343   0.749049962
K        0.800521196   0.049579657   0.250950038
Hg       0.390638187   0.335891827   0.554753802
Hg       0.609361813   0.664108173   0.445246198
Hg       0.782886803   0.337241327   0.945649265
Hg       0.217113197   0.662758673   0.054350735



     Writing output data file Prototype-La-oI12-KHg2.save
     NEW-OLD atomic charge density approx. for the potential
     NEW k-points: (use verbosity='high' to print them)

     total cpu time spent up to now is     5254.8 secs

     Self-consistent Calculation

     iteration #  1     ecut=    40.00 Ry     beta=0.70
     CG style diagonalization
     c_bands:  1 eigenvalues not converged
     c_bands:  1 eigenvalues not converged
     c_bands:  1 eigenvalues not converged
     c_bands:  1 eigenvalues not converged
     c_bands:  1 eigenvalues not converged
     c_bands:  1 eigenvalues not converged
     c_bands:  1 eigenvalues not converged
     c_bands:  1 eigenvalues not converged
     c_bands:  1 eigenvalues not converged
     c_bands:  1 eigenvalues not converged
     c_bands:  1 eigenvalues not converged
     c_bands:  1 eigenvalues not converged
     c_bands:  1 eigenvalues not converged
     c_bands:  1 eigenvalues not converged
     c_bands:  1 eigenvalues not converged
     c_bands:  1 eigenvalues not converged
     c_bands:  1 eigenvalues not converged
     c_bands:  1 eigenvalues not converged
     c_bands:  1 eigenvalues not converged
     c_bands:  1 eigenvalues not converged
     c_bands:  2 eigenvalues not converged
     c_bands:  1 eigenvalues not converged
     c_bands:  1 eigenvalues not converged
     c_bands:  1 eigenvalues not converged
     c_bands:  1 eigenvalues not converged
     c_bands:  1 eigenvalues not converged
     c_bands:  1 eigenvalues not converged
     c_bands:  1 eigenvalues not converged
     c_bands:  1 eigenvalues not converged
     c_bands:  1 eigenvalues not converged
     c_bands:  1 eigenvalues not converged
     c_bands:  1 eigenvalues not converged
     c_bands:  1 eigenvalues not converged
     c_bands:  1 eigenvalues not converged
     ethr =  1.00E-06,  avg # of iterations = 23.8

     total cpu time spent up to now is     6792.8 secs

     total energy              =   -2214.44900922 Ry
     Harris-Foulkes estimate   =   -2237.73537217 Ry
     estimated scf accuracy    <      28.39161328 Ry

     iteration #  2     ecut=    40.00 Ry     beta=0.70
     CG style diagonalization
     ethr =  1.00E-02,  avg # of iterations =  4.6

     total cpu time spent up to now is     7095.1 secs

     total energy              =   -2223.36581577 Ry
     Harris-Foulkes estimate   =   -2228.77717028 Ry
     estimated scf accuracy    <       8.33527750 Ry

     iteration #  3     ecut=    40.00 Ry     beta=0.70
     CG style diagonalization
     ethr =  6.04E-03,  avg # of iterations =  3.7

     total cpu time spent up to now is     7343.0 secs

     total energy              =   -2225.13141187 Ry
     Harris-Foulkes estimate   =   -2225.98703629 Ry
     estimated scf accuracy    <       1.85014137 Ry

     iteration #  4     ecut=    40.00 Ry     beta=0.70
     CG style diagonalization
     ethr =  1.34E-03,  avg # of iterations =  3.5

     total cpu time spent up to now is     7570.3 secs

     total energy              =   -2225.54551274 Ry
     Harris-Foulkes estimate   =   -2225.56590094 Ry
     estimated scf accuracy    <       0.03357940 Ry

     iteration #  5     ecut=    40.00 Ry     beta=0.70
     CG style diagonalization
     c_bands:  1 eigenvalues not converged
     c_bands:  1 eigenvalues not converged
     c_bands:  2 eigenvalues not converged
     c_bands:  1 eigenvalues not converged
     c_bands:  1 eigenvalues not converged
     c_bands:  1 eigenvalues not converged
     c_bands:  1 eigenvalues not converged
     c_bands:  2 eigenvalues not converged
     c_bands:  1 eigenvalues not converged
     c_bands:  1 eigenvalues not converged
     c_bands:  1 eigenvalues not converged
     c_bands:  2 eigenvalues not converged
     c_bands:  1 eigenvalues not converged
     c_bands:  1 eigenvalues not converged
     c_bands:  1 eigenvalues not converged
     c_bands:  1 eigenvalues not converged
     c_bands:  1 eigenvalues not converged
     c_bands:  1 eigenvalues not converged
     c_bands:  1 eigenvalues not converged
     c_bands:  1 eigenvalues not converged
     c_bands:  1 eigenvalues not converged
     c_bands:  1 eigenvalues not converged
     c_bands:  1 eigenvalues not converged
     c_bands:  1 eigenvalues not converged
     c_bands:  1 eigenvalues not converged
     ethr =  2.43E-05,  avg # of iterations =  4.4

     total cpu time spent up to now is     7856.6 secs

     total energy              =   -2225.55945386 Ry
     Harris-Foulkes estimate   =   -2225.56537863 Ry
     estimated scf accuracy    <       0.01136333 Ry

     iteration #  6     ecut=    40.00 Ry     beta=0.70
     CG style diagonalization
     c_bands:  1 eigenvalues not converged
     c_bands:  1 eigenvalues not converged
     c_bands:  1 eigenvalues not converged
     ethr =  8.23E-06,  avg # of iterations =  3.8

     total cpu time spent up to now is     8103.8 secs

     total energy              =   -2225.56110506 Ry
     Harris-Foulkes estimate   =   -2225.56177718 Ry
     estimated scf accuracy    <       0.00148094 Ry

     iteration #  7     ecut=    40.00 Ry     beta=0.70
     CG style diagonalization
     c_bands:  1 eigenvalues not converged
     c_bands:  1 eigenvalues not converged
     c_bands:  1 eigenvalues not converged
     c_bands:  1 eigenvalues not converged
     ethr =  1.07E-06,  avg # of iterations =  3.8

     total cpu time spent up to now is     8347.1 secs

     total energy              =   -2225.56124246 Ry
     Harris-Foulkes estimate   =   -2225.56139387 Ry
     estimated scf accuracy    <       0.00026079 Ry

     iteration #  8     ecut=    40.00 Ry     beta=0.70
     CG style diagonalization
     ethr =  1.89E-07,  avg # of iterations =  3.9

     total cpu time spent up to now is     8591.7 secs

     End of self-consistent calculation

     Number of k-points >= 100: set verbosity='high' to print the bands.

     the Fermi energy is    20.5418 ev

!    total energy              =   -2225.56127455 Ry
     Harris-Foulkes estimate   =   -2225.56134598 Ry
     estimated scf accuracy    <       0.00007962 Ry

     The total energy is the sum of the following terms:

     one-electron contribution =    -969.56640890 Ry
     hartree contribution      =     506.96450688 Ry
     xc contribution           =    -178.30092235 Ry
     ewald contribution        =   -1584.46919999 Ry
     smearing contrib. (-TS)   =      -0.18925019 Ry

     convergence has been achieved in   8 iterations

     Forces acting on atoms (Ry/au):

     atom    1 type  1   force =    -0.04173244   -0.05924630    0.00712789
     atom    2 type  1   force =     0.04173244    0.05924630   -0.00712789
     atom    3 type  2   force =    -0.02801794    0.08609265   -0.05141898
     atom    4 type  2   force =     0.02801794   -0.08609265    0.05141898
     atom    5 type  2   force =     0.08406727   -0.02985913    0.05225365
     atom    6 type  2   force =    -0.08406727    0.02985913   -0.05225365

     Total force =     0.231658     Total SCF correction =     0.000000


     entering subroutine stress ...

          total   stress  (Ry/bohr**3)                   (kbar)     P= -193.51
  -0.00138754   0.00001138  -0.00020449       -204.11      1.67    -30.08
   0.00001138  -0.00141352   0.00020870          1.67   -207.94     30.70
  -0.00020449   0.00020870  -0.00114528        -30.08     30.70   -168.48


     number of scf cycles    =   2
     number of bfgs steps    =   1

     enthalpy old            =   -2224.8282226080 Ry
     enthalpy new            =   -2225.5612745540 Ry

     CASE: enthalpy_new < enthalpy_old

     small trust_radius: resetting bfgs history

     new trust radius        =       0.2403350563 bohr
     new conv_thr            =       0.0000860926 Ry

     new unit-cell volume =   1023.52660 a.u.^3 (   151.67099 Ang^3 )

CELL_PARAMETERS (alat= 12.85322937)
   0.900615707   0.000262654  -0.006351709
  -0.032675462   0.899475072   0.006576683
  -0.244706756  -0.632071797   0.592283444

ATOMIC_POSITIONS (crystal)
K        0.196084827   0.946118286   0.749958253
K        0.803915173   0.053881714   0.250041747
Hg       0.386638391   0.338446826   0.548199427
Hg       0.613361609   0.661553174   0.451800573
Hg       0.791763563   0.339453806   0.952310407
Hg       0.208236437   0.660546194   0.047689593



     Writing output data file Prototype-La-oI12-KHg2.save
     NEW-OLD atomic charge density approx. for the potential
     NEW k-points: (use verbosity='high' to print them)

     total cpu time spent up to now is     8627.7 secs

     Self-consistent Calculation

     iteration #  1     ecut=    40.00 Ry     beta=0.70
     CG style diagonalization
     c_bands:  1 eigenvalues not converged
     c_bands:  1 eigenvalues not converged
     c_bands:  2 eigenvalues not converged
     c_bands:  1 eigenvalues not converged
     c_bands:  1 eigenvalues not converged
     c_bands:  1 eigenvalues not converged
     c_bands:  1 eigenvalues not converged
     c_bands:  1 eigenvalues not converged
     c_bands:  1 eigenvalues not converged
     c_bands:  2 eigenvalues not converged
     c_bands:  1 eigenvalues not converged
     c_bands:  2 eigenvalues not converged
     c_bands:  1 eigenvalues not converged
     c_bands:  1 eigenvalues not converged
     c_bands:  1 eigenvalues not converged
     c_bands:  1 eigenvalues not converged
     c_bands:  1 eigenvalues not converged
     c_bands:  2 eigenvalues not converged
     c_bands:  1 eigenvalues not converged
     c_bands:  1 eigenvalues not converged
     c_bands:  1 eigenvalues not converged
     c_bands:  1 eigenvalues not converged
     c_bands:  1 eigenvalues not converged
     c_bands:  3 eigenvalues not converged
     c_bands:  1 eigenvalues not converged
     c_bands:  2 eigenvalues not converged
     c_bands:  1 eigenvalues not converged
     c_bands:  1 eigenvalues not converged
     c_bands:  1 eigenvalues not converged
     c_bands:  1 eigenvalues not converged
     c_bands:  1 eigenvalues not converged
     c_bands:  1 eigenvalues not converged
     c_bands:  1 eigenvalues not converged
     c_bands:  1 eigenvalues not converged
     c_bands:  1 eigenvalues not converged
     c_bands:  1 eigenvalues not converged
     c_bands:  1 eigenvalues not converged
     c_bands:  2 eigenvalues not converged
     c_bands:  1 eigenvalues not converged
     c_bands:  1 eigenvalues not converged
     c_bands:  1 eigenvalues not converged
     c_bands:  1 eigenvalues not converged
     c_bands:  1 eigenvalues not converged
     c_bands:  2 eigenvalues not converged
     c_bands:  1 eigenvalues not converged
     c_bands:  1 eigenvalues not converged
     c_bands:  1 eigenvalues not converged
     c_bands:  2 eigenvalues not converged
     c_bands:  1 eigenvalues not converged
     c_bands:  1 eigenvalues not converged
     c_bands:  1 eigenvalues not converged
     c_bands:  1 eigenvalues not converged
     c_bands:  1 eigenvalues not converged
     c_bands:  1 eigenvalues not converged
     c_bands:  1 eigenvalues not converged
     c_bands:  2 eigenvalues not converged
     c_bands:  1 eigenvalues not converged
     c_bands:  1 eigenvalues not converged
     c_bands:  1 eigenvalues not converged
     c_bands:  1 eigenvalues not converged
     c_bands:  1 eigenvalues not converged
     c_bands:  1 eigenvalues not converged
     c_bands:  1 eigenvalues not converged
     c_bands:  1 eigenvalues not converged
     c_bands:  1 eigenvalues not converged
     c_bands:  2 eigenvalues not converged
     c_bands:  1 eigenvalues not converged
     c_bands:  2 eigenvalues not converged
     c_bands:  1 eigenvalues not converged
     c_bands:  1 eigenvalues not converged
     c_bands:  1 eigenvalues not converged
     c_bands:  1 eigenvalues not converged
     c_bands:  1 eigenvalues not converged
     c_bands:  1 eigenvalues not converged
     ethr =  1.00E-06,  avg # of iterations = 24.9

     total cpu time spent up to now is    10199.8 secs

     total energy              =   -2189.27080419 Ry
     Harris-Foulkes estimate   =   -2242.11264120 Ry
     estimated scf accuracy    <      62.46683002 Ry

     iteration #  2     ecut=    40.00 Ry     beta=0.70
     CG style diagonalization
     c_bands:  1 eigenvalues not converged
     c_bands:  1 eigenvalues not converged
     c_bands:  1 eigenvalues not converged
     c_bands:  1 eigenvalues not converged
     c_bands:  1 eigenvalues not converged
     ethr =  1.00E-02,  avg # of iterations =  7.6

     total cpu time spent up to now is    10714.6 secs

     total energy              =   -2197.18774214 Ry
     Harris-Foulkes estimate   =   -2266.53888847 Ry
     estimated scf accuracy    <     161.31368524 Ry

     iteration #  3     ecut=    40.00 Ry     beta=0.70
     CG style diagonalization
     ethr =  1.00E-02,  avg # of iterations =  5.4

     total cpu time spent up to now is    11079.2 secs

     total energy              =   -2225.03256914 Ry
     Harris-Foulkes estimate   =   -2226.38640036 Ry
     estimated scf accuracy    <       2.66011440 Ry

     iteration #  4     ecut=    40.00 Ry     beta=0.70
     CG style diagonalization
     ethr =  1.93E-03,  avg # of iterations =  3.8

     total cpu time spent up to now is    11317.7 secs

     total energy              =   -2225.55282519 Ry
     Harris-Foulkes estimate   =   -2225.63855036 Ry
     estimated scf accuracy    <       0.17240891 Ry

     iteration #  5     ecut=    40.00 Ry     beta=0.70
     CG style diagonalization
     c_bands:  1 eigenvalues not converged
     c_bands:  1 eigenvalues not converged
     c_bands:  1 eigenvalues not converged
     c_bands:  1 eigenvalues not converged
     c_bands:  1 eigenvalues not converged
     c_bands:  1 eigenvalues not converged
     c_bands:  2 eigenvalues not converged
     c_bands:  1 eigenvalues not converged
     c_bands:  1 eigenvalues not converged
     c_bands:  1 eigenvalues not converged
     c_bands:  2 eigenvalues not converged
     c_bands:  1 eigenvalues not converged
     c_bands:  1 eigenvalues not converged
     c_bands:  1 eigenvalues not converged
     c_bands:  1 eigenvalues not converged
     c_bands:  1 eigenvalues not converged
     c_bands:  1 eigenvalues not converged
     c_bands:  1 eigenvalues not converged
     c_bands:  1 eigenvalues not converged
     c_bands:  1 eigenvalues not converged
     c_bands:  1 eigenvalues not converged
     c_bands:  2 eigenvalues not converged
     c_bands:  1 eigenvalues not converged
     c_bands:  2 eigenvalues not converged
     c_bands:  1 eigenvalues not converged
     c_bands:  1 eigenvalues not converged
     c_bands:  1 eigenvalues not converged
     c_bands:  1 eigenvalues not converged
     c_bands:  1 eigenvalues not converged
     c_bands:  1 eigenvalues not converged
     c_bands:  1 eigenvalues not converged
     c_bands:  1 eigenvalues not converged
     c_bands:  1 eigenvalues not converged
     c_bands:  1 eigenvalues not converged
     c_bands:  1 eigenvalues not converged
     c_bands:  1 eigenvalues not converged
     c_bands:  1 eigenvalues not converged
     c_bands:  1 eigenvalues not converged
     c_bands:  1 eigenvalues not converged
     c_bands:  1 eigenvalues not converged
     c_bands:  1 eigenvalues not converged
     c_bands:  1 eigenvalues not converged
     c_bands:  1 eigenvalues not converged
     c_bands:  1 eigenvalues not converged
     c_bands:  1 eigenvalues not converged
     c_bands:  1 eigenvalues not converged
     c_bands:  1 eigenvalues not converged
     ethr =  1.25E-04,  avg # of iterations =  4.7

     total cpu time spent up to now is    11629.8 secs

     total energy              =   -2225.61359992 Ry
     Harris-Foulkes estimate   =   -2225.63247779 Ry
     estimated scf accuracy    <       0.03166257 Ry

     iteration #  6     ecut=    40.00 Ry     beta=0.70
     CG style diagonalization
     c_bands:  1 eigenvalues not converged
     c_bands:  1 eigenvalues not converged
     c_bands:  1 eigenvalues not converged
     c_bands:  1 eigenvalues not converged
     c_bands:  1 eigenvalues not converged
     c_bands:  1 eigenvalues not converged
     c_bands:  1 eigenvalues not converged
     c_bands:  1 eigenvalues not converged
     c_bands:  2 eigenvalues not converged
     c_bands:  1 eigenvalues not converged
     c_bands:  1 eigenvalues not converged
     c_bands:  1 eigenvalues not converged
     c_bands:  1 eigenvalues not converged
     c_bands:  1 eigenvalues not converged
     c_bands:  1 eigenvalues not converged
     c_bands:  1 eigenvalues not converged
     ethr =  2.29E-05,  avg # of iterations =  4.1

     total cpu time spent up to now is    11891.0 secs

     total energy              =   -2225.62278697 Ry
     Harris-Foulkes estimate   =   -2225.62624267 Ry
     estimated scf accuracy    <       0.00585974 Ry

     iteration #  7     ecut=    40.00 Ry     beta=0.70
     CG style diagonalization
     c_bands:  1 eigenvalues not converged
     c_bands:  1 eigenvalues not converged
     c_bands:  1 eigenvalues not converged
     c_bands:  1 eigenvalues not converged
     c_bands:  1 eigenvalues not converged
     c_bands:  1 eigenvalues not converged
     c_bands:  1 eigenvalues not converged
     c_bands:  1 eigenvalues not converged
     c_bands:  1 eigenvalues not converged
     c_bands:  1 eigenvalues not converged
     c_bands:  1 eigenvalues not converged
     c_bands:  1 eigenvalues not converged
     c_bands:  1 eigenvalues not converged
     c_bands:  1 eigenvalues not converged
     ethr =  4.25E-06,  avg # of iterations =  4.1

     total cpu time spent up to now is    12157.0 secs

     total energy              =   -2225.62459295 Ry
     Harris-Foulkes estimate   =   -2225.62583736 Ry
     estimated scf accuracy    <       0.00269918 Ry

     iteration #  8     ecut=    40.00 Ry     beta=0.70
     CG style diagonalization
     c_bands:  1 eigenvalues not converged
     c_bands:  2 eigenvalues not converged
     c_bands:  1 eigenvalues not converged
     c_bands:  1 eigenvalues not converged
     c_bands:  1 eigenvalues not converged
     c_bands:  1 eigenvalues not converged
     c_bands:  1 eigenvalues not converged
     c_bands:  1 eigenvalues not converged
     ethr =  1.96E-06,  avg # of iterations =  3.6

     total cpu time spent up to now is    12388.3 secs

     End of self-consistent calculation

     Number of k-points >= 100: set verbosity='high' to print the bands.

     the Fermi energy is    23.2507 ev

!    total energy              =   -2225.62521369 Ry
     Harris-Foulkes estimate   =   -2225.62524901 Ry
     estimated scf accuracy    <       0.00004819 Ry

     The total energy is the sum of the following terms:

     one-electron contribution =    -877.39602816 Ry
     hartree contribution      =     473.47151948 Ry
     xc contribution           =    -178.96876647 Ry
     ewald contribution        =   -1642.55191596 Ry
     smearing contrib. (-TS)   =      -0.18002258 Ry

     convergence has been achieved in   8 iterations

     Forces acting on atoms (Ry/au):

     atom    1 type  1   force =     0.00832411    0.00650605    0.00096621
     atom    2 type  1   force =    -0.00832411   -0.00650605   -0.00096621
     atom    3 type  2   force =     0.01410176    0.02345616   -0.00374401
     atom    4 type  2   force =    -0.01410176   -0.02345616    0.00374401
     atom    5 type  2   force =    -0.00421822   -0.00783726    0.00167756
     atom    6 type  2   force =     0.00421822    0.00783726   -0.00167756

     Total force =     0.043764     Total SCF correction =     0.000000


     entering subroutine stress ...

          total   stress  (Ry/bohr**3)                   (kbar)     P=   88.96
   0.00058875   0.00024158  -0.00022458         86.61     35.54    -33.04
   0.00024158   0.00058906   0.00022395         35.54     86.65     32.94
  -0.00022458   0.00022395   0.00063641        -33.04     32.94     93.62


     number of scf cycles    =   3
     number of bfgs steps    =   2

     enthalpy old            =   -2225.5612745540 Ry
     enthalpy new            =   -2225.6252136886 Ry

     CASE: enthalpy_new < enthalpy_old

     Message from routine bfgs:
     history already reset at previous step: stopping
     small trust_radius: resetting bfgs history

     new trust radius        =       0.1137436811 bohr
     new conv_thr            =       0.0000234562 Ry

     new unit-cell volume =   1070.55060 a.u.^3 (   158.63923 Ang^3 )

CELL_PARAMETERS (alat= 12.85322937)
   0.913908831   0.005670319  -0.011507739
  -0.027760857   0.912560770   0.011900630
  -0.255451311  -0.639542012   0.599542015

ATOMIC_POSITIONS (crystal)
K        0.196862378   0.946770766   0.750086266
K        0.803137622   0.053229234   0.249913734
Hg       0.387782136   0.340125291   0.547701248
Hg       0.612217864   0.659874709   0.452298752
Hg       0.791440757   0.338932492   0.952533096
Hg       0.208559243   0.661067508   0.047466904



     Writing output data file Prototype-La-oI12-KHg2.save
     NEW-OLD atomic charge density approx. for the potential
     NEW k-points: (use verbosity='high' to print them)

     total cpu time spent up to now is    12423.7 secs

     Self-consistent Calculation

     iteration #  1     ecut=    40.00 Ry     beta=0.70
     CG style diagonalization
     c_bands:  3 eigenvalues not converged
     c_bands:  1 eigenvalues not converged
     c_bands:  1 eigenvalues not converged
     c_bands:  1 eigenvalues not converged
     c_bands:  1 eigenvalues not converged
     c_bands:  1 eigenvalues not converged
     c_bands:  1 eigenvalues not converged
     c_bands:  1 eigenvalues not converged
     c_bands:  1 eigenvalues not converged
     c_bands:  1 eigenvalues not converged
     c_bands:  1 eigenvalues not converged
     c_bands:  1 eigenvalues not converged
     c_bands:  1 eigenvalues not converged
     c_bands:  1 eigenvalues not converged
     c_bands:  1 eigenvalues not converged
     c_bands:  1 eigenvalues not converged
     c_bands:  1 eigenvalues not converged
     c_bands:  1 eigenvalues not converged
     c_bands:  1 eigenvalues not converged
     ethr =  1.00E-06,  avg # of iterations = 16.3

     total cpu time spent up to now is    13451.4 secs

     total energy              =   -2224.51885364 Ry
     Harris-Foulkes estimate   =   -2226.53831291 Ry
     estimated scf accuracy    <       2.45525197 Ry

     iteration #  2     ecut=    40.00 Ry     beta=0.70
     CG style diagonalization
     ethr =  1.78E-03,  avg # of iterations =  4.0

     total cpu time spent up to now is    13702.0 secs

     total energy              =   -2224.79914456 Ry
     Harris-Foulkes estimate   =   -2226.39692084 Ry
     estimated scf accuracy    <       3.14919532 Ry

     iteration #  3     ecut=    40.00 Ry     beta=0.70
     CG style diagonalization
     ethr =  1.78E-03,  avg # of iterations =  3.7

     total cpu time spent up to now is    13960.9 secs

     total energy              =   -2225.56955078 Ry
     Harris-Foulkes estimate   =   -2225.68665128 Ry
     estimated scf accuracy    <       0.24216680 Ry

     iteration #  4     ecut=    40.00 Ry     beta=0.70
     CG style diagonalization
     ethr =  1.75E-04,  avg # of iterations =  3.7

     total cpu time spent up to now is    14219.5 secs

     total energy              =   -2225.63186587 Ry
     Harris-Foulkes estimate   =   -2225.63599268 Ry
     estimated scf accuracy    <       0.00670731 Ry

     iteration #  5     ecut=    40.00 Ry     beta=0.70
     CG style diagonalization
     c_bands:  1 eigenvalues not converged
     c_bands:  1 eigenvalues not converged
     c_bands:  1 eigenvalues not converged
     c_bands:  1 eigenvalues not converged
     c_bands:  1 eigenvalues not converged
     c_bands:  1 eigenvalues not converged
     c_bands:  1 eigenvalues not converged
     c_bands:  1 eigenvalues not converged
