
     Program PWSCF v.5.0.2 starts on 22Mar2018 at 21:13:37 

     This program is part of the open-source Quantum ESPRESSO suite
     for quantum simulation of materials; please cite
         "P. Giannozzi et al., J. Phys.:Condens. Matter 21 395502 (2009);
          URL http://www.quantum-espresso.org", 
     in publications or presentations arising from this work. More details at
     http://www.quantum-espresso.org/quote.php

     Parallel version (MPI), running on     4 processors
     R & G space division:  proc/nbgrp/npool/nimage =       4

     Current dimensions of program PWSCF are:
     Max number of different atomic species (ntypx) = 10
     Max number of k-points (npk) =  40000
     Max angular momentum in pseudopotentials (lmaxx) =  3
     Waiting for input...
     Reading input from standard input

     Subspace diagonalization in iterative solution of the eigenvalue problem:
     a serial algorithm will be used

 
     Parallelization info
     --------------------
     sticks:   dense  smooth     PW     G-vecs:    dense   smooth      PW
     Min         256     256     78                 5240     5240     876
     Max         257     257     79                 5243     5243     879
     Sum        1027    1027    313                20965    20965    3509
 


     bravais-lattice index     =            0
     lattice parameter (alat)  =       9.6483  a.u.
     unit-cell volume          =     613.3683 (a.u.)^3
     number of atoms/cell      =            6
     number of atomic types    =            2
     number of electrons       =        87.00
     number of Kohn-Sham states=           53
     kinetic-energy cutoff     =      40.0000  Ry
     charge density cutoff     =     160.0000  Ry
     convergence threshold     =      1.0E-04
     mixing beta               =       0.7000
     number of iterations used =            8  plain     mixing
     Exchange-correlation      = SLA-PZ-NOGX-NOGC ( 1 1 0 0 0)
     EXX-fraction              =        0.00
     nstep                     =           50


     celldm(1)=   9.648295  celldm(2)=   0.000000  celldm(3)=   0.000000
     celldm(4)=   0.000000  celldm(5)=   0.000000  celldm(6)=   0.000000

     crystal axes: (cart. coord. in units of alat)
               a(1) = (   1.000000   0.000000   0.000000 )  
               a(2) = (  -0.500000   0.866025   0.000000 )  
               a(3) = (   0.000000   0.000000   0.788568 )  

     reciprocal axes: (cart. coord. in units 2 pi/alat)
               b(1) = (  1.000000  0.577350  0.000000 )  
               b(2) = (  0.000000  1.154701  0.000000 )  
               b(3) = (  0.000000  0.000000  1.268122 )  


     PseudoPot. # 1 for Eu read from file:
     /home/cwx6513/pp.La/Eu.UPF
     MD5 check sum: 5efdbbfc50c6a10138933a6429836ad2
     Pseudo is Norm-conserving, Zval = 17.0
     Generated in analytical, separable form
     Using radial grid of 1261 points,  6 beta functions with: 
                l(1) =   0
                l(2) =   0
                l(3) =   1
                l(4) =   1
                l(5) =   2
                l(6) =   3

     PseudoPot. # 2 for Nd read from file:
     /home/cwx6513/pp.La/Nd.UPF
     MD5 check sum: c66c5b6abe7b5840ced9b1e244e3bed6
     Pseudo is Norm-conserving, Zval = 14.0
     Generated in analytical, separable form
     Using radial grid of 1257 points,  6 beta functions with: 
                l(1) =   0
                l(2) =   0
                l(3) =   1
                l(4) =   1
                l(5) =   2
                l(6) =   3

     atomic species   valence    mass     pseudopotential
        Ca            17.00    40.07800     Eu( 1.00)
        Cu            14.00    63.54600     Nd( 1.00)

     24 Sym. Ops., with inversion, found



   Cartesian axes

     site n.     atom                  positions (alat units)
         1           Ca  tau(   1) = (   0.0000000   0.0000000   0.0000000  )
         2           Cu  tau(   2) = (  -0.0000005   0.5773506   0.0000000  )
         3           Cu  tau(   3) = (   0.5000005   0.2886748   0.0000000  )
         4           Cu  tau(   4) = (   0.5000000   0.0000000   0.3942838  )
         5           Cu  tau(   5) = (   0.2500000   0.4330127   0.3942838  )
         6           Cu  tau(   6) = (  -0.2500000   0.4330127   0.3942838  )

     number of k points=   110  gaussian smearing, width (Ry)=  0.1000

     Number of k-points >= 100: set verbosity='high' to print them.

     Dense  grid:    20965 G-vectors     FFT dimensions: (  40,  40,  32)

     Largest allocated arrays     est. size (Mb)     dimensions
        Kohn-Sham Wavefunctions         0.54 Mb     (    670,   53)
        NL pseudopotentials             1.23 Mb     (    670,  120)
        Each V/rho on FFT grid          0.20 Mb     (  12800)
        Each G-vector array             0.04 Mb     (   5243)
        G-vector shells                 0.04 Mb     (   5243)
     Largest temporary arrays     est. size (Mb)     dimensions
        Each subspace H/S matrix        0.04 Mb     (  53,  53)
        Each <psi_i|beta_j> matrix      0.10 Mb     (    120,   53)
        Arrays for rho mixing           1.56 Mb     (  12800,   8)

     Initial potential from superposition of free atoms

     Starting from uniform charge
     Starting wfc are    0 randomized atomic wfcs

     total cpu time spent up to now is        4.4 secs

     Self-consistent Calculation

     iteration #  1     ecut=    40.00 Ry     beta=0.70
     CG style diagonalization
     c_bands:  1 eigenvalues not converged
     c_bands:  1 eigenvalues not converged
     c_bands:  1 eigenvalues not converged
     c_bands:  2 eigenvalues not converged
     c_bands:  4 eigenvalues not converged
     c_bands:  1 eigenvalues not converged
     c_bands:  2 eigenvalues not converged
     c_bands:  1 eigenvalues not converged
     c_bands:  2 eigenvalues not converged
     c_bands:  1 eigenvalues not converged
     c_bands:  3 eigenvalues not converged
     c_bands:  3 eigenvalues not converged
     c_bands:  2 eigenvalues not converged
     c_bands:  1 eigenvalues not converged
     c_bands:  1 eigenvalues not converged
     c_bands:  2 eigenvalues not converged
     c_bands:  3 eigenvalues not converged
     c_bands:  1 eigenvalues not converged
     c_bands:  1 eigenvalues not converged
     c_bands:  2 eigenvalues not converged
     c_bands:  2 eigenvalues not converged
     c_bands:  3 eigenvalues not converged
     c_bands:  1 eigenvalues not converged
     c_bands:  1 eigenvalues not converged
     c_bands:  3 eigenvalues not converged
     c_bands:  1 eigenvalues not converged
     c_bands:  2 eigenvalues not converged
     c_bands:  2 eigenvalues not converged
     c_bands:  2 eigenvalues not converged
     c_bands:  4 eigenvalues not converged
     c_bands:  2 eigenvalues not converged
     c_bands:  2 eigenvalues not converged
     c_bands:  4 eigenvalues not converged
     c_bands:  1 eigenvalues not converged
     c_bands:  2 eigenvalues not converged
     c_bands:  2 eigenvalues not converged
     c_bands:  3 eigenvalues not converged
     c_bands:  3 eigenvalues not converged
     c_bands:  2 eigenvalues not converged
     c_bands:  2 eigenvalues not converged
     c_bands:  3 eigenvalues not converged
     c_bands:  1 eigenvalues not converged
     c_bands:  2 eigenvalues not converged
     c_bands:  2 eigenvalues not converged
     c_bands:  2 eigenvalues not converged
     c_bands:  2 eigenvalues not converged
     c_bands:  2 eigenvalues not converged
     c_bands:  1 eigenvalues not converged
     c_bands:  3 eigenvalues not converged
     c_bands:  1 eigenvalues not converged
     c_bands:  1 eigenvalues not converged
     c_bands:  3 eigenvalues not converged
     c_bands:  4 eigenvalues not converged
     c_bands:  1 eigenvalues not converged
     c_bands:  2 eigenvalues not converged
     c_bands:  2 eigenvalues not converged
     c_bands:  3 eigenvalues not converged
     c_bands:  4 eigenvalues not converged
     c_bands:  2 eigenvalues not converged
     c_bands:  2 eigenvalues not converged
     c_bands:  3 eigenvalues not converged
     c_bands:  3 eigenvalues not converged
     c_bands:  1 eigenvalues not converged
     c_bands:  1 eigenvalues not converged
     c_bands:  1 eigenvalues not converged
     c_bands:  2 eigenvalues not converged
     c_bands:  5 eigenvalues not converged
     c_bands:  1 eigenvalues not converged
     c_bands:  2 eigenvalues not converged
     c_bands:  1 eigenvalues not converged
     c_bands:  5 eigenvalues not converged
     c_bands:  3 eigenvalues not converged
     c_bands:  4 eigenvalues not converged
     c_bands:  2 eigenvalues not converged
     c_bands:  5 eigenvalues not converged
     c_bands:  4 eigenvalues not converged
     c_bands:  2 eigenvalues not converged
     c_bands:  1 eigenvalues not converged
     c_bands:  4 eigenvalues not converged
     c_bands:  2 eigenvalues not converged
     c_bands:  1 eigenvalues not converged
     c_bands:  2 eigenvalues not converged
     c_bands:  4 eigenvalues not converged
     c_bands:  3 eigenvalues not converged
     c_bands:  3 eigenvalues not converged
     c_bands:  4 eigenvalues not converged
     c_bands:  2 eigenvalues not converged
     c_bands:  1 eigenvalues not converged
     c_bands:  2 eigenvalues not converged
     c_bands:  4 eigenvalues not converged
     c_bands:  3 eigenvalues not converged
     c_bands:  4 eigenvalues not converged
     c_bands:  3 eigenvalues not converged
     c_bands:  4 eigenvalues not converged
     c_bands:  3 eigenvalues not converged
     c_bands:  2 eigenvalues not converged
     c_bands:  3 eigenvalues not converged
     c_bands:  2 eigenvalues not converged
     c_bands:  2 eigenvalues not converged
     c_bands:  3 eigenvalues not converged
     c_bands:  4 eigenvalues not converged
     ethr =  1.00E-02,  avg # of iterations = 14.0

     total cpu time spent up to now is       64.7 secs

     total energy              =    -693.16861008 Ry
     Harris-Foulkes estimate   =    -807.62323704 Ry
     estimated scf accuracy    <     151.58989465 Ry

     iteration #  2     ecut=    40.00 Ry     beta=0.70
     CG style diagonalization
     ethr =  1.00E-02,  avg # of iterations =  7.3

     total cpu time spent up to now is       96.8 secs

     total energy              =    -719.50917272 Ry
     Harris-Foulkes estimate   =    -729.77786286 Ry
     estimated scf accuracy    <      14.44298547 Ry

     iteration #  3     ecut=    40.00 Ry     beta=0.70
     CG style diagonalization
     ethr =  1.00E-02,  avg # of iterations =  4.0

     total cpu time spent up to now is      114.4 secs

     total energy              =    -723.12042404 Ry
     Harris-Foulkes estimate   =    -728.85173430 Ry
     estimated scf accuracy    <      12.42347019 Ry

     iteration #  4     ecut=    40.00 Ry     beta=0.70
     CG style diagonalization
     ethr =  1.00E-02,  avg # of iterations =  3.4

     total cpu time spent up to now is      129.3 secs

     total energy              =    -725.11728231 Ry
     Harris-Foulkes estimate   =    -725.21713467 Ry
     estimated scf accuracy    <       0.18216848 Ry

     iteration #  5     ecut=    40.00 Ry     beta=0.70
     CG style diagonalization
     c_bands:  1 eigenvalues not converged
     c_bands:  2 eigenvalues not converged
     c_bands:  1 eigenvalues not converged
     c_bands:  2 eigenvalues not converged
     c_bands:  1 eigenvalues not converged
     c_bands:  1 eigenvalues not converged
     c_bands:  1 eigenvalues not converged
     c_bands:  1 eigenvalues not converged
     c_bands:  1 eigenvalues not converged
     c_bands:  1 eigenvalues not converged
     c_bands:  2 eigenvalues not converged
     c_bands:  1 eigenvalues not converged
     c_bands:  1 eigenvalues not converged
     c_bands:  1 eigenvalues not converged
     c_bands:  2 eigenvalues not converged
     c_bands:  1 eigenvalues not converged
     c_bands:  2 eigenvalues not converged
     c_bands:  1 eigenvalues not converged
     c_bands:  1 eigenvalues not converged
     c_bands:  1 eigenvalues not converged
     c_bands:  1 eigenvalues not converged
     c_bands:  1 eigenvalues not converged
     c_bands:  1 eigenvalues not converged
     c_bands:  1 eigenvalues not converged
     c_bands:  1 eigenvalues not converged
     c_bands:  1 eigenvalues not converged
     ethr =  2.09E-04,  avg # of iterations =  5.4

     total cpu time spent up to now is      153.4 secs

     total energy              =    -725.25261666 Ry
     Harris-Foulkes estimate   =    -725.26190073 Ry
     estimated scf accuracy    <       0.01631712 Ry

     iteration #  6     ecut=    40.00 Ry     beta=0.70
     CG style diagonalization
     c_bands:  1 eigenvalues not converged
     c_bands:  1 eigenvalues not converged
     c_bands:  1 eigenvalues not converged
     c_bands:  1 eigenvalues not converged
     c_bands:  1 eigenvalues not converged
     c_bands:  1 eigenvalues not converged
     c_bands:  1 eigenvalues not converged
     c_bands:  1 eigenvalues not converged
     c_bands:  1 eigenvalues not converged
     c_bands:  1 eigenvalues not converged
     c_bands:  1 eigenvalues not converged
     c_bands:  1 eigenvalues not converged
     c_bands:  1 eigenvalues not converged
     c_bands:  1 eigenvalues not converged
     c_bands:  1 eigenvalues not converged
     c_bands:  1 eigenvalues not converged
     c_bands:  1 eigenvalues not converged
     c_bands:  1 eigenvalues not converged
     c_bands:  1 eigenvalues not converged
     c_bands:  2 eigenvalues not converged
     c_bands:  1 eigenvalues not converged
     c_bands:  1 eigenvalues not converged
     c_bands:  1 eigenvalues not converged
     c_bands:  1 eigenvalues not converged
     c_bands:  2 eigenvalues not converged
     c_bands:  1 eigenvalues not converged
     c_bands:  1 eigenvalues not converged
     ethr =  1.88E-05,  avg # of iterations =  4.7

     total cpu time spent up to now is      173.2 secs

     total energy              =    -725.25540237 Ry
     Harris-Foulkes estimate   =    -725.26551264 Ry
     estimated scf accuracy    <       0.02622113 Ry

     iteration #  7     ecut=    40.00 Ry     beta=0.70
     CG style diagonalization
     c_bands:  1 eigenvalues not converged
     c_bands:  1 eigenvalues not converged
     c_bands:  1 eigenvalues not converged
     ethr =  1.88E-05,  avg # of iterations =  3.5

     total cpu time spent up to now is      188.4 secs

     total energy              =    -725.26036784 Ry
     Harris-Foulkes estimate   =    -725.26063340 Ry
     estimated scf accuracy    <       0.00063114 Ry

     iteration #  8     ecut=    40.00 Ry     beta=0.70
     CG style diagonalization
     c_bands:  1 eigenvalues not converged
     c_bands:  1 eigenvalues not converged
     c_bands:  1 eigenvalues not converged
     c_bands:  1 eigenvalues not converged
     c_bands:  1 eigenvalues not converged
     c_bands:  1 eigenvalues not converged
     ethr =  7.25E-07,  avg # of iterations =  4.4

     total cpu time spent up to now is      207.4 secs

     total energy              =    -725.26058288 Ry
     Harris-Foulkes estimate   =    -725.26066544 Ry
     estimated scf accuracy    <       0.00020615 Ry

     iteration #  9     ecut=    40.00 Ry     beta=0.70
     CG style diagonalization
     c_bands:  1 eigenvalues not converged
     c_bands:  1 eigenvalues not converged
     ethr =  2.37E-07,  avg # of iterations =  3.4

     total cpu time spent up to now is      221.6 secs

     End of self-consistent calculation

     Number of k-points >= 100: set verbosity='high' to print the bands.

     the Fermi energy is    32.1304 ev

!    total energy              =    -725.26062260 Ry
     Harris-Foulkes estimate   =    -725.26064064 Ry
     estimated scf accuracy    <       0.00001995 Ry

     The total energy is the sum of the following terms:

     one-electron contribution =      66.72142860 Ry
     hartree contribution      =      59.55644245 Ry
     xc contribution           =     -87.74930701 Ry
     ewald contribution        =    -763.52338520 Ry
     smearing contrib. (-TS)   =      -0.26580145 Ry

     convergence has been achieved in   9 iterations

     Forces acting on atoms (Ry/au):

     atom    1 type  1   force =     0.00000000    0.00000000    0.00000000
     atom    2 type  2   force =     0.00000000    0.00000000    0.00000000
     atom    3 type  2   force =     0.00000000    0.00000000    0.00000000
     atom    4 type  2   force =     0.00000000    0.00000000    0.00000000
     atom    5 type  2   force =     0.00000000    0.00000000    0.00000000
     atom    6 type  2   force =     0.00000000    0.00000000    0.00000000

     Total force =     0.000000     Total SCF correction =     0.000000


     entering subroutine stress ...

          total   stress  (Ry/bohr**3)                   (kbar)     P= 1875.49
   0.01124593   0.00000000   0.00000000       1654.33      0.00      0.00
   0.00000000   0.01124593   0.00000000          0.00   1654.33      0.00
   0.00000000   0.00000000   0.01575620          0.00      0.00   2317.82


     BFGS Geometry Optimization

     number of scf cycles    =   1
     number of bfgs steps    =   0

     enthalpy new            =    -725.2606225993 Ry

     new trust radius        =       0.5000000000 bohr
     new conv_thr            =       0.0001000000 Ry

     new unit-cell volume =    776.09531 a.u.^3 (   115.00546 Ang^3 )

CELL_PARAMETERS (alat=  9.64829493)
   1.072048203   0.000000000   0.000000000
  -0.536024101   0.928420977   0.000000000
   0.000000000   0.000000000   0.868168629

ATOMIC_POSITIONS (crystal)
Ca       0.000000000   0.000000000   0.000000000
Cu       0.333333000   0.666667000   0.000000000
Cu       0.666667000   0.333333000   0.000000000
Cu       0.500000000   0.000000000   0.500000000
Cu       0.500000000   0.500000000   0.500000000
Cu       0.000000000   0.500000000   0.500000000



     Writing output data file Prototype-La-hP6-CaCu5.save
     NEW-OLD atomic charge density approx. for the potential
     NEW k-points: (use verbosity='high' to print them)

     total cpu time spent up to now is      226.5 secs

     Self-consistent Calculation

     iteration #  1     ecut=    40.00 Ry     beta=0.70
     CG style diagonalization
     c_bands:  2 eigenvalues not converged
     c_bands:  2 eigenvalues not converged
     c_bands:  1 eigenvalues not converged
     c_bands:  5 eigenvalues not converged
     c_bands:  5 eigenvalues not converged
     c_bands:  1 eigenvalues not converged
     c_bands:  1 eigenvalues not converged
     c_bands:  1 eigenvalues not converged
     c_bands:  1 eigenvalues not converged
     c_bands:  2 eigenvalues not converged
     c_bands:  1 eigenvalues not converged
     c_bands:  5 eigenvalues not converged
     c_bands:  1 eigenvalues not converged
     ethr =  1.00E-06,  avg # of iterations = 20.7

     total cpu time spent up to now is      310.0 secs

     total energy              =    -723.14537319 Ry
     Harris-Foulkes estimate   =    -729.90133336 Ry
     estimated scf accuracy    <       8.86190515 Ry

     iteration #  2     ecut=    40.00 Ry     beta=0.70
     CG style diagonalization
     ethr =  1.00E-02,  avg # of iterations =  3.9

     total cpu time spent up to now is      326.9 secs

     total energy              =    -720.96563595 Ry
     Harris-Foulkes estimate   =    -729.67272692 Ry
     estimated scf accuracy    <      20.84761194 Ry

     iteration #  3     ecut=    40.00 Ry     beta=0.70
     CG style diagonalization
     ethr =  1.00E-02,  avg # of iterations =  4.0

     total cpu time spent up to now is      344.3 secs

     total energy              =    -725.76092112 Ry
     Harris-Foulkes estimate   =    -727.62576786 Ry
     estimated scf accuracy    <       5.54072927 Ry

     iteration #  4     ecut=    40.00 Ry     beta=0.70
     CG style diagonalization
     ethr =  6.37E-03,  avg # of iterations =  3.3

     total cpu time spent up to now is      358.8 secs

     total energy              =    -726.21806555 Ry
     Harris-Foulkes estimate   =    -726.37079434 Ry
     estimated scf accuracy    <       0.64265476 Ry

     iteration #  5     ecut=    40.00 Ry     beta=0.70
     CG style diagonalization
     ethr =  7.39E-04,  avg # of iterations =  3.7

     total cpu time spent up to now is      374.6 secs

     total energy              =    -726.31721240 Ry
     Harris-Foulkes estimate   =    -726.35248692 Ry
     estimated scf accuracy    <       0.11238177 Ry

     iteration #  6     ecut=    40.00 Ry     beta=0.70
     CG style diagonalization
     c_bands:  1 eigenvalues not converged
     ethr =  1.29E-04,  avg # of iterations =  3.7

     total cpu time spent up to now is      390.2 secs

     total energy              =    -726.33790542 Ry
     Harris-Foulkes estimate   =    -726.34144653 Ry
     estimated scf accuracy    <       0.00629590 Ry

     iteration #  7     ecut=    40.00 Ry     beta=0.70
     CG style diagonalization
     c_bands:  1 eigenvalues not converged
     c_bands:  1 eigenvalues not converged
     c_bands:  1 eigenvalues not converged
     c_bands:  1 eigenvalues not converged
     c_bands:  1 eigenvalues not converged
     ethr =  7.24E-06,  avg # of iterations =  4.8

     total cpu time spent up to now is      411.2 secs

     total energy              =    -726.33959344 Ry
     Harris-Foulkes estimate   =    -726.34393702 Ry
     estimated scf accuracy    <       0.01160669 Ry

     iteration #  8     ecut=    40.00 Ry     beta=0.70
     CG style diagonalization
     ethr =  7.24E-06,  avg # of iterations =  3.5

     total cpu time spent up to now is      426.4 secs

     total energy              =    -726.34097188 Ry
     Harris-Foulkes estimate   =    -726.34106822 Ry
     estimated scf accuracy    <       0.00015074 Ry

     iteration #  9     ecut=    40.00 Ry     beta=0.70
     CG style diagonalization
     c_bands:  1 eigenvalues not converged
     c_bands:  1 eigenvalues not converged
     c_bands:  1 eigenvalues not converged
     c_bands:  1 eigenvalues not converged
     ethr =  1.73E-07,  avg # of iterations =  4.7

     total cpu time spent up to now is      446.3 secs

     End of self-consistent calculation

     Number of k-points >= 100: set verbosity='high' to print the bands.

     the Fermi energy is    24.6038 ev

!    total energy              =    -726.34107047 Ry
     Harris-Foulkes estimate   =    -726.34109570 Ry
     estimated scf accuracy    <       0.00002911 Ry

     The total energy is the sum of the following terms:

     one-electron contribution =      -9.21936025 Ry
     hartree contribution      =      74.73933752 Ry
     xc contribution           =     -85.01901213 Ry
     ewald contribution        =    -706.51863198 Ry
     smearing contrib. (-TS)   =      -0.32340362 Ry

     convergence has been achieved in   9 iterations

     Forces acting on atoms (Ry/au):

     atom    1 type  1   force =     0.00000000    0.00000000    0.00000000
     atom    2 type  2   force =     0.00000000    0.00000000    0.00000000
     atom    3 type  2   force =     0.00000000    0.00000000    0.00000000
     atom    4 type  2   force =     0.00000000    0.00000000    0.00000000
     atom    5 type  2   force =     0.00000000    0.00000000    0.00000000
     atom    6 type  2   force =     0.00000000    0.00000000    0.00000000

     Total force =     0.000000     Total SCF correction =     0.000000


     entering subroutine stress ...

          total   stress  (Ry/bohr**3)                   (kbar)     P=  241.24
   0.00113770   0.00000000   0.00000000        167.36      0.00      0.00
   0.00000000   0.00113770   0.00000000          0.00    167.36      0.00
   0.00000000   0.00000000   0.00264446          0.00      0.00    389.01


     number of scf cycles    =   2
     number of bfgs steps    =   1

     enthalpy old            =    -725.2606225993 Ry
     enthalpy new            =    -726.3410704666 Ry

     CASE: enthalpy_new < enthalpy_old

     small trust_radius: resetting bfgs history

     new trust radius        =       0.3683532318 bohr
     new conv_thr            =       0.0000010000 Ry

     new unit-cell volume =    875.14015 a.u.^3 (   129.68239 Ang^3 )

CELL_PARAMETERS (alat=  9.64829493)
   1.102539801   0.000000000   0.000000000
  -0.551269901   0.954827477   0.000000000
   0.000000000   0.000000000   0.925564553

ATOMIC_POSITIONS (crystal)
Ca       0.000000000   0.000000000   0.000000000
Cu       0.333333000   0.666667000   0.000000000
Cu       0.666667000   0.333333000   0.000000000
Cu       0.500000000   0.000000000   0.500000000
Cu       0.500000000   0.500000000   0.500000000
Cu       0.000000000   0.500000000   0.500000000



     Writing output data file Prototype-La-hP6-CaCu5.save
     NEW-OLD atomic charge density approx. for the potential
     NEW k-points: (use verbosity='high' to print them)

     total cpu time spent up to now is      450.5 secs

     Self-consistent Calculation

     iteration #  1     ecut=    40.00 Ry     beta=0.70
     CG style diagonalization
     c_bands:  2 eigenvalues not converged
     c_bands:  3 eigenvalues not converged
     c_bands:  5 eigenvalues not converged
     c_bands:  3 eigenvalues not converged
     c_bands:  2 eigenvalues not converged
     c_bands:  4 eigenvalues not converged
     c_bands:  2 eigenvalues not converged
     c_bands:  4 eigenvalues not converged
     c_bands:  3 eigenvalues not converged
     c_bands:  1 eigenvalues not converged
     c_bands:  3 eigenvalues not converged
     c_bands:  3 eigenvalues not converged
     c_bands:  5 eigenvalues not converged
     c_bands:  5 eigenvalues not converged
     c_bands:  4 eigenvalues not converged
     c_bands:  1 eigenvalues not converged
     c_bands:  4 eigenvalues not converged
     c_bands:  3 eigenvalues not converged
     c_bands:  5 eigenvalues not converged
     c_bands:  1 eigenvalues not converged
     c_bands:  5 eigenvalues not converged
     c_bands:  4 eigenvalues not converged
     ethr =  1.00E-06,  avg # of iterations = 17.9

     total cpu time spent up to now is      522.5 secs

     total energy              =    -725.09150412 Ry
     Harris-Foulkes estimate   =    -727.41165435 Ry
     estimated scf accuracy    <       2.98199026 Ry

     iteration #  2     ecut=    40.00 Ry     beta=0.70
     CG style diagonalization
     ethr =  3.43E-03,  avg # of iterations =  4.0

     total cpu time spent up to now is      540.0 secs

     total energy              =    -723.30323625 Ry
     Harris-Foulkes estimate   =    -728.64474648 Ry
     estimated scf accuracy    <      18.32598202 Ry

     iteration #  3     ecut=    40.00 Ry     beta=0.70
     CG style diagonalization
     c_bands:  1 eigenvalues not converged
     ethr =  3.43E-03,  avg # of iterations =  4.5

     total cpu time spent up to now is      559.4 secs

     total energy              =    -726.10490113 Ry
     Harris-Foulkes estimate   =    -726.65335460 Ry
     estimated scf accuracy    <       1.74512525 Ry

     iteration #  4     ecut=    40.00 Ry     beta=0.70
     CG style diagonalization
     ethr =  2.01E-03,  avg # of iterations =  3.3

     total cpu time spent up to now is      575.4 secs

     total energy              =    -726.26331930 Ry
     Harris-Foulkes estimate   =    -726.38732074 Ry
     estimated scf accuracy    <       0.44384048 Ry

     iteration #  5     ecut=    40.00 Ry     beta=0.70
     CG style diagonalization
     c_bands:  1 eigenvalues not converged
     ethr =  5.10E-04,  avg # of iterations =  3.3

     total cpu time spent up to now is      589.8 secs

     total energy              =    -726.31619917 Ry
     Harris-Foulkes estimate   =    -726.33807766 Ry
     estimated scf accuracy    <       0.10313714 Ry

     iteration #  6     ecut=    40.00 Ry     beta=0.70
     CG style diagonalization
     c_bands:  1 eigenvalues not converged
     c_bands:  1 eigenvalues not converged
     c_bands:  1 eigenvalues not converged
     c_bands:  1 eigenvalues not converged
     c_bands:  2 eigenvalues not converged
     ethr =  1.19E-04,  avg # of iterations =  3.6

     total cpu time spent up to now is      606.9 secs

     total energy              =    -726.33066364 Ry
     Harris-Foulkes estimate   =    -726.33225893 Ry
     estimated scf accuracy    <       0.00303457 Ry

     iteration #  7     ecut=    40.00 Ry     beta=0.70
     CG style diagonalization
     c_bands:  1 eigenvalues not converged
     c_bands:  1 eigenvalues not converged
     c_bands:  3 eigenvalues not converged
     c_bands:  3 eigenvalues not converged
     c_bands:  1 eigenvalues not converged
     c_bands:  1 eigenvalues not converged
     c_bands:  2 eigenvalues not converged
     c_bands:  1 eigenvalues not converged
     c_bands:  1 eigenvalues not converged
     c_bands:  1 eigenvalues not converged
     c_bands:  1 eigenvalues not converged
     c_bands:  1 eigenvalues not converged
     c_bands:  5 eigenvalues not converged
     c_bands:  1 eigenvalues not converged
     ethr =  3.49E-06,  avg # of iterations =  5.1

     total cpu time spent up to now is      629.4 secs

     total energy              =    -726.33319890 Ry
     Harris-Foulkes estimate   =    -726.33455332 Ry
     estimated scf accuracy    <       0.00530871 Ry

     iteration #  8     ecut=    40.00 Ry     beta=0.70
     CG style diagonalization
     c_bands:  2 eigenvalues not converged
     ethr =  3.49E-06,  avg # of iterations =  3.2

     total cpu time spent up to now is      643.7 secs

     total energy              =    -726.33380331 Ry
     Harris-Foulkes estimate   =    -726.33381756 Ry
     estimated scf accuracy    <       0.00002329 Ry

     iteration #  9     ecut=    40.00 Ry     beta=0.70
     CG style diagonalization
     c_bands:  1 eigenvalues not converged
     c_bands:  1 eigenvalues not converged
     ethr =  2.68E-08,  avg # of iterations =  5.4

     total cpu time spent up to now is      667.0 secs

     total energy              =    -726.33384143 Ry
     Harris-Foulkes estimate   =    -726.33385927 Ry
     estimated scf accuracy    <       0.00007734 Ry

     iteration # 10     ecut=    40.00 Ry     beta=0.70
     CG style diagonalization
     c_bands:  1 eigenvalues not converged
     ethr =  2.68E-08,  avg # of iterations =  3.4

     total cpu time spent up to now is      681.6 secs

     End of self-consistent calculation

     Number of k-points >= 100: set verbosity='high' to print the bands.

     the Fermi energy is    21.3411 ev

!    total energy              =    -726.33384878 Ry
     Harris-Foulkes estimate   =    -726.33384916 Ry
     estimated scf accuracy    <       0.00000043 Ry

     The total energy is the sum of the following terms:

     one-electron contribution =     -45.68549101 Ry
     hartree contribution      =      82.97208846 Ry
     xc contribution           =     -83.83833084 Ry
     ewald contribution        =    -679.41007121 Ry
     smearing contrib. (-TS)   =      -0.37204418 Ry

     convergence has been achieved in  10 iterations

     Forces acting on atoms (Ry/au):

     atom    1 type  1   force =     0.00000000    0.00000000    0.00000000
     atom    2 type  2   force =     0.00000000    0.00000000    0.00000000
     atom    3 type  2   force =     0.00000000    0.00000000    0.00000000
     atom    4 type  2   force =     0.00000000    0.00000000    0.00000000
     atom    5 type  2   force =     0.00000000    0.00000000    0.00000000
     atom    6 type  2   force =     0.00000000    0.00000000    0.00000000

     Total force =     0.000000     Total SCF correction =     0.000000


     entering subroutine stress ...

          total   stress  (Ry/bohr**3)                   (kbar)     P= -267.06
  -0.00180239   0.00000000   0.00000000       -265.14      0.00      0.00
   0.00000000  -0.00180239   0.00000000          0.00   -265.14      0.00
   0.00000000   0.00000000  -0.00184153          0.00      0.00   -270.90


     number of scf cycles    =   3
     number of bfgs steps    =   2

     enthalpy old            =    -726.3410704666 Ry
     enthalpy new            =    -726.3338487840 Ry

     CASE: enthalpy_new > enthalpy_old

     new trust radius        =       0.1765885167 bohr

     trust_radius < trust_radius_min

     resetting bfgs history

     Message from routine bfgs:
     history already reset at previous step: stopping
     new conv_thr            =       0.0000010000 Ry

     new unit-cell volume =    872.57145 a.u.^3 (   129.30175 Ang^3 )

CELL_PARAMETERS (alat=  9.64829493)
   1.100648963   0.000000000   0.000000000
  -0.550324481   0.953189962   0.000000000
   0.000000000   0.000000000   0.926021344

ATOMIC_POSITIONS (crystal)
Ca       0.000000000   0.000000000   0.000000000
Cu       0.333333000   0.666667000   0.000000000
Cu       0.666667000   0.333333000   0.000000000
Cu       0.500000000   0.000000000   0.500000000
Cu       0.500000000   0.500000000   0.500000000
Cu       0.000000000   0.500000000   0.500000000



     Writing output data file Prototype-La-hP6-CaCu5.save
     NEW-OLD atomic charge density approx. for the potential
     NEW k-points: (use verbosity='high' to print them)

     total cpu time spent up to now is      685.9 secs

     Self-consistent Calculation

     iteration #  1     ecut=    40.00 Ry     beta=0.70
     CG style diagonalization
     c_bands:  1 eigenvalues not converged
     ethr =  1.00E-06,  avg # of iterations =  4.9

     total cpu time spent up to now is      706.2 secs

     total energy              =    -726.33759327 Ry
     Harris-Foulkes estimate   =    -726.33922706 Ry
     estimated scf accuracy    <       0.00219878 Ry

     iteration #  2     ecut=    40.00 Ry     beta=0.70
     CG style diagonalization
     c_bands:  1 eigenvalues not converged
     ethr =  2.53E-06,  avg # of iterations =  3.9

     total cpu time spent up to now is      724.0 secs

     total energy              =    -726.33695400 Ry
     Harris-Foulkes estimate   =    -726.33899890 Ry
     estimated scf accuracy    <       0.00479909 Ry

     iteration #  3     ecut=    40.00 Ry     beta=0.70
     CG style diagonalization
     ethr =  2.53E-06,  avg # of iterations =  3.6

     total cpu time spent up to now is      739.6 secs

     total energy              =    -726.33775119 Ry
     Harris-Foulkes estimate   =    -726.33897724 Ry
     estimated scf accuracy    <       0.00527348 Ry

     iteration #  4     ecut=    40.00 Ry     beta=0.70
     CG style diagonalization
     ethr =  2.53E-06,  avg # of iterations =  3.2

     total cpu time spent up to now is      753.2 secs

     total energy              =    -726.33831374 Ry
     Harris-Foulkes estimate   =    -726.33834157 Ry
     estimated scf accuracy    <       0.00005835 Ry

     iteration #  5     ecut=    40.00 Ry     beta=0.70
     CG style diagonalization
     ethr =  6.71E-08,  avg # of iterations =  4.0

     total cpu time spent up to now is      770.4 secs

     total energy              =    -726.33833590 Ry
     Harris-Foulkes estimate   =    -726.33834687 Ry
     estimated scf accuracy    <       0.00003525 Ry

     iteration #  6     ecut=    40.00 Ry     beta=0.70
     CG style diagonalization
     ethr =  4.05E-08,  avg # of iterations =  3.1

     total cpu time spent up to now is      787.0 secs

     total energy              =    -726.33834070 Ry
     Harris-Foulkes estimate   =    -726.33834112 Ry
     estimated scf accuracy    <       0.00000162 Ry

     iteration #  7     ecut=    40.00 Ry     beta=0.70
     CG style diagonalization
     ethr =  1.86E-09,  avg # of iterations =  4.1

     total cpu time spent up to now is      804.6 secs

     End of self-consistent calculation

     Number of k-points >= 100: set verbosity='high' to print the bands.

     the Fermi energy is    21.4161 ev

!    total energy              =    -726.33834104 Ry
     Harris-Foulkes estimate   =    -726.33834133 Ry
     estimated scf accuracy    <       0.00000032 Ry

     The total energy is the sum of the following terms:

     one-electron contribution =     -44.72471550 Ry
     hartree contribution      =      82.72918736 Ry
     xc contribution           =     -83.86382780 Ry
     ewald contribution        =    -680.10796979 Ry
     smearing contrib. (-TS)   =      -0.37101532 Ry

     convergence has been achieved in   7 iterations

     Forces acting on atoms (Ry/au):

     atom    1 type  1   force =     0.00000000    0.00000000    0.00000000
     atom    2 type  2   force =     0.00000000    0.00000000    0.00000000
     atom    3 type  2   force =     0.00000000    0.00000000    0.00000000
     atom    4 type  2   force =     0.00000000    0.00000000    0.00000000
     atom    5 type  2   force =     0.00000000    0.00000000    0.00000000
     atom    6 type  2   force =     0.00000000    0.00000000    0.00000000

     Total force =     0.000000     Total SCF correction =     0.000000


     entering subroutine stress ...

          total   stress  (Ry/bohr**3)                   (kbar)     P= -257.21
  -0.00172040   0.00000000   0.00000000       -253.08      0.00      0.00
   0.00000000  -0.00172040   0.00000000          0.00   -253.08      0.00
   0.00000000   0.00000000  -0.00180464          0.00      0.00   -265.47


     The maximum number of steps has been reached.

     End of BFGS Geometry Optimization
Begin final coordinates
     new unit-cell volume =    872.57145 a.u.^3 (   129.30175 Ang^3 )

CELL_PARAMETERS (alat=  9.64829493)
   1.100648963   0.000000000   0.000000000
  -0.550324481   0.953189962   0.000000000
   0.000000000   0.000000000   0.926021344

ATOMIC_POSITIONS (crystal)
Ca       0.000000000   0.000000000   0.000000000
Cu       0.333333000   0.666667000   0.000000000
Cu       0.666667000   0.333333000   0.000000000
Cu       0.500000000   0.000000000   0.500000000
Cu       0.500000000   0.500000000   0.500000000
Cu       0.000000000   0.500000000   0.500000000
End final coordinates



     A final scf calculation at the relaxed structure.
     The G-vectors are recalculated for the final unit cell
     Results may differ from those at the preceding step.
 
     Parallelization info
     --------------------
     sticks:   dense  smooth     PW     G-vecs:    dense   smooth      PW
     Min         309     309     91                 7441     7441    1217
     Max         310     310     92                 7446     7446    1220
     Sum        1237    1237    367                29771    29771    4873
 


     bravais-lattice index     =            0
     lattice parameter (alat)  =       9.6483  a.u.
     unit-cell volume          =     872.5714 (a.u.)^3
     number of atoms/cell      =            6
     number of atomic types    =            2
     number of electrons       =        87.00
     number of Kohn-Sham states=           53
     kinetic-energy cutoff     =      40.0000  Ry
     charge density cutoff     =     160.0000  Ry
     convergence threshold     =      1.0E-06
     mixing beta               =       0.7000
     number of iterations used =            8  plain     mixing
     Exchange-correlation      = SLA-PZ-NOGX-NOGC ( 1 1 0 0 0)
     EXX-fraction              =        0.00

     celldm(1)=   9.648295  celldm(2)=   0.000000  celldm(3)=   0.000000
     celldm(4)=   0.000000  celldm(5)=   0.000000  celldm(6)=   0.000000

     crystal axes: (cart. coord. in units of alat)
               a(1) = (   1.100649   0.000000   0.000000 )  
               a(2) = (  -0.550324   0.953190   0.000000 )  
               a(3) = (   0.000000   0.000000   0.926021 )  

     reciprocal axes: (cart. coord. in units 2 pi/alat)
               b(1) = (  0.908555  0.524554  0.000000 )  
               b(2) = (  0.000000  1.049109  0.000000 )  
               b(3) = (  0.000000  0.000000  1.079889 )  


     PseudoPot. # 1 for Eu read from file:
     /home/cwx6513/pp.La/Eu.UPF
     MD5 check sum: 5efdbbfc50c6a10138933a6429836ad2
     Pseudo is Norm-conserving, Zval = 17.0
     Generated in analytical, separable form
     Using radial grid of 1261 points,  6 beta functions with: 
                l(1) =   0
                l(2) =   0
                l(3) =   1
                l(4) =   1
                l(5) =   2
                l(6) =   3

     PseudoPot. # 2 for Nd read from file:
     /home/cwx6513/pp.La/Nd.UPF
     MD5 check sum: c66c5b6abe7b5840ced9b1e244e3bed6
     Pseudo is Norm-conserving, Zval = 14.0
     Generated in analytical, separable form
     Using radial grid of 1257 points,  6 beta functions with: 
                l(1) =   0
                l(2) =   0
                l(3) =   1
                l(4) =   1
                l(5) =   2
                l(6) =   3

     atomic species   valence    mass     pseudopotential
        Ca            17.00    40.07800     Eu( 1.00)
        Cu            14.00    63.54600     Nd( 1.00)

     24 Sym. Ops., with inversion, found



   Cartesian axes

     site n.     atom                  positions (alat units)
         1           Ca  tau(   1) = (   0.0000000   0.0000000   0.0000000  )
         2           Cu  tau(   2) = (  -0.0000006   0.6354603   0.0000000  )
         3           Cu  tau(   3) = (   0.5503250   0.3177297   0.0000000  )
         4           Cu  tau(   4) = (   0.5503245   0.0000000   0.4630107  )
         5           Cu  tau(   5) = (   0.2751622   0.4765950   0.4630107  )
         6           Cu  tau(   6) = (  -0.2751622   0.4765950   0.4630107  )

     number of k points=   110  gaussian smearing, width (Ry)=  0.1000

     Number of k-points >= 100: set verbosity='high' to print them.

     Dense  grid:    29771 G-vectors     FFT dimensions: (  45,  45,  36)

     Largest allocated arrays     est. size (Mb)     dimensions
        Kohn-Sham Wavefunctions         0.77 Mb     (    953,   53)
        NL pseudopotentials             1.74 Mb     (    953,  120)
        Each V/rho on FFT grid          0.28 Mb     (  18225)
        Each G-vector array             0.06 Mb     (   7443)
        G-vector shells                 0.01 Mb     (   1331)
     Largest temporary arrays     est. size (Mb)     dimensions
        Each subspace H/S matrix        0.04 Mb     (  53,  53)
        Each <psi_i|beta_j> matrix      0.10 Mb     (    120,   53)
        Arrays for rho mixing           2.22 Mb     (  18225,   8)

     Initial potential from superposition of free atoms

     Starting from uniform charge
     Starting wfc are    0 randomized atomic wfcs

     Writing output data file Prototype-La-hP6-CaCu5.save

     total cpu time spent up to now is      814.4 secs

     Self-consistent Calculation

     iteration #  1     ecut=    40.00 Ry     beta=0.70
     CG style diagonalization
     c_bands:  3 eigenvalues not converged
     c_bands:  3 eigenvalues not converged
     c_bands:  3 eigenvalues not converged
     c_bands:  3 eigenvalues not converged
     c_bands:  2 eigenvalues not converged
     c_bands:  4 eigenvalues not converged
     c_bands:  3 eigenvalues not converged
     c_bands:  2 eigenvalues not converged
     c_bands:  2 eigenvalues not converged
     c_bands:  3 eigenvalues not converged
     c_bands:  4 eigenvalues not converged
     c_bands:  3 eigenvalues not converged
     c_bands:  3 eigenvalues not converged
     c_bands:  3 eigenvalues not converged
     c_bands:  2 eigenvalues not converged
     c_bands:  1 eigenvalues not converged
     c_bands:  2 eigenvalues not converged
     c_bands:  1 eigenvalues not converged
     c_bands:  1 eigenvalues not converged
     c_bands:  2 eigenvalues not converged
     c_bands:  2 eigenvalues not converged
     c_bands:  4 eigenvalues not converged
     c_bands:  2 eigenvalues not converged
     c_bands:  4 eigenvalues not converged
     c_bands:  1 eigenvalues not converged
     c_bands:  2 eigenvalues not converged
     c_bands:  3 eigenvalues not converged
     c_bands:  2 eigenvalues not converged
     c_bands:  2 eigenvalues not converged
     c_bands:  3 eigenvalues not converged
     c_bands:  2 eigenvalues not converged
     c_bands:  2 eigenvalues not converged
     c_bands:  3 eigenvalues not converged
     c_bands:  2 eigenvalues not converged
     c_bands:  2 eigenvalues not converged
     c_bands:  2 eigenvalues not converged
     c_bands:  2 eigenvalues not converged
     c_bands:  1 eigenvalues not converged
     c_bands:  3 eigenvalues not converged
     c_bands:  2 eigenvalues not converged
     c_bands:  2 eigenvalues not converged
     c_bands:  1 eigenvalues not converged
     c_bands:  1 eigenvalues not converged
     c_bands:  3 eigenvalues not converged
     c_bands:  4 eigenvalues not converged
     c_bands:  3 eigenvalues not converged
     c_bands:  3 eigenvalues not converged
     c_bands:  3 eigenvalues not converged
     c_bands:  4 eigenvalues not converged
     c_bands:  2 eigenvalues not converged
     c_bands:  4 eigenvalues not converged
     c_bands:  2 eigenvalues not converged
     c_bands:  4 eigenvalues not converged
     c_bands:  3 eigenvalues not converged
     c_bands:  1 eigenvalues not converged
     c_bands:  4 eigenvalues not converged
     c_bands:  1 eigenvalues not converged
     c_bands:  4 eigenvalues not converged
     c_bands:  3 eigenvalues not converged
     c_bands:  2 eigenvalues not converged
     c_bands:  1 eigenvalues not converged
     c_bands:  3 eigenvalues not converged
     c_bands:  2 eigenvalues not converged
     c_bands:  3 eigenvalues not converged
     c_bands:  4 eigenvalues not converged
     c_bands:  2 eigenvalues not converged
     c_bands:  1 eigenvalues not converged
     c_bands:  2 eigenvalues not converged
     c_bands:  2 eigenvalues not converged
     c_bands:  2 eigenvalues not converged
     c_bands:  2 eigenvalues not converged
     c_bands:  3 eigenvalues not converged
     c_bands:  2 eigenvalues not converged
     c_bands:  3 eigenvalues not converged
     c_bands:  4 eigenvalues not converged
     c_bands:  1 eigenvalues not converged
     c_bands:  1 eigenvalues not converged
     c_bands:  4 eigenvalues not converged
     c_bands:  3 eigenvalues not converged
     c_bands:  2 eigenvalues not converged
     c_bands:  3 eigenvalues not converged
     c_bands:  3 eigenvalues not converged
     c_bands:  3 eigenvalues not converged
     c_bands:  2 eigenvalues not converged
     c_bands:  2 eigenvalues not converged
     c_bands:  2 eigenvalues not converged
     c_bands:  1 eigenvalues not converged
     c_bands:  3 eigenvalues not converged
     c_bands:  1 eigenvalues not converged
     c_bands:  3 eigenvalues not converged
     c_bands:  2 eigenvalues not converged
     c_bands:  2 eigenvalues not converged
     c_bands:  1 eigenvalues not converged
     c_bands:  1 eigenvalues not converged
     c_bands:  3 eigenvalues not converged
     c_bands:  2 eigenvalues not converged
     c_bands:  2 eigenvalues not converged
     c_bands:  3 eigenvalues not converged
     c_bands:  2 eigenvalues not converged
     c_bands:  2 eigenvalues not converged
     c_bands:  1 eigenvalues not converged
     c_bands:  1 eigenvalues not converged
     ethr =  1.00E-06,  avg # of iterations = 45.4

     total cpu time spent up to now is     1083.4 secs

     total energy              =    -686.48158728 Ry
     Harris-Foulkes estimate   =    -843.50335267 Ry
     estimated scf accuracy    <     208.54748587 Ry

     iteration #  2     ecut=    40.00 Ry     beta=0.70
     CG style diagonalization
     ethr =  1.00E-02,  avg # of iterations =  6.6

     total cpu time spent up to now is     1125.1 secs

     total energy              =    -716.52415242 Ry
     Harris-Foulkes estimate   =    -733.18607490 Ry
     estimated scf accuracy    <      22.92188996 Ry

     iteration #  3     ecut=    40.00 Ry     beta=0.70
     CG style diagonalization
     ethr =  1.00E-02,  avg # of iterations =  5.0

     total cpu time spent up to now is     1156.9 secs

     total energy              =    -719.71635377 Ry
     Harris-Foulkes estimate   =    -737.47067451 Ry
     estimated scf accuracy    <      47.85546006 Ry

     iteration #  4     ecut=    40.00 Ry     beta=0.70
     CG style diagonalization
     ethr =  1.00E-02,  avg # of iterations =  4.5

     total cpu time spent up to now is     1186.0 secs

     total energy              =    -726.45609231 Ry
     Harris-Foulkes estimate   =    -727.20151188 Ry
     estimated scf accuracy    <       1.67585709 Ry

     iteration #  5     ecut=    40.00 Ry     beta=0.70
     CG style diagonalization
     c_bands:  1 eigenvalues not converged
     ethr =  1.93E-03,  avg # of iterations =  4.1

     total cpu time spent up to now is     1212.5 secs

     total energy              =    -726.77145536 Ry
     Harris-Foulkes estimate   =    -727.16968339 Ry
     estimated scf accuracy    <       0.91775101 Ry

     iteration #  6     ecut=    40.00 Ry     beta=0.70
     CG style diagonalization
     ethr =  1.05E-03,  avg # of iterations =  3.6

     total cpu time spent up to now is     1236.8 secs

     total energy              =    -726.96639648 Ry
     Harris-Foulkes estimate   =    -727.05076437 Ry
     estimated scf accuracy    <       0.24537019 Ry

     iteration #  7     ecut=    40.00 Ry     beta=0.70
     CG style diagonalization
     c_bands:  1 eigenvalues not converged
     ethr =  2.82E-04,  avg # of iterations =  3.6

     total cpu time spent up to now is     1261.8 secs

     total energy              =    -727.01318769 Ry
     Harris-Foulkes estimate   =    -727.01714885 Ry
     estimated scf accuracy    <       0.00946187 Ry

     iteration #  8     ecut=    40.00 Ry     beta=0.70
     CG style diagonalization
     c_bands:  3 eigenvalues not converged
     c_bands:  1 eigenvalues not converged
     c_bands:  1 eigenvalues not converged
     c_bands:  1 eigenvalues not converged
     c_bands:  2 eigenvalues not converged
     c_bands:  1 eigenvalues not converged
     c_bands:  2 eigenvalues not converged
     c_bands:  2 eigenvalues not converged
     c_bands:  2 eigenvalues not converged
     c_bands:  1 eigenvalues not converged
     c_bands:  1 eigenvalues not converged
     c_bands:  1 eigenvalues not converged
     c_bands:  1 eigenvalues not converged
     c_bands:  1 eigenvalues not converged
     c_bands:  1 eigenvalues not converged
     c_bands:  1 eigenvalues not converged
     c_bands:  2 eigenvalues not converged
     c_bands:  2 eigenvalues not converged
     c_bands:  2 eigenvalues not converged
     c_bands:  1 eigenvalues not converged
     c_bands:  1 eigenvalues not converged
     c_bands:  1 eigenvalues not converged
     c_bands:  3 eigenvalues not converged
     c_bands:  2 eigenvalues not converged
     c_bands:  1 eigenvalues not converged
     c_bands:  3 eigenvalues not converged
     c_bands:  1 eigenvalues not converged
     c_bands:  1 eigenvalues not converged
     c_bands:  1 eigenvalues not converged
     c_bands:  1 eigenvalues not converged
     c_bands:  1 eigenvalues not converged
     c_bands:  1 eigenvalues not converged
     c_bands:  1 eigenvalues not converged
     c_bands:  1 eigenvalues not converged
     c_bands:  2 eigenvalues not converged
     c_bands:  1 eigenvalues not converged
     c_bands:  2 eigenvalues not converged
     c_bands:  2 eigenvalues not converged
     c_bands:  1 eigenvalues not converged
     c_bands:  1 eigenvalues not converged
     ethr =  1.09E-05,  avg # of iterations =  5.3

     total cpu time spent up to now is     1296.6 secs

     total energy              =    -727.01842335 Ry
     Harris-Foulkes estimate   =    -727.01873118 Ry
     estimated scf accuracy    <       0.00058570 Ry

     iteration #  9     ecut=    40.00 Ry     beta=0.70
     CG style diagonalization
     c_bands:  1 eigenvalues not converged
     c_bands:  1 eigenvalues not converged
     c_bands:  1 eigenvalues not converged
     c_bands:  1 eigenvalues not converged
     c_bands:  1 eigenvalues not converged
     c_bands:  1 eigenvalues not converged
     c_bands:  1 eigenvalues not converged
     c_bands:  1 eigenvalues not converged
     c_bands:  2 eigenvalues not converged
     c_bands:  1 eigenvalues not converged
     c_bands:  1 eigenvalues not converged
     c_bands:  1 eigenvalues not converged
     c_bands:  2 eigenvalues not converged
     c_bands:  1 eigenvalues not converged
     c_bands:  1 eigenvalues not converged
     c_bands:  1 eigenvalues not converged
     c_bands:  1 eigenvalues not converged
     c_bands:  1 eigenvalues not converged
     c_bands:  1 eigenvalues not converged
     c_bands:  1 eigenvalues not converged
     c_bands:  2 eigenvalues not converged
     c_bands:  1 eigenvalues not converged
     c_bands:  1 eigenvalues not converged
     c_bands:  1 eigenvalues not converged
     c_bands:  1 eigenvalues not converged
     ethr =  6.73E-07,  avg # of iterations =  4.8

     total cpu time spent up to now is     1328.4 secs

     total energy              =    -727.01864217 Ry
     Harris-Foulkes estimate   =    -727.01881201 Ry
     estimated scf accuracy    <       0.00035474 Ry

     iteration # 10     ecut=    40.00 Ry     beta=0.70
     CG style diagonalization
     c_bands:  1 eigenvalues not converged
     c_bands:  1 eigenvalues not converged
     c_bands:  1 eigenvalues not converged
     c_bands:  1 eigenvalues not converged
     c_bands:  1 eigenvalues not converged
     ethr =  4.08E-07,  avg # of iterations =  3.6

     total cpu time spent up to now is     1352.4 secs

     total energy              =    -727.01865756 Ry
     Harris-Foulkes estimate   =    -727.01887393 Ry
     estimated scf accuracy    <       0.00078102 Ry

     iteration # 11     ecut=    40.00 Ry     beta=0.70
     CG style diagonalization
     ethr =  4.08E-07,  avg # of iterations =  3.3

     total cpu time spent up to now is     1373.7 secs

     total energy              =    -727.01877450 Ry
     Harris-Foulkes estimate   =    -727.01878558 Ry
     estimated scf accuracy    <       0.00003763 Ry

     iteration # 12     ecut=    40.00 Ry     beta=0.70
     CG style diagonalization
     ethr =  4.33E-08,  avg # of iterations =  3.4

     total cpu time spent up to now is     1396.4 secs

     total energy              =    -727.01878202 Ry
     Harris-Foulkes estimate   =    -727.01878227 Ry
     estimated scf accuracy    <       0.00000118 Ry

     iteration # 13     ecut=    40.00 Ry     beta=0.70
     CG style diagonalization
     ethr =  1.36E-09,  avg # of iterations =  5.0

     total cpu time spent up to now is     1428.5 secs

     End of self-consistent calculation

     Number of k-points >= 100: set verbosity='high' to print the bands.

     the Fermi energy is    21.3939 ev

!    total energy              =    -727.01878284 Ry
     Harris-Foulkes estimate   =    -727.01878297 Ry
     estimated scf accuracy    <       0.00000014 Ry

     The total energy is the sum of the following terms:

     one-electron contribution =     -45.69208450 Ry
     hartree contribution      =      83.08571168 Ry
     xc contribution           =     -83.93359796 Ry
     ewald contribution        =    -680.10796720 Ry
     smearing contrib. (-TS)   =      -0.37084486 Ry

     convergence has been achieved in  13 iterations

     Forces acting on atoms (Ry/au):

     atom    1 type  1   force =     0.00000000    0.00000000    0.00000000
     atom    2 type  2   force =     0.00000000    0.00000000    0.00000000
     atom    3 type  2   force =     0.00000000    0.00000000    0.00000000
     atom    4 type  2   force =     0.00000000    0.00000000    0.00000000
     atom    5 type  2   force =     0.00000000    0.00000000    0.00000000
     atom    6 type  2   force =     0.00000000    0.00000000    0.00000000

     Total force =     0.000000     Total SCF correction =     0.000000


     entering subroutine stress ...

          total   stress  (Ry/bohr**3)                   (kbar)     P=  100.86
   0.00044269   0.00000000   0.00000000         65.12      0.00      0.00
   0.00000000   0.00044269   0.00000000          0.00     65.12      0.00
   0.00000000   0.00000000   0.00117141          0.00      0.00    172.32


     Writing output data file Prototype-La-hP6-CaCu5.save
 
     init_run     :      7.33s CPU      9.70s WALL (       2 calls)
     electrons    :   1120.40s CPU   1400.89s WALL (       5 calls)
     update_pot   :      1.32s CPU      1.35s WALL (       3 calls)
     forces       :      5.19s CPU      5.30s WALL (       5 calls)
     stress       :     13.59s CPU     13.89s WALL (       5 calls)

     Called by init_run:
     wfcinit      :      6.78s CPU      9.13s WALL (       2 calls)
     potinit      :      0.27s CPU      0.27s WALL (       2 calls)

     Called by electrons:
     c_bands      :   1065.93s CPU   1313.66s WALL (      48 calls)
     sum_band     :     54.18s CPU     71.07s WALL (      48 calls)
     v_of_rho     :      0.05s CPU      0.06s WALL (      53 calls)
     mix_rho      :      0.05s CPU      0.06s WALL (      48 calls)

     Called by c_bands:
     init_us_2    :      4.09s CPU      5.41s WALL (   11880 calls)
     ccgdiagg     :    918.27s CPU   1107.15s WALL (    5687 calls)
     wfcrot       :    150.24s CPU    204.34s WALL (    5797 calls)

     Called by *cgdiagg:
     h_psi        :    783.04s CPU    994.67s WALL ( 1338512 calls)
     cdiaghg      :      7.69s CPU      8.04s WALL (    5797 calls)

     Called by h_psi:
     add_vuspsi   :     63.73s CPU     83.89s WALL ( 1338512 calls)

     General routines
     calbec       :    209.52s CPU    225.96s WALL ( 2672327 calls)
     fft          :      0.17s CPU      0.19s WALL (     235 calls)
     fftw         :    611.55s CPU    777.61s WALL ( 3559752 calls)
     davcio       :      2.99s CPU      9.83s WALL (   17160 calls)
 
     Parallel routines
     fft_scatter  :    258.92s CPU    330.04s WALL ( 3559987 calls)
 
     PWSCF        : 19m 8.75s CPU    23m54.13s WALL

 
   This run was terminated on:  21:37:31  22Mar2018            

=------------------------------------------------------------------------------=
   JOB DONE.
=------------------------------------------------------------------------------=
