
     Program PWSCF v.5.0.2 starts on 23Mar2018 at  2:16:44 

     This program is part of the open-source Quantum ESPRESSO suite
     for quantum simulation of materials; please cite
         "P. Giannozzi et al., J. Phys.:Condens. Matter 21 395502 (2009);
          URL http://www.quantum-espresso.org", 
     in publications or presentations arising from this work. More details at
     http://www.quantum-espresso.org/quote.php

     Parallel version (MPI), running on     4 processors
     R & G space division:  proc/nbgrp/npool/nimage =       4

     Current dimensions of program PWSCF are:
     Max number of different atomic species (ntypx) = 10
     Max number of k-points (npk) =  40000
     Max angular momentum in pseudopotentials (lmaxx) =  3
     Waiting for input...
     Reading input from standard input

     Subspace diagonalization in iterative solution of the eigenvalue problem:
     a serial algorithm will be used

 
     Parallelization info
     --------------------
     sticks:   dense  smooth     PW     G-vecs:    dense   smooth      PW
     Min         267     267     77                11587    11587    1762
     Max         268     268     79                11596    11596    1765
     Sum        1069    1069    313                46361    46361    7055
 


     bravais-lattice index     =            0
     lattice parameter (alat)  =       9.9235  a.u.
     unit-cell volume          =    1361.0366 (a.u.)^3
     number of atoms/cell      =           12
     number of atomic types    =            2
     number of electrons       =       176.00
     number of Kohn-Sham states=          106
     kinetic-energy cutoff     =      40.0000  Ry
     charge density cutoff     =     160.0000  Ry
     convergence threshold     =      1.0E-04
     mixing beta               =       0.7000
     number of iterations used =            8  plain     mixing
     Exchange-correlation      = SLA-PZ-NOGX-NOGC ( 1 1 0 0 0)
     EXX-fraction              =        0.00
     nstep                     =           50


     celldm(1)=   9.923489  celldm(2)=   0.000000  celldm(3)=   0.000000
     celldm(4)=   0.000000  celldm(5)=   0.000000  celldm(6)=   0.000000

     crystal axes: (cart. coord. in units of alat)
               a(1) = (   1.000000   0.000000   0.000000 )  
               a(2) = (  -0.500000   0.866025   0.000000 )  
               a(3) = (   0.000000   0.000000   1.608222 )  

     reciprocal axes: (cart. coord. in units 2 pi/alat)
               b(1) = (  1.000000  0.577350  0.000000 )  
               b(2) = (  0.000000  1.154701  0.000000 )  
               b(3) = (  0.000000  0.000000  0.621805 )  


     PseudoPot. # 1 for Dy read from file:
     /home/cwx6513/pp.La/Dy.UPF
     MD5 check sum: 9597327bec62616a94a14d07f3fd9936
     Pseudo is Norm-conserving, Zval = 20.0
     Generated in analytical, separable form
     Using radial grid of 1265 points,  6 beta functions with: 
                l(1) =   0
                l(2) =   0
                l(3) =   1
                l(4) =   1
                l(5) =   2
                l(6) =   3

     PseudoPot. # 2 for Ce read from file:
     /home/cwx6513/pp.La/Ce.UPF
     MD5 check sum: 44451aa79a44a00cf2bc029dc19922f6
     Pseudo is Norm-conserving, Zval = 12.0
     Generated in analytical, separable form
     Using radial grid of 1255 points,  6 beta functions with: 
                l(1) =   0
                l(2) =   0
                l(3) =   1
                l(4) =   1
                l(5) =   2
                l(6) =   3

     atomic species   valence    mass     pseudopotential
        Mg            20.00    24.30500     Dy( 1.00)
        Zn            12.00    65.39000     Ce( 1.00)

     24 Sym. Ops., with inversion, found (12 have fractional translation)



   Cartesian axes

     site n.     atom                  positions (alat units)
         1           Mg  tau(   1) = (  -0.0000005   0.5773506   0.1003820  )
         2           Mg  tau(   2) = (   0.5000005   0.2886748   0.9044931  )
         3           Mg  tau(   3) = (   0.5000005   0.2886748   1.5078402  )
         4           Mg  tau(   4) = (  -0.0000005   0.5773506   0.7037291  )
         5           Zn  tau(   5) = (   0.0000000   0.0000000   0.0000000  )
         6           Zn  tau(   6) = (   0.0000000   0.0000000   0.8041111  )
         7           Zn  tau(   7) = (   0.0000000   0.2950739   1.2061667  )
         8           Zn  tau(   8) = (   0.7444585   0.1475370   0.4020556  )
         9           Zn  tau(   9) = (   0.2555415   0.1475370   0.4020556  )
        10           Zn  tau(  10) = (   0.2444585   0.7184884   1.2061667  )
        11           Zn  tau(  11) = (  -0.2444585   0.7184884   1.2061667  )
        12           Zn  tau(  12) = (   0.5000000   0.5709515   0.4020556  )

     number of k points=    12  gaussian smearing, width (Ry)=  0.1000
                       cart. coord. in units 2pi/alat
        k(    1) = (   0.0000000   0.0000000   0.0000000), wk =   0.0833333
        k(    2) = (   0.0000000   0.0000000   0.1554512), wk =   0.1666667
        k(    3) = (   0.0000000   0.0000000  -0.3109023), wk =   0.0833333
        k(    4) = (   0.0000000   0.3849002   0.0000000), wk =   0.1666667
        k(    5) = (   0.0000000   0.3849002   0.1554512), wk =   0.3333333
        k(    6) = (   0.0000000   0.3849002  -0.3109023), wk =   0.1666667
        k(    7) = (  -0.5000000  -0.2886751   0.0000000), wk =   0.0833333
        k(    8) = (  -0.5000000  -0.2886751   0.1554512), wk =   0.1666667
        k(    9) = (  -0.5000000  -0.2886751  -0.3109023), wk =   0.0833333
        k(   10) = (  -0.5000000   0.0962250   0.0000000), wk =   0.1666667
        k(   11) = (  -0.5000000   0.0962250   0.1554512), wk =   0.3333333
        k(   12) = (  -0.5000000   0.0962250  -0.3109023), wk =   0.1666667

     Dense  grid:    46361 G-vectors     FFT dimensions: (  40,  40,  72)

     Largest allocated arrays     est. size (Mb)     dimensions
        Kohn-Sham Wavefunctions         2.39 Mb     (   1478,  106)
        NL pseudopotentials             5.41 Mb     (   1478,  240)
        Each V/rho on FFT grid          0.44 Mb     (  28800)
        Each G-vector array             0.09 Mb     (  11589)
        G-vector shells                 0.09 Mb     (  11589)
     Largest temporary arrays     est. size (Mb)     dimensions
        Each subspace H/S matrix        0.17 Mb     ( 106, 106)
        Each <psi_i|beta_j> matrix      0.39 Mb     (    240,  106)
        Arrays for rho mixing           3.52 Mb     (  28800,   8)

     Initial potential from superposition of free atoms

     Starting from uniform charge
     Starting wfc are    0 randomized atomic wfcs

     total cpu time spent up to now is        3.9 secs

     Self-consistent Calculation

     iteration #  1     ecut=    40.00 Ry     beta=0.70
     CG style diagonalization
     ethr =  1.00E-02,  avg # of iterations = 17.5

     total cpu time spent up to now is       49.0 secs

     total energy              =    -410.54527880 Ry
     Harris-Foulkes estimate   =   -2139.44189895 Ry
     estimated scf accuracy    <    2054.51210350 Ry

     iteration #  2     ecut=    40.00 Ry     beta=0.70
     CG style diagonalization
     ethr =  1.00E-02,  avg # of iterations = 19.8

     total cpu time spent up to now is       98.0 secs

     total energy              =   -1520.40957027 Ry
     Harris-Foulkes estimate   =   -2922.90402909 Ry
     estimated scf accuracy    <    2705.03443165 Ry

     iteration #  3     ecut=    40.00 Ry     beta=0.70
     CG style diagonalization
     c_bands:  1 eigenvalues not converged
     c_bands:  1 eigenvalues not converged
     ethr =  1.00E-02,  avg # of iterations = 11.7

     total cpu time spent up to now is      127.7 secs

     total energy              =   -1612.45729100 Ry
     Harris-Foulkes estimate   =   -1759.97552087 Ry
     estimated scf accuracy    <     365.91451477 Ry

     iteration #  4     ecut=    40.00 Ry     beta=0.70
     CG style diagonalization
     ethr =  1.00E-02,  avg # of iterations =  6.9

     total cpu time spent up to now is      145.4 secs

     total energy              =   -1645.05682544 Ry
     Harris-Foulkes estimate   =   -1677.47643882 Ry
     estimated scf accuracy    <      80.66781714 Ry

     iteration #  5     ecut=    40.00 Ry     beta=0.70
     CG style diagonalization
     ethr =  1.00E-02,  avg # of iterations =  4.6

     total cpu time spent up to now is      157.0 secs

     total energy              =   -1656.91524278 Ry
     Harris-Foulkes estimate   =   -1658.69374886 Ry
     estimated scf accuracy    <       4.07967379 Ry

     iteration #  6     ecut=    40.00 Ry     beta=0.70
     CG style diagonalization
     ethr =  2.32E-03,  avg # of iterations =  3.7

     total cpu time spent up to now is      166.3 secs

     total energy              =   -1657.41447013 Ry
     Harris-Foulkes estimate   =   -1657.80011904 Ry
     estimated scf accuracy    <       0.66017176 Ry

     iteration #  7     ecut=    40.00 Ry     beta=0.70
     CG style diagonalization
     c_bands:  1 eigenvalues not converged
     ethr =  3.75E-04,  avg # of iterations =  4.7

     total cpu time spent up to now is      178.4 secs

     total energy              =   -1657.60235486 Ry
     Harris-Foulkes estimate   =   -1657.65120046 Ry
     estimated scf accuracy    <       0.09350402 Ry

     iteration #  8     ecut=    40.00 Ry     beta=0.70
     CG style diagonalization
     c_bands:  1 eigenvalues not converged
     c_bands:  1 eigenvalues not converged
     c_bands:  1 eigenvalues not converged
     c_bands:  2 eigenvalues not converged
     c_bands:  1 eigenvalues not converged
     ethr =  5.31E-05,  avg # of iterations =  4.5

     total cpu time spent up to now is      190.1 secs

     total energy              =   -1657.63151318 Ry
     Harris-Foulkes estimate   =   -1657.65044697 Ry
     estimated scf accuracy    <       0.04649935 Ry

     iteration #  9     ecut=    40.00 Ry     beta=0.70
     CG style diagonalization
     c_bands:  1 eigenvalues not converged
     ethr =  2.64E-05,  avg # of iterations =  3.4

     total cpu time spent up to now is      198.7 secs

     total energy              =   -1657.63255955 Ry
     Harris-Foulkes estimate   =   -1657.63734982 Ry
     estimated scf accuracy    <       0.00841626 Ry

     iteration # 10     ecut=    40.00 Ry     beta=0.70
     CG style diagonalization
     c_bands:  2 eigenvalues not converged
     c_bands:  1 eigenvalues not converged
     ethr =  4.78E-06,  avg # of iterations =  4.6

     total cpu time spent up to now is      210.4 secs

     total energy              =   -1657.63616378 Ry
     Harris-Foulkes estimate   =   -1657.63678879 Ry
     estimated scf accuracy    <       0.00141602 Ry

     iteration # 11     ecut=    40.00 Ry     beta=0.70
     CG style diagonalization
     ethr =  8.05E-07,  avg # of iterations =  3.9

     total cpu time spent up to now is      220.2 secs

     total energy              =   -1657.63637696 Ry
     Harris-Foulkes estimate   =   -1657.63644791 Ry
     estimated scf accuracy    <       0.00017283 Ry

     iteration # 12     ecut=    40.00 Ry     beta=0.70
     CG style diagonalization
     ethr =  9.82E-08,  avg # of iterations =  3.8

     total cpu time spent up to now is      229.5 secs

     End of self-consistent calculation

          k = 0.0000 0.0000 0.0000 (  5769 PWs)   bands (ev):

   -54.5560 -54.5557 -54.5450 -54.5426 -21.5534 -21.5400 -21.5388 -21.5388
   -21.5172 -21.5172 -21.4671 -21.4462 -21.4447 -21.4447 -21.4433 -21.4433
   -11.4923 -10.9321  -9.4973  -8.7173  -8.7172  -8.7081  -8.6910  -8.6909
     2.3752   3.4949   4.4851   5.8899   5.8900   6.2098   6.2098   6.4085
     6.4086   7.4909   8.6221   8.6222   8.7198   8.7198   9.5679  10.8440
    11.2546  11.2585  11.2586  11.2719  11.8900  11.8900  12.1124  12.1124
    18.5726  18.7258  18.7258  18.7805  19.2424  19.2425  19.3261  19.3261
    19.3271  19.3271  19.3763  19.5401  19.8300  19.8300  20.1086  20.1086
    20.2094  20.2406  20.2406  20.2684  20.2684  21.1945  21.6451  22.9542
    22.9542  23.7604  25.0819  25.0819  25.1800  25.3955  25.6981  25.7478
    25.7478  26.7803  26.8986  26.8986  27.8156  27.8156  28.4811  28.4812
    29.0935  29.2459  29.2459  29.7797  31.3144  31.6669  31.8409  31.8411
    32.6558  33.2545  33.2547  33.3849  33.3854  33.5140  33.8900  33.8904
    33.9293  34.0589

          k = 0.0000 0.0000 0.1555 (  5780 PWs)   bands (ev):

   -54.5614 -54.5526 -54.5468 -54.5440 -21.5441 -21.5430 -21.5313 -21.5313
   -21.5267 -21.5267 -21.4750 -21.4508 -21.4465 -21.4465 -21.4452 -21.4452
   -11.4303 -11.0457  -9.3509  -8.8050  -8.7136  -8.7136  -8.6951  -8.6950
     2.4566   3.1332   5.0566   5.9110   5.9110   6.0872   6.0872   6.6625
     6.6625   7.0097   7.8456   7.8457   9.5514   9.5515   9.8731  10.7151
    10.9958  10.9958  11.2565  11.2689  11.9578  11.9578  12.0951  12.0951
    18.5169  18.7727  18.7978  18.7979  19.1535  19.1535  19.3028  19.3028
    19.3129  19.3130  19.3464  19.5202  19.8661  19.8661  20.0618  20.0618
    20.2375  20.2375  20.2521  20.2521  20.3033  20.9717  22.3726  23.2935
    23.2935  23.8390  24.8287  24.8287  25.1416  25.1927  25.6702  25.8075
    25.8232  25.8232  26.6781  26.6781  27.4085  27.4086  28.8021  28.8021
    29.6232  29.6232  29.6285  30.5175  31.3507  31.8382  31.9671  31.9672
    32.4462  32.6147  33.0561  33.2998  33.3000  33.4895  33.4902  33.9509
    33.9565  33.9956

          k = 0.0000 0.0000-0.3109 (  5780 PWs)   bands (ev):

   -54.5566 -54.5565 -54.5451 -54.5451 -21.5440 -21.5439 -21.5273 -21.5273
   -21.5273 -21.5273 -21.4732 -21.4731 -21.4416 -21.4416 -21.4416 -21.4416
   -11.2610 -11.2610  -9.0564  -9.0564  -8.7039  -8.7039  -8.7039  -8.7039
     2.7088   2.7088   5.9756   5.9756   5.9756   5.9756   6.0444   6.0444
     7.1624   7.1624   7.1625   7.1625  10.3608  10.3608  10.3709  10.3709
    10.3710  10.3710  11.2637  11.2637  12.0433  12.0433  12.0433  12.0433
    18.6138  18.6138  18.9714  18.9714  18.9715  18.9715  19.2853  19.2853
    19.2853  19.2853  19.3805  19.3806  19.9593  19.9593  19.9594  19.9594
    20.2371  20.2371  20.2371  20.2371  20.6697  20.6698  23.5805  23.5805
    24.0900  24.0900  24.0900  24.0900  24.7389  24.7389  25.5260  25.5260
    26.0887  26.0887  26.0887  26.0887  28.0190  28.0190  28.0190  28.0190
    30.3152  30.3152  31.0267  31.0267  31.0267  31.0267  32.0341  32.0342
    32.3436  32.3437  33.1216  33.1218  33.4449  33.4449  33.4451  33.4453
    34.0952  34.0954

          k = 0.0000 0.3849 0.0000 (  5787 PWs)   bands (ev):

   -54.5563 -54.5538 -54.5500 -54.5484 -21.5545 -21.5492 -21.5385 -21.5272
   -21.5263 -21.5171 -21.4797 -21.4630 -21.4496 -21.4480 -21.4426 -21.4340
   -11.1568 -10.5598  -9.6614  -9.4913  -9.2959  -8.7296  -8.7089  -8.2324
     3.5579   4.4991   4.6435   6.0794   6.1120   6.4380   6.5306   6.7888
     7.2015   7.7943   8.3229   8.3524   8.5477   8.6050   8.8242   9.7134
     9.7552  10.0388  10.6968  10.9153  11.2817  11.5938  11.7365  11.9057
    18.5315  18.6243  18.6289  18.8334  18.8473  18.8485  19.1676  19.2584
    19.3368  19.4042  19.4780  19.6649  19.7366  19.8143  19.9818  20.0102
    20.0282  20.2289  20.2971  20.3248  21.0165  22.3473  22.8998  23.3204
    24.3522  24.7088  25.1614  25.7846  25.9812  26.1184  26.4891  26.8926
    26.9194  27.5067  27.5948  27.6703  27.7985  28.3745  28.5866  28.6445
    28.7142  28.9022  28.9666  29.5575  30.1962  30.2780  30.8189  30.8985
    31.3528  31.6129  31.7868  32.4156  32.4499  32.9541  33.3497  33.4369
    33.4620  33.6546

          k = 0.0000 0.3849 0.1555 (  5804 PWs)   bands (ev):

   -54.5590 -54.5551 -54.5539 -54.5511 -21.5586 -21.5489 -21.5409 -21.5294
   -21.5292 -21.5207 -21.4816 -21.4737 -21.4500 -21.4470 -21.4452 -21.4354
   -11.0916 -10.6814  -9.6553  -9.5799  -9.0442  -8.7268  -8.7122  -8.3494
     3.6056   4.0695   5.2387   5.9839   6.2342   6.5142   6.6606   6.7648
     7.2475   7.3707   7.6290   7.9150   8.8712   9.0706   9.2440   9.6967
     9.8471  10.1311  10.5452  11.0274  11.0314  11.5033  11.8044  11.8988
    18.5384  18.6205  18.7027  18.8291  18.8444  18.8708  19.1963  19.2545
    19.2976  19.4303  19.4458  19.6766  19.7630  19.8182  19.9378  19.9893
    20.0683  20.1114  20.2691  20.3169  21.2946  22.2050  22.9525  23.4219
    24.4065  24.8927  25.1447  25.6941  25.7119  26.1891  26.2156  26.5072
    26.8318  27.2631  27.3131  27.8185  28.1521  28.2297  28.3308  28.7302
    29.0319  29.2721  29.2923  29.5774  30.3852  30.4640  30.7518  31.1277
    31.2911  31.5614  31.8257  32.3344  32.4646  32.4727  33.0968  33.2368
    33.6427  33.8340

          k = 0.0000 0.3849-0.3109 (  5816 PWs)   bands (ev):

   -54.5580 -54.5580 -54.5556 -54.5556 -21.5528 -21.5528 -21.5341 -21.5341
   -21.5310 -21.5309 -21.4817 -21.4817 -21.4487 -21.4487 -21.4433 -21.4433
   -10.9115 -10.9115  -9.6337  -9.6337  -8.7197  -8.7197  -8.6578  -8.6578
     3.7634   3.7634   5.7889   5.7889   6.6194   6.6194   6.6696   6.6696
     7.0472   7.0472   7.4511   7.4511   9.1449   9.1449   9.6061   9.6062
    10.1788  10.1788  10.5225  10.5225  11.2761  11.2761  11.8706  11.8706
    18.6071  18.6071  18.7552  18.7552  18.8609  18.8609  19.2655  19.2656
    19.3768  19.3768  19.5427  19.5427  19.7980  19.7980  19.8564  19.8564
    20.1790  20.1790  20.2279  20.2280  21.7903  21.7903  23.3220  23.3221
    24.5975  24.5975  25.4422  25.4422  25.6226  25.6226  26.4094  26.4094
    26.9725  26.9725  27.6862  27.6862  27.8587  27.8588  28.5006  28.5007
    29.5530  29.5530  29.8891  29.8891  29.9121  29.9121  31.2016  31.2016
    31.3607  31.3608  32.2717  32.2719  32.8465  32.8466  33.0294  33.0298
    33.5284  33.5291

          k =-0.5000-0.2887 0.0000 (  5800 PWs)   bands (ev):

   -54.5587 -54.5571 -54.5510 -54.5491 -21.5631 -21.5476 -21.5422 -21.5282
   -21.5251 -21.5032 -21.4962 -21.4747 -21.4507 -21.4459 -21.4422 -21.4354
   -10.9758 -10.3394  -9.9162  -9.6085  -9.4893  -8.7343  -8.7149  -8.1817
     4.0235   4.7039   4.9080   6.0147   6.3197   6.4478   7.3820   7.4453
     7.5601   7.6046   8.0755   8.0956   8.1881   8.5574   8.5916   8.5985
     9.0515   9.5942  10.4787  10.7625  11.2888  11.7314  11.7867  11.8782
    18.3541  18.5203  18.7414  18.7433  18.7949  18.9595  19.1127  19.2166
    19.2366  19.3964  19.4908  19.5586  19.6425  19.8103  19.9327  19.9916
    20.0210  20.1921  20.3071  20.4189  22.2213  22.4461  23.1186  23.4558
    25.0905  25.3561  25.5421  25.5483  26.0375  26.0549  26.4585  26.6972
    26.8242  26.9205  26.9450  26.9953  28.0330  28.2141  28.7115  28.7178
    28.9534  29.5441  30.2474  30.3469  30.6755  31.0985  31.3508  31.4542
    31.5321  31.5613  31.7099  31.9063  31.9321  32.1760  32.2113  32.8934
    33.7548  33.8648

          k =-0.5000-0.2887 0.1555 (  5822 PWs)   bands (ev):

   -54.5614 -54.5605 -54.5555 -54.5527 -21.5588 -21.5543 -21.5455 -21.5349
   -21.5253 -21.5188 -21.4945 -21.4811 -21.4529 -21.4506 -21.4442 -21.4354
   -10.9055 -10.4605  -9.9145  -9.8202  -9.1057  -8.7318  -8.7182  -8.3099
     4.0589   4.4061   5.3545   6.1568   6.2096   6.5562   7.2397   7.2513
     7.3929   7.5121   8.1028   8.1115   8.1586   8.4165   8.5933   8.6001
     9.3679   9.8921  10.3203  10.9755  11.0338  11.6731  11.7966  11.8738
    18.3849  18.5340  18.7527  18.7826  18.8595  18.8884  19.0520  19.1667
    19.3196  19.4635  19.5157  19.6513  19.7068  19.8026  19.8873  19.9459
    20.0413  20.2235  20.2353  20.2540  22.3415  22.5880  23.1480  23.3488
    25.0597  25.1154  25.3670  25.7323  25.8663  26.1230  26.1880  26.2801
    26.5915  27.2300  27.3772  27.4047  28.1535  28.2253  28.5871  28.6017
    29.1242  29.4495  29.8302  30.7083  30.7543  30.9008  30.9031  31.2781
    31.6104  31.8149  31.9735  32.1676  32.1803  32.2576  32.3170  32.7614
    33.3320  33.5562

          k =-0.5000-0.2887-0.3109 (  5804 PWs)   bands (ev):

   -54.5561 -54.5561 -54.5534 -54.5534 -21.5523 -21.5522 -21.5385 -21.5385
   -21.5171 -21.5171 -21.4800 -21.4799 -21.4491 -21.4490 -21.4444 -21.4444
   -10.7095 -10.7095  -9.8984  -9.8984  -8.7249  -8.7249  -8.6520  -8.6520
     4.1767   4.1767   5.8790   5.8790   6.6106   6.6106   6.8549   6.8549
     7.4355   7.4355   8.1247   8.1247   8.2255   8.2255   8.5983   8.5983
     9.9010   9.9010  10.4877  10.4877  11.3681  11.3681  11.8541  11.8541
    18.4699  18.4700  18.7984  18.7984  18.8967  18.8967  19.0454  19.0455
    19.4590  19.4590  19.6772  19.6772  19.8182  19.8182  19.8378  19.8378
    20.1076  20.1076  20.1318  20.1318  22.6322  22.6322  23.2122  23.2122
    24.9581  24.9581  25.2787  25.2787  25.9372  25.9372  26.2735  26.2735
    27.1565  27.1565  27.4737  27.4737  28.1725  28.1725  28.7381  28.7382
    29.1253  29.1253  29.7407  29.7407  31.1496  31.1497  31.4506  31.4507
    31.4648  31.4648  32.4043  32.4046  32.4166  32.4167  32.5286  32.5290
    33.0582  33.0584

          k =-0.5000 0.0962 0.0000 (  5827 PWs)   bands (ev):

   -54.5607 -54.5587 -54.5578 -54.5554 -21.5625 -21.5574 -21.5496 -21.5398
   -21.5255 -21.5069 -21.4941 -21.4748 -21.4528 -21.4485 -21.4467 -21.4444
   -10.9794 -10.3343  -9.9247  -9.5937  -9.4898  -8.7374  -8.7237  -8.1805
     4.1634   4.7049   5.0258   6.0590   6.0627   6.3537   6.5361   7.3731
     7.7461   7.8013   7.8062   8.3443   8.3574   8.5675   8.6053   8.8872
     9.5888   9.8511  10.6967  10.8039  11.1763  11.3239  11.3660  11.7560
    18.4949  18.5981  18.6715  18.6868  18.7658  19.0014  19.0567  19.1059
    19.1727  19.4429  19.4475  19.5652  19.5830  19.7142  19.8865  19.9629
    20.2180  20.2885  20.3163  20.4488  22.1481  22.7060  23.2256  23.5240
    25.1194  25.1255  25.6958  25.7668  25.9799  26.3605  26.4914  26.7183
    26.9228  26.9474  27.2824  27.4681  27.9710  28.2254  28.5238  28.8154
    28.8327  28.9892  29.6133  29.9070  30.1684  30.6418  30.6437  30.8199
    31.0014  31.0412  31.2626  31.7148  32.4567  32.4666  32.9172  33.0862
    33.8302  34.0558

          k =-0.5000 0.0962 0.1555 (  5825 PWs)   bands (ev):

   -54.5607 -54.5592 -54.5566 -54.5551 -21.5598 -21.5537 -21.5472 -21.5420
   -21.5248 -21.5122 -21.4886 -21.4809 -21.4536 -21.4482 -21.4464 -21.4420
   -10.9088 -10.4602  -9.9184  -9.8074  -9.1035  -8.7351  -8.7256  -8.3084
     4.1923   4.4837   5.3693   5.9268   6.2651   6.4470   6.6273   7.2191
     7.4270   7.6242   7.8154   7.9062   8.3629   8.4905   9.0701   9.1896
     9.6984   9.9412  10.5527  10.8483  11.0593  11.3611  11.3959  11.6583
    18.5019  18.5734  18.6863  18.7186  18.7837  19.0066  19.0951  19.1551
    19.2642  19.3992  19.5068  19.5576  19.5992  19.6468  19.8568  19.9373
    20.1889  20.2531  20.3248  20.3943  22.3111  22.7945  23.1690  23.5089
    24.9873  25.1315  25.5918  25.7837  25.8839  26.3512  26.4740  26.5963
    26.6936  27.0908  27.3957  27.7093  28.0216  28.1008  28.3050  28.7874
    28.8796  29.0820  29.3785  29.8603  30.2689  30.5205  30.8537  30.9070
    30.9866  31.3863  31.6130  31.8192  32.1062  32.7379  32.8248  32.9791
    33.2283  33.7596

          k =-0.5000 0.0962-0.3109 (  5824 PWs)   bands (ev):

   -54.5582 -54.5582 -54.5574 -54.5574 -21.5546 -21.5546 -21.5446 -21.5446
   -21.5195 -21.5195 -21.4828 -21.4828 -21.4517 -21.4517 -21.4457 -21.4457
   -10.7124 -10.7124  -9.8928  -9.8928  -8.7305  -8.7305  -8.6503  -8.6503
     4.2901   4.2901   5.7438   5.7438   6.5780   6.5780   6.8403   6.8403
     7.1799   7.1799   7.8210   7.8210   8.4082   8.4082   9.3572   9.3572
     9.9719   9.9719  10.5098  10.5098  11.2897  11.2897  11.4633  11.4633
    18.5309  18.5309  18.7093  18.7093  18.9088  18.9088  19.1649  19.1649
    19.3896  19.3896  19.5574  19.5574  19.6526  19.6526  19.7939  19.7939
    20.1664  20.1664  20.3628  20.3628  22.6431  22.6431  23.3691  23.3691
    24.9871  24.9871  25.3348  25.3348  26.2685  26.2685  26.6210  26.6210
    26.9857  26.9858  27.4937  27.4937  28.0378  28.0378  28.4584  28.4584
    28.9003  28.9003  29.6456  29.6456  30.5294  30.5294  30.7054  30.7054
    31.2779  31.2779  31.8810  31.8810  32.3249  32.3250  33.2184  33.2188
    33.6575  33.6586

     the Fermi energy is    28.8870 ev

!    total energy              =   -1657.63641964 Ry
     Harris-Foulkes estimate   =   -1657.63642745 Ry
     estimated scf accuracy    <       0.00000395 Ry

     The total energy is the sum of the following terms:

     one-electron contribution =     -72.35909003 Ry
     hartree contribution      =     196.71629671 Ry
     xc contribution           =    -182.90598295 Ry
     ewald contribution        =   -1598.63193067 Ry
     smearing contrib. (-TS)   =      -0.45571271 Ry

     convergence has been achieved in  12 iterations

     Forces acting on atoms (Ry/au):

     atom    1 type  1   force =     0.00000000    0.00000000    0.02122546
     atom    2 type  1   force =     0.00000000    0.00000000    0.02122546
     atom    3 type  1   force =     0.00000000    0.00000000   -0.02122546
     atom    4 type  1   force =     0.00000000    0.00000000   -0.02122546
     atom    5 type  2   force =     0.00000000    0.00000000    0.00000000
     atom    6 type  2   force =     0.00000000    0.00000000    0.00000000
     atom    7 type  2   force =     0.00000000    0.05059699    0.00000000
     atom    8 type  2   force =    -0.04381828    0.02529850    0.00000000
     atom    9 type  2   force =     0.04381828    0.02529850    0.00000000
     atom   10 type  2   force =    -0.04381828   -0.02529850    0.00000000
     atom   11 type  2   force =     0.04381828   -0.02529850    0.00000000
     atom   12 type  2   force =     0.00000000   -0.05059699    0.00000000

     Total force =     0.131005     Total SCF correction =     0.000000


     entering subroutine stress ...

          total   stress  (Ry/bohr**3)                   (kbar)     P= 1102.55
   0.00746373   0.00000000   0.00000000       1097.95      0.00      0.00
   0.00000000   0.00746373   0.00000000          0.00   1097.95      0.00
   0.00000000   0.00000000   0.00755758          0.00      0.00   1111.76


     BFGS Geometry Optimization

     number of scf cycles    =   1
     number of bfgs steps    =   0

     enthalpy new            =   -1657.6364196436 Ry

     new trust radius        =       0.5000000000 bohr
     new conv_thr            =       0.0001000000 Ry

     new unit-cell volume =   1654.29114 a.u.^3 (   245.14065 Ang^3 )

CELL_PARAMETERS (alat=  9.92348860)
   1.066923385   0.000000000   0.000000000
  -0.533461693   0.923982755   0.000000000
   0.000000000   0.000000000   1.717203317

ATOMIC_POSITIONS (crystal)
Mg       0.333333000   0.666667000   0.062895011
Mg       0.666667000   0.333333000   0.562895011
Mg       0.666667000   0.333333000   0.937104989
Mg       0.333333000   0.666667000   0.437104989
Zn       0.000000000   0.000000000   0.000000000
Zn       0.000000000   0.000000000   0.500000000
Zn       0.171416801   0.342833601   0.750000000
Zn       0.828583199   0.171416801   0.250000000
Zn       0.342833601   0.171416801   0.250000000
Zn       0.657166399   0.828583199   0.750000000
Zn       0.171416801   0.828583199   0.750000000
Zn       0.828583199   0.657166399   0.250000000



     Writing output data file Prototype-La-hP12-MgZn2.save
     NEW-OLD atomic charge density approx. for the potential
     NEW k-points:
        k(    1) = (   0.0000000   0.0000000   0.0000000), wk =   0.0833333
        k(    2) = (   0.0000000   0.0000000   0.1455856), wk =   0.1666667
        k(    3) = (   0.0000000   0.0000000  -0.2911711), wk =   0.0833333
        k(    4) = (   0.0000000   0.3607571   0.0000000), wk =   0.1666667
        k(    5) = (   0.0000000   0.3607571   0.1455856), wk =   0.3333333
        k(    6) = (   0.0000000   0.3607571  -0.2911711), wk =   0.1666667
        k(    7) = (  -0.4686372  -0.2705678   0.0000000), wk =   0.0833333
        k(    8) = (  -0.4686372  -0.2705678   0.1455856), wk =   0.1666667
        k(    9) = (  -0.4686372  -0.2705678  -0.2911711), wk =   0.0833333
        k(   10) = (  -0.4686372   0.0901893   0.0000000), wk =   0.1666667
        k(   11) = (  -0.4686372   0.0901893   0.1455856), wk =   0.3333333
        k(   12) = (  -0.4686372   0.0901893  -0.2911711), wk =   0.1666667

     total cpu time spent up to now is      234.7 secs

     Self-consistent Calculation

     iteration #  1     ecut=    40.00 Ry     beta=0.70
     CG style diagonalization
     c_bands:  1 eigenvalues not converged
     c_bands:  1 eigenvalues not converged
     c_bands:  1 eigenvalues not converged
     c_bands:  1 eigenvalues not converged
     ethr =  1.00E-06,  avg # of iterations = 18.8

     total cpu time spent up to now is      285.3 secs

     total energy              =   -1653.16236860 Ry
     Harris-Foulkes estimate   =   -1665.64332616 Ry
     estimated scf accuracy    <      15.93255240 Ry

     iteration #  2     ecut=    40.00 Ry     beta=0.70
     CG style diagonalization
     ethr =  9.05E-03,  avg # of iterations =  3.6

     total cpu time spent up to now is      298.2 secs

     total energy              =   -1654.26286066 Ry
     Harris-Foulkes estimate   =   -1661.24598117 Ry
     estimated scf accuracy    <      12.08922323 Ry

     iteration #  3     ecut=    40.00 Ry     beta=0.70
     CG style diagonalization
     ethr =  6.87E-03,  avg # of iterations =  3.6

     total cpu time spent up to now is      311.4 secs

     total energy              =   -1658.26886969 Ry
     Harris-Foulkes estimate   =   -1659.61480142 Ry
     estimated scf accuracy    <       3.24379051 Ry

     iteration #  4     ecut=    40.00 Ry     beta=0.70
     CG style diagonalization
     ethr =  1.84E-03,  avg # of iterations =  3.3

     total cpu time spent up to now is      323.3 secs

     total energy              =   -1658.73657759 Ry
     Harris-Foulkes estimate   =   -1658.85416802 Ry
     estimated scf accuracy    <       0.29401714 Ry

     iteration #  5     ecut=    40.00 Ry     beta=0.70
     CG style diagonalization
     ethr =  1.67E-04,  avg # of iterations =  3.6

     total cpu time spent up to now is      336.7 secs

     total energy              =   -1658.78544485 Ry
     Harris-Foulkes estimate   =   -1658.80368655 Ry
     estimated scf accuracy    <       0.04815480 Ry

     iteration #  6     ecut=    40.00 Ry     beta=0.70
     CG style diagonalization
     ethr =  2.74E-05,  avg # of iterations =  3.8

     total cpu time spent up to now is      350.1 secs

     total energy              =   -1658.79306734 Ry
     Harris-Foulkes estimate   =   -1658.79558445 Ry
     estimated scf accuracy    <       0.00637295 Ry

     iteration #  7     ecut=    40.00 Ry     beta=0.70
     CG style diagonalization
     c_bands:  1 eigenvalues not converged
     ethr =  3.62E-06,  avg # of iterations =  4.0

     total cpu time spent up to now is      364.4 secs

     total energy              =   -1658.79445199 Ry
     Harris-Foulkes estimate   =   -1658.79461204 Ry
     estimated scf accuracy    <       0.00033699 Ry

     iteration #  8     ecut=    40.00 Ry     beta=0.70
     CG style diagonalization
     ethr =  1.91E-07,  avg # of iterations =  4.4

     total cpu time spent up to now is      379.5 secs

     End of self-consistent calculation

          k = 0.0000 0.0000 0.0000 (  5769 PWs)   bands (ev):

   -59.2954 -59.2842 -59.2778 -59.2471 -26.2742 -26.2601 -26.2601 -26.2572
   -26.2376 -26.2376 -26.2207 -26.2038 -26.2038 -26.1963 -26.1962 -26.1944
   -15.8999 -15.5790 -14.6520 -14.2828 -14.2828 -14.2747 -14.2747 -14.2480
    -1.0598  -0.3088   0.6074   1.5459   1.5459   1.7592   1.7593   1.9806
     1.9807   2.5973   3.4839   3.4839   3.5166   3.5166   3.9831   5.0475
     5.1300   5.1339   5.1556   5.1557   5.6046   5.6047   5.7531   5.7531
    14.2511  14.3015  14.3015  14.3979  14.5770  14.5770  14.6320  14.6320
    14.7065  14.7065  14.9101  15.0404  15.0404  15.2278  15.2338  15.2338
    15.2641  15.2828  15.2829  15.3011  15.3011  16.8960  17.3212  18.6514
    18.7254  18.7255  19.8707  20.1355  20.2378  20.2378  20.3791  20.7979
    20.8411  20.8411  21.3999  21.3999  22.3558  22.3558  23.1159  23.1474
    23.1475  23.5084  23.5084  23.8501  25.3563  25.3564  25.6677  26.3632
    26.4941  27.3132  27.3156  27.3158  27.3232  27.3233  27.5089  27.8046
    27.8049  27.8049

          k = 0.0000 0.0000 0.1456 (  5780 PWs)   bands (ev):

   -59.2980 -59.2941 -59.2739 -59.2517 -26.2650 -26.2628 -26.2511 -26.2511
   -26.2494 -26.2494 -26.2288 -26.2053 -26.2053 -26.1997 -26.1997 -26.1992
   -15.8631 -15.6411 -14.5779 -14.2974 -14.2817 -14.2817 -14.2761 -14.2760
    -0.9972  -0.5200   0.9478   1.5597   1.5597   1.6838   1.6838   2.1467
     2.1468   2.2564   2.9545   2.9545   4.0682   4.0683   4.2362   4.9418
     4.9896   4.9896   5.1285   5.1318   5.6495   5.6495   5.7413   5.7413
    14.2229  14.3463  14.3463  14.3625  14.5540  14.5540  14.6139  14.6139
    14.6793  14.6793  14.9548  15.0639  15.0675  15.0675  15.2033  15.2033
    15.2865  15.2865  15.2988  15.2988  15.5679  16.5377  17.9045  18.7144
    18.9422  18.9422  19.6697  19.8665  20.0362  20.0362  20.3578  20.3797
    20.8923  20.8923  21.3604  21.3604  22.0261  22.0261  23.0828  23.0828
    23.8605  23.9508  23.9508  24.1955  25.6129  25.6130  25.6274  26.4211
    26.4855  26.5583  27.2721  27.2860  27.2860  27.3735  27.3744  27.7594
    27.7597  27.8351

          k = 0.0000 0.0000-0.2912 (  5780 PWs)   bands (ev):

   -59.2928 -59.2928 -59.2648 -59.2648 -26.2638 -26.2638 -26.2484 -26.2484
   -26.2484 -26.2484 -26.2283 -26.2283 -26.1968 -26.1968 -26.1968 -26.1968
   -15.7637 -15.7637 -14.4265 -14.4265 -14.2787 -14.2787 -14.2787 -14.2787
    -0.8099  -0.8099   1.5918   1.5918   1.6057   1.6057   1.6057   1.6057
     2.4933   2.4933   2.4933   2.4933   4.5923   4.5924   4.5924   4.5924
     4.6432   4.6432   5.1326   5.1326   5.7065   5.7065   5.7065   5.7065
    14.2631  14.2632  14.4536  14.4536  14.4536  14.4536  14.6319  14.6319
    14.6319  14.6319  14.9900  14.9901  15.1338  15.1338  15.1338  15.1338
    15.2931  15.2931  15.2931  15.2931  16.0545  16.0545  18.7425  18.7425
    19.2727  19.2728  19.4879  19.4879  19.4879  19.4879  20.2917  20.2917
    21.0633  21.0633  21.0633  21.0633  22.4076  22.4076  22.4076  22.4076
    24.5687  24.5687  25.0497  25.0498  25.0498  25.0498  26.1845  26.1845
    26.3444  26.3444  26.8319  26.8319  27.4622  27.4623  27.4633  27.4638
    27.8129  27.8130

          k = 0.0000 0.3608 0.0000 (  5787 PWs)   bands (ev):

   -59.2935 -59.2889 -59.2735 -59.2705 -26.2661 -26.2654 -26.2567 -26.2544
   -26.2507 -26.2451 -26.2232 -26.2148 -26.2099 -26.2068 -26.1988 -26.1945
   -15.6728 -15.3527 -14.8203 -14.6506 -14.5789 -14.2872 -14.2804 -13.9918
    -0.2486   0.4196   0.7304   1.6801   1.7460   1.9449   1.9890   2.1834
     2.4486   2.8884   3.1332   3.1911   3.3657   3.4787   3.5432   4.1972
     4.2059   4.4246   4.8491   5.0596   5.1659   5.4537   5.4859   5.6190
    14.1691  14.2417  14.3362  14.3583  14.4153  14.4381  14.5602  14.6373
    14.6718  14.7604  14.8186  14.9214  14.9631  15.0133  15.1216  15.1442
    15.2475  15.2984  15.3218  15.3933  16.5071  17.7362  18.2211  18.3392
    19.6827  19.9630  19.9951  20.6596  20.7892  20.8467  21.3251  21.3938
    21.5618  21.9518  22.2208  22.2852  22.3053  22.6060  22.7014  22.8391
    23.1328  23.2024  23.5112  23.8456  24.4600  24.6126  24.7740  24.9026
    25.4871  25.4968  25.9897  26.4427  26.5719  26.8290  26.8855  27.0381
    27.1901  27.2249

          k = 0.0000 0.3608 0.1456 (  5804 PWs)   bands (ev):

   -59.3010 -59.2940 -59.2796 -59.2757 -26.2728 -26.2660 -26.2588 -26.2586
   -26.2531 -26.2479 -26.2294 -26.2260 -26.2098 -26.2061 -26.2040 -26.1954
   -15.6350 -15.4118 -14.8147 -14.7413 -14.4152 -14.2863 -14.2815 -14.0496
    -0.2050   0.1739   1.0651   1.6078   1.8090   2.0335   2.0581   2.1707
     2.4866   2.5454   2.7232   2.9731   3.5544   3.7278   3.8690   4.1934
     4.2560   4.4777   4.7483   5.0088   5.1156   5.3953   5.5343   5.6123
    14.1905  14.2589  14.3311  14.3728  14.3950  14.4125  14.5758  14.6488
    14.6916  14.7522  14.7750  14.9441  14.9742  15.0226  15.1012  15.1576
    15.2550  15.2580  15.3001  15.3863  16.6882  17.5262  18.2801  18.4576
    19.6736  20.1363  20.1572  20.3717  20.5490  20.9547  21.1124  21.2367
    21.4048  21.8542  22.0089  22.2508  22.5801  22.5972  22.6617  23.0706
    23.1836  23.5803  23.6135  23.7987  24.5703  24.6312  25.0101  25.0466
    25.4145  25.5788  25.8132  26.3244  26.3936  26.6148  26.7983  26.9947
    27.2200  27.4008

          k = 0.0000 0.3608-0.2912 (  5816 PWs)   bands (ev):

   -59.2996 -59.2995 -59.2845 -59.2844 -26.2689 -26.2689 -26.2626 -26.2626
   -26.2521 -26.2521 -26.2331 -26.2331 -26.2086 -26.2086 -26.2037 -26.2037
   -15.5336 -15.5336 -14.7940 -14.7940 -14.2840 -14.2840 -14.2066 -14.2066
    -0.0673  -0.0673   1.4431   1.4431   2.0418   2.0418   2.1206   2.1206
     2.3453   2.3454   2.6450   2.6450   3.7700   3.7700   4.1235   4.1235
     4.4937   4.4937   4.7012   4.7012   5.2553   5.2553   5.5872   5.5872
    14.2651  14.2651  14.3113  14.3114  14.3970  14.3971  14.6324  14.6325
    14.7028  14.7028  14.8888  14.8888  15.0231  15.0231  15.0592  15.0592
    15.2846  15.2846  15.3249  15.3249  17.0982  17.0982  18.4718  18.4718
    19.8146  19.8146  20.3698  20.3698  20.5528  20.5529  21.1441  21.1442
    21.5253  21.5253  22.2901  22.2901  22.3785  22.3785  22.7807  22.7807
    23.6855  23.6855  24.0852  24.0852  24.2317  24.2317  25.3466  25.3467
    25.3794  25.3794  26.1670  26.1670  26.5516  26.5516  27.0362  27.0362
    27.2835  27.2836

          k =-0.4686-0.2706 0.0000 (  5800 PWs)   bands (ev):

   -59.2979 -59.2916 -59.2862 -59.2679 -26.2768 -26.2617 -26.2578 -26.2550
   -26.2460 -26.2400 -26.2376 -26.2275 -26.2104 -26.2081 -26.2070 -26.1914
   -15.5436 -15.2277 -14.9908 -14.7355 -14.6502 -14.2889 -14.2823 -13.9620
     0.1010   0.7406   0.7786   1.7011   1.7413   1.9920   2.4420   2.6077
     2.6670   2.7775   2.9980   3.0685   3.1261   3.3116   3.4741   3.5459
     3.6946   4.1556   4.7260   4.9612   5.1681   5.4765   5.5596   5.6035
    14.1808  14.1858  14.2817  14.3423  14.3508  14.4343  14.5874  14.6099
    14.6528  14.7793  14.8110  14.8265  14.9273  14.9726  15.1124  15.1325
    15.2354  15.3186  15.3207  15.4309  17.6153  17.8829  17.9121  18.4287
    20.0830  20.1622  20.5606  20.7334  21.0031  21.0948  21.3954  21.4268
    21.5753  21.6675  21.7435  21.7714  22.2743  22.8676  22.9002  22.9130
    22.9438  23.6712  24.3408  24.8018  24.8215  24.8933  25.1836  25.3741
    25.4169  25.4313  25.5009  25.5256  25.6093  26.1011  26.3184  26.4351
    27.1742  27.6677

          k =-0.4686-0.2706 0.1456 (  5822 PWs)   bands (ev):

   -59.3058 -59.3043 -59.2838 -59.2812 -26.2725 -26.2711 -26.2634 -26.2547
   -26.2543 -26.2539 -26.2449 -26.2352 -26.2121 -26.2114 -26.2042 -26.1968
   -15.5032 -15.2761 -14.9859 -14.8827 -14.4377 -14.2881 -14.2834 -14.0249
     0.1364   0.4545   1.1369   1.6792   1.7902   2.0659   2.4546   2.5110
     2.5304   2.5673   2.9993   3.0363   3.1422   3.2673   3.5096   3.5436
     3.9371   4.3216   4.6180   5.0101   5.0730   5.4872   5.5239   5.5964
    14.1747  14.2108  14.3194  14.3511  14.3657  14.4097  14.5137  14.5864
    14.6431  14.7873  14.8759  14.9302  14.9373  14.9911  15.0713  15.1136
    15.2410  15.3035  15.3223  15.3446  17.7178  17.9259  17.9902  18.2802
    20.0833  20.3820  20.4112  20.4205  20.9142  21.0998  21.2071  21.2574
    21.3545  21.8739  22.0242  22.1149  22.5605  22.6414  22.7408  22.7788
    23.3873  23.6027  24.0264  24.8157  24.9192  24.9384  25.0180  25.0293
    25.2744  25.4699  25.7671  25.8985  25.8992  26.0808  26.4920  26.5112
    27.1095  27.1660

          k =-0.4686-0.2706-0.2912 (  5804 PWs)   bands (ev):

   -59.2936 -59.2936 -59.2814 -59.2814 -26.2670 -26.2670 -26.2564 -26.2564
   -26.2461 -26.2461 -26.2301 -26.2301 -26.2085 -26.2085 -26.2065 -26.2065
   -15.3957 -15.3957 -14.9618 -14.9618 -14.2857 -14.2857 -14.1977 -14.1977
     0.2498   0.2498   1.4790   1.4790   2.0810   2.0810   2.2697   2.2697
     2.5000   2.5000   3.0108   3.0108   3.1948   3.1948   3.5382   3.5382
     4.3260   4.3260   4.6769   4.6769   5.3007   5.3007   5.5737   5.5737
    14.2036  14.2036  14.3705  14.3705  14.3799  14.3799  14.4782  14.4782
    14.7436  14.7436  14.9859  14.9859  14.9902  14.9902  15.0578  15.0579
    15.2675  15.2675  15.2687  15.2688  17.9410  17.9410  18.0776  18.0776
    20.0696  20.0696  20.4596  20.4596  20.8077  20.8077  21.2622  21.2622
    21.8736  21.8736  22.0233  22.0233  22.4487  22.4487  23.0832  23.0832
    23.4059  23.4059  24.0566  24.0566  25.0991  25.0991  25.1888  25.1888
    25.2135  25.2135  26.0108  26.0108  26.3169  26.3170  26.3932  26.3934
    27.1582  27.1583

          k =-0.4686 0.0902 0.0000 (  5827 PWs)   bands (ev):

   -59.3069 -59.2961 -59.2951 -59.2829 -26.2778 -26.2728 -26.2666 -26.2609
   -26.2587 -26.2456 -26.2355 -26.2252 -26.2171 -26.2095 -26.2093 -26.2054
   -15.5452 -15.2254 -14.9931 -14.7314 -14.6503 -14.2896 -14.2851 -13.9617
     0.1861   0.7796   0.8041   1.5887   1.7303   1.9251   1.9571   2.5620
     2.7496   2.7945   2.9245   3.2344   3.3332   3.3601   3.3938   3.5940
     4.1133   4.2959   4.8400   4.9794   5.1061   5.2667   5.2943   5.5454
    14.2323  14.2326  14.2504  14.3319  14.3331  14.4972  14.5202  14.6113
    14.6413  14.7533  14.7961  14.8229  14.8555  14.9480  15.0406  15.0947
    15.3263  15.3469  15.3843  15.4642  17.3642  18.0418  18.3228  18.3715
    20.1349  20.3561  20.4829  20.8750  20.8891  21.0614  21.3014  21.5285
    21.6931  21.7597  21.8667  22.1147  22.2504  22.5075  22.7016  22.9736
    23.2364  23.2704  23.9030  24.1563  24.2500  24.6659  24.8720  24.8742
    24.9578  25.2318  25.4271  25.9735  26.1265  26.1938  26.2831  26.4830
    27.5989  27.6836

          k =-0.4686 0.0902 0.1456 (  5825 PWs)   bands (ev):

   -59.3070 -59.2972 -59.2895 -59.2847 -26.2744 -26.2698 -26.2655 -26.2632
   -26.2569 -26.2468 -26.2338 -26.2329 -26.2137 -26.2098 -26.2074 -26.2052
   -15.5047 -15.2756 -14.9866 -14.8791 -14.4371 -14.2888 -14.2857 -14.0245
     0.2188   0.5112   1.1241   1.5188   1.8417   1.9776   2.0449   2.4576
     2.6377   2.6911   2.7978   2.9021   3.3396   3.3599   3.7306   3.8326
     4.1626   4.3490   4.7399   4.9213   5.1023   5.2923   5.3132   5.4873
    14.2135  14.2471  14.2698  14.3288  14.3407  14.4912  14.5326  14.6120
    14.6773  14.7403  14.8235  14.8536  14.8652  14.9032  15.0411  15.0837
    15.3005  15.3473  15.3750  15.4362  17.4865  18.0166  18.2930  18.3913
    20.1154  20.2813  20.6188  20.6838  20.8525  21.0074  21.3463  21.4259
    21.4906  21.7613  22.0256  22.2116  22.4149  22.4669  22.5956  23.1218
    23.1977  23.2700  23.6709  24.0829  24.3742  24.5975  24.8578  25.0407
    25.1693  25.4908  25.5872  25.7961  26.0597  26.2374  26.3954  26.5134
    27.0888  27.4814

          k =-0.4686 0.0902-0.2912 (  5824 PWs)   bands (ev):

   -59.2995 -59.2995 -59.2892 -59.2892 -26.2708 -26.2707 -26.2627 -26.2627
   -26.2512 -26.2512 -26.2327 -26.2327 -26.2125 -26.2125 -26.2088 -26.2088
   -15.3969 -15.3969 -14.9599 -14.9599 -14.2873 -14.2873 -14.1972 -14.1972
     0.3226   0.3226   1.3820   1.3820   2.0628   2.0628   2.2053   2.2053
     2.4443   2.4443   2.8031   2.8031   3.3512   3.3512   3.9493   3.9493
     4.3536   4.3536   4.6861   4.6861   5.2432   5.2432   5.3705   5.3705
    14.2209  14.2209  14.3158  14.3158  14.3982  14.3982  14.5920  14.5920
    14.7287  14.7287  14.8452  14.8452  14.9284  14.9284  15.0096  15.0096
    15.2986  15.2986  15.4038  15.4038  17.7672  17.7672  18.3850  18.3850
    20.1652  20.1652  20.4098  20.4098  21.2005  21.2005  21.2547  21.2547
    21.6377  21.6377  22.0997  22.0997  22.5337  22.5337  22.8426  22.8426
    23.0468  23.0468  23.9933  23.9933  24.6756  24.6756  24.7405  24.7405
    25.4933  25.4933  25.6869  25.6869  26.0641  26.0641  26.6631  26.6632
    27.2180  27.2180

     the Fermi energy is    23.2171 ev

!    total energy              =   -1658.79459718 Ry
     Harris-Foulkes estimate   =   -1658.79463925 Ry
     estimated scf accuracy    <       0.00005238 Ry

     The total energy is the sum of the following terms:

     one-electron contribution =    -214.14712953 Ry
     hartree contribution      =     233.21587466 Ry
     xc contribution           =    -179.38285228 Ry
     ewald contribution        =   -1497.94648499 Ry
     smearing contrib. (-TS)   =      -0.53400504 Ry

     convergence has been achieved in   8 iterations

     Forces acting on atoms (Ry/au):

     atom    1 type  1   force =     0.00000000    0.00000000   -0.01551421
     atom    2 type  1   force =     0.00000000    0.00000000   -0.01551421
     atom    3 type  1   force =     0.00000000    0.00000000    0.01551421
     atom    4 type  1   force =     0.00000000    0.00000000    0.01551421
     atom    5 type  2   force =     0.00000000    0.00000000    0.00000000
     atom    6 type  2   force =     0.00000000    0.00000000    0.00000000
     atom    7 type  2   force =     0.00000000    0.01731450    0.00000000
     atom    8 type  2   force =    -0.01499480    0.00865725    0.00000000
     atom    9 type  2   force =     0.01499480    0.00865725    0.00000000
     atom   10 type  2   force =    -0.01499480   -0.00865725    0.00000000
     atom   11 type  2   force =     0.01499480   -0.00865725    0.00000000
     atom   12 type  2   force =     0.00000000   -0.01731450    0.00000000

     Total force =     0.052550     Total SCF correction =     0.000000


     entering subroutine stress ...

          total   stress  (Ry/bohr**3)                   (kbar)     P=  175.43
   0.00120924   0.00000000   0.00000000        177.89      0.00      0.00
   0.00000000   0.00120924   0.00000000          0.00    177.89      0.00
   0.00000000   0.00000000   0.00115924          0.00      0.00    170.53


     number of scf cycles    =   2
     number of bfgs steps    =   1

     enthalpy old            =   -1657.6364196436 Ry
     enthalpy new            =   -1658.7945971755 Ry

     CASE: enthalpy_new < enthalpy_old

     small trust_radius: resetting bfgs history

     new trust radius        =       0.2459166595 bohr
     new conv_thr            =       0.0000173145 Ry

     new unit-cell volume =   1806.71006 a.u.^3 (   267.72680 Ang^3 )

CELL_PARAMETERS (alat=  9.92348860)
   1.099177507   0.000000000   0.000000000
  -0.549588754   0.951915644   0.000000000
   0.000000000   0.000000000   1.766969444

ATOMIC_POSITIONS (crystal)
Mg       0.333333000   0.666667000   0.061984588
Mg       0.666667000   0.333333000   0.561984588
Mg       0.666667000   0.333333000   0.938015412
Mg       0.333333000   0.666667000   0.438015412
Zn       0.000000000   0.000000000   0.000000000
Zn       0.000000000   0.000000000   0.500000000
Zn       0.172360974   0.344721948   0.750000000
Zn       0.827639026   0.172360974   0.250000000
Zn       0.344721948   0.172360974   0.250000000
Zn       0.655278052   0.827639026   0.750000000
Zn       0.172360974   0.827639026   0.750000000
Zn       0.827639026   0.655278052   0.250000000



     Writing output data file Prototype-La-hP12-MgZn2.save
     NEW-OLD atomic charge density approx. for the potential
     NEW k-points:
        k(    1) = (   0.0000000   0.0000000   0.0000000), wk =   0.0833333
        k(    2) = (   0.0000000   0.0000000   0.1414852), wk =   0.1666667
        k(    3) = (   0.0000000   0.0000000  -0.2829704), wk =   0.0833333
        k(    4) = (   0.0000000   0.3501711   0.0000000), wk =   0.1666667
        k(    5) = (   0.0000000   0.3501711   0.1414852), wk =   0.3333333
        k(    6) = (   0.0000000   0.3501711  -0.2829704), wk =   0.1666667
        k(    7) = (  -0.4548856  -0.2626283   0.0000000), wk =   0.0833333
        k(    8) = (  -0.4548856  -0.2626283   0.1414852), wk =   0.1666667
        k(    9) = (  -0.4548856  -0.2626283  -0.2829704), wk =   0.0833333
        k(   10) = (  -0.4548856   0.0875428   0.0000000), wk =   0.1666667
        k(   11) = (  -0.4548856   0.0875428   0.1414852), wk =   0.3333333
        k(   12) = (  -0.4548856   0.0875428  -0.2829704), wk =   0.1666667

     total cpu time spent up to now is      385.4 secs

     Self-consistent Calculation

     iteration #  1     ecut=    40.00 Ry     beta=0.70
     CG style diagonalization
     c_bands:  4 eigenvalues not converged
     c_bands:  1 eigenvalues not converged
     c_bands:  3 eigenvalues not converged
     c_bands:  4 eigenvalues not converged
     c_bands:  5 eigenvalues not converged
     c_bands:  4 eigenvalues not converged
     ethr =  1.00E-06,  avg # of iterations = 13.0

     total cpu time spent up to now is      427.8 secs

     total energy              =   -1657.09210119 Ry
     Harris-Foulkes estimate   =   -1660.48703972 Ry
     estimated scf accuracy    <       4.25993516 Ry

     iteration #  2     ecut=    40.00 Ry     beta=0.70
     CG style diagonalization
     ethr =  2.42E-03,  avg # of iterations =  3.7

     total cpu time spent up to now is      439.6 secs

     total energy              =   -1657.57715674 Ry
     Harris-Foulkes estimate   =   -1659.89111002 Ry
     estimated scf accuracy    <       4.29993557 Ry

     iteration #  3     ecut=    40.00 Ry     beta=0.70
     CG style diagonalization
     ethr =  2.42E-03,  avg # of iterations =  3.6

     total cpu time spent up to now is      451.3 secs

     total energy              =   -1658.64793405 Ry
     Harris-Foulkes estimate   =   -1658.98203918 Ry
     estimated scf accuracy    <       0.78869645 Ry

     iteration #  4     ecut=    40.00 Ry     beta=0.70
     CG style diagonalization
     ethr =  4.48E-04,  avg # of iterations =  3.4

     total cpu time spent up to now is      462.1 secs

     total energy              =   -1658.80943516 Ry
     Harris-Foulkes estimate   =   -1658.84103249 Ry
     estimated scf accuracy    <       0.06555810 Ry

     iteration #  5     ecut=    40.00 Ry     beta=0.70
     CG style diagonalization
     ethr =  3.72E-05,  avg # of iterations =  3.7

     total cpu time spent up to now is      473.9 secs

     total energy              =   -1658.82723979 Ry
     Harris-Foulkes estimate   =   -1658.82995875 Ry
     estimated scf accuracy    <       0.00529444 Ry

     iteration #  6     ecut=    40.00 Ry     beta=0.70
     CG style diagonalization
     ethr =  3.01E-06,  avg # of iterations =  4.1

     total cpu time spent up to now is      487.1 secs

     total energy              =   -1658.82843221 Ry
     Harris-Foulkes estimate   =   -1658.82880258 Ry
     estimated scf accuracy    <       0.00077935 Ry

     iteration #  7     ecut=    40.00 Ry     beta=0.70
     CG style diagonalization
     ethr =  4.43E-07,  avg # of iterations =  3.8

     total cpu time spent up to now is      499.4 secs

     total energy              =   -1658.82860252 Ry
     Harris-Foulkes estimate   =   -1658.82863028 Ry
     estimated scf accuracy    <       0.00004330 Ry

     iteration #  8     ecut=    40.00 Ry     beta=0.70
     CG style diagonalization
     ethr =  2.46E-08,  avg # of iterations =  4.6

     total cpu time spent up to now is      513.7 secs

     End of self-consistent calculation

          k = 0.0000 0.0000 0.0000 (  5769 PWs)   bands (ev):

   -61.0859 -61.0711 -61.0645 -61.0189 -28.1392 -28.1225 -28.1225 -28.1196
   -28.1010 -28.1010 -28.0943 -28.0761 -28.0761 -28.0679 -28.0657 -28.0657
   -17.7908 -17.5519 -16.8024 -16.5498 -16.5498 -16.5453 -16.5453 -16.5149
    -2.4815  -1.8605  -0.9991  -0.2537  -0.2537  -0.0790  -0.0790   0.1360
     0.1361   0.6118   1.3732   1.3732   1.3929   1.3929   1.7591   2.6687
     2.6974   2.6974   2.7163   2.7164   3.1107   3.1108   3.2376   3.2376
    12.5086  12.5231  12.5232  12.6109  12.7042  12.7042  12.7847  12.7847
    12.8417  12.8417  13.0229  13.1297  13.1298  13.2659  13.2878  13.2878
    13.3158  13.3158  13.3420  13.3420  13.6527  15.2080  15.6467  16.6486
    17.0541  17.0542  17.7916  18.1577  18.3140  18.3224  18.3224  18.5303
    18.8915  18.8915  19.2743  19.2743  20.2493  20.2493  20.7668  21.0450
    21.0450  21.2299  21.2299  21.5467  22.8007  22.8008  23.3915  24.0144
    24.1579  24.6813  24.8554  24.8555  24.9389  24.9390  25.0840  25.3029
    25.3437  25.3439

          k = 0.0000 0.0000 0.1415 (  5780 PWs)   bands (ev):

   -61.0900 -61.0875 -61.0565 -61.0243 -28.1322 -28.1271 -28.1140 -28.1140
   -28.1137 -28.1137 -28.1005 -28.0768 -28.0768 -28.0718 -28.0691 -28.0691
   -17.7628 -17.5970 -16.7503 -16.5502 -16.5492 -16.5492 -16.5460 -16.5460
    -2.4269  -2.0250  -0.7340  -0.2425  -0.2425  -0.1385  -0.1385   0.2704
     0.2704   0.3334   0.9369   0.9369   1.8415   1.8415   1.9735   2.5789
     2.5843   2.5843   2.6944   2.6949   3.1473   3.1473   3.2266   3.2266
    12.4843  12.5586  12.5586  12.5798  12.7060  12.7060  12.7562  12.7562
    12.8160  12.8160  13.0740  13.1523  13.1523  13.2035  13.2618  13.2618
    13.3236  13.3236  13.3399  13.3399  13.8587  14.8330  16.1756  16.7059
    17.2331  17.2331  17.5220  17.8873  18.1510  18.1510  18.2997  18.3062
    18.9333  18.9333  19.2630  19.2630  19.9637  19.9637  20.8324  20.8325
    21.5938  21.7037  21.7231  21.7232  23.0845  23.0846  23.3270  23.9605
    24.1498  24.2614  24.7784  24.7785  24.9031  24.9868  24.9875  25.2890
    25.2892  25.3551

          k = 0.0000 0.0000-0.2830 (  5780 PWs)   bands (ev):

   -61.0828 -61.0828 -61.0447 -61.0447 -28.1282 -28.1282 -28.1112 -28.1112
   -28.1112 -28.1111 -28.1026 -28.1026 -28.0677 -28.0677 -28.0677 -28.0677
   -17.6878 -17.6878 -16.6425 -16.6424 -16.5476 -16.5476 -16.5475 -16.5475
    -2.2653  -2.2653  -0.2158  -0.2158  -0.2029  -0.2029  -0.2029  -0.2029
     0.5583   0.5584   0.5584   0.5584   2.2645   2.2645   2.2646   2.2646
     2.3215   2.3215   2.6981   2.6981   3.1956   3.1956   3.1956   3.1956
    12.5067  12.5068  12.6433  12.6433  12.6433  12.6433  12.7670  12.7670
    12.7670  12.7670  13.1358  13.1358  13.2062  13.2062  13.2062  13.2062
    13.3338  13.3338  13.3338  13.3338  14.3233  14.3233  16.8388  16.8388
    17.2345  17.2345  17.6888  17.6888  17.6889  17.6889  18.2582  18.2582
    19.0681  19.0681  19.0682  19.0682  20.2360  20.2360  20.2361  20.2361
    22.2717  22.2717  22.6799  22.6800  22.6800  22.6800  23.5291  23.5291
    23.9758  23.9758  24.5505  24.5506  25.0571  25.0572  25.0579  25.0585
    25.2334  25.2335

          k = 0.0000 0.3502 0.0000 (  5787 PWs)   bands (ev):

   -61.0845 -61.0772 -61.0562 -61.0527 -28.1283 -28.1280 -28.1219 -28.1174
   -28.1165 -28.1085 -28.0929 -28.0853 -28.0836 -28.0773 -28.0737 -28.0662
   -17.6055 -17.3808 -16.9649 -16.8016 -16.7618 -16.5524 -16.5485 -16.3182
    -1.7972  -1.2511  -0.8905  -0.1459  -0.0640   0.0616   0.1407   0.2804
     0.4882   0.8668   1.0296   1.1193   1.2519   1.3705   1.4114   1.9767
     1.9815   2.1588   2.4763   2.7190   2.7245   2.9806   3.0084   3.1258
    12.4087  12.4765  12.5572  12.5741  12.6199  12.6647  12.7279  12.7699
    12.8236  12.8932  12.9463  13.0190  13.0455  13.1305  13.1884  13.2088
    13.3251  13.3338  13.3591  13.4233  14.7410  15.9195  16.4081  16.4105
    17.7757  17.9547  18.1582  18.5902  18.7368  18.8477  19.2791  19.2917
    19.4599  19.7519  20.0080  20.1571  20.2568  20.4076  20.4082  20.5809
    20.9401  20.9722  21.3152  21.5931  22.1565  22.3739  22.3940  22.5418
    23.0494  23.1254  23.6481  24.0373  24.1659  24.3696  24.3748  24.4335
    24.6024  24.6974

          k = 0.0000 0.3502 0.1415 (  5804 PWs)   bands (ev):

   -61.0937 -61.0856 -61.0633 -61.0597 -28.1362 -28.1300 -28.1239 -28.1210
   -28.1184 -28.1108 -28.1009 -28.0973 -28.0826 -28.0802 -28.0749 -28.0674
   -17.5777 -17.4200 -16.9592 -16.8872 -16.6290 -16.5519 -16.5491 -16.3599
    -1.7583  -1.4327  -0.6451  -0.2043  -0.0238   0.1664   0.1736   0.2721
     0.5218   0.5722   0.7252   0.9378   1.4068   1.5694   1.6828   1.9701
     2.0137   2.1970   2.3955   2.5982   2.7535   2.9389   3.0484   3.1193
    12.4300  12.4922  12.5610  12.5710  12.6120  12.6144  12.7373  12.7862
    12.8481  12.8795  12.9167  13.0471  13.0577  13.1272  13.1716  13.2280
    13.3133  13.3289  13.3405  13.4159  14.8949  15.6912  16.4535  16.5315
    17.7703  18.1776  18.2795  18.3036  18.5479  18.8674  19.1145  19.1629
    19.3574  19.7362  19.8931  20.0385  20.3684  20.4027  20.4655  20.8769
    20.8836  21.3533  21.3950  21.5014  22.2607  22.3337  22.6466  22.7085
    23.0525  23.1886  23.4277  23.8480  23.9545  24.1805  24.3622  24.5448
    24.6488  24.8457

          k = 0.0000 0.3502-0.2830 (  5816 PWs)   bands (ev):

   -61.0928 -61.0928 -61.0701 -61.0701 -28.1330 -28.1330 -28.1278 -28.1277
   -28.1145 -28.1145 -28.1049 -28.1049 -28.0820 -28.0820 -28.0755 -28.0755
   -17.5045 -17.5045 -16.9381 -16.9381 -16.5505 -16.5505 -16.4740 -16.4740
    -1.6369  -1.6369  -0.3454  -0.3454   0.1637   0.1637   0.2373   0.2373
     0.4133   0.4133   0.6609   0.6609   1.6013   1.6013   1.9049   1.9049
     2.1928   2.1928   2.3593   2.3593   2.8437   2.8437   3.0956   3.0956
    12.4987  12.4988  12.5343  12.5344  12.5963  12.5963  12.7837  12.7837
    12.8344  12.8344  13.0189  13.0189  13.1035  13.1035  13.1558  13.1559
    13.3389  13.3389  13.3666  13.3666  15.2692  15.2692  16.5767  16.5767
    17.9194  17.9194  18.3144  18.3144  18.6373  18.6373  19.0823  19.0824
    19.4216  19.4216  20.1230  20.1230  20.2224  20.2224  20.5862  20.5862
    21.3641  21.3641  21.7897  21.7897  21.9900  21.9900  22.9971  22.9971
    23.0006  23.0006  23.7153  23.7153  24.0925  24.0925  24.5514  24.5514
    24.7662  24.7665

          k =-0.4549-0.2626 0.0000 (  5800 PWs)   bands (ev):

   -61.0884 -61.0821 -61.0749 -61.0482 -28.1393 -28.1250 -28.1205 -28.1198
   -28.1102 -28.1089 -28.1039 -28.0977 -28.0855 -28.0824 -28.0797 -28.0613
   -17.4964 -17.2913 -17.1051 -16.8697 -16.8014 -16.5533 -16.5496 -16.2945
    -1.4956  -0.9751  -0.8467  -0.1230  -0.1014   0.1425   0.4277   0.5976
     0.6913   0.7757   0.9009   0.9874   1.1467   1.2125   1.3655   1.4928
     1.5309   1.9522   2.3790   2.6446   2.7254   2.9985   3.0621   3.1130
    12.4329  12.4587  12.4955  12.5509  12.5695  12.6215  12.7308  12.8052
    12.8253  12.9157  12.9312  12.9351  13.0079  13.1001  13.1848  13.2044
    13.3132  13.3538  13.3651  13.4485  15.7960  15.9004  16.0958  16.4747
    18.0565  18.1299  18.6512  18.8343  19.0319  19.1673  19.3666  19.3977
    19.5095  19.5939  19.6832  19.7417  20.0233  20.5370  20.5650  20.6314
    20.8292  21.3524  22.0289  22.4308  22.4735  22.6019  22.7498  22.9340
    22.9635  22.9663  22.9723  23.0018  23.2341  23.5006  24.0009  24.1154
    24.3959  25.1356

          k =-0.4549-0.2626 0.1415 (  5822 PWs)   bands (ev):

   -61.1011 -61.0980 -61.0696 -61.0671 -28.1354 -28.1347 -28.1255 -28.1215
   -28.1199 -28.1170 -28.1157 -28.1066 -28.0867 -28.0856 -28.0753 -28.0691
   -17.4674 -17.3189 -17.0987 -16.9921 -16.6417 -16.5528 -16.5502 -16.3397
    -1.4629  -1.1800  -0.5933  -0.1691  -0.0300   0.2037   0.4407   0.5515
     0.5595   0.5855   0.9005   0.9418   1.1524   1.1998   1.4237   1.4873
     1.7320   2.0682   2.2912   2.5992   2.7184   3.0083   3.0378   3.1055
    12.4448  12.4565  12.5313  12.5668  12.5672  12.6062  12.7033  12.7547
    12.7772  12.9108  13.0056  13.0223  13.0398  13.1074  13.1492  13.1895
    13.3156  13.3468  13.3637  13.3891  15.8913  15.9422  16.1529  16.3163
    18.1254  18.3366  18.4076  18.5509  18.9686  19.1157  19.2662  19.2709
    19.3301  19.7362  19.8929  20.0362  20.3163  20.4230  20.4449  20.5965
    21.1439  21.2928  21.7243  22.4659  22.4918  22.5520  22.6755  22.6919
    22.7845  22.9564  23.2827  23.3841  23.4085  23.5358  24.1585  24.1693
    24.4431  24.6418

          k =-0.4549-0.2626-0.2830 (  5804 PWs)   bands (ev):

   -61.0834 -61.0834 -61.0677 -61.0676 -28.1285 -28.1284 -28.1191 -28.1191
   -28.1118 -28.1118 -28.1004 -28.1004 -28.0843 -28.0842 -28.0784 -28.0783
   -17.3935 -17.3935 -17.0708 -17.0707 -16.5515 -16.5515 -16.4650 -16.4650
    -1.3599  -1.3599  -0.3234  -0.3234   0.2070   0.2070   0.3722   0.3722
     0.4873   0.4873   0.9119   0.9119   1.1764   1.1764   1.4744   1.4744
     2.0537   2.0537   2.3372   2.3372   2.8765   2.8765   3.0830   3.0830
    12.4621  12.4621  12.5779  12.5779  12.5795  12.5795  12.6598  12.6598
    12.8621  12.8621  13.0766  13.0766  13.1026  13.1026  13.1428  13.1428
    13.3289  13.3289  13.3310  13.3310  16.0667  16.0667  16.1225  16.1225
    18.1311  18.1311  18.5704  18.5704  18.7759  18.7759  19.2787  19.2787
    19.7914  19.7914  19.8924  19.8924  20.2131  20.2131  20.8773  20.8773
    21.1462  21.1462  21.8012  21.8012  22.6778  22.6778  22.6780  22.6780
    22.7805  22.7805  23.5066  23.5066  23.8287  23.8287  23.9864  23.9864
    24.7711  24.7712

          k =-0.4549 0.0875 0.0000 (  5827 PWs)   bands (ev):

   -61.1028 -61.0875 -61.0855 -61.0679 -28.1413 -28.1359 -28.1287 -28.1265
   -28.1232 -28.1129 -28.1045 -28.0949 -28.0921 -28.0828 -28.0812 -28.0797
   -17.4975 -17.2897 -17.1061 -16.8676 -16.8014 -16.5537 -16.5511 -16.2943
    -1.4248  -0.9335  -0.8458  -0.2478  -0.0789   0.0798   0.0840   0.5972
     0.7043   0.7473   0.9027   1.1502   1.2336   1.2958   1.3066   1.4500
     1.9070   2.0559   2.4662   2.6464   2.6754   2.8540   2.8732   3.0505
    12.4534  12.4661  12.4971  12.5467  12.5693  12.6716  12.7113  12.7873
    12.8202  12.8898  12.9264  12.9355  12.9675  13.0624  13.1155  13.1661
    13.3686  13.3908  13.4128  13.4845  15.4857  16.2055  16.3844  16.4201
    18.1699  18.3941  18.4903  18.8625  18.9736  19.0460  19.2451  19.4735
    19.6145  19.7034  19.7504  19.9676  19.9683  20.2866  20.4683  20.7112
    21.0205  21.0466  21.6309  21.8587  21.9332  22.3141  22.4827  22.5774
    22.6132  22.9151  23.0796  23.5971  23.6564  23.6898  23.7048  23.9593
    24.8743  25.0395

          k =-0.4549 0.0875 0.1415 (  5825 PWs)   bands (ev):

   -61.1022 -61.0893 -61.0772 -61.0715 -28.1369 -28.1327 -28.1294 -28.1271
   -28.1221 -28.1133 -28.1040 -28.1036 -28.0879 -28.0840 -28.0797 -28.0778
   -17.4685 -17.3184 -17.0989 -16.9902 -16.6414 -16.5533 -16.5514 -16.3395
    -1.3939  -1.1320  -0.6171  -0.3017   0.0091   0.1194   0.1657   0.5096
     0.6565   0.6767   0.7439   0.8610   1.2785   1.3094   1.5645   1.6517
     1.9365   2.0914   2.3861   2.5376   2.7272   2.8685   2.8893   3.0119
    12.4555  12.4848  12.4905  12.5475  12.5663  12.6816  12.7064  12.7724
    12.8262  12.8923  12.9435  12.9724  12.9855  13.0224  13.1258  13.1558
    13.3501  13.3894  13.4081  13.4641  15.5938  16.1258  16.3986  16.4272
    18.1807  18.3866  18.6140  18.6874  18.8127  19.0264  19.3054  19.3958
    19.4093  19.6612  19.8983  20.0227  20.1863  20.2694  20.4005  20.8725
    20.9398  21.0856  21.4254  21.8045  22.0404  22.2610  22.4887  22.6752
    22.8519  23.1092  23.1991  23.3633  23.6475  23.7237  23.8032  24.0409
    24.6005  24.7635

          k =-0.4549 0.0875-0.2830 (  5824 PWs)   bands (ev):

   -61.0925 -61.0925 -61.0769 -61.0769 -28.1334 -28.1334 -28.1260 -28.1260
   -28.1171 -28.1171 -28.1036 -28.1036 -28.0867 -28.0867 -28.0813 -28.0813
   -17.3942 -17.3942 -17.0696 -17.0696 -16.5524 -16.5524 -16.4647 -16.4647
    -1.2986  -1.2986  -0.4136  -0.4136   0.1944   0.1944   0.2996   0.2996
     0.4990   0.4990   0.7489   0.7489   1.3037   1.3037   1.7557   1.7557
     2.0787   2.0787   2.3437   2.3437   2.8270   2.8270   2.9348   2.9348
    12.4649  12.4650  12.5361  12.5361  12.5973  12.5974  12.7585  12.7585
    12.8576  12.8576  12.9754  12.9754  13.0391  13.0391  13.1042  13.1042
    13.3518  13.3518  13.4346  13.4346  15.8547  15.8547  16.4537  16.4537
    18.2535  18.2535  18.4917  18.4917  19.1056  19.1056  19.2162  19.2162
    19.5248  19.5248  19.9808  19.9808  20.3492  20.3492  20.6382  20.6383
    20.8033  20.8033  21.7529  21.7529  22.3307  22.3307  22.4062  22.4062
    23.1020  23.1020  23.2477  23.2477  23.6441  23.6441  24.0799  24.0800
    24.6344  24.6344

     the Fermi energy is    20.9940 ev

!    total energy              =   -1658.82862232 Ry
     Harris-Foulkes estimate   =   -1658.82863707 Ry
     estimated scf accuracy    <       0.00001615 Ry

     The total energy is the sum of the following terms:

     one-electron contribution =    -276.23562956 Ry
     hartree contribution      =     250.48150132 Ry
     xc contribution           =    -178.01355376 Ry
     ewald contribution        =   -1454.47827549 Ry
     smearing contrib. (-TS)   =      -0.58266482 Ry

     convergence has been achieved in   8 iterations

     Forces acting on atoms (Ry/au):

     atom    1 type  1   force =     0.00000000    0.00000000    0.00766331
     atom    2 type  1   force =     0.00000000    0.00000000    0.00766331
     atom    3 type  1   force =     0.00000000    0.00000000   -0.00766331
     atom    4 type  1   force =     0.00000000    0.00000000   -0.00766331
     atom    5 type  2   force =     0.00000000    0.00000000    0.00000000
     atom    6 type  2   force =     0.00000000    0.00000000    0.00000000
     atom    7 type  2   force =     0.00000000   -0.00586856    0.00000000
     atom    8 type  2   force =     0.00508232   -0.00293428    0.00000000
     atom    9 type  2   force =    -0.00508232   -0.00293428    0.00000000
     atom   10 type  2   force =     0.00508232    0.00293428    0.00000000
     atom   11 type  2   force =    -0.00508232    0.00293428    0.00000000
     atom   12 type  2   force =     0.00000000    0.00586856    0.00000000

     Total force =     0.021013     Total SCF correction =     0.000000


     entering subroutine stress ...

          total   stress  (Ry/bohr**3)                   (kbar)     P=  -95.51
  -0.00063535   0.00000000   0.00000000        -93.46      0.00      0.00
   0.00000000  -0.00063535   0.00000000          0.00    -93.46      0.00
   0.00000000   0.00000000  -0.00067708          0.00      0.00    -99.60


     number of scf cycles    =   3
     number of bfgs steps    =   2

     enthalpy old            =   -1658.7945971755 Ry
     enthalpy new            =   -1658.8286223204 Ry

     CASE: enthalpy_new < enthalpy_old

     Message from routine bfgs:
     history already reset at previous step: stopping
     small trust_radius: resetting bfgs history

     new trust radius        =       0.1438986602 bohr
     new conv_thr            =       0.0000076633 Ry

     new unit-cell volume =   1720.15307 a.u.^3 (   254.90038 Ang^3 )

CELL_PARAMETERS (alat=  9.92348860)
   1.081718575   0.000000000   0.000000000
  -0.540859287   0.936795765   0.000000000
   0.000000000   0.000000000   1.737059777

ATOMIC_POSITIONS (crystal)
Mg       0.333333000   0.666667000   0.062421630
Mg       0.666667000   0.333333000   0.562421630
Mg       0.666667000   0.333333000   0.937578370
Mg       0.333333000   0.666667000   0.437578370
Zn       0.000000000   0.000000000   0.000000000
Zn       0.000000000   0.000000000   0.500000000
Zn       0.172050347   0.344100695   0.750000000
Zn       0.827949653   0.172050347   0.250000000
Zn       0.344100695   0.172050347   0.250000000
Zn       0.655899305   0.827949653   0.750000000
Zn       0.172050347   0.827949653   0.750000000
Zn       0.827949653   0.655899305   0.250000000



     Writing output data file Prototype-La-hP12-MgZn2.save
     NEW-OLD atomic charge density approx. for the potential
     NEW k-points:
        k(    1) = (   0.0000000   0.0000000   0.0000000), wk =   0.0833333
        k(    2) = (   0.0000000   0.0000000   0.1439214), wk =   0.1666667
        k(    3) = (   0.0000000   0.0000000  -0.2878427), wk =   0.0833333
        k(    4) = (   0.0000000   0.3558228   0.0000000), wk =   0.1666667
        k(    5) = (   0.0000000   0.3558228   0.1439214), wk =   0.3333333
        k(    6) = (   0.0000000   0.3558228  -0.2878427), wk =   0.1666667
        k(    7) = (  -0.4622274  -0.2668671   0.0000000), wk =   0.0833333
        k(    8) = (  -0.4622274  -0.2668671   0.1439214), wk =   0.1666667
        k(    9) = (  -0.4622274  -0.2668671  -0.2878427), wk =   0.0833333
        k(   10) = (  -0.4622274   0.0889557   0.0000000), wk =   0.1666667
        k(   11) = (  -0.4622274   0.0889557   0.1439214), wk =   0.3333333
        k(   12) = (  -0.4622274   0.0889557  -0.2878427), wk =   0.1666667

     total cpu time spent up to now is      519.9 secs

     Self-consistent Calculation

     iteration #  1     ecut=    40.00 Ry     beta=0.70
     CG style diagonalization
     c_bands:  2 eigenvalues not converged
     c_bands:  4 eigenvalues not converged
     c_bands:  2 eigenvalues not converged
     c_bands:  2 eigenvalues not converged
     c_bands:  1 eigenvalues not converged
     c_bands:  1 eigenvalues not converged
     c_bands:  3 eigenvalues not converged
     ethr =  1.00E-06,  avg # of iterations =  9.1

     total cpu time spent up to now is      548.8 secs

     total energy              =   -1658.28193918 Ry
     Harris-Foulkes estimate   =   -1659.35134497 Ry
     estimated scf accuracy    <       1.33665937 Ry

     iteration #  2     ecut=    40.00 Ry     beta=0.70
     CG style diagonalization
     ethr =  7.59E-04,  avg # of iterations =  3.8

     total cpu time spent up to now is      560.7 secs

     total energy              =   -1658.55350402 Ry
     Harris-Foulkes estimate   =   -1659.16685375 Ry
     estimated scf accuracy    <       1.08384076 Ry

     iteration #  3     ecut=    40.00 Ry     beta=0.70
     CG style diagonalization
     ethr =  6.16E-04,  avg # of iterations =  3.6

     total cpu time spent up to now is      572.2 secs

     total energy              =   -1658.80453774 Ry
     Harris-Foulkes estimate   =   -1658.87285578 Ry
     estimated scf accuracy    <       0.14284188 Ry

     iteration #  4     ecut=    40.00 Ry     beta=0.70
     CG style diagonalization
     ethr =  8.12E-05,  avg # of iterations =  3.4

     total cpu time spent up to now is      582.5 secs

     total energy              =   -1658.83900025 Ry
     Harris-Foulkes estimate   =   -1658.84612342 Ry
     estimated scf accuracy    <       0.01426708 Ry

     iteration #  5     ecut=    40.00 Ry     beta=0.70
     CG style diagonalization
     c_bands:  1 eigenvalues not converged
     ethr =  8.11E-06,  avg # of iterations =  3.7

     total cpu time spent up to now is      594.6 secs

     total energy              =   -1658.84328079 Ry
     Harris-Foulkes estimate   =   -1658.84423072 Ry
     estimated scf accuracy    <       0.00193542 Ry

     iteration #  6     ecut=    40.00 Ry     beta=0.70
     CG style diagonalization
     ethr =  1.10E-06,  avg # of iterations =  3.5

     total cpu time spent up to now is      606.0 secs

     total energy              =   -1658.84368916 Ry
     Harris-Foulkes estimate   =   -1658.84375237 Ry
     estimated scf accuracy    <       0.00009746 Ry

     iteration #  7     ecut=    40.00 Ry     beta=0.70
     CG style diagonalization
     ethr =  5.54E-08,  avg # of iterations =  4.2

     total cpu time spent up to now is      619.7 secs

     total energy              =   -1658.84372320 Ry
     Harris-Foulkes estimate   =   -1658.84372877 Ry
     estimated scf accuracy    <       0.00000894 Ry

     iteration #  8     ecut=    40.00 Ry     beta=0.70
     CG style diagonalization
     ethr =  5.08E-09,  avg # of iterations =  4.3

     total cpu time spent up to now is      632.7 secs

     End of self-consistent calculation

          k = 0.0000 0.0000 0.0000 (  5769 PWs)   bands (ev):

   -60.1226 -60.1094 -60.1033 -60.0661 -27.1268 -27.1091 -27.1091 -27.1085
   -27.0871 -27.0871 -27.0772 -27.0576 -27.0576 -27.0508 -27.0486 -27.0486
   -16.7415 -16.4574 -15.6205 -15.3018 -15.3018 -15.2955 -15.2954 -15.2710
    -1.6919  -0.9953  -0.1064   0.7399   0.7399   0.9380   0.9381   1.1498
     1.1499   1.7052   2.5350   2.5351   2.5583   2.5583   2.9814   3.9673
     4.0272   4.0294   4.0531   4.0531   4.4731   4.4731   4.6131   4.6131
    13.4613  13.4964  13.4964  13.5859  13.7249  13.7249  13.7961  13.7961
    13.8629  13.8629  14.0520  14.1720  14.1720  14.3385  14.3513  14.3513
    14.3871  14.3871  14.4108  14.4109  14.5329  16.1457  16.5651  17.7440
    17.9707  17.9707  18.9282  19.2256  19.3613  19.3613  19.4412  19.7759
    19.9614  19.9614  20.4361  20.4362  21.4058  21.4058  22.0475  22.2163
    22.2164  22.4665  22.4665  22.8216  24.1863  24.1864  24.6268  25.3612
    25.4132  26.1310  26.1939  26.1940  26.2412  26.2413  26.4107  26.6650
    26.6883  26.6884

          k = 0.0000 0.0000 0.1439 (  5780 PWs)   bands (ev):

   -60.1256 -60.1225 -60.0975 -60.0711 -27.1184 -27.1150 -27.1002 -27.1002
   -27.0995 -27.0995 -27.0846 -27.0587 -27.0587 -27.0553 -27.0520 -27.0520
   -16.7087 -16.5120 -15.5566 -15.3136 -15.3009 -15.3009 -15.2965 -15.2964
    -1.6325  -1.1864   0.1999   0.7526   0.7526   0.8684   0.8684   1.3030
     1.3030   1.3950   2.0469   2.0470   3.0638   3.0639   3.2146   3.8695
     3.9023   3.9024   4.0251   4.0272   4.5147   4.5148   4.6016   4.6016
    13.4343  13.5371  13.5372  13.5521  13.7173  13.7173  13.7697  13.7697
    13.8355  13.8355  14.1027  14.1973  14.1973  14.2322  14.3223  14.3223
    14.3935  14.3935  14.4086  14.4086  14.7822  15.7696  17.1294  17.8052
    18.1687  18.1687  18.6953  18.9576  19.1742  19.1742  19.4287  19.4381
    20.0093  20.0094  20.4148  20.4148  21.0968  21.0968  22.0559  22.0559
    22.8514  22.9523  22.9523  23.0688  24.4595  24.4595  24.5909  25.3066
    25.4756  25.4895  26.1465  26.1465  26.1991  26.2895  26.2896  26.6410
    26.6412  26.7088

          k = 0.0000 0.0000-0.2878 (  5780 PWs)   bands (ev):

   -60.1196 -60.1196 -60.0871 -60.0871 -27.1160 -27.1159 -27.0976 -27.0975
   -27.0975 -27.0975 -27.0852 -27.0851 -27.0499 -27.0499 -27.0499 -27.0499
   -16.6203 -16.6203 -15.4254 -15.4254 -15.2986 -15.2986 -15.2986 -15.2986
    -1.4555  -1.4555   0.7858   0.7858   0.7958   0.7958   0.7958   0.7958
     1.6234   1.6234   1.6235   1.6235   3.5409   3.5409   3.5410   3.5410
     3.5917   3.5917   4.0290   4.0290   4.5684   4.5684   4.5684   4.5685
    13.4653  13.4654  13.6345  13.6345  13.6345  13.6345  13.7855  13.7855
    13.7855  13.7855  14.1557  14.1557  14.2585  14.2585  14.2585  14.2585
    14.4025  14.4025  14.4025  14.4025  15.2663  15.2663  17.8921  17.8921
    18.3362  18.3362  18.6695  18.6695  18.6695  18.6695  19.3710  19.3710
    20.1669  20.1669  20.1670  20.1670  21.4205  21.4206  21.4206  21.4206
    23.5458  23.5458  23.9795  23.9795  23.9795  23.9795  24.9999  24.9999
    25.2603  25.2603  25.7974  25.7974  26.3691  26.3691  26.3692  26.3692
    26.6418  26.6420

          k = 0.0000 0.3558 0.0000 (  5787 PWs)   bands (ev):

   -60.1208 -60.1151 -60.0971 -60.0941 -27.1167 -27.1159 -27.1072 -27.1033
   -27.1031 -27.0946 -27.0769 -27.0680 -27.0653 -27.0597 -27.0558 -27.0480
   -16.5335 -16.2587 -15.7853 -15.6195 -15.5552 -15.3052 -15.2998 -15.0385
    -0.9411  -0.3267   0.0109   0.8610   0.9301   1.0995   1.1562   1.3274
     1.5674   1.9788   2.1772   2.2609   2.4084   2.5309   2.5827   3.2002
     3.2064   3.4077   3.7764   4.0175   4.0624   4.3317   4.3621   4.4903
    13.3719  13.4416  13.5407  13.5423  13.6034  13.6352  13.7258  13.7880
    13.8361  13.9158  13.9676  14.0590  14.0903  14.1595  14.2446  14.2669
    14.3767  14.4046  14.4311  14.4981  15.7027  16.9203  17.3981  17.4562
    18.8292  19.0439  19.1615  19.7246  19.8755  19.9347  20.3995  20.4261
    20.6070  20.9525  21.2152  21.3297  21.3784  21.6062  21.6576  21.8108
    22.1300  22.1893  22.5125  22.8234  23.4233  23.5978  23.6926  23.8369
    24.3961  24.4350  24.9314  25.3597  25.4835  25.7275  25.7447  25.8636
    26.0040  26.0876

          k = 0.0000 0.3558 0.1439 (  5804 PWs)   bands (ev):

   -60.1290 -60.1216 -60.1037 -60.0998 -27.1242 -27.1177 -27.1095 -27.1077
   -27.1039 -27.0971 -27.0837 -27.0804 -27.0645 -27.0623 -27.0572 -27.0490
   -16.5004 -16.3081 -15.7796 -15.7061 -15.4083 -15.3045 -15.3007 -15.0887
    -0.8991  -0.5420   0.3015   0.7932   0.9869   1.1957   1.2074   1.3165
     1.6031   1.6600   1.8218   2.0555   2.5845   2.7552   2.8827   3.1940
     3.2475   3.4530   3.6852   3.9193   4.0602   4.2832   4.4075   4.4836
    13.3936  13.4581  13.5302  13.5568  13.5870  13.5992  13.7399  13.8031
    13.8587  13.9039  13.9306  14.0842  14.1021  14.1632  14.2256  14.2815
    14.3748  14.3836  14.4093  14.4912  15.8715  16.6975  17.4509  17.5773
    18.8168  19.2674  19.2934  19.4300  19.6362  20.0129  20.2016  20.2949
    20.4810  20.8946  21.0588  21.2472  21.5694  21.5951  21.6706  22.0746
    22.1341  22.5724  22.6060  22.7527  23.5207  23.5978  23.9597  23.9689
    24.3592  24.5112  24.7312  25.2111  25.2950  25.5156  25.6874  25.8800
    26.0531  26.2390

          k = 0.0000 0.3558-0.2878 (  5816 PWs)   bands (ev):

   -60.1279 -60.1278 -60.1094 -60.1093 -27.1198 -27.1198 -27.1143 -27.1143
   -27.1011 -27.1011 -27.0876 -27.0875 -27.0640 -27.0640 -27.0573 -27.0573
   -16.4122 -16.4122 -15.7585 -15.7585 -15.3026 -15.3026 -15.2251 -15.2251
    -0.7676  -0.7676   0.6400   0.6400   1.2020   1.2020   1.2728   1.2728
     1.4750   1.4750   1.7518   1.7518   2.7922   2.7922   3.1248   3.1248
     3.4557   3.4557   3.6450   3.6450   4.1698   4.1698   4.4587   4.4587
    13.4666  13.4666  13.5040  13.5041  13.5821  13.5821  13.7936  13.7937
    13.8556  13.8556  14.0426  14.0426  14.1506  14.1506  14.1953  14.1953
    14.4014  14.4014  14.4363  14.4363  16.2675  16.2675  17.6087  17.6087
    18.9595  18.9595  19.4351  19.4351  19.6820  19.6820  20.2124  20.2125
    20.5745  20.5745  21.3108  21.3109  21.4024  21.4024  21.7783  21.7783
    22.6273  22.6273  23.0534  23.0534  23.2164  23.2165  24.2869  24.2869
    24.2975  24.2975  25.0656  25.0656  25.4466  25.4466  25.9106  25.9106
    26.1365  26.1366

          k =-0.4622-0.2669 0.0000 (  5800 PWs)   bands (ev):

   -60.1248 -60.1187 -60.1125 -60.0906 -27.1278 -27.1129 -27.1066 -27.1057
   -27.0952 -27.0935 -27.0888 -27.0809 -27.0669 -27.0647 -27.0610 -27.0440
   -16.4130 -16.1524 -15.9425 -15.6862 -15.6192 -15.3065 -15.3013 -15.0112
    -0.6135  -0.0265   0.0574   0.8886   0.8974   1.1585   1.5243   1.6977
     1.7758   1.8756   2.0424   2.1247   2.2553   2.3707   2.5263   2.6378
     2.7185   3.1716   3.6645   3.9333   4.0640   4.3524   4.4265   4.4761
    13.3921  13.4043  13.4707  13.5308  13.5455  13.6130  13.7433  13.7912
    13.8216  13.9370  13.9611  13.9680  14.0528  14.1242  14.2388  14.2580
    14.3644  14.4254  14.4329  14.5305  16.7866  16.9890  17.0749  17.5415
    19.1885  19.2023  19.7025  19.8958  20.1147  20.2218  20.4858  20.4917
    20.6291  20.7374  20.8070  20.8555  21.2446  21.8175  21.8406  21.8707
    21.9767  22.6073  23.2870  23.7706  23.7813  23.8285  24.0795  24.2744
    24.3072  24.3147  24.3568  24.3635  24.5291  24.9143  25.2680  25.3765
    25.9210  26.5327

          k =-0.4622-0.2669 0.1439 (  5822 PWs)   bands (ev):

   -60.1349 -60.1327 -60.1089 -60.1062 -27.1236 -27.1227 -27.1122 -27.1062
   -27.1054 -27.1033 -27.0984 -27.0891 -27.0687 -27.0676 -27.0575 -27.0506
   -16.3779 -16.1896 -15.9367 -15.8285 -15.4265 -15.3058 -15.3022 -15.0657
    -0.5788  -0.2735   0.3636   0.8439   0.9701   1.2267   1.5374   1.6312
     1.6535   1.6545   2.0430   2.0839   2.2660   2.3460   2.5786   2.6336
     2.9418   3.3103   3.5659   3.9205   4.0223   4.3647   4.3971   4.4687
    13.3937  13.4166  13.5072  13.5443  13.5508  13.5933  13.6917  13.7556
    13.7954  13.9381  14.0293  14.0653  14.0726  14.1364  14.1993  14.2407
    14.3683  14.4146  14.4337  14.4576  16.8865  17.0253  17.1502  17.3858
    19.1922  19.4692  19.4922  19.5677  20.0411  20.2086  20.3281  20.3530
    20.4401  20.8981  21.0671  21.1811  21.5428  21.6360  21.7008  21.7831
    22.3627  22.5430  22.9867  23.7598  23.8105  23.8701  23.9607  23.9691
    24.1385  24.3261  24.6442  24.7604  24.7690  24.9210  25.4439  25.4443
    25.9358  25.9809

          k =-0.4622-0.2669-0.2878 (  5804 PWs)   bands (ev):

[...]
     ethr =  1.00E-02,  avg # of iterations =  7.7

     total cpu time spent up to now is      973.9 secs

     total energy              =   -1644.59014378 Ry
     Harris-Foulkes estimate   =   -1683.67451141 Ry
     estimated scf accuracy    <      94.07539108 Ry

     iteration #  5     ecut=    40.00 Ry     beta=0.70
     CG style diagonalization
     ethr =  1.00E-02,  avg # of iterations =  4.7

     total cpu time spent up to now is      992.4 secs

     total energy              =   -1658.90772968 Ry
     Harris-Foulkes estimate   =   -1661.60423998 Ry
     estimated scf accuracy    <       5.91621656 Ry

     iteration #  6     ecut=    40.00 Ry     beta=0.70
     CG style diagonalization
     ethr =  3.36E-03,  avg # of iterations =  3.5

     total cpu time spent up to now is     1006.8 secs

     total energy              =   -1659.44341727 Ry
     Harris-Foulkes estimate   =   -1660.03261958 Ry
     estimated scf accuracy    <       0.93794683 Ry

     iteration #  7     ecut=    40.00 Ry     beta=0.70
     CG style diagonalization
     c_bands:  1 eigenvalues not converged
     ethr =  5.33E-04,  avg # of iterations =  4.6

     total cpu time spent up to now is     1026.0 secs

     total energy              =   -1659.67162560 Ry
     Harris-Foulkes estimate   =   -1659.76482986 Ry
     estimated scf accuracy    <       0.17496925 Ry

     iteration #  8     ecut=    40.00 Ry     beta=0.70
     CG style diagonalization
     c_bands:  1 eigenvalues not converged
     c_bands:  1 eigenvalues not converged
     c_bands:  1 eigenvalues not converged
     ethr =  9.94E-05,  avg # of iterations =  4.2

     total cpu time spent up to now is     1042.4 secs

     total energy              =   -1659.72316688 Ry
     Harris-Foulkes estimate   =   -1659.74177234 Ry
     estimated scf accuracy    <       0.04013606 Ry

     iteration #  9     ecut=    40.00 Ry     beta=0.70
     CG style diagonalization
     c_bands:  2 eigenvalues not converged
     ethr =  2.28E-05,  avg # of iterations =  4.0

     total cpu time spent up to now is     1057.7 secs

     total energy              =   -1659.72606518 Ry
     Harris-Foulkes estimate   =   -1659.73142103 Ry
     estimated scf accuracy    <       0.01031330 Ry

     iteration # 10     ecut=    40.00 Ry     beta=0.70
     CG style diagonalization
     c_bands:  2 eigenvalues not converged
     ethr =  5.86E-06,  avg # of iterations =  4.3

     total cpu time spent up to now is     1074.2 secs

     total energy              =   -1659.72949197 Ry
     Harris-Foulkes estimate   =   -1659.72965979 Ry
     estimated scf accuracy    <       0.00040350 Ry

     iteration # 11     ecut=    40.00 Ry     beta=0.70
     CG style diagonalization
     c_bands:  1 eigenvalues not converged
     ethr =  2.29E-07,  avg # of iterations =  4.7

     total cpu time spent up to now is     1092.1 secs

     total energy              =   -1659.72965024 Ry
     Harris-Foulkes estimate   =   -1659.72971237 Ry
     estimated scf accuracy    <       0.00013506 Ry

     iteration # 12     ecut=    40.00 Ry     beta=0.70
     CG style diagonalization
     ethr =  7.67E-08,  avg # of iterations =  3.5

     total cpu time spent up to now is     1104.8 secs

     End of self-consistent calculation

          k = 0.0000 0.0000 0.0000 (  7415 PWs)   bands (ev):

   -60.4051 -60.3873 -60.3775 -60.3715 -27.2809 -27.2770 -27.2701 -27.2640
   -27.2640 -27.2630 -27.2630 -27.2597 -27.2597 -27.2573 -27.2481 -27.2481
   -16.7344 -16.4497 -15.6123 -15.2914 -15.2913 -15.2858 -15.2857 -15.2612
    -1.7050  -1.0130  -0.1301   0.7175   0.7176   0.9167   0.9167   1.1270
     1.1271   1.6806   2.5092   2.5093   2.5291   2.5292   2.9572   3.9326
     3.9912   3.9991   4.0157   4.0157   4.4413   4.4413   4.5758   4.5758
    13.4909  13.5308  13.5309  13.6200  13.7599  13.7599  13.8330  13.8330
    13.8986  13.8987  14.0830  14.2104  14.2104  14.3748  14.3915  14.3915
    14.4260  14.4261  14.4498  14.4499  14.4872  16.1111  16.5402  17.7307
    17.9557  17.9557  18.9100  19.2135  19.3456  19.3456  19.4046  19.7540
    19.9483  19.9483  20.4241  20.4241  21.3947  21.3947  22.0143  22.1921
    22.1921  22.4451  22.4451  22.7317  24.1623  24.1624  24.5791  25.3212
    25.3854  26.0624  26.1625  26.1626  26.1936  26.1939  26.3904  26.6465
    26.6640  26.6685

          k = 0.0000 0.0000 0.1439 (  7361 PWs)   bands (ev):

   -60.3925 -60.3792 -60.3761 -60.3667 -27.2704 -27.2672 -27.2672 -27.2657
   -27.2570 -27.2570 -27.2568 -27.2509 -27.2508 -27.2508 -27.2408 -27.2408
   -16.7008 -16.5040 -15.5475 -15.3038 -15.2901 -15.2900 -15.2863 -15.2862
    -1.6462  -1.2042   0.1785   0.7312   0.7313   0.8474   0.8474   1.2806
     1.2807   1.3676   2.0232   2.0232   3.0369   3.0369   3.1905   3.8356
     3.8666   3.8666   3.9928   3.9985   4.4828   4.4828   4.5672   4.5672
    13.4643  13.5720  13.5721  13.5862  13.7528  13.7528  13.8060  13.8060
    13.8712  13.8713  14.1318  14.2361  14.2361  14.2518  14.3625  14.3625
    14.4325  14.4326  14.4478  14.4478  14.7554  15.7416  17.1002  17.7875
    18.1543  18.1543  18.6774  18.9407  19.1578  19.1578  19.4032  19.4162
    19.9969  19.9969  20.4038  20.4039  21.0829  21.0830  22.0379  22.0379
    22.7699  22.9303  22.9303  23.0387  24.4344  24.4345  24.5352  25.2332
    25.4385  25.4479  26.1165  26.1167  26.1744  26.2446  26.2446  26.6077
    26.6094  26.6935

          k = 0.0000 0.0000-0.2878 (  7306 PWs)   bands (ev):

   -60.3787 -60.3787 -60.3638 -60.3638 -27.2633 -27.2633 -27.2504 -27.2504
   -27.2503 -27.2503 -27.2455 -27.2455 -27.2438 -27.2438 -27.2438 -27.2438
   -16.6115 -16.6115 -15.4156 -15.4156 -15.2879 -15.2879 -15.2878 -15.2878
    -1.4716  -1.4716   0.7683   0.7683   0.7737   0.7737   0.7737   0.7737
     1.5991   1.5991   1.5992   1.5992   3.5096   3.5096   3.5097   3.5097
     3.5638   3.5638   3.9961   3.9961   4.5376   4.5376   4.5376   4.5376
    13.4973  13.4973  13.6701  13.6701  13.6701  13.6701  13.8211  13.8211
    13.8211  13.8211  14.1797  14.1797  14.2981  14.2981  14.2981  14.2981
    14.4417  14.4417  14.4417  14.4418  15.2408  15.2408  17.8642  17.8642
    18.3231  18.3231  18.6532  18.6532  18.6532  18.6532  19.3491  19.3491
    20.1558  20.1558  20.1559  20.1559  21.4063  21.4063  21.4063  21.4063
    23.4781  23.4781  23.9549  23.9549  23.9549  23.9549  24.9604  24.9605
    25.2127  25.2128  25.7639  25.7646  26.3248  26.3248  26.3249  26.3255
    26.6246  26.6248

          k = 0.0000 0.3558 0.0000 (  7357 PWs)   bands (ev):

   -60.3818 -60.3780 -60.3748 -60.3723 -27.2748 -27.2724 -27.2631 -27.2617
   -27.2606 -27.2592 -27.2531 -27.2497 -27.2454 -27.2449 -27.2414 -27.2353
   -16.5255 -16.2497 -15.7757 -15.6104 -15.5454 -15.2951 -15.2895 -15.0275
    -0.9574  -0.3464  -0.0076   0.8400   0.9054   1.0771   1.1334   1.3054
     1.5432   1.9534   2.1495   2.2342   2.3817   2.5039   2.5593   3.1763
     3.1805   3.3800   3.7463   3.9903   4.0248   4.2979   4.3313   4.4601
    13.4052  13.4759  13.5713  13.5772  13.6386  13.6660  13.7611  13.8238
    13.8685  13.9520  14.0044  14.0949  14.1282  14.1930  14.2824  14.3064
    14.4146  14.4435  14.4702  14.5367  15.6626  16.8883  17.3641  17.4186
    18.8115  19.0279  19.1467  19.7073  19.8521  19.9199  20.3802  20.4096
    20.5919  20.9363  21.1970  21.3096  21.3589  21.5815  21.6357  21.7896
    22.1074  22.1651  22.4815  22.7826  23.3933  23.5764  23.6752  23.8141
    24.3671  24.3832  24.9058  25.3025  25.4586  25.6676  25.7188  25.8373
    25.9610  26.0444

          k = 0.0000 0.3558 0.1439 (  7338 PWs)   bands (ev):

   -60.3790 -60.3772 -60.3723 -60.3685 -27.2706 -27.2675 -27.2604 -27.2593
   -27.2579 -27.2566 -27.2514 -27.2490 -27.2433 -27.2426 -27.2396 -27.2353
   -16.4922 -16.2992 -15.7698 -15.6967 -15.3982 -15.2940 -15.2900 -15.0778
    -0.9147  -0.5594   0.2813   0.7712   0.9648   1.1745   1.1847   1.2944
     1.5803   1.6371   1.7976   2.0314   2.5595   2.7326   2.8558   3.1677
     3.2219   3.4239   3.6564   3.8875   4.0321   4.2516   4.3769   4.4529
    13.4265  13.4918  13.5627  13.5918  13.6183  13.6344  13.7749  13.8389
    13.8925  13.9403  13.9639  14.1212  14.1402  14.1975  14.2647  14.3184
    14.4123  14.4218  14.4483  14.5304  15.8353  16.6634  17.4193  17.5402
    18.8001  19.2498  19.2787  19.4108  19.6179  19.9939  20.1826  20.2792
    20.4671  20.8809  21.0427  21.2274  21.5527  21.5757  21.6477  22.0529
    22.1117  22.5409  22.5803  22.7261  23.4968  23.5682  23.9375  23.9469
    24.3172  24.4626  24.7074  25.1708  25.2484  25.4921  25.6475  25.8522
    26.0164  26.1870

          k = 0.0000 0.3558-0.2878 (  7348 PWs)   bands (ev):

   -60.3809 -60.3809 -60.3704 -60.3704 -27.2671 -27.2671 -27.2626 -27.2626
   -27.2588 -27.2588 -27.2521 -27.2521 -27.2454 -27.2454 -27.2386 -27.2386
   -16.4036 -16.4036 -15.7489 -15.7489 -15.2922 -15.2922 -15.2146 -15.2146
    -0.7833  -0.7833   0.6192   0.6192   1.1801   1.1801   1.2505   1.2505
     1.4535   1.4535   1.7297   1.7297   2.7693   2.7693   3.0987   3.0987
     3.4278   3.4278   3.6150   3.6150   4.1391   4.1391   4.4277   4.4277
    13.4992  13.4992  13.5370  13.5370  13.6171  13.6171  13.8285  13.8285
    13.8916  13.8916  14.0765  14.0765  14.1891  14.1891  14.2303  14.2303
    14.4400  14.4400  14.4753  14.4753  16.2337  16.2337  17.5738  17.5739
    18.9430  18.9430  19.4161  19.4161  19.6653  19.6653  20.1965  20.1965
    20.5601  20.5601  21.2944  21.2944  21.3825  21.3825  21.7588  21.7589
    22.6018  22.6018  23.0253  23.0253  23.1889  23.1889  24.2560  24.2560
    24.2753  24.2753  25.0177  25.0179  25.4098  25.4098  25.8818  25.8820
    26.0870  26.0874

          k =-0.4622-0.2669 0.0000 (  7344 PWs)   bands (ev):

   -60.3830 -60.3775 -60.3701 -60.3687 -27.2722 -27.2659 -27.2648 -27.2606
   -27.2540 -27.2535 -27.2531 -27.2507 -27.2485 -27.2446 -27.2411 -27.2330
   -16.4050 -16.1431 -15.9326 -15.6767 -15.6097 -15.2957 -15.2911 -15.0001
    -0.6308  -0.0461   0.0389   0.8639   0.8799   1.1351   1.4982   1.6722
     1.7553   1.8530   2.0165   2.0981   2.2348   2.3431   2.5030   2.6152
     2.6916   3.1465   3.6364   3.9083   4.0275   4.3225   4.3930   4.4442
    13.4261  13.4328  13.5051  13.5647  13.5801  13.6487  13.7786  13.8239
    13.8561  13.9735  13.9966  14.0013  14.0904  14.1564  14.2780  14.2966
    14.4022  14.4643  14.4711  14.5698  16.7503  16.9439  17.0484  17.5001
    19.1700  19.1874  19.6836  19.8735  20.1004  20.2102  20.4621  20.4676
    20.6082  20.7236  20.7947  20.8388  21.2176  21.7989  21.8188  21.8542
    21.9535  22.5929  23.2536  23.7322  23.7531  23.8006  24.0444  24.2624
    24.2717  24.2880  24.3308  24.3404  24.4830  24.8864  25.2370  25.3292
    25.8972  26.4753

          k =-0.4622-0.2669 0.1439 (  7362 PWs)   bands (ev):

   -60.3828 -60.3802 -60.3740 -60.3712 -27.2744 -27.2744 -27.2661 -27.2616
   -27.2577 -27.2553 -27.2536 -27.2502 -27.2456 -27.2450 -27.2431 -27.2412
   -16.3700 -16.1807 -15.9272 -15.8193 -15.4165 -15.2954 -15.2917 -15.0547
    -0.5955  -0.2915   0.3446   0.8257   0.9472   1.2037   1.5122   1.6079
     1.6307   1.6330   2.0193   2.0581   2.2470   2.3219   2.5566   2.6128
     2.9156   3.2848   3.5381   3.8882   3.9938   4.3326   4.3669   4.4379
    13.4232  13.4505  13.5418  13.5789  13.5842  13.6284  13.7245  13.7902
    13.8311  13.9747  14.0629  14.1028  14.1065  14.1704  14.2381  14.2792
    14.4062  14.4534  14.4723  14.4953  16.8518  16.9848  17.1206  17.3428
    19.1753  19.4542  19.4715  19.5471  20.0234  20.1927  20.3146  20.3331
    20.4216  20.8761  21.0523  21.1620  21.5225  21.6205  21.6834  21.7620
    22.3373  22.5278  22.9571  23.7407  23.7805  23.8356  23.9306  23.9311
    24.1092  24.3051  24.6070  24.7344  24.7427  24.8874  25.3998  25.4120
    25.9102  25.9317

          k =-0.4622-0.2669-0.2878 (  7340 PWs)   bands (ev):

   -60.3782 -60.3782 -60.3702 -60.3702 -27.2669 -27.2668 -27.2622 -27.2622
   -27.2572 -27.2572 -27.2497 -27.2497 -27.2428 -27.2428 -27.2389 -27.2389
   -16.2781 -16.2781 -15.9006 -15.9006 -15.2932 -15.2932 -15.2054 -15.2054
    -0.4855  -0.4855   0.6500   0.6500   1.2139   1.2139   1.3928   1.3928
     1.5579   1.5579   2.0302   2.0302   2.2813   2.2813   2.6002   2.6002
     3.2715   3.2715   3.5928   3.5928   4.1762   4.1762   4.4145   4.4145
    13.4477  13.4477  13.5943  13.5943  13.5951  13.5951  13.6888  13.6888
    13.9265  13.9265  14.1586  14.1586  14.1653  14.1653  14.2253  14.2254
    14.4263  14.4263  14.4290  14.4290  17.0657  17.0657  17.1341  17.1341
    19.1711  19.1711  19.5851  19.5851  19.8731  19.8731  20.3409  20.3409
    20.9138  20.9138  21.0438  21.0438  21.4309  21.4309  22.0579  22.0579
    22.3564  22.3564  23.0061  23.0061  23.9759  23.9759  24.0178  24.0178
    24.0785  24.0785  24.8419  24.8420  25.1454  25.1456  25.2768  25.2769
    26.0336  26.0341

          k =-0.4622 0.0890 0.0000 (  7353 PWs)   bands (ev):

   -60.3792 -60.3766 -60.3743 -60.3735 -27.2714 -27.2684 -27.2635 -27.2580
   -27.2575 -27.2570 -27.2537 -27.2488 -27.2485 -27.2452 -27.2419 -27.2410
   -16.4060 -16.1412 -15.9345 -15.6734 -15.6099 -15.2965 -15.2933 -14.9999
    -0.5507   0.0065   0.0401   0.7415   0.8908   1.0736   1.0941   1.6557
     1.7954   1.8407   1.9916   2.2736   2.3699   2.4183   2.4268   2.6006
     3.1001   3.2665   3.7387   3.9118   3.9747   4.1524   4.1747   4.3832
    13.4596  13.4668  13.4910  13.5587  13.5676  13.7029  13.7338  13.8158
    13.8492  13.9409  13.9867  14.0008  14.0372  14.1241  14.2052  14.2589
    14.4764  14.4986  14.5275  14.6063  16.4682  17.1840  17.4187  17.4220
    19.2183  19.4984  19.5206  19.9413  20.0120  20.1267  20.3558  20.5769
    20.7212  20.8116  20.8891  21.1239  21.1900  21.4802  21.6627  21.9246
    22.2212  22.2213  22.8588  23.0936  23.1719  23.5849  23.7557  23.8118
    23.8749  24.1631  24.3315  24.9050  24.9575  25.0186  25.0523  25.3056
    26.3714  26.3905

          k =-0.4622 0.0890 0.1439 (  7351 PWs)   bands (ev):

   -60.3804 -60.3766 -60.3740 -60.3719 -27.2705 -27.2685 -27.2653 -27.2585
   -27.2575 -27.2545 -27.2533 -27.2500 -27.2469 -27.2455 -27.2422 -27.2397
   -16.3710 -16.1799 -15.9277 -15.8165 -15.4159 -15.2960 -15.2935 -15.0544
    -0.5186  -0.2381   0.3242   0.6782   0.9951   1.1203   1.1779   1.5599
     1.7243   1.7527   1.8398   1.9573   2.4077   2.4209   2.7263   2.8230
     3.1367   3.3090   3.6479   3.8151   4.0085   4.1710   4.1924   4.3344
    13.4515  13.4854  13.4953  13.5573  13.5693  13.7026  13.7385  13.8130
    13.8714  13.9381  14.0050  14.0357  14.0496  14.0829  14.2108  14.2451
    14.4548  14.4979  14.5208  14.5816  16.5848  17.1279  17.3992  17.4507
    19.2144  19.4063  19.7007  19.7496  19.9084  20.0896  20.4075  20.4953
    20.5296  20.7928  21.0417  21.1951  21.3854  21.4499  21.5782  22.0744
    22.1491  22.2583  22.6341  23.0333  23.2919  23.5145  23.7527  23.9468
    24.0927  24.3897  24.4751  24.6605  24.9519  25.0387  25.1922  25.3627
    25.9159  26.2321

          k =-0.4622 0.0890-0.2878 (  7354 PWs)   bands (ev):

   -60.3783 -60.3783 -60.3740 -60.3740 -27.2703 -27.2703 -27.2619 -27.2619
   -27.2574 -27.2574 -27.2507 -27.2507 -27.2481 -27.2481 -27.2405 -27.2405
   -16.2788 -16.2788 -15.8992 -15.8992 -15.2947 -15.2947 -15.2050 -15.2050
    -0.4180  -0.4180   0.5531   0.5531   1.1987   1.1987   1.3306   1.3306
     1.5439   1.5439   1.8467   1.8467   2.4212   2.4212   2.9345   2.9345
     3.3011   3.3011   3.5997   3.5997   4.1247   4.1247   4.2437   4.2437
    13.4602  13.4602  13.5431  13.5431  13.6142  13.6142  13.7951  13.7951
    13.9163  13.9163  14.0309  14.0309  14.1082  14.1082  14.1799  14.1799
    14.4550  14.4550  14.5497  14.5497  16.8605  16.8605  17.4681  17.4682
    19.2764  19.2764  19.5163  19.5163  20.2577  20.2577  20.2915  20.2915
    20.6673  20.6673  21.1227  21.1227  21.5267  21.5267  21.8255  21.8255
    22.0002  22.0002  22.9585  22.9585  23.5831  23.5831  23.6550  23.6550
    24.3973  24.3973  24.5413  24.5414  24.9261  24.9263  25.4630  25.4630
    26.0161  26.0165

     the Fermi energy is    22.1863 ev

!    total energy              =   -1659.72967800 Ry
     Harris-Foulkes estimate   =   -1659.72967982 Ry
     estimated scf accuracy    <       0.00000235 Ry

     The total energy is the sum of the following terms:

     one-electron contribution =    -243.05790010 Ry
     hartree contribution      =     241.25501856 Ry
     xc contribution           =    -178.85401275 Ry
     ewald contribution        =   -1478.51593566 Ry
     smearing contrib. (-TS)   =      -0.55684804 Ry

     convergence has been achieved in  12 iterations

     Forces acting on atoms (Ry/au):

     atom    1 type  1   force =     0.00000000    0.00000000    0.01240256
     atom    2 type  1   force =     0.00000000    0.00000000    0.01240256
     atom    3 type  1   force =     0.00000000    0.00000000   -0.01240256
     atom    4 type  1   force =     0.00000000    0.00000000   -0.01240256
     atom    5 type  2   force =     0.00000000    0.00000000    0.00000000
     atom    6 type  2   force =     0.00000000    0.00000000    0.00000000
     atom    7 type  2   force =     0.00000000   -0.00226454    0.00000000
     atom    8 type  2   force =     0.00196115   -0.00113227    0.00000000
     atom    9 type  2   force =    -0.00196115   -0.00113227    0.00000000
     atom   10 type  2   force =     0.00196115    0.00113227    0.00000000
     atom   11 type  2   force =    -0.00196115    0.00113227    0.00000000
     atom   12 type  2   force =     0.00000000    0.00226454    0.00000000

     Total force =     0.025418     Total SCF correction =     0.000000


     entering subroutine stress ...

          total   stress  (Ry/bohr**3)                   (kbar)     P=  228.33
   0.00156718   0.00000000   0.00000000        230.54      0.00      0.00
   0.00000000   0.00156718   0.00000000          0.00    230.54      0.00
   0.00000000   0.00000000   0.00152202          0.00      0.00    223.90


     Writing output data file Prototype-La-hP12-MgZn2.save
 
     init_run     :      4.96s CPU      6.04s WALL (       2 calls)
     electrons    :    900.26s CPU   1075.84s WALL (       5 calls)
     update_pot   :      2.86s CPU      4.17s WALL (       3 calls)
     forces       :      5.32s CPU      5.54s WALL (       5 calls)
     stress       :     14.06s CPU     14.45s WALL (       5 calls)

     Called by init_run:
     wfcinit      :      3.81s CPU      4.87s WALL (       2 calls)
     potinit      :      0.49s CPU      0.50s WALL (       2 calls)

     Called by electrons:
     c_bands      :    875.81s CPU   1019.89s WALL (      48 calls)
     sum_band     :     23.91s CPU     32.67s WALL (      48 calls)
     v_of_rho     :      0.11s CPU      0.14s WALL (      53 calls)
     mix_rho      :      0.11s CPU      0.15s WALL (      48 calls)

     Called by c_bands:
     init_us_2    :      1.87s CPU      2.26s WALL (    1296 calls)
     ccgdiagg     :    793.45s CPU    915.47s WALL (     651 calls)
     wfcrot       :     84.49s CPU    106.23s WALL (     663 calls)

     Called by *cgdiagg:
     h_psi        :    583.69s CPU    718.73s WALL (  339713 calls)
     cdiaghg      :      3.01s CPU      3.31s WALL (     663 calls)

     Called by h_psi:
     add_vuspsi   :    109.21s CPU    119.91s WALL (  339713 calls)

     General routines
     calbec       :    238.26s CPU    250.52s WALL (  678883 calls)
     fft          :      0.20s CPU      0.24s WALL (     235 calls)
     fftw         :    340.44s CPU    435.09s WALL (  879712 calls)
     davcio       :      0.75s CPU      2.39s WALL (    1872 calls)
 
     Parallel routines
     fft_scatter  :    133.33s CPU    175.40s WALL (  879947 calls)
 
     PWSCF        : 15m27.85s CPU    18m29.53s WALL

 
   This run was terminated on:   2:35:13  23Mar2018            

=------------------------------------------------------------------------------=
   JOB DONE.
=------------------------------------------------------------------------------=
