
     Program PWSCF v.5.0.2 starts on 22Mar2018 at  0:39:27 

     This program is part of the open-source Quantum ESPRESSO suite
     for quantum simulation of materials; please cite
         "P. Giannozzi et al., J. Phys.:Condens. Matter 21 395502 (2009);
          URL http://www.quantum-espresso.org", 
     in publications or presentations arising from this work. More details at
     http://www.quantum-espresso.org/quote.php

     Parallel version (MPI), running on     4 processors
     R & G space division:  proc/nbgrp/npool/nimage =       4

     Current dimensions of program PWSCF are:
     Max number of different atomic species (ntypx) = 10
     Max number of k-points (npk) =  40000
     Max angular momentum in pseudopotentials (lmaxx) =  3
     Waiting for input...
     Reading input from standard input

     Subspace diagonalization in iterative solution of the eigenvalue problem:
     a serial algorithm will be used

 
     Parallelization info
     --------------------
     sticks:   dense  smooth     PW     G-vecs:    dense   smooth      PW
     Min         267     267     77                11587    11587    1762
     Max         268     268     79                11596    11596    1765
     Sum        1069    1069    313                46361    46361    7055
 


     bravais-lattice index     =            0
     lattice parameter (alat)  =       9.9235  a.u.
     unit-cell volume          =    1361.0366 (a.u.)^3
     number of atoms/cell      =           12
     number of atomic types    =            2
     number of electrons       =       176.00
     number of Kohn-Sham states=          106
     kinetic-energy cutoff     =      40.0000  Ry
     charge density cutoff     =     160.0000  Ry
     convergence threshold     =      1.0E-04
     mixing beta               =       0.7000
     number of iterations used =            8  plain     mixing
     Exchange-correlation      = SLA-PZ-NOGX-NOGC ( 1 1 0 0 0)
     EXX-fraction              =        0.00
     nstep                     =           50


     celldm(1)=   9.923489  celldm(2)=   0.000000  celldm(3)=   0.000000
     celldm(4)=   0.000000  celldm(5)=   0.000000  celldm(6)=   0.000000

     crystal axes: (cart. coord. in units of alat)
               a(1) = (   1.000000   0.000000   0.000000 )  
               a(2) = (  -0.500000   0.866025   0.000000 )  
               a(3) = (   0.000000   0.000000   1.608222 )  

     reciprocal axes: (cart. coord. in units 2 pi/alat)
               b(1) = (  1.000000  0.577350  0.000000 )  
               b(2) = (  0.000000  1.154701  0.000000 )  
               b(3) = (  0.000000  0.000000  0.621805 )  


     PseudoPot. # 1 for Ce read from file:
     /home/jld5415/pp.La/Ce.UPF
     MD5 check sum: 44451aa79a44a00cf2bc029dc19922f6
     Pseudo is Norm-conserving, Zval = 12.0
     Generated in analytical, separable form
     Using radial grid of 1255 points,  6 beta functions with: 
                l(1) =   0
                l(2) =   0
                l(3) =   1
                l(4) =   1
                l(5) =   2
                l(6) =   3

     PseudoPot. # 2 for Sm read from file:
     /home/jld5415/pp.La/Sm.UPF
     MD5 check sum: 5079e8b144a06bfcdbc14fb02b96ab09
     Pseudo is Norm-conserving, Zval = 16.0
     Generated in analytical, separable form
     Using radial grid of 1259 points,  6 beta functions with: 
                l(1) =   0
                l(2) =   0
                l(3) =   1
                l(4) =   1
                l(5) =   2
                l(6) =   3

     atomic species   valence    mass     pseudopotential
        Mg            12.00    24.30500     Ce( 1.00)
        Zn            16.00    65.39000     Sm( 1.00)

     24 Sym. Ops., with inversion, found (12 have fractional translation)



   Cartesian axes

     site n.     atom                  positions (alat units)
         1           Mg  tau(   1) = (  -0.0000005   0.5773506   0.1003820  )
         2           Mg  tau(   2) = (   0.5000005   0.2886748   0.9044931  )
         3           Mg  tau(   3) = (   0.5000005   0.2886748   1.5078402  )
         4           Mg  tau(   4) = (  -0.0000005   0.5773506   0.7037291  )
         5           Zn  tau(   5) = (   0.0000000   0.0000000   0.0000000  )
         6           Zn  tau(   6) = (   0.0000000   0.0000000   0.8041111  )
         7           Zn  tau(   7) = (   0.0000000   0.2950739   1.2061667  )
         8           Zn  tau(   8) = (   0.7444585   0.1475370   0.4020556  )
         9           Zn  tau(   9) = (   0.2555415   0.1475370   0.4020556  )
        10           Zn  tau(  10) = (   0.2444585   0.7184884   1.2061667  )
        11           Zn  tau(  11) = (  -0.2444585   0.7184884   1.2061667  )
        12           Zn  tau(  12) = (   0.5000000   0.5709515   0.4020556  )

     number of k points=    12  gaussian smearing, width (Ry)=  0.1000
                       cart. coord. in units 2pi/alat
        k(    1) = (   0.0000000   0.0000000   0.0000000), wk =   0.0833333
        k(    2) = (   0.0000000   0.0000000   0.1554512), wk =   0.1666667
        k(    3) = (   0.0000000   0.0000000  -0.3109023), wk =   0.0833333
        k(    4) = (   0.0000000   0.3849002   0.0000000), wk =   0.1666667
        k(    5) = (   0.0000000   0.3849002   0.1554512), wk =   0.3333333
        k(    6) = (   0.0000000   0.3849002  -0.3109023), wk =   0.1666667
        k(    7) = (  -0.5000000  -0.2886751   0.0000000), wk =   0.0833333
        k(    8) = (  -0.5000000  -0.2886751   0.1554512), wk =   0.1666667
        k(    9) = (  -0.5000000  -0.2886751  -0.3109023), wk =   0.0833333
        k(   10) = (  -0.5000000   0.0962250   0.0000000), wk =   0.1666667
        k(   11) = (  -0.5000000   0.0962250   0.1554512), wk =   0.3333333
        k(   12) = (  -0.5000000   0.0962250  -0.3109023), wk =   0.1666667

     Dense  grid:    46361 G-vectors     FFT dimensions: (  40,  40,  72)

     Largest allocated arrays     est. size (Mb)     dimensions
        Kohn-Sham Wavefunctions         2.39 Mb     (   1478,  106)
        NL pseudopotentials             5.41 Mb     (   1478,  240)
        Each V/rho on FFT grid          0.44 Mb     (  28800)
        Each G-vector array             0.09 Mb     (  11589)
        G-vector shells                 0.09 Mb     (  11589)
     Largest temporary arrays     est. size (Mb)     dimensions
        Each subspace H/S matrix        0.17 Mb     ( 106, 106)
        Each <psi_i|beta_j> matrix      0.39 Mb     (    240,  106)
        Arrays for rho mixing           3.52 Mb     (  28800,   8)

     Initial potential from superposition of free atoms

     Starting from uniform charge
     Starting wfc are    0 randomized atomic wfcs

     total cpu time spent up to now is        3.6 secs

     Self-consistent Calculation

     iteration #  1     ecut=    40.00 Ry     beta=0.70
     CG style diagonalization
     ethr =  1.00E-02,  avg # of iterations = 17.6

     total cpu time spent up to now is       93.7 secs

     total energy              =   -1029.16712284 Ry
     Harris-Foulkes estimate   =   -1855.03074717 Ry
     estimated scf accuracy    <    1002.28107841 Ry

     iteration #  2     ecut=    40.00 Ry     beta=0.70
     CG style diagonalization
     ethr =  1.00E-02,  avg # of iterations = 19.5

     total cpu time spent up to now is      187.2 secs

     total energy              =   -1071.97695537 Ry
     Harris-Foulkes estimate   =   -2080.03054792 Ry
     estimated scf accuracy    <    2328.65716450 Ry

     iteration #  3     ecut=    40.00 Ry     beta=0.70
     CG style diagonalization
     c_bands:  2 eigenvalues not converged
     c_bands:  1 eigenvalues not converged
     c_bands:  1 eigenvalues not converged
     ethr =  1.00E-02,  avg # of iterations = 12.1

     total cpu time spent up to now is      246.6 secs

     total energy              =   -1514.81626431 Ry
     Harris-Foulkes estimate   =   -1539.07554487 Ry
     estimated scf accuracy    <      48.86927706 Ry

     iteration #  4     ecut=    40.00 Ry     beta=0.70
     CG style diagonalization
     ethr =  1.00E-02,  avg # of iterations =  4.0

     total cpu time spent up to now is      266.3 secs

     total energy              =   -1517.67972834 Ry
     Harris-Foulkes estimate   =   -1524.06919692 Ry
     estimated scf accuracy    <      15.37774196 Ry

     iteration #  5     ecut=    40.00 Ry     beta=0.70
     CG style diagonalization
     ethr =  8.74E-03,  avg # of iterations =  3.5

     total cpu time spent up to now is      280.5 secs

     total energy              =   -1519.67827500 Ry
     Harris-Foulkes estimate   =   -1521.60189648 Ry
     estimated scf accuracy    <       4.79967049 Ry

     iteration #  6     ecut=    40.00 Ry     beta=0.70
     CG style diagonalization
     ethr =  2.73E-03,  avg # of iterations =  3.5

     total cpu time spent up to now is      296.6 secs

     total energy              =   -1520.26860804 Ry
     Harris-Foulkes estimate   =   -1520.66324133 Ry
     estimated scf accuracy    <       0.85899585 Ry

     iteration #  7     ecut=    40.00 Ry     beta=0.70
     CG style diagonalization
     ethr =  4.88E-04,  avg # of iterations =  4.4

     total cpu time spent up to now is      317.0 secs

     total energy              =   -1520.48436203 Ry
     Harris-Foulkes estimate   =   -1520.51264680 Ry
     estimated scf accuracy    <       0.07505309 Ry

     iteration #  8     ecut=    40.00 Ry     beta=0.70
     CG style diagonalization
     c_bands:  1 eigenvalues not converged
     c_bands:  1 eigenvalues not converged
     c_bands:  1 eigenvalues not converged
     c_bands:  1 eigenvalues not converged
     c_bands:  1 eigenvalues not converged
     ethr =  4.26E-05,  avg # of iterations =  4.9

     total cpu time spent up to now is      340.3 secs

     total energy              =   -1520.51285140 Ry
     Harris-Foulkes estimate   =   -1520.51707825 Ry
     estimated scf accuracy    <       0.00789010 Ry

     iteration #  9     ecut=    40.00 Ry     beta=0.70
     CG style diagonalization
     c_bands:  1 eigenvalues not converged
     c_bands:  1 eigenvalues not converged
     c_bands:  1 eigenvalues not converged
     ethr =  4.48E-06,  avg # of iterations =  4.9

     total cpu time spent up to now is      363.7 secs

     total energy              =   -1520.51648206 Ry
     Harris-Foulkes estimate   =   -1520.51722562 Ry
     estimated scf accuracy    <       0.00210622 Ry

     iteration # 10     ecut=    40.00 Ry     beta=0.70
     CG style diagonalization
     c_bands:  1 eigenvalues not converged
     ethr =  1.20E-06,  avg # of iterations =  3.7

     total cpu time spent up to now is      381.3 secs

     total energy              =   -1520.51684154 Ry
     Harris-Foulkes estimate   =   -1520.51693272 Ry
     estimated scf accuracy    <       0.00020420 Ry

     iteration # 11     ecut=    40.00 Ry     beta=0.70
     CG style diagonalization
     c_bands:  1 eigenvalues not converged
     ethr =  1.16E-07,  avg # of iterations =  4.3

     total cpu time spent up to now is      401.3 secs

     End of self-consistent calculation

          k = 0.0000 0.0000 0.0000 (  5769 PWs)   bands (ev):

   -29.9494 -29.7202 -29.3720 -29.1209 -29.0518 -29.0517 -29.0500 -29.0500
    -9.3391  -9.2821  -9.0135  -8.8514  -7.6919  -7.1397  -6.5395  -5.7266
    -5.7266  -5.5711  -5.5711  -5.4873  -5.4873  -4.8598  -4.5140  -4.5140
    -4.4571  -4.4570  -4.4429  -3.5027  -3.5011  -3.5010  -3.4681  -3.4665
    -3.2411  -3.2411  -3.1547  -3.1546   8.0660   8.1149   8.1149   8.1170
     8.1859   8.1860   9.1760   9.2690   9.3041   9.3041   9.3378   9.3378
    18.9499  19.8421  20.0611  20.9849  20.9849  21.6227  21.6227  22.0944
    22.0980  22.0980  22.4324  22.4324  22.4536  22.5636  22.9692  22.9693
    23.5849  24.2671  24.3985  24.3985  24.8375  24.8375  25.9444  26.0350
    26.0350  26.6538  27.0832  27.0832  27.2442  27.2442  27.5798  27.5988
    27.5988  27.6372  27.6372  27.9924  27.9924  28.1580  28.1587  28.3071
    28.7118  28.7119  28.7937  28.7937  28.8688  28.8688  30.1571  31.1298
    31.3762  31.3763  31.4162  31.4163  32.1947  32.1949  32.8501  32.8506
    33.9325  34.1655

          k = 0.0000 0.0000 0.1555 (  5780 PWs)   bands (ev):

   -29.9250 -29.7701 -29.3185 -29.1487 -29.0516 -29.0516 -29.0503 -29.0503
    -9.3363  -9.2975  -8.9858  -8.8729  -7.6389  -7.2861  -6.2940  -5.7207
    -5.7207  -5.6415  -5.6415  -5.3546  -5.3546  -5.2517  -4.8254  -4.8253
    -4.1428  -4.1427  -4.1267  -3.5987  -3.5986  -3.5715  -3.4694  -3.4690
    -3.2138  -3.2137  -3.1614  -3.1614   8.0916   8.1235   8.1253   8.1253
     8.1761   8.1761   9.1759   9.2354   9.3092   9.3092   9.3327   9.3327
    18.9977  19.4095  20.5339  21.0154  21.0154  21.4110  21.4110  21.6095
    22.1855  22.1855  22.3063  22.3063  22.7528  22.7940  23.3113  23.3113
    23.7148  24.1036  24.2324  24.2324  25.2561  25.2561  26.1163  26.1163
    26.1373  26.4907  26.8271  26.8271  27.0472  27.0472  27.3865  27.3866
    27.6531  27.6741  27.6741  27.7777  27.7778  27.8176  28.0608  28.2600
    28.2600  28.7995  29.0951  29.0951  29.5078  29.5078  29.6206  30.8054
    30.8054  31.4040  31.4041  31.6679  32.5879  32.5881  32.9518  32.9519
    33.0616  33.9663

          k = 0.0000 0.0000-0.3109 (  5780 PWs)   bands (ev):

   -29.8584 -29.8583 -29.2234 -29.2234 -29.0506 -29.0506 -29.0506 -29.0506
    -9.3228  -9.3228  -8.9266  -8.9266  -7.4919  -7.4919  -5.8113  -5.8113
    -5.6941  -5.6941  -5.6941  -5.6941  -5.1199  -5.1199  -5.1199  -5.1199
    -3.8321  -3.8321  -3.8321  -3.8321  -3.7850  -3.7850  -3.4667  -3.4667
    -3.1810  -3.1810  -3.1810  -3.1810   8.1241   8.1242   8.1513   8.1513
     8.1513   8.1513   9.1876   9.1877   9.3215   9.3215   9.3215   9.3215
    19.1290  19.1290  20.9838  20.9838  21.1463  21.1463  21.1463  21.1463
    22.2307  22.2307  22.2307  22.2307  23.3276  23.3276  23.5457  23.5457
    23.8632  23.8632  23.8632  23.8632  25.9497  25.9497  25.9497  25.9497
    26.2971  26.2971  26.6592  26.6592  26.6592  26.6592  27.4999  27.4999
    27.4999  27.5000  27.7545  27.7545  27.7545  27.7545  27.8487  27.8487
    28.2429  28.2429  29.7514  29.7514  29.7514  29.7515  30.4976  30.4977
    30.6955  30.6955  30.6955  30.6955  33.0863  33.0865  33.0866  33.0870
    33.4431  33.4435

          k = 0.0000 0.3849 0.0000 (  5787 PWs)   bands (ev):

   -29.8303 -29.5926 -29.3719 -29.3379 -29.1926 -29.0527 -29.0509 -28.9678
    -9.3081  -9.2112  -9.1098  -8.9397  -7.1583  -6.6074  -6.4671  -5.6451
    -5.5069  -5.4972  -5.4154  -5.3076  -5.0958  -4.7961  -4.7704  -4.6388
    -4.5754  -4.5274  -4.4537  -4.0260  -3.9864  -3.8738  -3.6398  -3.6205
    -3.4967  -3.3172  -3.3038  -3.2228   7.9042   8.1049   8.1526   8.1848
     8.3965   8.5559   8.9008   9.0433   9.3023   9.3101   9.3661   9.4537
    20.1806  20.5294  21.0312  21.4286  21.5461  21.8433  22.0553  22.2245
    22.3391  22.5911  22.6674  22.7453  22.7904  23.2989  23.5027  23.7931
    24.1837  24.2815  24.3555  24.3579  24.5996  24.6438  24.7033  24.8859
    25.2128  25.5835  25.6682  25.9152  25.9594  26.1957  26.6043  26.9921
    27.1498  27.3419  27.9339  27.9955  28.0023  28.0412  28.3694  28.4628
    28.5813  28.9438  29.4203  29.4827  29.4992  29.8215  29.9724  30.1713
    30.3476  30.5648  30.8820  31.3937  31.4281  31.4826  32.0099  32.2349
    33.0453  33.3249

          k = 0.0000 0.3849 0.1555 (  5804 PWs)   bands (ev):

   -29.8056 -29.6460 -29.3564 -29.3389 -29.1520 -29.0527 -29.0514 -28.9946
    -9.3037  -9.2452  -9.0661  -8.9555  -7.1176  -6.8095  -6.2017  -5.6843
    -5.5077  -5.4636  -5.3415  -5.3256  -5.1358  -5.0736  -4.9376  -4.7944
    -4.4250  -4.3346  -4.2272  -4.0017  -3.9952  -3.8517  -3.7023  -3.5854
    -3.5818  -3.3644  -3.2758  -3.2270   7.9540   8.1170   8.1571   8.1800
     8.3727   8.5085   8.9286   9.0345   9.3148   9.3181   9.3578   9.4264
    20.2121  20.3805  21.1881  21.4107  21.7357  21.8776  22.0814  22.2579
    22.3000  22.4160  22.5631  22.8204  22.9563  23.2620  23.4708  23.5196
    23.7857  23.9093  24.1511  24.4847  24.6233  24.8132  25.0825  25.1314
    25.4268  25.5700  25.6709  25.8820  26.0033  26.4880  26.5809  27.1626
    27.2826  27.3685  27.4915  27.7127  28.0450  28.1133  28.4492  28.5622
    28.6634  29.1242  29.2083  29.3430  29.7779  29.8041  29.9724  30.0034
    30.2973  30.5421  30.6154  31.1026  31.2828  31.4921  32.3351  32.4988
    32.9659  33.4998

          k = 0.0000 0.3849-0.3109 (  5816 PWs)   bands (ev):

   -29.7371 -29.7371 -29.3435 -29.3435 -29.0664 -29.0664 -29.0523 -29.0522
    -9.2848  -9.2848  -9.0013  -9.0012  -6.9987  -6.9986  -5.8722  -5.8722
    -5.4180  -5.4180  -5.3851  -5.3851  -5.1746  -5.1746  -4.9848  -4.9848
    -4.2743  -4.2743  -4.0482  -4.0482  -3.8625  -3.8625  -3.7503  -3.7503
    -3.4764  -3.4763  -3.2431  -3.2431   8.0634   8.0635   8.1687   8.1687
     8.4085   8.4086   8.9893   8.9893   9.3376   9.3376   9.3646   9.3647
    20.2694  20.2694  21.3212  21.3212  21.8957  21.8957  22.1803  22.1803
    22.3334  22.3334  22.7887  22.7887  23.0759  23.0759  23.3652  23.3652
    23.5834  23.5834  24.2426  24.2426  24.7939  24.7939  25.0239  25.0239
    25.6307  25.6307  26.2129  26.2129  26.2974  26.2974  26.9871  26.9871
    27.0007  27.0007  27.6383  27.6383  28.2396  28.2396  28.5142  28.5142
    28.7060  28.7060  29.2826  29.2826  29.7216  29.7216  30.0798  30.0798
    30.1531  30.1531  30.8774  30.8774  31.7081  31.7082  32.0808  32.0809
    33.0004  33.0007

          k =-0.5000-0.2887 0.0000 (  5800 PWs)   bands (ev):

   -29.7696 -29.5230 -29.4131 -29.3718 -29.2690 -29.0535 -29.0513 -28.9561
    -9.2810  -9.1689  -9.1593  -8.9891  -6.9167  -6.4385  -6.3275  -5.7570
    -5.5126  -5.5002  -5.1593  -5.0430  -4.9087  -4.8466  -4.7162  -4.6874
    -4.6687  -4.6119  -4.4560  -4.4092  -4.3912  -4.0634  -3.7151  -3.6953
    -3.4965  -3.3088  -3.2672  -3.2277   7.8995   8.0926   8.1416   8.2085
     8.4442   8.5642   8.8791   9.0389   9.3133   9.3329   9.3747   9.4580
    20.5150  20.5568  21.3963  21.6269  21.9303  22.1150  22.1261  22.2647
    22.3758  22.5430  22.5694  22.6654  23.5434  23.7445  23.9322  24.0452
    24.0856  24.3072  24.3329  24.3722  24.7000  24.7992  24.8153  24.9676
    25.1232  25.2098  25.2144  25.3726  25.3949  26.3938  26.6617  26.7785
    27.0222  27.0666  27.2055  27.6811  27.8098  27.8760  28.0999  28.3968
    28.5634  28.5906  28.6022  28.6390  28.9051  30.0977  30.4963  30.6140
    30.6231  30.7433  30.7589  30.9336  31.2473  31.4909  31.8747  32.5754
    33.0595  33.2843

          k =-0.5000-0.2887 0.1555 (  5822 PWs)   bands (ev):

   -29.7439 -29.5756 -29.4129 -29.3992 -29.1855 -29.0534 -29.0519 -28.9862
    -9.2790  -9.2262  -9.0932  -9.0002  -6.8798  -6.6084  -6.1282  -5.7916
    -5.4817  -5.4498  -5.1365  -5.1189  -5.0947  -4.9045  -4.7189  -4.7059
    -4.6670  -4.6343  -4.4235  -4.3931  -4.2196  -3.9738  -3.7628  -3.6317
    -3.5854  -3.3223  -3.2811  -3.2335   7.9594   8.1203   8.1506   8.1979
     8.3841   8.4939   8.9312   9.0548   9.3219   9.3314   9.3663   9.4284
    20.5276  20.5877  21.4278  21.7735  22.0270  22.1476  22.2569  22.2716
    22.3098  22.3309  22.6276  22.6373  23.2815  23.5453  23.7135  23.9677
    24.0664  24.1171  24.2366  24.5423  24.7108  24.7156  24.7814  24.9735
    25.0077  25.0527  25.4569  25.6180  26.1403  26.2702  26.6856  26.8707
    26.9224  27.3801  27.4999  27.6185  27.7462  27.8238  27.8280  27.9287
    28.2705  28.4330  29.3511  29.3696  29.4897  29.7245  30.0326  30.2368
    30.4104  30.5803  30.6740  31.1688  31.4178  31.6343  31.9017  32.5392
    33.1254  33.1264

          k =-0.5000-0.2887-0.3109 (  5804 PWs)   bands (ev):

   -29.6715 -29.6714 -29.4102 -29.4102 -29.0697 -29.0697 -29.0526 -29.0526
    -9.2641  -9.2640  -9.0344  -9.0342  -6.7730  -6.7730  -5.9131  -5.9131
    -5.3486  -5.3486  -5.3115  -5.3115  -5.0141  -5.0141  -4.7169  -4.7169
    -4.6559  -4.6559  -4.3973  -4.3973  -3.9513  -3.9513  -3.7736  -3.7736
    -3.4614  -3.4614  -3.2494  -3.2494   8.0893   8.0894   8.1738   8.1738
     8.3733   8.3733   9.0225   9.0225   9.3439   9.3439   9.3662   9.3663
    20.5900  20.5900  21.6190  21.6190  21.9637  21.9637  22.4362  22.4362
    22.4510  22.4510  22.7118  22.7118  23.1969  23.1969  23.5142  23.5142
    24.0229  24.0229  24.1057  24.1057  24.7808  24.7808  24.8399  24.8399
    25.3719  25.3719  25.7341  25.7341  26.4702  26.4702  26.6584  26.6585
    27.2141  27.2141  27.3017  27.3017  27.7661  27.7661  28.2421  28.2421
    28.3304  28.3304  29.5062  29.5062  29.7416  29.7416  29.9107  29.9107
    30.1563  30.1563  31.1181  31.1183  31.4117  31.4118  32.5027  32.5029
    32.6496  32.6503

          k =-0.5000 0.0962 0.0000 (  5827 PWs)   bands (ev):

   -29.7701 -29.5224 -29.4141 -29.3721 -29.2681 -29.0537 -29.0523 -28.9560
    -9.2789  -9.1625  -9.1611  -8.9968  -6.8708  -6.4380  -6.3244  -5.7840
    -5.5157  -5.5074  -5.4559  -5.0092  -4.9099  -4.8506  -4.7720  -4.6467
    -4.5799  -4.5448  -4.5073  -4.4577  -4.0630  -3.9590  -3.6654  -3.6473
    -3.5259  -3.4375  -3.4057  -3.2734   7.9275   8.0335   8.1030   8.1500
     8.5294   8.6850   8.8152   8.9705   9.3321   9.3329   9.4078   9.4684
    20.7360  20.8367  21.3652  21.7285  21.8808  21.9494  22.0046  22.2009
    22.4040  22.5977  22.7228  22.7512  23.0374  23.4572  23.6369  23.8236
    23.8398  24.2026  24.3388  24.3957  24.5020  24.8256  24.9247  25.0107
    25.0146  25.2550  25.2792  25.6982  26.1099  26.2315  26.4593  26.8158
    26.9138  26.9192  27.0950  27.3107  27.7310  27.9288  28.0363  28.3402
    28.9699  29.0016  29.2279  29.2914  29.8524  30.0189  30.0997  30.2828
    30.4812  30.8168  31.1762  31.4180  31.6671  31.6897  31.8331  32.3027
    32.4854  32.9160

          k =-0.5000 0.0962 0.1555 (  5825 PWs)   bands (ev):

   -29.7442 -29.5758 -29.4133 -29.3986 -29.1851 -29.0533 -29.0525 -28.9860
    -9.2766  -9.2230  -9.0929  -9.0058  -6.8384  -6.5944  -6.1395  -5.8251
    -5.4906  -5.4545  -5.3899  -5.0982  -5.0391  -4.9556  -4.8230  -4.8002
    -4.5505  -4.5367  -4.3125  -4.2692  -4.0357  -3.9313  -3.7139  -3.6487
    -3.5742  -3.4074  -3.4062  -3.3164   7.9737   8.0617   8.1247   8.1290
     8.4796   8.5865   8.8902   8.9871   9.3305   9.3508   9.3906   9.4469
    20.7507  20.8584  21.4013  21.7627  21.9965  22.0499  22.1485  22.1968
    22.3487  22.5098  22.5794  22.8191  23.0688  23.3003  23.4817  23.6853
    23.7429  23.9444  24.1101  24.2407  24.5136  24.6482  24.9442  25.1405
    25.3392  25.4318  25.6351  25.8009  26.1208  26.2632  26.4922  26.6665
    26.7289  27.0560  27.3782  27.4115  27.7311  28.1232  28.2808  28.5638
    28.6887  28.7430  29.2485  29.6356  29.7990  29.8176  29.9547  30.3801
    30.4773  30.7266  30.8459  31.1859  31.3753  31.7161  32.1614  32.5907
    32.6270  32.8794

          k =-0.5000 0.0962-0.3109 (  5824 PWs)   bands (ev):

   -29.6719 -29.6719 -29.4102 -29.4102 -29.0694 -29.0693 -29.0529 -29.0529
    -9.2617  -9.2616  -9.0370  -9.0369  -6.7442  -6.7442  -5.9425  -5.9425
    -5.3615  -5.3615  -5.3236  -5.3236  -5.1236  -5.1236  -4.8280  -4.8280
    -4.5394  -4.5394  -4.1651  -4.1651  -3.9259  -3.9259  -3.7726  -3.7726
    -3.4706  -3.4706  -3.3795  -3.3795   8.0627   8.0628   8.1251   8.1251
     8.4670   8.4671   8.9706   8.9707   9.3493   9.3494   9.3987   9.3988
    20.8280  20.8280  21.5586  21.5586  22.0598  22.0598  22.2750  22.2750
    22.5565  22.5565  22.7741  22.7742  23.0206  23.0206  23.2625  23.2626
    23.6678  23.6678  24.1214  24.1214  24.5927  24.5927  25.0642  25.0642
    25.4203  25.4203  25.8894  25.8895  26.2684  26.2684  26.6912  26.6913
    27.1417  27.1417  27.4369  27.4369  27.7038  27.7038  28.4520  28.4520
    28.8577  28.8577  29.5585  29.5585  29.7388  29.7388  29.9542  29.9542
    30.5217  30.5217  31.1233  31.1235  31.4851  31.4852  31.9528  31.9530
    32.7998  32.8002

     the Fermi energy is    28.5996 ev

!    total energy              =   -1520.51689662 Ry
     Harris-Foulkes estimate   =   -1520.51690895 Ry
     estimated scf accuracy    <       0.00001464 Ry

     The total energy is the sum of the following terms:

     one-electron contribution =      17.90164137 Ry
     hartree contribution      =     158.45617546 Ry
     xc contribution           =    -176.58849846 Ry
     ewald contribution        =   -1519.64122293 Ry
     smearing contrib. (-TS)   =      -0.64499206 Ry

     convergence has been achieved in  11 iterations

     Forces acting on atoms (Ry/au):

     atom    1 type  1   force =     0.00000000    0.00000000    0.03431409
     atom    2 type  1   force =     0.00000000    0.00000000    0.03431409
     atom    3 type  1   force =     0.00000000    0.00000000   -0.03431409
     atom    4 type  1   force =     0.00000000    0.00000000   -0.03431409
     atom    5 type  2   force =     0.00000000    0.00000000    0.00000000
     atom    6 type  2   force =     0.00000000    0.00000000    0.00000000
     atom    7 type  2   force =     0.00000000    0.02829467    0.00000000
     atom    8 type  2   force =    -0.02450391    0.01414734    0.00000000
     atom    9 type  2   force =     0.02450391    0.01414734    0.00000000
     atom   10 type  2   force =    -0.02450391   -0.01414734    0.00000000
     atom   11 type  2   force =     0.02450391   -0.01414734    0.00000000
     atom   12 type  2   force =     0.00000000   -0.02829467    0.00000000

     Total force =     0.097536     Total SCF correction =     0.000000


     entering subroutine stress ...

          total   stress  (Ry/bohr**3)                   (kbar)     P= 1064.43
   0.00727527   0.00000000   0.00000000       1070.23      0.00      0.00
   0.00000000   0.00727527   0.00000000          0.00   1070.23      0.00
   0.00000000   0.00000000   0.00715711          0.00      0.00   1052.85


     BFGS Geometry Optimization

     number of scf cycles    =   1
     number of bfgs steps    =   0

     enthalpy new            =   -1520.5168966179 Ry

     new trust radius        =       0.5000000000 bohr
     new conv_thr            =       0.0001000000 Ry

     new unit-cell volume =   1655.19413 a.u.^3 (   245.27446 Ang^3 )

CELL_PARAMETERS (alat=  9.92348860)
   1.067764947   0.000000000   0.000000000
  -0.533882474   0.924711570   0.000000000
   0.000000000   0.000000000   1.715433398

ATOMIC_POSITIONS (crystal)
Mg       0.333333000   0.666667000   0.063219084
Mg       0.666667000   0.333333000   0.563219084
Mg       0.666667000   0.333333000   0.936780916
Mg       0.333333000   0.666667000   0.436780916
Zn       0.000000000   0.000000000   0.000000000
Zn       0.000000000   0.000000000   0.500000000
Zn       0.170974332   0.341948664   0.750000000
Zn       0.829025668   0.170974332   0.250000000
Zn       0.341948664   0.170974332   0.250000000
Zn       0.658051336   0.829025668   0.750000000
Zn       0.170974332   0.829025668   0.750000000
Zn       0.829025668   0.658051336   0.250000000



     Writing output data file Prototype-La-hP12-MgZn2.save
     NEW-OLD atomic charge density approx. for the potential
     NEW k-points:
        k(    1) = (   0.0000000   0.0000000   0.0000000), wk =   0.0833333
        k(    2) = (   0.0000000   0.0000000   0.1457358), wk =   0.1666667
        k(    3) = (   0.0000000   0.0000000  -0.2914715), wk =   0.0833333
        k(    4) = (   0.0000000   0.3604728   0.0000000), wk =   0.1666667
        k(    5) = (   0.0000000   0.3604728   0.1457358), wk =   0.3333333
        k(    6) = (   0.0000000   0.3604728  -0.2914715), wk =   0.1666667
        k(    7) = (  -0.4682679  -0.2703546   0.0000000), wk =   0.0833333
        k(    8) = (  -0.4682679  -0.2703546   0.1457358), wk =   0.1666667
        k(    9) = (  -0.4682679  -0.2703546  -0.2914715), wk =   0.0833333
        k(   10) = (  -0.4682679   0.0901182   0.0000000), wk =   0.1666667
        k(   11) = (  -0.4682679   0.0901182   0.1457358), wk =   0.3333333
        k(   12) = (  -0.4682679   0.0901182  -0.2914715), wk =   0.1666667

     total cpu time spent up to now is      408.5 secs

     Self-consistent Calculation

     iteration #  1     ecut=    40.00 Ry     beta=0.70
     CG style diagonalization
     c_bands:  1 eigenvalues not converged
     c_bands:  1 eigenvalues not converged
     c_bands:  1 eigenvalues not converged
     ethr =  1.00E-06,  avg # of iterations = 20.8

     total cpu time spent up to now is      508.8 secs

     total energy              =   -1510.08619617 Ry
     Harris-Foulkes estimate   =   -1527.91777826 Ry
     estimated scf accuracy    <      22.37264305 Ry

     iteration #  2     ecut=    40.00 Ry     beta=0.70
     CG style diagonalization
     ethr =  1.00E-02,  avg # of iterations =  5.1

     total cpu time spent up to now is      533.5 secs

     total energy              =   -1503.45808106 Ry
     Harris-Foulkes estimate   =   -1541.57487181 Ry
     estimated scf accuracy    <     114.82751934 Ry

     iteration #  3     ecut=    40.00 Ry     beta=0.70
     CG style diagonalization
     ethr =  1.00E-02,  avg # of iterations =  4.7

     total cpu time spent up to now is      555.9 secs

     total energy              =   -1520.52248905 Ry
     Harris-Foulkes estimate   =   -1521.65616356 Ry
     estimated scf accuracy    <       2.33729030 Ry

     iteration #  4     ecut=    40.00 Ry     beta=0.70
     CG style diagonalization
     c_bands:  1 eigenvalues not converged
     c_bands:  1 eigenvalues not converged
     c_bands:  1 eigenvalues not converged
     ethr =  1.33E-03,  avg # of iterations =  4.4

     total cpu time spent up to now is      577.2 secs

     total energy              =   -1521.34366392 Ry
     Harris-Foulkes estimate   =   -1521.72160271 Ry
     estimated scf accuracy    <       1.11595284 Ry

     iteration #  5     ecut=    40.00 Ry     beta=0.70
     CG style diagonalization
     c_bands:  1 eigenvalues not converged
     c_bands:  1 eigenvalues not converged
     c_bands:  1 eigenvalues not converged
     ethr =  6.34E-04,  avg # of iterations =  3.6

     total cpu time spent up to now is      594.3 secs

     total energy              =   -1521.53786431 Ry
     Harris-Foulkes estimate   =   -1521.57675241 Ry
     estimated scf accuracy    <       0.09494303 Ry

     iteration #  6     ecut=    40.00 Ry     beta=0.70
     CG style diagonalization
     c_bands:  1 eigenvalues not converged
     c_bands:  1 eigenvalues not converged
     c_bands:  1 eigenvalues not converged
     c_bands:  1 eigenvalues not converged
     c_bands:  2 eigenvalues not converged
     c_bands:  4 eigenvalues not converged
     ethr =  5.39E-05,  avg # of iterations =  4.5

     total cpu time spent up to now is      618.9 secs

     total energy              =   -1521.56024597 Ry
     Harris-Foulkes estimate   =   -1521.56814001 Ry
     estimated scf accuracy    <       0.01517263 Ry

     iteration #  7     ecut=    40.00 Ry     beta=0.70
     CG style diagonalization
     c_bands:  1 eigenvalues not converged
     c_bands:  1 eigenvalues not converged
     c_bands:  1 eigenvalues not converged
     c_bands:  3 eigenvalues not converged
     ethr =  8.62E-06,  avg # of iterations =  4.5

     total cpu time spent up to now is      640.9 secs

     total energy              =   -1521.56732602 Ry
     Harris-Foulkes estimate   =   -1521.56899829 Ry
     estimated scf accuracy    <       0.00513778 Ry

     iteration #  8     ecut=    40.00 Ry     beta=0.70
     CG style diagonalization
     c_bands:  1 eigenvalues not converged
     c_bands:  1 eigenvalues not converged
     ethr =  2.92E-06,  avg # of iterations =  3.6

     total cpu time spent up to now is      657.5 secs

     total energy              =   -1521.56948764 Ry
     Harris-Foulkes estimate   =   -1521.56995950 Ry
     estimated scf accuracy    <       0.00103427 Ry

     iteration #  9     ecut=    40.00 Ry     beta=0.70
     CG style diagonalization
     ethr =  5.88E-07,  avg # of iterations =  3.7

     total cpu time spent up to now is      674.7 secs

     End of self-consistent calculation

          k = 0.0000 0.0000 0.0000 (  5769 PWs)   bands (ev):

   -34.9594 -34.8420 -34.7035 -34.5735 -34.5194 -34.5194 -34.5177 -34.5177
   -15.1136 -15.0633 -14.9546 -14.8835 -11.6180 -11.2697 -10.8802 -10.4022
   -10.4022 -10.3094 -10.3094 -10.2657 -10.2657  -9.9330  -9.7127  -9.7127
    -9.6957  -9.6644  -9.6644  -9.1324  -9.1324  -9.1134  -9.1047  -9.0986
    -8.9663  -8.9663  -8.9063  -8.9062   2.7120   2.7235   2.7689   2.7689
     2.7798   2.7799   3.3679   3.4035   3.4035   3.4146   3.4465   3.4465
    15.1603  15.8794  16.1049  16.8449  16.8449  16.9755  17.3840  17.3840
    17.5856  17.7060  17.7060  17.9569  18.0398  18.0399  18.5450  18.5450
    18.6169  19.1318  19.5086  19.5086  19.6880  19.6880  20.1197  20.7726
    20.7726  21.2449  21.8271  21.8271  21.9217  21.9217  22.0774  22.0774
    22.1443  22.2014  22.2014  22.2096  22.5445  22.5565  22.5565  22.7060
    22.8016  22.8016  23.0134  23.0134  23.1364  23.1364  23.8444  24.6405
    24.9304  24.9305  25.1669  25.1670  25.7047  25.7048  26.3897  26.3897
    26.9201  26.9321

          k = 0.0000 0.0000 0.1457 (  5780 PWs)   bands (ev):

   -34.9469 -34.8691 -34.6726 -34.5894 -34.5201 -34.5201 -34.5186 -34.5186
   -15.1088 -15.0748 -14.9401 -14.8917 -11.5863 -11.3602 -10.7427 -10.3995
   -10.3994 -10.3517 -10.3517 -10.1885 -10.1885 -10.1478  -9.8858  -9.8858
    -9.5107  -9.4956  -9.4956  -9.1855  -9.1854  -9.1575  -9.1070  -9.1040
    -8.9501  -8.9501  -8.9133  -8.9133   2.7208   2.7308   2.7715   2.7715
     2.7770   2.7770   3.3647   3.3995   3.4095   3.4095   3.4393   3.4393
    15.2091  15.5747  16.4572  16.8787  16.8787  17.1936  17.2019  17.2019
    17.2575  17.8556  17.8556  18.0269  18.0269  18.0728  18.6390  18.6390
    18.6414  18.7123  19.1894  19.1894  20.1611  20.1611  20.6657  20.8666
    20.8666  21.2058  21.5785  21.5785  21.6621  21.6621  21.9195  22.0563
    22.0563  22.2206  22.2206  22.2539  22.3695  22.3696  22.4903  22.5811
    22.5811  22.9220  23.1759  23.1759  23.5276  23.6973  23.6974  24.6098
    24.6098  25.1385  25.1386  25.2123  25.9520  25.9525  26.3943  26.3959
    26.9220  26.9298

          k = 0.0000 0.0000-0.2915 (  5780 PWs)   bands (ev):

   -34.9151 -34.9151 -34.6279 -34.6279 -34.5171 -34.5171 -34.5171 -34.5171
   -15.0947 -15.0946 -14.9132 -14.9132 -11.4919 -11.4919 -10.4749 -10.4749
   -10.3803 -10.3803 -10.3803 -10.3802 -10.0518 -10.0518 -10.0518 -10.0518
    -9.3179  -9.3179  -9.3179  -9.3179  -9.3005  -9.3005  -9.1009  -9.1009
    -8.9296  -8.9296  -8.9296  -8.9296   2.7331   2.7332   2.7747   2.7747
     2.7748   2.7748   3.3717   3.3718   3.4254   3.4254   3.4254   3.4254
    15.3396  15.3396  16.8180  16.8180  16.9938  16.9938  16.9938  16.9938
    17.7740  17.7740  17.9807  17.9807  17.9807  17.9807  18.5356  18.5356
    18.8821  18.8821  18.8821  18.8822  20.7757  20.7757  20.7757  20.7757
    21.1313  21.1313  21.3483  21.3483  21.3483  21.3483  22.1812  22.1812
    22.1812  22.1812  22.2212  22.2212  22.2389  22.2389  22.2389  22.2389
    22.3699  22.3699  23.7778  23.7778  23.7778  23.7778  24.3725  24.3725
    24.6529  24.6529  24.6529  24.6529  26.3345  26.3346  26.3350  26.3351
    26.9265  26.9266

          k = 0.0000 0.3605 0.0000 (  5787 PWs)   bands (ev):

   -34.9037 -34.7799 -34.7038 -34.6677 -34.5804 -34.5194 -34.5172 -34.4921
   -15.0888 -15.0281 -14.9947 -14.9209 -11.2778 -10.9496 -10.8444 -10.3756
   -10.3059 -10.2677 -10.2405 -10.1581 -10.0320  -9.8689  -9.8578  -9.7664
    -9.7465  -9.7208  -9.6606  -9.4132  -9.3811  -9.3228  -9.2109  -9.1749
    -9.1283  -9.0237  -9.0035  -8.9554   2.6096   2.7058   2.7364   2.7836
     2.8893   2.9754   3.1968   3.2872   3.4223   3.4426   3.4781   3.5238
    16.1038  16.5061  16.8441  17.2024  17.2415  17.5348  17.6381  17.8755
    17.9473  17.9977  18.0967  18.2321  18.2794  18.3529  18.6542  18.9911
    19.1469  19.2435  19.4475  19.4966  19.7100  19.7690  19.7789  19.9367
    20.0562  20.2682  20.3232  20.6694  20.6800  20.8098  21.2420  21.4356
    21.5676  21.6050  22.2887  22.4252  22.4976  22.5064  22.5333  22.7394
    22.9425  23.0763  23.4542  23.4735  23.5648  23.9179  23.9300  24.0333
    24.2265  24.5231  24.7499  25.1414  25.3023  25.3686  25.4402  25.6948
    26.4750  26.5018

          k = 0.0000 0.3605 0.1457 (  5804 PWs)   bands (ev):

   -34.8920 -34.8109 -34.6890 -34.6687 -34.5670 -34.5208 -34.5189 -34.5035
   -15.0844 -15.0475 -14.9736 -14.9274 -11.2560 -11.0682 -10.6968 -10.4073
   -10.2932 -10.2502 -10.1982 -10.1670 -10.0646 -10.0225  -9.9509  -9.8673
    -9.6573  -9.6017  -9.5360  -9.4047  -9.3864  -9.3118  -9.2465  -9.1816
    -9.1563  -9.0491  -8.9883  -8.9580   2.6327   2.7106   2.7422   2.7762
     2.8781   2.9473   3.2160   3.2811   3.4307   3.4482   3.4703   3.5084
    16.1395  16.3500  17.0004  17.1708  17.3651  17.5889  17.6906  17.8711
    17.8759  18.0143  18.0706  18.2104  18.3227  18.4570  18.6637  18.7942
    18.9867  19.0262  19.0730  19.2949  19.7036  19.8279  20.0142  20.1453
    20.2660  20.3543  20.5019  20.5965  20.6421  21.1329  21.3321  21.5809
    21.7098  21.7149  21.9295  22.1070  22.4327  22.4836  22.5205  22.6616
    22.8302  23.2355  23.3098  23.4171  23.8409  23.8494  23.9984  24.0083
    24.1816  24.5405  24.5970  24.9685  25.0415  25.2528  25.8535  26.0809
    26.5204  26.6885

          k = 0.0000 0.3605-0.2915 (  5816 PWs)   bands (ev):

   -34.8578 -34.8578 -34.6753 -34.6753 -34.5339 -34.5339 -34.5209 -34.5208
   -15.0704 -15.0703 -14.9462 -14.9461 -11.1859 -11.1859 -10.5163 -10.5163
   -10.2288 -10.2288 -10.2020 -10.2020 -10.0975 -10.0975  -9.9762  -9.9762
    -9.5657  -9.5657  -9.4242  -9.4242  -9.3349  -9.3349  -9.2675  -9.2675
    -9.1049  -9.1049  -8.9680  -8.9680   2.6850   2.6851   2.7592   2.7592
     2.8940   2.8941   3.2542   3.2543   3.4499   3.4499   3.4749   3.4750
    16.2171  16.2171  17.0991  17.0991  17.5698  17.5698  17.7991  17.7991
    17.9186  17.9186  18.1769  18.1769  18.5331  18.5331  18.6740  18.6740
    18.7702  18.7702  18.9043  18.9043  19.9063  19.9063  19.9445  19.9445
    20.4149  20.4149  20.8087  20.8087  21.0637  21.0638  21.6630  21.6630
    21.7282  21.7282  21.8959  21.8959  22.2404  22.2404  22.4010  22.4010
    23.0114  23.0114  23.4052  23.4052  23.8495  23.8495  24.0416  24.0416
    24.1986  24.1986  24.7700  24.7701  25.5522  25.5525  25.6596  25.6597
    26.5599  26.5601

          k =-0.4683-0.2704 0.0000 (  5800 PWs)   bands (ev):

   -34.8740 -34.7503 -34.7038 -34.7015 -34.6136 -34.5220 -34.5177 -34.4880
   -15.0726 -15.0160 -15.0078 -14.9422 -11.1260 -10.8281 -10.7943 -10.4514
   -10.3178 -10.2676 -10.0885 -10.0110  -9.9570  -9.8837  -9.8360  -9.8008
    -9.7561  -9.7482  -9.6671  -9.6662  -9.5877  -9.4296  -9.2418  -9.2307
    -9.1295  -9.0079  -8.9983  -8.9576   2.6045   2.6946   2.7252   2.7850
     2.9136   2.9969   3.1667   3.2735   3.4318   3.4583   3.4858   3.5280
    16.4230  16.5198  17.1365  17.4589  17.5155  17.7254  17.7573  17.9518
    17.9785  18.0935  18.1274  18.1884  18.8216  18.8876  18.9181  19.1378
    19.3515  19.3692  19.5648  19.5819  19.5959  19.7499  19.7797  19.8302
    19.8421  19.8571  20.0292  20.2244  20.3737  20.7743  21.0564  21.0574
    21.0722  21.3883  21.4616  22.2447  22.3772  22.3845  22.4160  22.7826
    22.8796  22.9423  23.0109  23.1027  23.1925  24.0677  24.2920  24.4392
    24.5027  24.6375  24.6492  24.7002  25.0801  25.2824  25.6298  25.8643
    26.4306  26.8636

          k =-0.4683-0.2704 0.1457 (  5822 PWs)   bands (ev):

   -34.8625 -34.7786 -34.7039 -34.7034 -34.5862 -34.5229 -34.5201 -34.5019
   -15.0694 -15.0386 -14.9839 -14.9470 -11.1067 -10.9458 -10.6649 -10.4713
   -10.2912 -10.2395 -10.0734 -10.0640 -10.0334  -9.9665  -9.8399  -9.8211
    -9.7586  -9.7548  -9.6321  -9.5927  -9.5465  -9.3896  -9.2801  -9.1879
    -9.1818  -9.0293  -8.9928  -8.9628   2.6323   2.7045   2.7325   2.7749
     2.8890   2.9517   3.2019   3.2778   3.4381   3.4587   3.4795   3.5116
    16.4505  16.4905  17.2143  17.5197  17.6109  17.6978  17.8414  17.8664
    17.9631  17.9984  18.1376  18.1981  18.7167  18.7876  19.0022  19.0163
    19.0794  19.3601  19.4358  19.4394  19.6658  19.6936  19.7794  19.8254
    19.9764  20.0348  20.2077  20.3666  20.4583  20.6796  20.8665  20.9931
    21.5791  21.5959  21.6380  22.0356  22.3146  22.3360  22.3677  22.5357
    22.5508  22.7875  23.4984  23.5725  23.6701  23.7471  23.8385  24.1655
    24.3104  24.5844  24.6547  24.9634  25.1549  25.2953  25.6426  26.0535
    26.5270  26.7999

          k =-0.4683-0.2704-0.2915 (  5804 PWs)   bands (ev):

   -34.8252 -34.8252 -34.7021 -34.7021 -34.5386 -34.5386 -34.5209 -34.5209
   -15.0582 -15.0581 -14.9611 -14.9610 -11.0458 -11.0458 -10.5418 -10.5418
   -10.1908 -10.1908 -10.1618 -10.1618 -10.0232 -10.0232  -9.8339  -9.8339
    -9.7551  -9.7551  -9.5993  -9.5993  -9.3869  -9.3869  -9.2859  -9.2859
    -9.0979  -9.0979  -8.9732  -8.9732   2.6902   2.6903   2.7536   2.7537
     2.8897   2.8898   3.2582   3.2582   3.4579   3.4579   3.4797   3.4797
    16.4778  16.4778  17.3828  17.3828  17.6325  17.6325  17.8892  17.8892
    18.0402  18.0402  18.3080  18.3080  18.6699  18.6699  18.7293  18.7293
    19.0285  19.0286  19.3577  19.3577  19.7397  19.7397  19.8021  19.8021
    20.2872  20.2872  20.4015  20.4015  20.5344  20.5344  20.9834  20.9834
    21.8259  21.8259  21.8912  21.8912  21.9892  21.9892  22.3854  22.3854
    22.7309  22.7309  23.6102  23.6103  23.8029  23.8029  24.0360  24.0361
    24.0686  24.0686  24.9732  24.9732  25.2839  25.2839  25.9459  25.9459
    26.3010  26.3011

          k =-0.4683 0.0901 0.0000 (  5827 PWs)   bands (ev):

   -34.8757 -34.7495 -34.7058 -34.7042 -34.6141 -34.5230 -34.5203 -34.4881
   -15.0720 -15.0168 -15.0068 -14.9435 -11.1005 -10.8282 -10.7889 -10.4686
   -10.3148 -10.2832 -10.2540  -9.9924  -9.9490  -9.9144  -9.8396  -9.7698
    -9.7574  -9.7000  -9.6942  -9.6730  -9.4281  -9.3704  -9.2180  -9.2014
    -9.1499  -9.0766  -9.0574  -9.0048   2.6197   2.6731   2.6983   2.7564
     2.9550   3.0502   3.1369   3.2373   3.4407   3.4601   3.5022   3.5242
    16.6141  16.6855  17.2115  17.3833  17.4777  17.6460  17.6897  17.8038
    17.9973  18.1516  18.1825  18.2699  18.3948  18.7128  18.9277  19.0747
    19.1054  19.1493  19.4118  19.4667  19.5707  19.7332  19.8063  19.9487
    19.9564  20.0167  20.1974  20.3959  20.6810  20.7464  20.9240  21.0836
    21.1335  21.5353  21.5832  21.5939  22.2675  22.2896  22.5315  22.6715
    23.1842  23.2366  23.3382  23.4620  23.8620  23.9454  24.0528  24.2027
    24.5519  24.6681  24.8851  25.1555  25.1794  25.4902  25.6279  25.8018
    25.8777  26.5755

          k =-0.4683 0.0901 0.1457 (  5825 PWs)   bands (ev):

   -34.8627 -34.7796 -34.7049 -34.7036 -34.5860 -34.5217 -34.5203 -34.5013
   -15.0688 -15.0383 -14.9840 -14.9480 -11.0812 -10.9330 -10.6724 -10.4947
   -10.2839 -10.2522 -10.2230 -10.0447 -10.0088  -9.9659  -9.9027  -9.8803
    -9.7103  -9.6805  -9.5847  -9.5673  -9.4150  -9.3597  -9.2542  -9.2096
    -9.1610  -9.0627  -9.0595  -9.0228   2.6436   2.6879   2.7081   2.7425
     2.9329   2.9945   3.1838   3.2447   3.4521   3.4593   3.4923   3.5120
    16.6376  16.6622  17.2150  17.4259  17.6096  17.6979  17.7752  17.8057
    17.9480  18.0660  18.0850  18.3022  18.5027  18.6048  18.8754  18.9278
    18.9589  19.1199  19.2005  19.3447  19.4503  19.7549  19.9219  19.9741
    20.0546  20.2614  20.3071  20.5116  20.6019  20.8298  20.8453  21.1839
    21.2960  21.3471  21.7588  21.9229  22.0360  22.3729  22.5685  22.7765
    22.8522  23.0022  23.4290  23.7395  23.8075  23.8584  23.9451  24.2964
    24.4873  24.6030  24.7777  24.9723  25.1365  25.3136  25.7334  26.1094
    26.2297  26.3576

          k =-0.4683 0.0901-0.2915 (  5824 PWs)   bands (ev):

   -34.8272 -34.8272 -34.7041 -34.7041 -34.5378 -34.5378 -34.5208 -34.5208
   -15.0578 -15.0577 -14.9617 -14.9616 -11.0247 -11.0247 -10.5611 -10.5611
   -10.2036 -10.2036 -10.1695 -10.1695 -10.0666 -10.0666  -9.9046  -9.9046
    -9.6886  -9.6886  -9.4945  -9.4945  -9.3656  -9.3656  -9.2851  -9.2851
    -9.1036  -9.1036  -9.0471  -9.0471   2.6929   2.6930   2.7170   2.7170
     2.9309   2.9310   3.2340   3.2341   3.4685   3.4685   3.4827   3.4827
    16.6549  16.6549  17.3037  17.3037  17.7246  17.7246  17.8362  17.8362
    18.0749  18.0749  18.2450  18.2450  18.4724  18.4724  18.6590  18.6590
    18.8883  18.8883  19.2776  19.2776  19.5389  19.5390  20.0450  20.0450
    20.1808  20.1808  20.4808  20.4808  20.7111  20.7112  21.3216  21.3216
    21.4852  21.4852  21.7284  21.7284  22.1836  22.1836  22.4567  22.4567
    22.9084  22.9084  23.7371  23.7371  23.8537  23.8537  24.0042  24.0042
    24.4592  24.4592  24.9380  24.9380  25.2086  25.2086  25.7424  25.7424
    26.3168  26.3173

     the Fermi energy is    22.8532 ev

!    total energy              =   -1521.56959970 Ry
     Harris-Foulkes estimate   =   -1521.56966877 Ry
     estimated scf accuracy    <       0.00008264 Ry

     The total energy is the sum of the following terms:

     one-electron contribution =    -111.16141729 Ry
     hartree contribution      =     187.00861246 Ry
     xc contribution           =    -172.59225606 Ry
     ewald contribution        =   -1424.05077947 Ry
     smearing contrib. (-TS)   =      -0.77375935 Ry

     convergence has been achieved in   9 iterations

     Forces acting on atoms (Ry/au):

     atom    1 type  1   force =     0.00000000    0.00000000    0.01902532
     atom    2 type  1   force =     0.00000000    0.00000000    0.01902532
     atom    3 type  1   force =     0.00000000    0.00000000   -0.01902532
     atom    4 type  1   force =     0.00000000    0.00000000   -0.01902532
     atom    5 type  2   force =     0.00000000    0.00000000    0.00000000
     atom    6 type  2   force =     0.00000000    0.00000000    0.00000000
     atom    7 type  2   force =     0.00000000   -0.01559271    0.00000000
     atom    8 type  2   force =     0.01350368   -0.00779635    0.00000000
     atom    9 type  2   force =    -0.01350368   -0.00779635    0.00000000
     atom   10 type  2   force =     0.01350368    0.00779635    0.00000000
     atom   11 type  2   force =    -0.01350368    0.00779635    0.00000000
     atom   12 type  2   force =     0.00000000    0.01559271    0.00000000

     Total force =     0.053913     Total SCF correction =     0.000000


     entering subroutine stress ...

          total   stress  (Ry/bohr**3)                   (kbar)     P=  109.63
   0.00075166   0.00000000   0.00000000        110.57      0.00      0.00
   0.00000000   0.00075166   0.00000000          0.00    110.57      0.00
   0.00000000   0.00000000   0.00073248          0.00      0.00    107.75


     number of scf cycles    =   2
     number of bfgs steps    =   1

     enthalpy old            =   -1520.5168966179 Ry
     enthalpy new            =   -1521.5695997016 Ry

     CASE: enthalpy_new < enthalpy_old

     small trust_radius: resetting bfgs history

     new trust radius        =       0.1529031521 bohr
     new conv_thr            =       0.0000190253 Ry

     new unit-cell volume =   1749.44573 a.u.^3 (   259.24111 Ang^3 )

CELL_PARAMETERS (alat=  9.92348860)
   1.087829877   0.000000000   0.000000000
  -0.543914938   0.942088308   0.000000000
   0.000000000   0.000000000   1.746846536

ATOMIC_POSITIONS (crystal)
Mg       0.333333000   0.666667000   0.064336703
Mg       0.666667000   0.333333000   0.564336703
Mg       0.666667000   0.333333000   0.935663297
Mg       0.333333000   0.666667000   0.435663297
Zn       0.000000000   0.000000000   0.000000000
Zn       0.000000000   0.000000000   0.500000000
Zn       0.170124720   0.340249440   0.750000000
Zn       0.829875280   0.170124720   0.250000000
Zn       0.340249440   0.170124720   0.250000000
Zn       0.659750560   0.829875280   0.750000000
Zn       0.170124720   0.829875280   0.750000000
Zn       0.829875280   0.659750560   0.250000000



     Writing output data file Prototype-La-hP12-MgZn2.save
     NEW-OLD atomic charge density approx. for the potential
     NEW k-points:
        k(    1) = (   0.0000000   0.0000000   0.0000000), wk =   0.0833333
        k(    2) = (   0.0000000   0.0000000   0.1431150), wk =   0.1666667
        k(    3) = (   0.0000000   0.0000000  -0.2862301), wk =   0.0833333
        k(    4) = (   0.0000000   0.3538239   0.0000000), wk =   0.1666667
        k(    5) = (   0.0000000   0.3538239   0.1431150), wk =   0.3333333
        k(    6) = (   0.0000000   0.3538239  -0.2862301), wk =   0.1666667
        k(    7) = (  -0.4596307  -0.2653679   0.0000000), wk =   0.0833333
        k(    8) = (  -0.4596307  -0.2653679   0.1431150), wk =   0.1666667
        k(    9) = (  -0.4596307  -0.2653679  -0.2862301), wk =   0.0833333
        k(   10) = (  -0.4596307   0.0884560   0.0000000), wk =   0.1666667
        k(   11) = (  -0.4596307   0.0884560   0.1431150), wk =   0.3333333
        k(   12) = (  -0.4596307   0.0884560  -0.2862301), wk =   0.1666667

     total cpu time spent up to now is      682.6 secs

     Self-consistent Calculation

     iteration #  1     ecut=    40.00 Ry     beta=0.70
     CG style diagonalization
     c_bands:  3 eigenvalues not converged
     c_bands:  5 eigenvalues not converged
     c_bands:  3 eigenvalues not converged
     c_bands:  4 eigenvalues not converged
     c_bands:  3 eigenvalues not converged
     c_bands:  1 eigenvalues not converged
     ethr =  1.00E-06,  avg # of iterations = 14.3

     total cpu time spent up to now is      753.0 secs

     total energy              =   -1519.54101308 Ry
     Harris-Foulkes estimate   =   -1522.33673478 Ry
     estimated scf accuracy    <       3.38928249 Ry

     iteration #  2     ecut=    40.00 Ry     beta=0.70
     CG style diagonalization
     c_bands:  1 eigenvalues not converged
     ethr =  1.93E-03,  avg # of iterations =  4.7

     total cpu time spent up to now is      775.2 secs

     total energy              =   -1517.09055453 Ry
     Harris-Foulkes estimate   =   -1526.31766388 Ry
     estimated scf accuracy    <      33.95908161 Ry

     iteration #  3     ecut=    40.00 Ry     beta=0.70
     CG style diagonalization
     ethr =  1.93E-03,  avg # of iterations =  4.6

     total cpu time spent up to now is      796.7 secs

     total energy              =   -1521.41919216 Ry
     Harris-Foulkes estimate   =   -1521.57914438 Ry
     estimated scf accuracy    <       0.30322359 Ry

     iteration #  4     ecut=    40.00 Ry     beta=0.70
     CG style diagonalization
     c_bands:  1 eigenvalues not converged
     ethr =  1.72E-04,  avg # of iterations =  4.4

     total cpu time spent up to now is      817.3 secs

     total energy              =   -1521.54263671 Ry
     Harris-Foulkes estimate   =   -1521.58603904 Ry
     estimated scf accuracy    <       0.10520580 Ry

     iteration #  5     ecut=    40.00 Ry     beta=0.70
     CG style diagonalization
     c_bands:  1 eigenvalues not converged
     ethr =  5.98E-05,  avg # of iterations =  3.7

     total cpu time spent up to now is      833.6 secs

     total energy              =   -1521.56609640 Ry
     Harris-Foulkes estimate   =   -1521.57907999 Ry
     estimated scf accuracy    <       0.05199712 Ry

     iteration #  6     ecut=    40.00 Ry     beta=0.70
     CG style diagonalization
     c_bands:  1 eigenvalues not converged
     ethr =  2.95E-05,  avg # of iterations =  3.1

     total cpu time spent up to now is      847.4 secs

     total energy              =   -1521.56924822 Ry
     Harris-Foulkes estimate   =   -1521.57131054 Ry
     estimated scf accuracy    <       0.00532798 Ry

     iteration #  7     ecut=    40.00 Ry     beta=0.70
     CG style diagonalization
     ethr =  3.03E-06,  avg # of iterations =  4.5

     total cpu time spent up to now is      868.3 secs

     total energy              =   -1521.57140469 Ry
     Harris-Foulkes estimate   =   -1521.57222490 Ry
     estimated scf accuracy    <       0.00342582 Ry

     iteration #  8     ecut=    40.00 Ry     beta=0.70
     CG style diagonalization
     ethr =  1.95E-06,  avg # of iterations =  3.2

     total cpu time spent up to now is      882.3 secs

     total energy              =   -1521.57165756 Ry
     Harris-Foulkes estimate   =   -1521.57173054 Ry
     estimated scf accuracy    <       0.00039838 Ry

     iteration #  9     ecut=    40.00 Ry     beta=0.70
     CG style diagonalization
     ethr =  2.26E-07,  avg # of iterations =  3.8

     total cpu time spent up to now is      899.5 secs

     total energy              =   -1521.57173457 Ry
     Harris-Foulkes estimate   =   -1521.57174282 Ry
     estimated scf accuracy    <       0.00003092 Ry

     iteration # 10     ecut=    40.00 Ry     beta=0.70
     CG style diagonalization
     ethr =  1.76E-08,  avg # of iterations =  4.5

     total cpu time spent up to now is      919.7 secs

     End of self-consistent calculation

          k = 0.0000 0.0000 0.0000 (  5769 PWs)   bands (ev):

   -36.2521 -36.1489 -36.0582 -35.9405 -35.8951 -35.8951 -35.8925 -35.8925
   -16.6293 -16.5817 -16.5046 -16.4444 -12.6624 -12.3461 -12.0437 -11.6098
   -11.6098 -11.5273 -11.5273 -11.5077 -11.5077 -11.2137 -11.0294 -11.0294
   -11.0200 -10.9869 -10.9869 -10.5291 -10.5291 -10.5123 -10.5048 -10.5021
   -10.3928 -10.3928 -10.3371 -10.3371   1.2894   1.3021   1.3550   1.3550
     1.3768   1.3768   1.8727   1.8829   1.8829   1.9172   1.9246   1.9246
    14.1969  14.8814  15.0899  15.6921  15.7980  15.7980  16.3061  16.3061
    16.4927  16.5852  16.5852  16.8017  16.9123  16.9123  17.3902  17.4384
    17.4384  17.8331  18.3000  18.3000  18.4137  18.4137  18.7119  19.4316
    19.4316  19.8632  20.5197  20.5197  20.5506  20.5506  20.6955  20.6956
    20.7282  20.7964  20.7964  20.8269  21.1133  21.1526  21.1526  21.3235
    21.3307  21.3307  21.5502  21.5502  21.7100  21.7101  22.2666  23.0132
    23.3229  23.3229  23.5937  23.5937  24.1086  24.1086  24.7343  24.7343
    25.1090  25.1171

          k = 0.0000 0.0000 0.1431 (  5780 PWs)   bands (ev):

   -36.2412 -36.1749 -36.0276 -35.9559 -35.8959 -35.8959 -35.8940 -35.8940
   -16.6247 -16.5928 -16.4916 -16.4510 -12.6346 -12.4310 -11.9199 -11.6083
   -11.6083 -11.5688 -11.5688 -11.4363 -11.4363 -11.4002 -11.1783 -11.1783
   -10.8556 -10.8433 -10.8433 -10.5749 -10.5748 -10.5409 -10.5148 -10.5114
   -10.3781 -10.3781 -10.3444 -10.3444   1.2962   1.3077   1.3593   1.3594
     1.3719   1.3719   1.8704   1.8886   1.8886   1.9047   1.9176   1.9176
    14.2463  14.5981  15.4249  15.8310  15.8310  15.8898  16.1319  16.1319
    16.1859  16.7468  16.7468  16.8719  16.9238  16.9238  17.3273  17.4766
    17.4767  17.4852  17.9423  17.9423  18.9067  18.9068  19.3233  19.5413
    19.5413  19.8558  20.2590  20.2590  20.3096  20.3096  20.4892  20.6721
    20.6721  20.8245  20.8245  20.8652  20.9690  20.9690  21.0674  21.1691
    21.1691  21.4711  21.7141  21.7141  21.9992  22.2051  22.2051  23.0612
    23.0613  23.5563  23.5563  23.5800  24.3177  24.3178  24.7235  24.7245
    25.1101  25.1152

          k = 0.0000 0.0000-0.2862 (  5780 PWs)   bands (ev):

   -36.2153 -36.2153 -35.9904 -35.9904 -35.8916 -35.8916 -35.8916 -35.8916
   -16.6114 -16.6114 -16.4688 -16.4687 -12.5499 -12.5499 -11.6884 -11.6884
   -11.5911 -11.5911 -11.5911 -11.5911 -11.3192 -11.3192 -11.3192 -11.3192
   -10.6893 -10.6893 -10.6893 -10.6892 -10.6706 -10.6706 -10.5078 -10.5078
   -10.3603 -10.3602 -10.3602 -10.3602   1.3071   1.3072   1.3660   1.3660
     1.3660   1.3660   1.8786   1.8787   1.9046   1.9046   1.9047   1.9047
    14.3752  14.3752  15.7741  15.7741  15.9396  15.9396  15.9396  15.9396
    16.4312  16.4312  16.8910  16.8910  16.8910  16.8910  17.3320  17.3320
    17.6461  17.6461  17.6461  17.6461  19.4986  19.4986  19.4986  19.4986
    19.8392  19.8392  20.0091  20.0091  20.0091  20.0091  20.7201  20.7201
    20.7806  20.7806  20.7806  20.7806  20.8589  20.8589  20.8589  20.8589
    20.9649  20.9649  22.2833  22.2833  22.2833  22.2833  22.8314  22.8315
    23.1119  23.1119  23.1119  23.1119  24.6536  24.6536  24.6537  24.6537
    25.1131  25.1131

          k = 0.0000 0.3538 0.0000 (  5787 PWs)   bands (ev):

   -36.2119 -36.0972 -36.0587 -36.0108 -35.9426 -35.8946 -35.8918 -35.8790
   -16.6085 -16.5543 -16.5351 -16.4730 -12.3715 -12.0651 -12.0198 -11.5887
   -11.5412 -11.5086 -11.4663 -11.4038 -11.2852 -11.1481 -11.1450 -11.0697
   -11.0504 -11.0393 -10.9822 -10.7763 -10.7482 -10.7008 -10.5940 -10.5819
   -10.5248 -10.4345 -10.4250 -10.3837   1.2121   1.2818   1.3266   1.3738
     1.4583   1.5215   1.7206   1.7894   1.8994   1.9404   1.9534   1.9999
    15.0702  15.4635  15.7850  16.1085  16.1659  16.4428  16.5171  16.6910
    16.7478  16.8367  16.9852  17.1291  17.1386  17.1538  17.4844  17.8600
    17.8694  17.9771  18.2392  18.2825  18.4828  18.5224  18.5495  18.7529
    18.7684  18.9155  18.9827  19.3272  19.3535  19.5029  19.8693  20.0420
    20.1217  20.2199  20.9047  21.0007  21.0497  21.1033  21.1053  21.2990
    21.5306  21.6074  21.9319  22.0248  22.1145  22.4075  22.4383  22.5125
    22.6820  23.0122  23.1972  23.5698  23.7175  23.8145  23.8274  24.0407
    24.7454  24.8697

          k = 0.0000 0.3538 0.1431 (  5804 PWs)   bands (ev):

   -36.2023 -36.1307 -36.0378 -36.0118 -35.9346 -35.8967 -35.8941 -35.8879
   -16.6045 -16.5724 -16.5159 -16.4782 -12.3535 -12.1874 -11.8731 -11.6176
   -11.5253 -11.4937 -11.4348 -11.4126 -11.3250 -11.2792 -11.2260 -11.1546
   -10.9770 -10.9329 -10.8750 -10.7665 -10.7518 -10.6901 -10.6250 -10.5737
   -10.5630 -10.4586 -10.4116 -10.3858   1.2295   1.2861   1.3319   1.3661
     1.4480   1.4978   1.7374   1.7863   1.9077   1.9423   1.9462   1.9868
    15.1060  15.3149  15.9405  16.0921  16.2671  16.5006  16.5696  16.7431
    16.7555  16.7957  16.9030  17.0479  17.1803  17.2889  17.5031  17.5325
    17.8108  17.8364  17.8729  18.0164  18.4447  18.6315  18.7429  18.9023
    18.9580  19.0471  19.2289  19.2844  19.3104  19.7737  19.9881  20.1849
    20.2763  20.2941  20.5496  20.7518  20.9455  21.0746  21.0751  21.2214
    21.3797  21.7458  21.8319  21.9767  22.3372  22.3525  22.4913  22.5087
    22.6328  23.0138  23.0882  23.4185  23.4843  23.6777  24.2031  24.4614
    24.8877  24.9487

          k = 0.0000 0.3538-0.2862 (  5816 PWs)   bands (ev):

   -36.1729 -36.1729 -36.0204 -36.0204 -35.9114 -35.9114 -35.8969 -35.8969
   -16.5922 -16.5921 -16.4934 -16.4933 -12.2928 -12.2928 -11.7138 -11.7138
   -11.4685 -11.4685 -11.4476 -11.4476 -11.3525 -11.3525 -11.2444 -11.2444
   -10.9019 -10.9019 -10.7821 -10.7821 -10.7019 -10.7019 -10.6500 -10.6500
   -10.5119 -10.5119 -10.3939 -10.3938   1.2690   1.2691   1.3489   1.3489
     1.4557   1.4558   1.7683   1.7683   1.9263   1.9263   1.9605   1.9606
    15.1847  15.1847  16.0355  16.0355  16.4727  16.4727  16.6761  16.6761
    16.7941  16.7941  16.9775  16.9775  17.3790  17.3790  17.4452  17.4452
    17.5260  17.5261  17.7274  17.7274  18.6730  18.6730  18.6940  18.6940
    19.1082  19.1082  19.4780  19.4780  19.7423  19.7423  20.3217  20.3217
    20.3643  20.3643  20.5012  20.5012  20.7421  20.7421  20.9382  20.9382
    21.5504  21.5504  21.9251  21.9251  22.3768  22.3768  22.4877  22.4877
    22.7227  22.7227  23.2152  23.2152  23.9941  23.9941  24.0441  24.0441
    24.9312  24.9316

          k =-0.4596-0.2654 0.0000 (  5800 PWs)   bands (ev):

   -36.1906 -36.0730 -36.0587 -36.0338 -35.9707 -35.8986 -35.8922 -35.8770
   -16.5953 -16.5515 -16.5384 -16.4893 -12.2439 -12.0077 -11.9335 -11.6522
   -11.5517 -11.5078 -11.3218 -11.2864 -11.2210 -11.1635 -11.1065 -11.0820
   -11.0820 -11.0572 -10.9904 -10.9890 -10.9363 -10.7974 -10.6341 -10.6190
   -10.5262 -10.4292 -10.4143 -10.3850   1.2066   1.2733   1.3163   1.3730
     1.4785   1.5425   1.6918   1.7745   1.9093   1.9519   1.9592   2.0045
    15.3717  15.4882  16.0549  16.3384  16.3865  16.6104  16.6417  16.8222
    16.8710  16.9415  17.0184  17.1281  17.6239  17.6302  17.6878  17.8661
    18.1825  18.1963  18.2344  18.3689  18.4309  18.5031  18.5080  18.5743
    18.5769  18.6011  18.7600  18.9049  19.0806  19.3654  19.6065  19.6220
    19.6537  19.9331  20.1373  20.8675  20.9893  20.9973  21.0063  21.3416
    21.4256  21.4768  21.6370  21.6860  21.7794  22.6070  22.7431  22.8702
    22.9562  23.0435  23.1270  23.1830  23.5451  23.7256  24.0070  24.2015
    24.7380  25.1437

          k =-0.4596-0.2654 0.1431 (  5822 PWs)   bands (ev):

   -36.1817 -36.1071 -36.0440 -36.0366 -35.9534 -35.8998 -35.8959 -35.8884
   -16.5924 -16.5670 -16.5222 -16.4932 -12.2284 -12.0933 -11.8374 -11.6696
   -11.5284 -11.4841 -11.3342 -11.3116 -11.2951 -11.2305 -11.1110 -11.0963
   -11.0835 -11.0707 -10.9664 -10.9409 -10.8827 -10.7597 -10.6517 -10.5916
   -10.5736 -10.4433 -10.4157 -10.3902   1.2282   1.2801   1.3226   1.3629
     1.4582   1.5040   1.7212   1.7797   1.9145   1.9507   1.9542   1.9905
    15.3978  15.4526  16.1416  16.3945  16.4724  16.5871  16.7391  16.7414
    16.8550  16.8649  17.0286  17.0622  17.5391  17.5782  17.7454  17.8309
    17.8683  18.1536  18.1912  18.2796  18.3949  18.4295  18.5424  18.5620
    18.7325  18.7668  18.8686  19.0703  19.0787  19.2664  19.4907  19.5525
    20.1221  20.2201  20.2643  20.6739  20.9409  20.9429  20.9744  21.1018
    21.1448  21.3415  22.0481  22.1128  22.1580  22.2359  22.3700  22.6233
    22.7493  23.0803  23.1562  23.3927  23.5952  23.7093  24.0689  24.3812
    24.8777  25.0617

          k =-0.4596-0.2654-0.2862 (  5804 PWs)   bands (ev):

   -36.1484 -36.1484 -36.0362 -36.0362 -35.9174 -35.9174 -35.8970 -35.8970
   -16.5828 -16.5827 -16.5045 -16.5044 -12.1772 -12.1772 -11.7317 -11.7317
   -11.4372 -11.4372 -11.4178 -11.4178 -11.2708 -11.2708 -11.1053 -11.1053
   -11.0772 -11.0772 -10.9438 -10.9438 -10.7435 -10.7435 -10.6654 -10.6654
   -10.5052 -10.5052 -10.3989 -10.3988   1.2712   1.2713   1.3429   1.3429
     1.4567   1.4568   1.7681   1.7682   1.9331   1.9331   1.9663   1.9663
    15.4286  15.4286  16.3112  16.3112  16.5090  16.5090  16.7499  16.7499
    16.9001  16.9001  17.2024  17.2024  17.4910  17.4910  17.5086  17.5086
    17.8127  17.8127  18.1866  18.1867  18.4831  18.4831  18.5556  18.5556
    19.0055  19.0055  19.0495  19.0495  19.0985  19.0985  19.6055  19.6056
    20.4689  20.4689  20.5085  20.5085  20.6073  20.6073  20.9368  20.9368
    21.2938  21.2938  22.1186  22.1187  22.2779  22.2779  22.5431  22.5431
    22.5751  22.5752  23.4014  23.4014  23.7725  23.7725  24.2988  24.2988
    24.6873  24.6876

          k =-0.4596 0.0885 0.0000 (  5827 PWs)   bands (ev):

   -36.1930 -36.0720 -36.0616 -36.0374 -35.9716 -35.8999 -35.8962 -35.8770
   -16.5950 -16.5520 -16.5378 -16.4900 -12.2255 -12.0078 -11.9262 -11.6609
   -11.5494 -11.5224 -11.4843 -11.2683 -11.2074 -11.1806 -11.1282 -11.0751
   -11.0583 -11.0177 -11.0118 -11.0066 -10.7938 -10.7416 -10.6050 -10.6009
   -10.5451 -10.4894 -10.4715 -10.4211   1.2190   1.2645   1.2840   1.3495
     1.5111   1.5848   1.6675   1.7457   1.9145   1.9531   1.9764   1.9967
    15.5403  15.6338  16.1305  16.2751  16.3652  16.5373  16.5726  16.6868
    16.8872  16.9583  17.0915  17.1771  17.2194  17.5260  17.6308  17.8937
    17.9089  17.9811  18.1934  18.2533  18.3782  18.4450  18.5570  18.6735
    18.7054  18.7247  18.8853  19.0569  19.3214  19.3877  19.5450  19.6425
    19.7373  20.1081  20.2233  20.2680  20.8766  20.8803  21.1182  21.2514
    21.7314  21.7777  21.8745  21.9989  22.3403  22.4251  22.5507  22.6586
    23.0438  23.1521  23.3181  23.5552  23.5880  23.9409  24.0165  24.1788
    24.2147  24.7257

          k =-0.4596 0.0885 0.1431 (  5825 PWs)   bands (ev):

   -36.1819 -36.1089 -36.0455 -36.0371 -35.9530 -35.8979 -35.8960 -35.8876
   -16.5920 -16.5669 -16.5222 -16.4938 -12.2090 -12.0830 -11.8392 -11.6846
   -11.5206 -11.4949 -11.4611 -11.3100 -11.2774 -11.2363 -11.1686 -11.1554
   -11.0303 -11.0139 -10.9141 -10.9006 -10.7780 -10.7323 -10.6322 -10.6008
   -10.5639 -10.4764 -10.4729 -10.4384   1.2377   1.2766   1.2920   1.3370
     1.4927   1.5396   1.7066   1.7535   1.9253   1.9511   1.9686   1.9861
    15.5638  15.6053  16.1382  16.3245  16.4884  16.5835  16.6580  16.6850
    16.8399  16.9149  16.9647  17.1366  17.3641  17.4323  17.6593  17.7490
    17.7662  17.8675  18.0207  18.1437  18.2421  18.4932  18.6521  18.6771
    18.7672  18.9521  18.9833  19.1800  19.2383  19.4517  19.5107  19.8244
    19.9054  19.9798  20.3577  20.5198  20.6586  20.9508  21.1220  21.3159
    21.4111  21.5486  21.9668  22.2517  22.3054  22.3632  22.4172  22.7774
    22.9716  23.0543  23.2360  23.3974  23.5806  23.7169  24.1180  24.4786
    24.5810  24.7141

          k =-0.4596 0.0885-0.2862 (  5824 PWs)   bands (ev):

   -36.1515 -36.1515 -36.0392 -36.0392 -35.9164 -35.9164 -35.8967 -35.8967
   -16.5826 -16.5825 -16.5049 -16.5048 -12.1604 -12.1604 -11.7422 -11.7422
   -11.4518 -11.4518 -11.4194 -11.4194 -11.3261 -11.3261 -11.1701 -11.1700
   -11.0182 -11.0182 -10.8390 -10.8390 -10.7302 -10.7302 -10.6640 -10.6640
   -10.5112 -10.5112 -10.4638 -10.4638   1.2748   1.2749   1.3114   1.3114
     1.4896   1.4896   1.7479   1.7480   1.9469   1.9470   1.9624   1.9625
    15.5869  15.5869  16.2252  16.2252  16.6168  16.6168  16.7009  16.7009
    16.9258  16.9258  17.0988  17.0988  17.3346  17.3347  17.4907  17.4907
    17.6675  17.6675  18.0803  18.0803  18.2919  18.2920  18.7526  18.7526
    18.8845  18.8845  19.1347  19.1347  19.3597  19.3598  19.9549  19.9549
    20.1387  20.1387  20.3264  20.3264  20.7858  20.7858  20.9992  20.9993
    21.4131  21.4131  22.2258  22.2259  22.3727  22.3727  22.5024  22.5024
    22.9367  22.9367  23.3841  23.3841  23.6246  23.6246  24.1676  24.1679
    24.6565  24.6570

     the Fermi energy is    21.4120 ev

!    total energy              =   -1521.57174655 Ry
     Harris-Foulkes estimate   =   -1521.57174845 Ry
     estimated scf accuracy    <       0.00000229 Ry

     The total energy is the sum of the following terms:

     one-electron contribution =    -147.71590500 Ry
     hartree contribution      =     196.08000375 Ry
     xc contribution           =    -171.59775797 Ry
     ewald contribution        =   -1397.52222174 Ry
     smearing contrib. (-TS)   =      -0.81586559 Ry

     convergence has been achieved in  10 iterations

     Forces acting on atoms (Ry/au):

     atom    1 type  1   force =     0.00000000    0.00000000    0.01067506
     atom    2 type  1   force =     0.00000000    0.00000000    0.01067506
     atom    3 type  1   force =     0.00000000    0.00000000   -0.01067506
     atom    4 type  1   force =     0.00000000    0.00000000   -0.01067506
     atom    5 type  2   force =     0.00000000    0.00000000    0.00000000
     atom    6 type  2   force =     0.00000000    0.00000000    0.00000000
     atom    7 type  2   force =     0.00000000    0.01834102    0.00000000
     atom    8 type  2   force =    -0.01588379    0.00917051    0.00000000
     atom    9 type  2   force =     0.01588379    0.00917051    0.00000000
     atom   10 type  2   force =    -0.01588379   -0.00917051    0.00000000
     atom   11 type  2   force =     0.01588379   -0.00917051    0.00000000
     atom   12 type  2   force =     0.00000000   -0.01834102    0.00000000

     Total force =     0.049741     Total SCF correction =     0.000000


     entering subroutine stress ...

          total   stress  (Ry/bohr**3)                   (kbar)     P=  -87.12
  -0.00061493   0.00000000   0.00000000        -90.46      0.00      0.00
   0.00000000  -0.00061493   0.00000000          0.00    -90.46      0.00
   0.00000000   0.00000000  -0.00054677          0.00      0.00    -80.43


     number of scf cycles    =   3
     number of bfgs steps    =   2

     enthalpy old            =   -1521.5695997016 Ry
     enthalpy new            =   -1521.5717465511 Ry

     CASE: enthalpy_new < enthalpy_old

     Message from routine bfgs:
     history already reset at previous step: stopping
     small trust_radius: resetting bfgs history

     new trust radius        =       0.1286015916 bohr
     new conv_thr            =       0.0000183410 Ry

     new unit-cell volume =   1672.88599 a.u.^3 (   247.89612 Ang^3 )

CELL_PARAMETERS (alat=  9.92348860)
   1.071106380   0.000000000   0.000000000
  -0.535553190   0.927605335   0.000000000
   0.000000000   0.000000000   1.722968646

ATOMIC_POSITIONS (crystal)
Mg       0.333333000   0.666667000   0.064952519
Mg       0.666667000   0.333333000   0.564952519
Mg       0.666667000   0.333333000   0.935047481
Mg       0.333333000   0.666667000   0.435047481
Zn       0.000000000   0.000000000   0.000000000
Zn       0.000000000   0.000000000   0.500000000
Zn       0.171105648   0.342211297   0.750000000
Zn       0.828894352   0.171105648   0.250000000
Zn       0.342211297   0.171105648   0.250000000
Zn       0.657788703   0.828894352   0.750000000
Zn       0.171105648   0.828894352   0.750000000
Zn       0.828894352   0.657788703   0.250000000



     Writing output data file Prototype-La-hP12-MgZn2.save
     NEW-OLD atomic charge density approx. for the potential
     NEW k-points:
        k(    1) = (   0.0000000   0.0000000   0.0000000), wk =   0.0833333
        k(    2) = (   0.0000000   0.0000000   0.1450984), wk =   0.1666667
        k(    3) = (   0.0000000   0.0000000  -0.2901968), wk =   0.0833333
        k(    4) = (   0.0000000   0.3593482   0.0000000), wk =   0.1666667
        k(    5) = (   0.0000000   0.3593482   0.1450984), wk =   0.3333333
        k(    6) = (   0.0000000   0.3593482  -0.2901968), wk =   0.1666667
        k(    7) = (  -0.4668070  -0.2695112   0.0000000), wk =   0.0833333
        k(    8) = (  -0.4668070  -0.2695112   0.1450984), wk =   0.1666667
        k(    9) = (  -0.4668070  -0.2695112  -0.2901968), wk =   0.0833333
        k(   10) = (  -0.4668070   0.0898371   0.0000000), wk =   0.1666667
        k(   11) = (  -0.4668070   0.0898371   0.1450984), wk =   0.3333333
        k(   12) = (  -0.4668070   0.0898371  -0.2901968), wk =   0.1666667

     total cpu time spent up to now is      927.3 secs

     Self-consistent Calculation

     iteration #  1     ecut=    40.00 Ry     beta=0.70
     CG style diagonalization
     c_bands:  1 eigenvalues not converged
     c_bands:  2 eigenvalues not converged
     c_bands:  4 eigenvalues not converged
     c_bands:  2 eigenvalues not converged
     c_bands:  1 eigenvalues not converged
     c_bands:  4 eigenvalues not converged
     c_bands:  2 eigenvalues not converged
     ethr =  1.00E-06,  avg # of iterations = 12.0

     total cpu time spent up to now is      986.0 secs

     total energy              =   -1520.03407119 Ry
     Harris-Foulkes estimate   =   -1522.15490321 Ry
     estimated scf accuracy    <       2.54784111 Ry

     iteration #  2     ecut=    40.00 Ry     beta=0.70
     CG style diagonalization
     ethr =  1.45E-03,  avg # of iterations =  4.4

     total cpu time spent up to now is     1006.6 secs

     total energy              =   -1519.38595193 Ry
     Harris-Foulkes estimate   =   -1524.71805244 Ry
     estimated scf accuracy    <      16.29755299 Ry

     iteration #  3     ecut=    40.00 Ry     beta=0.70
     CG style diagonalization
     ethr =  1.45E-03,  avg # of iterations =  3.9

     total cpu time spent up to now is     1023.6 secs

     total energy              =   -1521.50632114 Ry
     Harris-Foulkes estimate   =   -1521.52937274 Ry
     estimated scf accuracy    <       0.03277093 Ry

     iteration #  4     ecut=    40.00 Ry     beta=0.70
     CG style diagonalization
     c_bands:  2 eigenvalues not converged
     c_bands:  1 eigenvalues not converged
     ethr =  1.86E-05,  avg # of iterations =  5.8

     total cpu time spent up to now is     1050.4 secs

     total energy              =   -1521.56065503 Ry
     Harris-Foulkes estimate   =   -1521.60656262 Ry
     estimated scf accuracy    <       0.16717672 Ry

     iteration #  5     ecut=    40.00 Ry     beta=0.70
     CG style diagonalization
     ethr =  1.86E-05,  avg # of iterations =  3.7

     total cpu time spent up to now is     1065.3 secs

     total energy              =   -1521.57988400 Ry
     Harris-Foulkes estimate   =   -1521.58241228 Ry
     estimated scf accuracy    <       0.00683087 Ry

     iteration #  6     ecut=    40.00 Ry     beta=0.70
     CG style diagonalization
     ethr =  3.88E-06,  avg # of iterations =  3.8

     total cpu time spent up to now is     1080.5 secs

     total energy              =   -1521.58069752 Ry
     Harris-Foulkes estimate   =   -1521.58117671 Ry
     estimated scf accuracy    <       0.00153794 Ry

     iteration #  7     ecut=    40.00 Ry     beta=0.70
     CG style diagonalization
     ethr =  8.74E-07,  avg # of iterations =  3.8

     total cpu time spent up to now is     1096.1 secs

     total energy              =   -1521.58101888 Ry
     Harris-Foulkes estimate   =   -1521.58108336 Ry
     estimated scf accuracy    <       0.00013585 Ry

     iteration #  8     ecut=    40.00 Ry     beta=0.70
     CG style diagonalization
     ethr =  7.72E-08,  avg # of iterations =  4.7

     total cpu time spent up to now is     1115.7 secs

     total energy              =   -1521.58109264 Ry
     Harris-Foulkes estimate   =   -1521.58111551 Ry
     estimated scf accuracy    <       0.00006486 Ry

     iteration #  9     ecut=    40.00 Ry     beta=0.70
     CG style diagonalization
     ethr =  3.68E-08,  avg # of iterations =  3.4

     total cpu time spent up to now is     1129.4 secs

     End of self-consistent calculation

          k = 0.0000 0.0000 0.0000 (  5769 PWs)   bands (ev):

   -35.2023 -35.0966 -34.9466 -34.8281 -34.7848 -34.7847 -34.7829 -34.7829
   -15.3973 -15.3417 -15.2495 -15.1751 -11.8162 -11.4846 -11.0844 -10.6374
   -10.6374 -10.5516 -10.5516 -10.4902 -10.4902 -10.1804  -9.9557  -9.9556
    -9.9411  -9.9171  -9.9171  -9.3989  -9.3988  -9.3797  -9.3785  -9.3722
    -9.2397  -9.2397  -9.1805  -9.1805   2.4177   2.4391   2.5106   2.5106
     2.5270   2.5270   3.0971   3.1078   3.1078   3.1519   3.1539   3.1539
    14.9763  15.6820  15.9122  16.6332  16.6332  16.7215  17.1576  17.1576
    17.3596  17.5029  17.5029  17.7275  17.8309  17.8309  18.3495  18.3495
    18.3815  18.8982  19.2839  19.2839  19.4466  19.4466  19.7957  20.5122
    20.5122  20.9822  21.5717  21.5717  21.6415  21.6416  21.8165  21.8165
    21.8602  21.9207  21.9207  21.9444  22.2649  22.2885  22.2885  22.4323
    22.5192  22.5192  22.7356  22.7356  22.8163  22.8163  23.4885  24.3169
    24.6237  24.6237  24.8803  24.8804  25.4278  25.4278  26.0814  26.0814
    26.5786  26.5903

          k = 0.0000 0.0000 0.1451 (  5780 PWs)   bands (ev):

   -35.1906 -35.1198 -34.9194 -34.8433 -34.7855 -34.7855 -34.7840 -34.7839
   -15.3920 -15.3550 -15.2335 -15.1833 -11.7856 -11.5687 -10.9554 -10.6346
   -10.6346 -10.5875 -10.5875 -10.4206 -10.4205 -10.3839 -10.1271 -10.1271
    -9.7653  -9.7506  -9.7506  -9.4502  -9.4502  -9.4226  -9.3809  -9.3777
    -9.2238  -9.2238  -9.1876  -9.1875   2.4272   2.4441   2.5140   2.5140
     2.5234   2.5234   3.0958   3.1142   3.1142   3.1363   3.1463   3.1463
    15.0246  15.3860  16.2552  16.6681  16.6681  16.9358  16.9861  16.9861
    17.0422  17.6478  17.6479  17.8253  17.8253  17.8378  18.3836  18.4244
    18.4244  18.4694  18.9557  18.9557  19.9193  19.9193  20.3843  20.6154
    20.6154  20.9531  21.3314  21.3314  21.3899  21.3899  21.6210  21.7778
    21.7778  21.9392  21.9393  21.9869  22.0907  22.0907  22.2132  22.3098
    22.3098  22.6369  22.9075  22.9075  23.1761  23.3815  23.3815  24.3292
    24.3292  24.8386  24.8388  24.8809  25.6513  25.6514  25.7756  26.0753
    26.5804  26.5880

          k = 0.0000 0.0000-0.2902 (  5780 PWs)   bands (ev):

   -35.1617 -35.1617 -34.8792 -34.8792 -34.7823 -34.7823 -34.7822 -34.7822
   -15.3768 -15.3768 -15.2053 -15.2053 -11.6944 -11.6944 -10.6998 -10.6998
   -10.6152 -10.6152 -10.6152 -10.6152 -10.2880 -10.2880 -10.2880 -10.2880
    -9.5785  -9.5785  -9.5785  -9.5785  -9.5619  -9.5619  -9.3746  -9.3746
    -9.2037  -9.2037  -9.2037  -9.2037   2.4422   2.4423   2.5190   2.5190
     2.5190   2.5190   3.1061   3.1062   3.1315   3.1315   3.1315   3.1315
    15.1541  15.1541  16.6121  16.6121  16.7835  16.7835  16.7835  16.7835
    17.5081  17.5081  17.7793  17.7793  17.7793  17.7793  18.2969  18.2969
    18.6475  18.6475  18.6475  18.6475  20.5271  20.5271  20.5271  20.5271
    20.8916  20.8916  21.0958  21.0958  21.0958  21.0958  21.8863  21.8863
    21.8933  21.8933  21.8934  21.8934  21.9747  21.9747  21.9747  21.9747
    22.0981  22.0981  23.4959  23.4959  23.4959  23.4959  24.0567  24.0567
    24.3551  24.3551  24.3551  24.3551  26.0094  26.0094  26.0095  26.0095
    26.5848  26.5848

          k = 0.0000 0.3593 0.0000 (  5787 PWs)   bands (ev):

   -35.1474 -35.0368 -34.9469 -34.9252 -34.8428 -34.7848 -34.7824 -34.7542
   -15.3744 -15.3089 -15.2869 -15.2097 -11.4824 -11.1729 -11.0498 -10.6099
   -10.5318 -10.4918 -10.4831 -10.3967 -10.2820 -10.1171 -10.1052 -10.0160
    -9.9936  -9.9650  -9.9134  -9.6724  -9.6455  -9.5881  -9.4750  -9.4390
    -9.3948  -9.2936  -9.2765  -9.2292   2.3364   2.4157   2.4792   2.5302
     2.6291   2.6970   2.9231   2.9958   3.1245   3.1766   3.1842   3.2433
    15.9079  16.3122  16.6346  16.9873  17.0418  17.3085  17.4377  17.6735
    17.7321  17.7436  17.8763  18.0189  18.0565  18.1063  18.4155  18.7824
    18.8868  18.9964  19.2101  19.2703  19.4673  19.5360  19.5444  19.7078
    19.7998  20.0137  20.0500  20.4069  20.4292  20.5582  20.9597  21.1647
    21.2790  21.3313  22.0139  22.1617  22.2220  22.2369  22.2544  22.4572
    22.6703  22.7882  23.1677  23.1861  23.3086  23.6316  23.6410  23.7189
    23.9414  24.2357  24.4621  24.8576  24.9665  25.1006  25.1153  25.3544
    26.1319  26.1893

          k = 0.0000 0.3593 0.1451 (  5804 PWs)   bands (ev):

   -35.1365 -35.0626 -34.9384 -34.9256 -34.8287 -34.7862 -34.7842 -34.7653
   -15.3697 -15.3315 -15.2628 -15.2161 -11.4615 -11.2810 -10.9140 -10.6385
   -10.5255 -10.4762 -10.4370 -10.4037 -10.3059 -10.2721 -10.1933 -10.1137
    -9.9112  -9.8543  -9.7918  -9.6633  -9.6504  -9.5768  -9.5093  -9.4473
    -9.4211  -9.3180  -9.2616  -9.2317   2.3579   2.4221   2.4853   2.5220
     2.6152   2.6698   2.9421   2.9948   3.1336   3.1761   3.1782   3.2283
    15.9434  16.1548  16.7942  16.9614  17.1506  17.3676  17.4896  17.6602
    17.6678  17.7909  17.8399  17.9762  18.1026  18.2157  18.4289  18.5456
    18.7684  18.7963  18.8505  19.0441  19.4429  19.5941  19.7636  19.9033
    20.0124  20.1006  20.2577  20.3496  20.3792  20.8689  21.0574  21.3095
    21.4289  21.4318  21.6487  21.8445  22.1632  22.2200  22.2341  22.3788
    22.5446  22.9521  23.0149  23.1515  23.5580  23.5585  23.7107  23.7193
    23.8955  24.2522  24.3128  24.6616  24.7383  24.9599  25.5076  25.7647
    26.2112  26.3429

          k = 0.0000 0.3593-0.2902 (  5816 PWs)   bands (ev):

   -35.1048 -35.1047 -34.9302 -34.9302 -34.7951 -34.7951 -34.7863 -34.7863
   -15.3553 -15.3552 -15.2349 -15.2348 -11.3941 -11.3941 -10.7419 -10.7419
   -10.4651 -10.4651 -10.4331 -10.4331 -10.3366 -10.3366 -10.2238 -10.2238
    -9.8223  -9.8223  -9.6858  -9.6858  -9.5946  -9.5946  -9.5319  -9.5319
    -9.3715  -9.3715  -9.2416  -9.2416   2.4045   2.4045   2.5035   2.5035
     2.6217   2.6218   2.9768   2.9769   3.1544   3.1544   3.1980   3.1981
    16.0212  16.0212  16.8924  16.8924  17.3523  17.3523  17.5961  17.5961
    17.6983  17.6983  17.9490  17.9490  18.3132  18.3132  18.4393  18.4393
    18.5153  18.5153  18.6752  18.6752  19.6750  19.6750  19.6891  19.6891
    20.1547  20.1547  20.5586  20.5586  20.7960  20.7960  21.3975  21.3975
    21.4604  21.4604  21.6283  21.6283  21.9454  21.9455  22.1194  22.1194
    22.7337  22.7337  23.1081  23.1081  23.5815  23.5815  23.7462  23.7462
    23.9264  23.9264  24.4753  24.4753  25.2334  25.2334  25.3314  25.3315
    26.2457  26.2458

          k =-0.4668-0.2695 0.0000 (  5800 PWs)   bands (ev):

   -35.1170 -35.0088 -34.9598 -34.9469 -34.8745 -34.7874 -34.7829 -34.7499
[...]

     total energy              =   -1520.32182468 Ry
     Harris-Foulkes estimate   =   -1523.61236760 Ry
     estimated scf accuracy    <       8.42309827 Ry

     iteration #  6     ecut=    40.00 Ry     beta=0.70
     CG style diagonalization
     ethr =  4.79E-03,  avg # of iterations =  3.4

     total cpu time spent up to now is     1737.5 secs

     total energy              =   -1521.70140499 Ry
     Harris-Foulkes estimate   =   -1522.26668517 Ry
     estimated scf accuracy    <       1.59985826 Ry

     iteration #  7     ecut=    40.00 Ry     beta=0.70
     CG style diagonalization
     ethr =  9.09E-04,  avg # of iterations =  3.9

     total cpu time spent up to now is     1760.0 secs

     total energy              =   -1521.96255403 Ry
     Harris-Foulkes estimate   =   -1522.01356845 Ry
     estimated scf accuracy    <       0.12838939 Ry

     iteration #  8     ecut=    40.00 Ry     beta=0.70
     CG style diagonalization
     c_bands:  2 eigenvalues not converged
     c_bands:  2 eigenvalues not converged
     c_bands:  1 eigenvalues not converged
     c_bands:  1 eigenvalues not converged
     c_bands:  1 eigenvalues not converged
     c_bands:  1 eigenvalues not converged
     c_bands:  2 eigenvalues not converged
     ethr =  7.29E-05,  avg # of iterations =  5.0

     total cpu time spent up to now is     1789.4 secs

     total energy              =   -1522.02079236 Ry
     Harris-Foulkes estimate   =   -1522.02537379 Ry
     estimated scf accuracy    <       0.00998923 Ry

     iteration #  9     ecut=    40.00 Ry     beta=0.70
     CG style diagonalization
     c_bands:  2 eigenvalues not converged
     c_bands:  1 eigenvalues not converged
     c_bands:  1 eigenvalues not converged
     ethr =  5.68E-06,  avg # of iterations =  5.0

     total cpu time spent up to now is     1819.2 secs

     total energy              =   -1522.02530198 Ry
     Harris-Foulkes estimate   =   -1522.02695464 Ry
     estimated scf accuracy    <       0.00357380 Ry

     iteration # 10     ecut=    40.00 Ry     beta=0.70
     CG style diagonalization
     ethr =  2.03E-06,  avg # of iterations =  3.9

     total cpu time spent up to now is     1841.4 secs

     total energy              =   -1522.02620953 Ry
     Harris-Foulkes estimate   =   -1522.02654939 Ry
     estimated scf accuracy    <       0.00087203 Ry

     iteration # 11     ecut=    40.00 Ry     beta=0.70
     CG style diagonalization
     ethr =  4.95E-07,  avg # of iterations =  3.5

     total cpu time spent up to now is     1861.1 secs

     total energy              =   -1522.02641450 Ry
     Harris-Foulkes estimate   =   -1522.02645236 Ry
     estimated scf accuracy    <       0.00007385 Ry

     iteration # 12     ecut=    40.00 Ry     beta=0.70
     CG style diagonalization
     ethr =  4.20E-08,  avg # of iterations =  4.8

     total cpu time spent up to now is     1889.5 secs

     total energy              =   -1522.02645840 Ry
     Harris-Foulkes estimate   =   -1522.02647457 Ry
     estimated scf accuracy    <       0.00005203 Ry

     iteration # 13     ecut=    40.00 Ry     beta=0.70
     CG style diagonalization
     ethr =  2.96E-08,  avg # of iterations =  3.3

     total cpu time spent up to now is     1907.8 secs

     End of self-consistent calculation

          k = 0.0000 0.0000 0.0000 (  7139 PWs)   bands (ev):

   -35.1885 -35.0775 -34.9323 -34.8177 -34.7647 -34.7647 -34.7645 -34.7645
   -15.3844 -15.3281 -15.2350 -15.1610 -11.8365 -11.5140 -11.1289 -10.6745
   -10.6745 -10.5869 -10.5869 -10.5273 -10.5273 -10.2209 -10.0111 -10.0110
    -9.9837  -9.9494  -9.9494  -9.4569  -9.4569  -9.4324  -9.4274  -9.4260
    -9.2877  -9.2877  -9.2411  -9.2411   2.4044   2.4294   2.4996   2.4997
     2.5122   2.5122   3.0834   3.0882   3.0882   3.1339   3.1364   3.1364
    14.9693  15.6768  15.9085  16.6265  16.6265  16.7141  17.1521  17.1521
    17.3550  17.4977  17.4977  17.7226  17.8244  17.8244  18.3444  18.3445
    18.3763  18.8868  19.2758  19.2759  19.4395  19.4395  19.7888  20.5031
    20.5031  20.9746  21.5625  21.5625  21.6367  21.6368  21.8037  21.8037
    21.8387  21.9142  21.9142  21.9343  22.2616  22.2826  22.2826  22.4201
    22.5025  22.5025  22.7263  22.7264  22.8010  22.8010  23.4648  24.3030
    24.6091  24.6091  24.8708  24.8708  25.4215  25.4216  26.0701  26.0703
    26.5816  26.5942

          k = 0.0000 0.0000 0.1451 (  7186 PWs)   bands (ev):

   -35.1775 -35.1028 -34.9071 -34.8300 -34.7650 -34.7650 -34.7649 -34.7649
   -15.3800 -15.3418 -15.2194 -15.1689 -11.8068 -11.5988 -10.9972 -10.6709
   -10.6709 -10.6239 -10.6238 -10.4582 -10.4582 -10.4310 -10.1682 -10.1682
    -9.8103  -9.7963  -9.7963  -9.5083  -9.5083  -9.4810  -9.4300  -9.4288
    -9.2761  -9.2761  -9.2469  -9.2468   2.4148   2.4315   2.5013   2.5013
     2.5104   2.5104   3.0827   3.0943   3.0943   3.1171   3.1288   3.1288
    15.0182  15.3807  16.2497  16.6612  16.6612  16.9280  16.9803  16.9804
    17.0367  17.6422  17.6423  17.8186  17.8186  17.8326  18.3736  18.4194
    18.4194  18.4646  18.9483  18.9483  19.9099  19.9099  20.3726  20.6057
    20.6057  20.9442  21.3228  21.3228  21.3801  21.3801  21.6016  21.7707
    21.7707  21.9324  21.9324  21.9772  22.0856  22.0856  22.2085  22.3005
    22.3005  22.6180  22.8886  22.8886  23.1568  23.3636  23.3636  24.3147
    24.3147  24.8257  24.8258  24.8675  25.6479  25.6481  25.7451  26.0665
    26.0667  26.5892

          k = 0.0000 0.0000-0.2902 (  7174 PWs)   bands (ev):

   -35.1454 -35.1454 -34.8636 -34.8636 -34.7648 -34.7648 -34.7648 -34.7648
   -15.3639 -15.3639 -15.1911 -15.1911 -11.7220 -11.7220 -10.7314 -10.7314
   -10.6555 -10.6555 -10.6555 -10.6555 -10.3290 -10.3290 -10.3290 -10.3290
    -9.6311  -9.6311  -9.6311  -9.6311  -9.6077  -9.6077  -9.4294  -9.4294
    -9.2583  -9.2582  -9.2582  -9.2582   2.4295   2.4297   2.5055   2.5055
     2.5055   2.5055   3.0934   3.0935   3.1116   3.1116   3.1116   3.1116
    15.1480  15.1480  16.6069  16.6069  16.7769  16.7769  16.7769  16.7769
    17.4997  17.4997  17.7731  17.7731  17.7731  17.7731  18.2917  18.2917
    18.6417  18.6417  18.6417  18.6417  20.5175  20.5175  20.5175  20.5175
    20.8826  20.8826  21.0870  21.0870  21.0870  21.0870  21.8709  21.8710
    21.8864  21.8865  21.8865  21.8865  21.9674  21.9674  21.9674  21.9674
    22.0888  22.0889  23.4755  23.4755  23.4755  23.4755  24.0425  24.0425
    24.3400  24.3400  24.3400  24.3400  26.0058  26.0058  26.0060  26.0060
    26.1424  26.1432

          k = 0.0000 0.3593 0.0000 (  7158 PWs)   bands (ev):

   -35.1312 -35.0196 -34.9329 -34.9078 -34.8262 -34.7649 -34.7647 -34.7347
   -15.3613 -15.2954 -15.2731 -15.1959 -11.5109 -11.2082 -11.0843 -10.6446
   -10.5724 -10.5327 -10.5208 -10.4335 -10.3230 -10.1670 -10.1490 -10.0582
   -10.0409 -10.0066  -9.9548  -9.7142  -9.6868  -9.6318  -9.5250  -9.4832
    -9.4581  -9.3467  -9.3270  -9.2802   2.3237   2.4032   2.4665   2.5158
     2.6178   2.6848   2.9083   2.9800   3.1074   3.1583   3.1655   3.2270
    15.9003  16.3052  16.6279  16.9811  17.0351  17.3027  17.4281  17.6667
    17.7259  17.7361  17.8704  18.0124  18.0499  18.0993  18.4073  18.7744
    18.8765  18.9867  19.2018  19.2623  19.4589  19.5235  19.5357  19.6989
    19.7906  20.0017  20.0409  20.3980  20.4200  20.5496  20.9481  21.1516
    21.2668  21.3209  22.0005  22.1492  22.2129  22.2183  22.2433  22.4514
    22.6554  22.7739  23.1514  23.1710  23.2909  23.6147  23.6252  23.7004
    23.9369  24.2231  24.4487  24.8497  24.9518  25.0824  25.0951  25.3339
    26.1265  26.1686

          k = 0.0000 0.3593 0.1451 (  7139 PWs)   bands (ev):

   -35.1194 -35.0450 -34.9223 -34.9088 -34.8101 -34.7649 -34.7648 -34.7458
   -15.3564 -15.3180 -15.2487 -15.2020 -11.4869 -11.3101 -10.9501 -10.6758
   -10.5617 -10.5116 -10.4743 -10.4423 -10.3461 -10.3096 -10.2318 -10.1541
    -9.9535  -9.8922  -9.8357  -9.7061  -9.6941  -9.6237  -9.5570  -9.4998
    -9.4664  -9.3694  -9.3112  -9.2815   2.3464   2.4097   2.4736   2.5085
     2.6043   2.6585   2.9279   2.9815   3.1165   3.1576   3.1613   3.2128
    15.9360  16.1486  16.7876  16.9555  17.1444  17.3618  17.4812  17.6548
    17.6610  17.7846  17.8330  17.9695  18.0961  18.2091  18.4211  18.5375
    18.7612  18.7879  18.8437  19.0355  19.4326  19.5869  19.7555  19.8949
    20.0031  20.0911  20.2486  20.3396  20.3694  20.8596  21.0482  21.2978
    21.4179  21.4224  21.6363  21.8370  22.1460  22.2100  22.2198  22.3652
    22.5361  22.9402  23.0005  23.1377  23.5422  23.5434  23.6965  23.7044
    23.8874  24.2393  24.3002  24.6439  24.7257  24.9445  25.4979  25.7412
    26.1929  26.3385

          k = 0.0000 0.3593-0.2902 (  7142 PWs)   bands (ev):

   -35.0877 -35.0877 -34.9125 -34.9125 -34.7757 -34.7756 -34.7648 -34.7647
   -15.3419 -15.3418 -15.2208 -15.2207 -11.4185 -11.4184 -10.7783 -10.7783
   -10.5013 -10.5013 -10.4704 -10.4704 -10.3715 -10.3715 -10.2591 -10.2591
    -9.8605  -9.8605  -9.7287  -9.7287  -9.6415  -9.6415  -9.5799  -9.5799
    -9.4226  -9.4226  -9.2918  -9.2918   2.3926   2.3927   2.4908   2.4908
     2.6115   2.6116   2.9640   2.9641   3.1374   3.1374   3.1819   3.1820
    16.0145  16.0145  16.8864  16.8865  17.3465  17.3465  17.5884  17.5884
    17.6925  17.6925  17.9421  17.9421  18.3064  18.3065  18.4318  18.4318
    18.5070  18.5070  18.6684  18.6684  19.6675  19.6675  19.6792  19.6792
    20.1466  20.1466  20.5488  20.5488  20.7860  20.7860  21.3871  21.3871
    21.4529  21.4529  21.6190  21.6190  21.9290  21.9290  22.1058  22.1058
    22.7246  22.7246  23.0933  23.0933  23.5705  23.5705  23.7337  23.7337
    23.9144  23.9144  24.4632  24.4632  25.2148  25.2150  25.3212  25.3215
    26.2254  26.2256

          k =-0.4668-0.2695 0.0000 (  7156 PWs)   bands (ev):

   -35.1015 -34.9891 -34.9429 -34.9330 -34.8577 -34.7651 -34.7650 -34.7297
   -15.3465 -15.2931 -15.2761 -15.2156 -11.3630 -11.0653 -11.0561 -10.7119
   -10.5834 -10.5339 -10.3793 -10.2800 -10.2531 -10.1658 -10.1384 -10.1000
   -10.0449 -10.0390  -9.9583  -9.9581  -9.8806  -9.7318  -9.5521  -9.5351
    -9.4591  -9.3290  -9.3227  -9.2843   2.3192   2.3931   2.4559   2.5178
     2.6407   2.7024   2.8816   2.9677   3.1131   3.1735   3.1755   3.2336
    16.2140  16.3203  16.9148  17.2545  17.2923  17.4879  17.5572  17.7437
    17.7454  17.8703  17.8915  17.9815  18.5880  18.6351  18.6439  18.8757
    19.1146  19.1478  19.3015  19.3304  19.3526  19.4910  19.5210  19.5869
    19.5896  19.5989  19.7556  19.9677  20.1208  20.4847  20.7516  20.7654
    20.7760  21.0963  21.1756  21.9483  22.0923  22.1267  22.1349  22.5022
    22.5944  22.6430  22.7374  22.8244  22.9100  23.8010  23.9255  24.0730
    24.1912  24.3437  24.3598  24.3998  24.8111  24.9999  25.2582  25.5187
    26.0709  26.5202

          k =-0.4668-0.2695 0.1451 (  7140 PWs)   bands (ev):

   -35.0898 -35.0132 -34.9427 -34.9392 -34.8264 -34.7647 -34.7646 -34.7426
   -15.3428 -15.3121 -15.2557 -15.2200 -11.3423 -11.1858 -10.9205 -10.7320
   -10.5543 -10.5033 -10.3638 -10.3279 -10.3159 -10.2545 -10.1360 -10.1200
   -10.0428 -10.0402  -9.9190  -9.8825  -9.8406  -9.6923  -9.5873  -9.4991
    -9.4986  -9.3500  -9.3154  -9.2875   2.3454   2.4051   2.4644   2.5080
     2.6141   2.6621   2.9157   2.9780   3.1231   3.1670   3.1722   3.2189
    16.2421  16.2893  16.9968  17.3085  17.3825  17.4780  17.6128  17.6646
    17.7428  17.7896  17.9100  17.9653  18.4892  18.5385  18.7449  18.7917
    18.8271  19.1217  19.1793  19.2062  19.4099  19.4290  19.5250  19.5631
    19.7098  19.7889  19.9341  20.1072  20.1797  20.3947  20.5925  20.6888
    21.2887  21.3137  21.3419  21.7473  22.0320  22.0641  22.1038  22.2242
    22.2872  22.5071  23.2095  23.2904  23.3587  23.4205  23.5505  23.8241
    24.0106  24.2890  24.3778  24.6554  24.8447  24.9721  25.3356  25.6789
    26.1896  26.3753

          k =-0.4668-0.2695-0.2902 (  7144 PWs)   bands (ev):

   -35.0566 -35.0566 -34.9422 -34.9422 -34.7782 -34.7781 -34.7647 -34.7647
   -15.3316 -15.3315 -15.2339 -15.2338 -11.2826 -11.2826 -10.8003 -10.8003
   -10.4626 -10.4626 -10.4248 -10.4248 -10.3185 -10.3185 -10.1328 -10.1328
   -10.0403 -10.0403  -9.8910  -9.8910  -9.6915  -9.6915  -9.5961  -9.5961
    -9.4216  -9.4216  -9.2956  -9.2955   2.3964   2.3965   2.4861   2.4861
     2.6050   2.6051   2.9657   2.9658   3.1456   3.1456   3.1873   3.1874
    16.2713  16.2713  17.1691  17.1691  17.4088  17.4088  17.6682  17.6682
    17.8319  17.8319  18.0709  18.0709  18.4510  18.4510  18.4832  18.4832
    18.7777  18.7777  19.1209  19.1209  19.4800  19.4800  19.5435  19.5435
    20.0183  20.0183  20.1282  20.1282  20.2430  20.2431  20.7036  20.7036
    21.5505  21.5505  21.6074  21.6074  21.7156  21.7156  22.0722  22.0722
    22.4554  22.4554  23.2978  23.2979  23.4906  23.4906  23.7561  23.7561
    23.7693  23.7693  24.6506  24.6506  24.9948  24.9949  25.6022  25.6023
    25.9521  25.9523

          k =-0.4668 0.0898 0.0000 (  7153 PWs)   bands (ev):

   -35.1018 -34.9892 -34.9432 -34.9328 -34.8574 -34.7651 -34.7650 -34.7294
   -15.3456 -15.2939 -15.2753 -15.2164 -11.3337 -11.0641 -11.0467 -10.7341
   -10.5787 -10.5434 -10.5268 -10.2767 -10.2410 -10.2078 -10.1263 -10.0598
   -10.0501  -9.9910  -9.9828  -9.9580  -9.7277  -9.6740  -9.5283  -9.5076
    -9.4702  -9.3948  -9.3735  -9.3255   2.3347   2.3887   2.4155   2.4930
     2.6806   2.7562   2.8519   2.9337   3.1246   3.1742   3.1980   3.2254
    16.4046  16.4845  17.0066  17.1614  17.2543  17.4382  17.4827  17.5710
    17.7717  17.9097  17.9635  18.0483  18.1582  18.4662  18.6634  18.8490
    18.8504  18.9120  19.1570  19.2284  19.3332  19.4695  19.5573  19.6996
    19.7021  19.7486  19.9440  20.1208  20.4035  20.4735  20.6395  20.7877
    20.8438  21.2402  21.3184  21.3269  22.0000  22.0001  22.2463  22.3743
    22.8836  22.9547  23.0387  23.1688  23.5354  23.6344  23.7528  23.8767
    24.2555  24.3784  24.5655  24.8558  24.8705  25.2123  25.2830  25.4499
    25.5283  26.0438

          k =-0.4668 0.0898 0.1451 (  7149 PWs)   bands (ev):

   -35.0898 -35.0132 -34.9430 -34.9390 -34.8265 -34.7650 -34.7648 -34.7425
   -15.3420 -15.3122 -15.2559 -15.2209 -11.3160 -11.1733 -10.9281 -10.7582
   -10.5486 -10.5155 -10.4941 -10.3266 -10.2871 -10.2475 -10.1989 -10.1722
    -9.9997  -9.9676  -9.8805  -9.8623  -9.7177  -9.6639  -9.5636  -9.5237
    -9.4744  -9.3795  -9.3760  -9.3445   2.3579   2.4024   2.4245   2.4787
     2.6561   2.7047   2.8954   2.9463   3.1372   3.1723   3.1882   3.2119
    16.4285  16.4588  17.0071  17.2065  17.3834  17.4813  17.5648  17.5879
    17.7294  17.8308  17.8609  18.0666  18.2734  18.3641  18.6325  18.6918
    18.7282  18.8671  18.9617  19.0915  19.2018  19.4961  19.6685  19.7076
    19.7895  20.0015  20.0398  20.2364  20.3222  20.5495  20.5820  20.9055
    21.0175  21.0647  21.4734  21.6414  21.7630  22.0928  22.2745  22.4718
    22.5472  22.7049  23.1413  23.4369  23.4901  23.5609  23.6231  23.9956
    24.1785  24.3129  24.4704  24.6657  24.8316  24.9982  25.4004  25.7624
    25.9019  26.0202

          k =-0.4668 0.0898-0.2902 (  7146 PWs)   bands (ev):

   -35.0569 -35.0569 -34.9421 -34.9421 -34.7781 -34.7781 -34.7648 -34.7648
   -15.3311 -15.3310 -15.2344 -15.2343 -11.2622 -11.2622 -10.8225 -10.8225
   -10.4710 -10.4710 -10.4411 -10.4411 -10.3434 -10.3434 -10.1996 -10.1995
    -9.9763  -9.9763  -9.7936  -9.7936  -9.6691  -9.6691  -9.5951  -9.5951
    -9.4212  -9.4212  -9.3637  -9.3637   2.4015   2.4016   2.4480   2.4481
     2.6475   2.6476   2.9419   2.9420   3.1642   3.1642   3.1837   3.1838
    16.4476  16.4476  17.0910  17.0910  17.5099  17.5099  17.6083  17.6083
    17.8533  17.8533  18.0143  18.0143  18.2446  18.2446  18.4302  18.4302
    18.6437  18.6437  19.0344  19.0344  19.2744  19.2744  19.7834  19.7834
    19.9120  19.9120  20.2065  20.2065  20.4392  20.4392  21.0530  21.0531
    21.2080  21.2080  21.4419  21.4419  21.9055  21.9055  22.1518  22.1518
    22.5975  22.5975  23.4298  23.4298  23.5582  23.5582  23.6979  23.6980
    24.1639  24.1639  24.6324  24.6324  24.8848  24.8848  25.4249  25.4250
    25.9769  25.9770

     the Fermi energy is    22.5607 ev

!    total energy              =   -1522.02646695 Ry
     Harris-Foulkes estimate   =   -1522.02646718 Ry
     estimated scf accuracy    <       0.00000033 Ry

     The total energy is the sum of the following terms:

     one-electron contribution =    -118.47140646 Ry
     hartree contribution      =     188.76365220 Ry
     xc contribution           =    -172.44168149 Ry
     ewald contribution        =   -1419.09565348 Ry
     smearing contrib. (-TS)   =      -0.78137771 Ry

     convergence has been achieved in  13 iterations

     Forces acting on atoms (Ry/au):

     atom    1 type  1   force =     0.00000000    0.00000000    0.00987131
     atom    2 type  1   force =     0.00000000    0.00000000    0.00987131
     atom    3 type  1   force =     0.00000000    0.00000000   -0.00987131
     atom    4 type  1   force =     0.00000000    0.00000000   -0.00987131
     atom    5 type  2   force =     0.00000000    0.00000000    0.00000000
     atom    6 type  2   force =     0.00000000    0.00000000    0.00000000
     atom    7 type  2   force =     0.00000000    0.00247473    0.00000000
     atom    8 type  2   force =    -0.00214318    0.00123737    0.00000000
     atom    9 type  2   force =     0.00214318    0.00123737    0.00000000
     atom   10 type  2   force =    -0.00214318   -0.00123737    0.00000000
     atom   11 type  2   force =     0.00214318   -0.00123737    0.00000000
     atom   12 type  2   force =     0.00000000   -0.00247473    0.00000000

     Total force =     0.020652     Total SCF correction =     0.000000


     entering subroutine stress ...

          total   stress  (Ry/bohr**3)                   (kbar)     P=  199.36
   0.00137217   0.00000000   0.00000000        201.85      0.00      0.00
   0.00000000   0.00137217   0.00000000          0.00    201.85      0.00
   0.00000000   0.00000000   0.00132127          0.00      0.00    194.37


     Writing output data file Prototype-La-hP12-MgZn2.save
 
     init_run     :      5.19s CPU      6.58s WALL (       2 calls)
     electrons    :   1643.00s CPU   1872.59s WALL (       5 calls)
     update_pot   :      3.05s CPU      3.14s WALL (       3 calls)
     forces       :      6.03s CPU      6.30s WALL (       5 calls)
     stress       :     24.65s CPU     25.15s WALL (       5 calls)

     Called by init_run:
     wfcinit      :      4.03s CPU      5.37s WALL (       2 calls)
     potinit      :      0.50s CPU      0.52s WALL (       2 calls)

     Called by electrons:
     c_bands      :   1610.22s CPU   1819.24s WALL (      52 calls)
     sum_band     :     31.95s CPU     43.81s WALL (      52 calls)
     v_of_rho     :      0.14s CPU      0.18s WALL (      57 calls)
     mix_rho      :      0.17s CPU      0.21s WALL (      52 calls)

     Called by c_bands:
     init_us_2    :      2.39s CPU      2.87s WALL (    1392 calls)
     ccgdiagg     :   1497.71s CPU   1674.62s WALL (     741 calls)
     wfcrot       :    114.37s CPU    145.43s WALL (     753 calls)

     Called by *cgdiagg:
     h_psi        :   1008.63s CPU   1211.14s WALL (  388800 calls)
     cdiaghg      :      3.88s CPU      4.32s WALL (     753 calls)

     Called by h_psi:
     add_vuspsi   :    244.24s CPU    249.10s WALL (  388800 calls)

     General routines
     calbec       :    558.22s CPU    601.24s WALL (  776967 calls)
     fft          :      0.28s CPU      0.34s WALL (     251 calls)
     fftw         :    458.85s CPU    600.15s WALL ( 1001874 calls)
     davcio       :      1.12s CPU      3.86s WALL (    2016 calls)
 
     Parallel routines
     fft_scatter  :    200.11s CPU    271.97s WALL ( 1002125 calls)
 
     PWSCF        : 28m 2.35s CPU    31m54.88s WALL

 
   This run was terminated on:   1:11:22  22Mar2018            

=------------------------------------------------------------------------------=
   JOB DONE.
=------------------------------------------------------------------------------=
