
     Program PWSCF v.5.0.2 starts on 22Mar2018 at 21:16:41 

     This program is part of the open-source Quantum ESPRESSO suite
     for quantum simulation of materials; please cite
         "P. Giannozzi et al., J. Phys.:Condens. Matter 21 395502 (2009);
          URL http://www.quantum-espresso.org", 
     in publications or presentations arising from this work. More details at
     http://www.quantum-espresso.org/quote.php

     Parallel version (MPI), running on     4 processors
     R & G space division:  proc/nbgrp/npool/nimage =       4

     Current dimensions of program PWSCF are:
     Max number of different atomic species (ntypx) = 10
     Max number of k-points (npk) =  40000
     Max angular momentum in pseudopotentials (lmaxx) =  3
     Waiting for input...
     Reading input from standard input

     Subspace diagonalization in iterative solution of the eigenvalue problem:
     a serial algorithm will be used

 
     Parallelization info
     --------------------
     sticks:   dense  smooth     PW     G-vecs:    dense   smooth      PW
     Min         233     233     69                 5311     5311     851
     Max         234     234     70                 5314     5314     854
     Sum         933     933    277                21247    21247    3407
 


     bravais-lattice index     =            0
     lattice parameter (alat)  =       8.5346  a.u.
     unit-cell volume          =     621.6493 (a.u.)^3
     number of atoms/cell      =            8
     number of atomic types    =            2
     number of electrons       =       148.00
     number of Kohn-Sham states=           89
     kinetic-energy cutoff     =      40.0000  Ry
     charge density cutoff     =     160.0000  Ry
     convergence threshold     =      1.0E-04
     mixing beta               =       0.7000
     number of iterations used =            8  plain     mixing
     Exchange-correlation      = SLA-PZ-NOGX-NOGC ( 1 1 0 0 0)
     EXX-fraction              =        0.00
     nstep                     =           50


     celldm(1)=   8.534573  celldm(2)=   0.000000  celldm(3)=   0.000000
     celldm(4)=   0.000000  celldm(5)=   0.000000  celldm(6)=   0.000000

     crystal axes: (cart. coord. in units of alat)
               a(1) = (   1.000000   0.000000   0.000000 )  
               a(2) = (   0.000000   1.000000   0.000000 )  
               a(3) = (   0.000000   0.000000   1.000000 )  

     reciprocal axes: (cart. coord. in units 2 pi/alat)
               b(1) = (  1.000000  0.000000  0.000000 )  
               b(2) = (  0.000000  1.000000  0.000000 )  
               b(3) = (  0.000000  0.000000  1.000000 )  


     PseudoPot. # 1 for Eu read from file:
     /home/cwx6513/pp.La/Eu.UPF
     MD5 check sum: 5efdbbfc50c6a10138933a6429836ad2
     Pseudo is Norm-conserving, Zval = 17.0
     Generated in analytical, separable form
     Using radial grid of 1261 points,  6 beta functions with: 
                l(1) =   0
                l(2) =   0
                l(3) =   1
                l(4) =   1
                l(5) =   2
                l(6) =   3

     PseudoPot. # 2 for Tm read from file:
     /home/cwx6513/pp.La/Tm.UPF
     MD5 check sum: 245516e0878b5372ceeb9443ded2c4e1
     Pseudo is Norm-conserving, Zval = 23.0
     Generated in analytical, separable form
     Using radial grid of 1269 points,  6 beta functions with: 
                l(1) =   0
                l(2) =   0
                l(3) =   1
                l(4) =   1
                l(5) =   2
                l(6) =   3

     atomic species   valence    mass     pseudopotential
        Cr            17.00    51.99610     Eu( 1.00)
        Si            23.00    28.08550     Tm( 1.00)

     48 Sym. Ops., with inversion, found (24 have fractional translation)



   Cartesian axes

     site n.     atom                  positions (alat units)
         1           Cr  tau(   1) = (   0.0000000   0.5000000   0.2500000  )
         2           Cr  tau(   2) = (   0.0000000   0.5000000   0.7500000  )
         3           Cr  tau(   3) = (   0.5000000   0.7500000   0.0000000  )
         4           Cr  tau(   4) = (   0.5000000   0.2500000   0.0000000  )
         5           Cr  tau(   5) = (   0.7500000   0.0000000   0.5000000  )
         6           Cr  tau(   6) = (   0.2500000   0.0000000   0.5000000  )
         7           Si  tau(   7) = (   0.5000000   0.5000000   0.5000000  )
         8           Si  tau(   8) = (   0.0000000   0.0000000   0.0000000  )

     number of k points=    48  gaussian smearing, width (Ry)=  0.1000
                       cart. coord. in units 2pi/alat
        k(    1) = (   0.0000000   0.0000000   0.0000000), wk =   0.0095238
        k(    2) = (   0.0000000   0.0000000   0.1428571), wk =   0.0190476
        k(    3) = (   0.0000000   0.0000000   0.2857143), wk =   0.0190476
        k(    4) = (   0.0000000   0.0000000   0.4285714), wk =   0.0190476
        k(    5) = (   0.0000000   0.1666667   0.0000000), wk =   0.0190476
        k(    6) = (   0.0000000   0.1666667   0.1428571), wk =   0.0380952
        k(    7) = (   0.0000000   0.1666667   0.2857143), wk =   0.0380952
        k(    8) = (   0.0000000   0.1666667   0.4285714), wk =   0.0380952
        k(    9) = (   0.0000000   0.3333333   0.0000000), wk =   0.0190476
        k(   10) = (   0.0000000   0.3333333   0.1428571), wk =   0.0380952
        k(   11) = (   0.0000000   0.3333333   0.2857143), wk =   0.0380952
        k(   12) = (   0.0000000   0.3333333   0.4285714), wk =   0.0380952
        k(   13) = (   0.0000000  -0.5000000   0.0000000), wk =   0.0095238
        k(   14) = (   0.0000000  -0.5000000   0.1428571), wk =   0.0190476
        k(   15) = (   0.0000000  -0.5000000   0.2857143), wk =   0.0190476
        k(   16) = (   0.0000000  -0.5000000   0.4285714), wk =   0.0190476
        k(   17) = (   0.2000000   0.0000000   0.0000000), wk =   0.0190476
        k(   18) = (   0.2000000   0.0000000   0.1428571), wk =   0.0380952
        k(   19) = (   0.2000000   0.0000000   0.2857143), wk =   0.0380952
        k(   20) = (   0.2000000   0.0000000   0.4285714), wk =   0.0380952
        k(   21) = (   0.2000000   0.1666667   0.0000000), wk =   0.0380952
        k(   22) = (   0.2000000   0.1666667   0.1428571), wk =   0.0761905
        k(   23) = (   0.2000000   0.1666667   0.2857143), wk =   0.0761905
        k(   24) = (   0.2000000   0.1666667   0.4285714), wk =   0.0761905
        k(   25) = (   0.2000000   0.3333333   0.0000000), wk =   0.0380952
        k(   26) = (   0.2000000   0.3333333   0.1428571), wk =   0.0761905
        k(   27) = (   0.2000000   0.3333333   0.2857143), wk =   0.0761905
        k(   28) = (   0.2000000   0.3333333   0.4285714), wk =   0.0761905
        k(   29) = (   0.2000000  -0.5000000   0.0000000), wk =   0.0190476
        k(   30) = (   0.2000000  -0.5000000   0.1428571), wk =   0.0380952
        k(   31) = (   0.2000000  -0.5000000   0.2857143), wk =   0.0380952
        k(   32) = (   0.2000000  -0.5000000   0.4285714), wk =   0.0380952
        k(   33) = (   0.4000000   0.0000000   0.0000000), wk =   0.0190476
        k(   34) = (   0.4000000   0.0000000   0.1428571), wk =   0.0380952
        k(   35) = (   0.4000000   0.0000000   0.2857143), wk =   0.0380952
        k(   36) = (   0.4000000   0.0000000   0.4285714), wk =   0.0380952
        k(   37) = (   0.4000000   0.1666667   0.0000000), wk =   0.0380952
        k(   38) = (   0.4000000   0.1666667   0.1428571), wk =   0.0761905
        k(   39) = (   0.4000000   0.1666667   0.2857143), wk =   0.0761905
        k(   40) = (   0.4000000   0.1666667   0.4285714), wk =   0.0761905
        k(   41) = (   0.4000000   0.3333333   0.0000000), wk =   0.0380952
        k(   42) = (   0.4000000   0.3333333   0.1428571), wk =   0.0761905
        k(   43) = (   0.4000000   0.3333333   0.2857143), wk =   0.0761905
        k(   44) = (   0.4000000   0.3333333   0.4285714), wk =   0.0761905
        k(   45) = (   0.4000000  -0.5000000   0.0000000), wk =   0.0190476
        k(   46) = (   0.4000000  -0.5000000   0.1428571), wk =   0.0380952
        k(   47) = (   0.4000000  -0.5000000   0.2857143), wk =   0.0380952
        k(   48) = (   0.4000000  -0.5000000   0.4285714), wk =   0.0380952

     Dense  grid:    21247 G-vectors     FFT dimensions: (  36,  36,  36)

     Largest allocated arrays     est. size (Mb)     dimensions
        Kohn-Sham Wavefunctions         0.93 Mb     (    683,   89)
        NL pseudopotentials             1.67 Mb     (    683,  160)
        Each V/rho on FFT grid          0.18 Mb     (  11664)
        Each G-vector array             0.04 Mb     (   5314)
        G-vector shells                 0.04 Mb     (   5314)
     Largest temporary arrays     est. size (Mb)     dimensions
        Each subspace H/S matrix        0.12 Mb     (  89,  89)
        Each <psi_i|beta_j> matrix      0.22 Mb     (    160,   89)
        Arrays for rho mixing           1.42 Mb     (  11664,   8)

     Initial potential from superposition of free atoms

     Starting from uniform charge
     Starting wfc are    0 randomized atomic wfcs

     total cpu time spent up to now is        3.7 secs

     Self-consistent Calculation

     iteration #  1     ecut=    40.00 Ry     beta=0.70
     CG style diagonalization
     c_bands:  1 eigenvalues not converged
     c_bands:  1 eigenvalues not converged
     c_bands:  1 eigenvalues not converged
     c_bands:  1 eigenvalues not converged
     ethr =  1.00E-02,  avg # of iterations = 11.9

     total cpu time spent up to now is       49.5 secs

     total energy              =   -1299.69964568 Ry
     Harris-Foulkes estimate   =   -2095.38685294 Ry
     estimated scf accuracy    <     961.12885227 Ry

     iteration #  2     ecut=    40.00 Ry     beta=0.70
     CG style diagonalization
     c_bands:  1 eigenvalues not converged
     c_bands:  2 eigenvalues not converged
     c_bands:  3 eigenvalues not converged
     c_bands:  2 eigenvalues not converged
     c_bands:  4 eigenvalues not converged
     c_bands:  2 eigenvalues not converged
     c_bands:  2 eigenvalues not converged
     c_bands:  3 eigenvalues not converged
     c_bands:  1 eigenvalues not converged
     c_bands:  2 eigenvalues not converged
     c_bands:  2 eigenvalues not converged
     c_bands:  5 eigenvalues not converged
     c_bands:  4 eigenvalues not converged
     c_bands:  2 eigenvalues not converged
     c_bands:  1 eigenvalues not converged
     c_bands:  3 eigenvalues not converged
     c_bands:  2 eigenvalues not converged
     c_bands:  2 eigenvalues not converged
     c_bands:  1 eigenvalues not converged
     c_bands:  2 eigenvalues not converged
     c_bands:  1 eigenvalues not converged
     c_bands:  1 eigenvalues not converged
     c_bands:  2 eigenvalues not converged
     c_bands:  1 eigenvalues not converged
     c_bands:  1 eigenvalues not converged
     c_bands:  2 eigenvalues not converged
     c_bands:  1 eigenvalues not converged
     c_bands:  1 eigenvalues not converged
     c_bands:  1 eigenvalues not converged
     c_bands:  3 eigenvalues not converged
     c_bands:  1 eigenvalues not converged
     c_bands:  3 eigenvalues not converged
     c_bands:  3 eigenvalues not converged
     c_bands:  2 eigenvalues not converged
     c_bands:  4 eigenvalues not converged
     c_bands:  1 eigenvalues not converged
     c_bands:  1 eigenvalues not converged
     c_bands:  3 eigenvalues not converged
     ethr =  1.00E-02,  avg # of iterations = 10.5

     total cpu time spent up to now is       90.0 secs

     total energy              =   -1631.70867830 Ry
     Harris-Foulkes estimate   =   -2167.60652423 Ry
     estimated scf accuracy    <     968.42252129 Ry

     iteration #  3     ecut=    40.00 Ry     beta=0.70
     CG style diagonalization
     c_bands:  1 eigenvalues not converged
     c_bands:  1 eigenvalues not converged
     c_bands:  1 eigenvalues not converged
     c_bands:  1 eigenvalues not converged
     c_bands:  1 eigenvalues not converged
     c_bands:  1 eigenvalues not converged
     ethr =  1.00E-02,  avg # of iterations = 10.9

     total cpu time spent up to now is      132.1 secs

     total energy              =   -1777.11697140 Ry
     Harris-Foulkes estimate   =   -1786.29140377 Ry
     estimated scf accuracy    <      16.25558207 Ry

     iteration #  4     ecut=    40.00 Ry     beta=0.70
     CG style diagonalization
     ethr =  1.00E-02,  avg # of iterations =  3.5

     total cpu time spent up to now is      145.2 secs

     total energy              =   -1778.42847790 Ry
     Harris-Foulkes estimate   =   -1779.83474828 Ry
     estimated scf accuracy    <       2.10395263 Ry

     iteration #  5     ecut=    40.00 Ry     beta=0.70
     CG style diagonalization
     ethr =  1.42E-03,  avg # of iterations =  4.1

     total cpu time spent up to now is      160.6 secs

     total energy              =   -1779.15262231 Ry
     Harris-Foulkes estimate   =   -1779.25903600 Ry
     estimated scf accuracy    <       0.17632551 Ry

     iteration #  6     ecut=    40.00 Ry     beta=0.70
     CG style diagonalization
     c_bands:  2 eigenvalues not converged
     c_bands:  1 eigenvalues not converged
     c_bands:  2 eigenvalues not converged
     c_bands:  1 eigenvalues not converged
     c_bands:  1 eigenvalues not converged
     c_bands:  1 eigenvalues not converged
     c_bands:  1 eigenvalues not converged
     c_bands:  1 eigenvalues not converged
     c_bands:  1 eigenvalues not converged
     c_bands:  1 eigenvalues not converged
     ethr =  1.19E-04,  avg # of iterations =  4.3

     total cpu time spent up to now is      177.1 secs

     total energy              =   -1779.20090736 Ry
     Harris-Foulkes estimate   =   -1779.20200610 Ry
     estimated scf accuracy    <       0.00197837 Ry

     iteration #  7     ecut=    40.00 Ry     beta=0.70
     CG style diagonalization
     c_bands:  3 eigenvalues not converged
     c_bands:  1 eigenvalues not converged
     c_bands:  1 eigenvalues not converged
     c_bands:  1 eigenvalues not converged
     c_bands:  1 eigenvalues not converged
     c_bands:  2 eigenvalues not converged
     c_bands:  1 eigenvalues not converged
     c_bands:  1 eigenvalues not converged
     c_bands:  1 eigenvalues not converged
     c_bands:  1 eigenvalues not converged
     c_bands:  1 eigenvalues not converged
     c_bands:  1 eigenvalues not converged
     c_bands:  2 eigenvalues not converged
     c_bands:  1 eigenvalues not converged
     c_bands:  1 eigenvalues not converged
     c_bands:  5 eigenvalues not converged
     c_bands:  1 eigenvalues not converged
     c_bands:  2 eigenvalues not converged
     c_bands:  1 eigenvalues not converged
     c_bands:  1 eigenvalues not converged
     c_bands:  2 eigenvalues not converged
     c_bands:  1 eigenvalues not converged
     c_bands:  1 eigenvalues not converged
     c_bands:  1 eigenvalues not converged
     c_bands:  1 eigenvalues not converged
     c_bands:  1 eigenvalues not converged
     ethr =  1.34E-06,  avg # of iterations =  5.8

     total cpu time spent up to now is      199.7 secs

     total energy              =   -1779.20403057 Ry
     Harris-Foulkes estimate   =   -1779.20441833 Ry
     estimated scf accuracy    <       0.00057152 Ry

     iteration #  8     ecut=    40.00 Ry     beta=0.70
     CG style diagonalization
     c_bands:  1 eigenvalues not converged
     c_bands:  1 eigenvalues not converged
     c_bands:  1 eigenvalues not converged
     c_bands:  1 eigenvalues not converged
     c_bands:  1 eigenvalues not converged
     ethr =  3.86E-07,  avg # of iterations =  3.7

     total cpu time spent up to now is      213.4 secs

     End of self-consistent calculation

          k = 0.0000 0.0000 0.0000 (  2601 PWs)   bands (ev):

   -65.9161 -65.8536 -24.8324 -24.8324 -24.8324 -24.7988 -24.7988 -24.7988
   -19.0569 -18.5288 -18.5288 -17.2604 -17.2604 -17.2604   4.5707   4.5707
     5.2411   7.2173   7.2173   7.2173   8.8258   8.8258   8.8258   9.2063
     9.2063   9.2063   9.5698   9.5698   9.5698  12.0690  12.0690  12.0690
    23.1451  23.1451  23.5494  23.5494  23.7412  23.7412  23.7412  23.8108
    23.8108  23.8108  30.4126  31.3304  33.3130  33.3130  33.3130  35.3693
    35.3693  35.3693  35.5422  35.6307  35.7959  35.7959  39.4403  39.4403
    39.4403  39.7891  39.7891  41.0530  41.0530  41.0530  42.5452  42.5452
    42.5452  45.8788  45.8788  46.6739  46.6739  46.6739  47.1310  47.1310
    47.1310  47.4918  50.3261  50.3262  50.3262  50.6358  50.6358  50.6358
    51.6365  51.6365  52.6351  53.9305  53.9308  53.9310  54.0545  54.0545
    54.0541

          k = 0.0000 0.0000 0.1429 (  2657 PWs)   bands (ev):

   -65.9577 -65.9218 -24.8462 -24.8462 -24.8447 -24.8369 -24.8349 -24.8349
   -19.0172 -18.5452 -18.4840 -17.3450 -17.2675 -17.2675   4.5742   4.6954
     5.3341   7.2070   7.2070   7.3159   8.7448   8.7448   8.8374   9.0864
     9.3155   9.3155   9.5079   9.5192   9.5192  11.5960  12.0570  12.0570
    23.1364  23.2214  23.5131  23.5285  23.6558  23.6558  23.7358  23.7742
    23.7742  23.7969  30.6370  31.0253  33.5188  33.5188  34.1906  34.8697
    35.5655  35.5655  35.6131  35.7522  35.8609  36.4983  38.8770  38.8770
    39.3625  39.4564  39.7807  40.8365  41.4599  41.4599  42.6171  42.6171
    42.9013  45.2003  45.2902  46.1092  46.1092  46.7039  46.7039  47.1757
    47.6082  47.8135  48.9618  49.9143  50.0644  50.0644  51.2968  51.2968
    51.8319  52.1506  53.5847  53.5847  53.7005  54.0117  54.2884  54.7647
    54.7651

          k = 0.0000 0.0000 0.2857 (  2677 PWs)   bands (ev):

   -65.9691 -65.9496 -24.8677 -24.8572 -24.8513 -24.8513 -24.8402 -24.8402
   -18.9138 -18.5932 -18.3500 -17.5564 -17.2716 -17.2716   4.6253   4.7917
     5.9952   7.1895   7.1895   7.5746   8.6912   8.6912   8.7353   8.9341
     9.3966   9.4330   9.4330   9.5146   9.5146  10.3540  12.0405  12.0405
    23.1288  23.3550  23.4178  23.4178  23.4363  23.5124  23.7328  23.7665
    23.7665  23.7767  30.7776  31.1110  34.0362  34.0362  34.3324  35.5672
    35.5861  36.0535  36.0535  36.1241  36.5053  38.1988  38.1988  38.4004
    38.4404  39.0567  39.6901  40.3521  41.1832  41.1832  42.7349  42.7349
    43.0657  44.2811  44.5135  45.8666  45.8666  46.3720  46.3720  47.2677
    47.7420  48.0783  48.1963  49.1588  49.1588  49.7547  51.1877  51.9059
    51.9060  53.3418  53.4065  53.5300  53.5302  54.7751  54.8384  55.0430
    55.3529

          k = 0.0000 0.0000 0.4286 (  2658 PWs)   bands (ev):

   -65.9423 -65.9400 -24.8527 -24.8476 -24.8446 -24.8446 -24.8371 -24.8371
   -18.7863 -18.6716 -18.1254 -17.8403 -17.2732 -17.2732   4.6900   4.7530
     7.1736   7.1736   7.2280   7.9502   8.2949   8.6826   8.6826   8.8257
     9.0806   9.2464   9.3852   9.3852   9.6504   9.6504  12.0369  12.0369
    23.1697  23.2289  23.2289  23.2724  23.4954  23.5197  23.7386  23.7555
    23.7662  23.7662  30.8663  31.1522  34.5279  34.5279  34.8778  35.4623
    35.6373  36.5138  36.5138  36.7075  37.4286  37.8677  37.8677  38.2934
    38.3791  39.4932  40.1216  40.3837  40.3837  40.4560  42.5239  42.6853
    42.6853  43.8239  43.9585  44.8861  45.5167  45.5167  47.3728  47.3728
    48.0861  48.2113  48.4472  48.4472  48.6347  49.8123  51.5229  52.0035
    52.0036  52.6107  52.6107  53.0421  53.8469  53.9045  55.5134  55.6558
    55.9486

          k = 0.0000 0.1667 0.0000 (  2653 PWs)   bands (ev):

   -65.9512 -65.9217 -24.8439 -24.8439 -24.8407 -24.8375 -24.8347 -24.8347
   -19.0027 -18.5501 -18.4677 -17.3724 -17.2681 -17.2681   4.5811   4.7279
     5.3935   7.2067   7.2067   7.3555   8.7332   8.7332   8.8495   9.0414
     9.3463   9.3463   9.4938   9.5109   9.5109  11.4375  12.0570  12.0570
    23.1347  23.2452  23.5015  23.5245  23.6222  23.6222  23.7352  23.7724
    23.7724  23.7942  30.7157  30.9639  33.5894  33.5894  34.4541  34.7488
    35.6132  35.6338  35.6338  35.7398  35.9421  36.7491  38.7483  38.7483
    39.3322  39.3358  39.7719  40.7636  41.4954  41.4954  42.6511  42.6511
    42.9896  45.0348  45.1550  45.9993  45.9993  46.6099  46.6099  47.2826
    47.7080  47.9279  48.6899  49.7444  49.9405  49.9405  51.4551  51.4551
    51.7823  52.3186  53.6141  53.6142  53.8750  54.1245  54.3857  54.8622
    54.8628

          k = 0.0000 0.1667 0.1429 (  2662 PWs)   bands (ev):

   -65.9665 -65.9251 -24.8563 -24.8515 -24.8481 -24.8437 -24.8331 -24.8315
   -18.9640 -18.5287 -18.4598 -17.3760 -17.3444 -17.2697   4.6505   4.8881
     5.4346   7.2145   7.3063   7.3453   8.6163   8.6312   8.9611   9.1422
     9.2617   9.3710   9.4107   9.4780   9.5875  11.4205  11.5877  12.0511
    23.1713  23.2719  23.4793  23.5002  23.6108  23.6263  23.6563  23.6698
    23.7268  23.8088  30.8644  30.9280  33.7987  33.8887  34.9614  34.9946
    35.1732  35.6511  35.8349  36.1622  36.4164  36.7305  38.2221  38.4320
    39.3010  39.4470  39.8730  40.4745  41.6401  41.7353  42.4573  42.7895
    42.9312  44.3360  44.9334  45.8436  46.0303  46.1518  46.6872  47.1644
    47.2997  48.1715  48.2998  49.4342  49.7083  50.1515  50.9112  51.8234
    52.5302  52.6894  53.1705  53.9629  54.2781  54.3890  54.5438  54.8678
    55.2844

          k = 0.0000 0.1667 0.2857 (  2666 PWs)   bands (ev):

   -65.9571 -65.9433 -24.8559 -24.8552 -24.8460 -24.8444 -24.8434 -24.8403
   -18.8614 -18.5501 -18.3488 -17.5600 -17.3752 -17.2730   4.6941   5.1027
     5.9780   7.2289   7.3274   7.5614   8.4743   8.5342   8.9707   8.9877
     9.3062   9.3602   9.4240   9.5485   9.6021  10.3767  11.4202  12.0397
    23.1717  23.3561  23.4048  23.4117  23.4505  23.5004  23.6117  23.6432
    23.6849  23.8352  30.8245  31.3559  34.3377  34.3822  34.6599  35.5261
    35.6175  36.3202  36.3853  36.6552  36.7705  37.4614  37.9661  38.4140
    39.0462  39.1270  39.5426  40.1411  41.2577  41.4580  42.1764  42.4465
    43.2685  43.4863  44.8259  45.3695  45.6812  45.7324  46.4145  46.9627
    47.3218  47.5562  48.1756  49.0143  49.9133  49.9583  50.4283  52.3656
    52.6004  53.0070  53.6520  53.8109  54.2189  54.4214  54.4618  54.8313
    55.3289

          k = 0.0000 0.1667 0.4286 (  2658 PWs)   bands (ev):

   -65.9473 -65.9367 -24.8552 -24.8518 -24.8442 -24.8409 -24.8394 -24.8384
   -18.7424 -18.6179 -18.1291 -17.8435 -17.3769 -17.2761   4.7167   5.1143
     7.1038   7.2389   7.4028   7.8907   8.2438   8.5336   8.7168   8.8865
     8.8965   9.3398   9.3425   9.5563   9.5762   9.6641  11.4153  12.0378
    23.1568  23.2156  23.2361  23.3368  23.4948  23.5100  23.6031  23.6505
    23.6606  23.8514  31.0392  31.3771  34.8197  34.8721  34.9461  35.4577
    36.1581  36.4834  36.7209  36.8348  37.4941  37.9017  38.0468  38.5760
    38.6433  38.7348  39.9241  40.2750  40.4476  41.3770  41.9406  42.0742
    42.9615  43.2555  44.5840  44.8019  44.8289  45.5701  46.2719  46.7835
    47.3741  47.5912  47.8075  48.7742  49.3866  50.0011  51.5013  52.1392
    52.4035  52.9033  53.2439  53.7929  54.0660  54.1210  54.5146  54.8614
    55.3956

          k = 0.0000 0.3333 0.0000 (  2677 PWs)   bands (ev):

   -65.9692 -65.9488 -24.8608 -24.8548 -24.8514 -24.8514 -24.8456 -24.8456
   -18.8717 -18.6162 -18.2842 -17.6484 -17.2718 -17.2718   4.6463   4.7873
     6.3497   7.1820   7.1820   7.6863   8.5889   8.6840   8.6840   8.9790
     9.3534   9.4134   9.4134   9.5676   9.5676   9.8704  12.0320  12.0320
    23.1355  23.3394  23.3394  23.3481  23.4446  23.5152  23.7331  23.7659
    23.7659  23.7691  30.7713  31.1972  34.2270  34.2270  34.3702  35.5516
    35.5799  36.2306  36.2306  36.7909  36.8038  37.9006  38.0447  38.0447
    38.8754  39.2448  39.6488  40.2259  40.9068  40.9068  42.7150  42.7150
    42.8310  44.0627  44.2925  45.7643  45.7643  46.5750  46.6383  46.6383
    47.8826  48.1569  48.2344  48.8786  48.8786  50.2413  50.7609  51.9477
    51.9477  53.2051  53.2819  53.2819  53.6756  54.5208  54.9493  55.3101
    55.6294

          k = 0.0000 0.3333 0.1429 (  2660 PWs)   bands (ev):

   -65.9479 -65.9404 -24.8569 -24.8536 -24.8425 -24.8416 -24.8396 -24.8364
   -18.8323 -18.5808 -18.2854 -17.6490 -17.3495 -17.2738   4.6988   5.0140
     6.3354   7.2215   7.2920   7.6771   8.4370   8.5568   8.8669   8.9881
     9.2901   9.3725   9.4650   9.5721   9.5921   9.9019  11.5784  12.0423
    23.1637  23.3133  23.3310  23.3947  23.4435  23.5041  23.6407  23.6743
    23.6867  23.8323  30.8416  31.3771  34.4417  34.4599  34.6065  35.5373
    35.8826  36.3204  36.4201  36.9750  37.0233  37.3151  37.9036  38.6229
    38.9771  39.2682  39.4798  39.9691  40.9320  41.2786  42.2008  42.3208
    43.2576  43.4385  44.7203  45.2863  45.8092  45.8248  46.3059  46.6899
    47.5132  47.6971  47.9508  48.8702  49.6999  50.2938  50.4232  52.3828
    52.3886  52.8987  53.4791  53.9512  53.9546  54.2380  54.6219  54.7725
    55.4041

          k = 0.0000 0.3333 0.2857 (  2658 PWs)   bands (ev):

   -65.9527 -65.9340 -24.8565 -24.8513 -24.8451 -24.8433 -24.8399 -24.8385
   -18.7476 -18.4876 -18.2713 -17.6639 -17.5481 -17.2776   4.7183   5.7908
     6.3328   7.3094   7.5229   7.6368   8.3217   8.4058   8.7594   8.9901
     9.2483   9.3211   9.4695   9.6367   9.6839   9.9084  10.4133  12.0328
    23.1738  23.2819  23.2838  23.3999  23.4327  23.4599  23.4986  23.5472
    23.6243  23.8882  31.0853  31.7416  34.8841  35.0923  35.1197  35.4301
    35.4884  36.8970  36.9193  37.2530  37.4473  37.8908  38.1582  38.4737
    38.8814  39.0957  39.3917  40.4185  41.0331  41.3208  41.5400  41.9322
    42.5753  43.2671  44.5728  44.6387  45.0129  45.5842  45.8908  46.3454
    46.8091  47.2002  47.9354  48.5104  49.1027  50.5596  51.0865  52.1782
    52.9721  53.2963  53.6367  53.9614  54.0090  54.4529  54.6715  54.7431
    54.8153

          k = 0.0000 0.3333 0.4286 (  2654 PWs)   bands (ev):

   -65.9409 -65.9363 -24.8494 -24.8480 -24.8466 -24.8459 -24.8422 -24.8395
   -18.6822 -18.4227 -18.1339 -17.8593 -17.6361 -17.2793   4.7292   6.2012
     7.0756   7.3897   7.6383   7.7456   8.2929   8.3615   8.5423   8.6890
     8.9474   9.2593   9.3665   9.5968   9.6889   9.7332   9.9476  12.0188
    23.1280  23.1556  23.1927  23.3582  23.3872  23.4375  23.5482  23.5670
    23.5901  23.9184  31.4969  31.8437  34.6855  35.3380  35.4945  35.8213
    36.1140  36.8966  37.1360  37.3170  37.4971  37.9293  38.4258  38.6739
    38.9954  39.3729  39.4076  40.9024  41.1993  41.2948  41.7103  41.8203
    41.9639  43.0528  44.0730  44.2895  44.3188  45.0678  45.8292  46.0446
    46.0478  46.6487  47.1732  48.3306  48.8109  51.2345  51.8472  52.1453
    52.3352  53.0677  53.1770  53.4144  54.0988  54.4203  54.7758  55.0226
    55.6118

          k = 0.0000-0.5000 0.0000 (  2666 PWs)   bands (ev):

   -65.9480 -65.9480 -24.8542 -24.8542 -24.8450 -24.8450 -24.8428 -24.8428
   -18.7266 -18.7266 -17.9874 -17.9874 -17.2738 -17.2738   4.7183   4.7183
     7.1712   7.1712   7.9140   7.9140   8.2018   8.2018   8.6813   8.6813
     9.1621   9.1621   9.3734   9.3734   9.6683   9.6683  12.0353  12.0353
    23.2014  23.2014  23.2145  23.2145  23.5140  23.5140  23.7454  23.7454
    23.7653  23.7653  31.0047  31.0047  34.6075  34.6075  35.3139  35.3139
    35.9588  35.9588  36.5892  36.5892  37.8313  37.8313  37.9203  37.9203
    39.1327  39.1327  40.2297  40.2297  40.2780  40.2780  42.6790  42.6790
    43.4968  43.4968  43.8245  43.8245  45.4454  45.4454  47.6486  47.6486
    48.1767  48.1767  48.2991  48.2991  49.1633  49.1633  52.1582  52.1583
    52.2161  52.2162  52.4976  52.4976  53.7072  53.7073  55.6193  55.6197
    56.1891

          k = 0.0000-0.5000 0.1429 (  2666 PWs)   bands (ev):

   -65.9486 -65.9485 -24.8549 -24.8543 -24.8487 -24.8465 -24.8439 -24.8422
   -18.7137 -18.6660 -17.9975 -17.9832 -17.3506 -17.2754   4.7218   5.0096
     7.2231   7.2239   7.9135   7.9276   8.0878   8.2233   8.5679   8.7784
     8.9311   9.3083   9.3419   9.5413   9.5892   9.6749  11.5693  12.0331
    23.1509  23.1916  23.2271  23.2992  23.5090  23.5116  23.6367  23.6702
    23.6774  23.8397  31.1591  31.1609  34.8010  34.8675  35.2953  35.3504
    36.1248  36.3328  36.6432  36.7288  37.6075  38.0643  38.0799  38.3135
    38.6838  39.0314  39.7131  40.1360  40.2933  41.3807  42.0482  42.6691
    43.0755  43.3439  43.6248  44.6046  44.8516  45.5585  46.5276  47.2682
    47.4066  47.7342  47.8073  48.8750  49.1940  49.8531  51.9820  51.9855
    52.0515  52.9004  53.1673  53.3910  53.9087  54.3630  54.3684  54.8712
    55.3933

          k = 0.0000-0.5000 0.2857 (  2658 PWs)   bands (ev):

   -65.9422 -65.9419 -24.8510 -24.8500 -24.8488 -24.8476 -24.8421 -24.8398
   -18.6825 -18.4949 -18.0205 -17.9774 -17.5549 -17.2793   4.7252   5.8374
     7.3201   7.3511   7.8270   7.9695   8.0205   8.3032   8.4041   8.6003
     8.8960   9.2718   9.4103   9.5473   9.6692   9.7152  10.4043  12.0205
    23.1204  23.1541  23.2145  23.3729  23.4137  23.4620  23.5382  23.5707
    23.6011  23.9059  31.5502  31.5569  34.8199  35.3144  35.4616  35.6234
    36.4122  36.4329  37.0202  37.4893  37.5695  38.0631  38.4673  38.5182
    38.7749  38.8358  39.5343  40.7477  40.8110  41.3327  41.8791  42.0881
    42.7162  42.9683  43.7066  43.9703  44.6156  45.6246  45.6428  45.9645
    46.4189  46.8989  47.4225  48.2052  48.9387  51.4133  51.6583  52.4815
    52.6200  52.8704  52.9413  53.0772  54.0465  54.8592  54.8812  55.0531
    55.6261

          k = 0.0000-0.5000 0.4286 (  2662 PWs)   bands (ev):

   -65.9460 -65.9460 -24.8540 -24.8533 -24.8486 -24.8485 -24.8485 -24.8451
   -18.6583 -18.2563 -18.0409 -18.0061 -17.7867 -17.2808   4.7386   7.0141
     7.3738   7.4959   7.7242   8.0118   8.0407   8.3158   8.3432   8.4109
     8.6304   9.2007   9.2185   9.2559   9.7036   9.7164   9.7729  12.0070
    23.0768  23.0941  23.1109  23.2876  23.4057  23.4133  23.5652  23.5853
    23.5887  23.9429  31.9583  31.9594  34.3109  35.3189  35.5072  36.7306
    36.7533  36.8950  37.1708  37.3009  37.4697  37.7228  38.2415  38.6739
    39.0109  39.0657  40.9335  41.0625  41.4171  41.4750  41.9508  42.0830
    42.2728  42.8189  43.2317  43.8696  44.2886  44.4566  44.4971  45.7933
    45.9009  45.9452  46.6062  48.4118  48.7433  51.4014  51.4531  51.8399
    52.6091  52.7151  53.2774  53.6509  53.6713  53.9436  54.9093  55.5461
    56.0476

          k = 0.2000 0.0000 0.0000 (  2661 PWs)   bands (ev):

   -65.9680 -65.9212 -24.8526 -24.8501 -24.8501 -24.8383 -24.8343 -24.8343
   -18.9820 -18.5596 -18.4411 -17.4165 -17.2688 -17.2688   4.5923   4.7629
     5.5109   7.2023   7.2023   7.4101   8.7175   8.7175   8.8695   8.9620
     9.3856   9.3856   9.4711   9.4997   9.4997  11.1716  12.0499  12.0499
    23.1319  23.2801  23.4829  23.5188  23.5684  23.5684  23.7343  23.7697
    23.7697  23.7897  30.8309  30.8899  33.7018  33.7018  34.5850  34.8528
    35.6082  35.7243  35.7389  35.7389  36.0748  37.1554  38.5749  38.5749
    39.1308  39.2769  39.7547  40.6489  41.4861  41.4861  42.6975  42.6975
    43.0896  44.8054  44.9671  45.8978  45.8978  46.4822  46.4822  47.4254
    47.8354  48.0729  48.2979  49.5583  49.7337  49.7337  51.6427  51.6427
    51.6779  52.5812  53.6414  53.6415  53.8346  54.4829  54.5450  54.9423
    54.9910

          k = 0.2000 0.0000 0.1429 (  2667 PWs)   bands (ev):

   -65.9611 -65.9400 -24.8588 -24.8529 -24.8512 -24.8419 -24.8394 -24.8355
   -18.9421 -18.5342 -18.4373 -17.4190 -17.3461 -17.2710   4.6612   4.9446
     5.5293   7.2153   7.3025   7.3982   8.5932   8.5953   8.9804   9.0926
     9.3005   9.3421   9.4410   9.4658   9.5893  11.1615  11.5818  12.0485
    23.1707  23.3011  23.4614  23.4945  23.5590  23.5787  23.6517  23.6685
    23.7171  23.8138  30.8303  31.0371  33.9134  34.0025  34.8246  35.2691
    35.3330  35.6393  35.9418  36.2897  36.4139  37.1084  38.0561  38.3023
    39.2669  39.3497  39.8898  40.3179  41.6329  41.6884  42.4211  42.7337
    43.0377  44.1190  44.8650  45.7638  45.8973  46.0088  46.6550  47.1560
    47.4047  47.8724  48.3999  49.3597  49.5639  50.0617  50.8835  51.9839
    52.5046  52.8948  53.1651  53.9702  54.3298  54.5419  54.5793  55.0534
    55.2027

          k = 0.2000 0.0000 0.2857 (  2659 PWs)   bands (ev):

   -65.9486 -65.9395 -24.8547 -24.8470 -24.8459 -24.8424 -24.8406 -24.8388
   -18.8399 -18.5337 -18.3455 -17.5619 -17.4175 -17.2739   4.7013   5.2569
     5.9821   7.2441   7.3805   7.5563   8.4411   8.4964   8.9587   9.0115
     9.3324   9.3327   9.3990   9.5645   9.6248  10.3784  11.1712  12.0404
    23.1798  23.3555  23.3972  23.4168  23.4474  23.5017  23.5624  23.6013
    23.6700  23.8483  30.8546  31.4467  34.4639  34.5148  34.7803  35.4414
    35.5622  36.4298  36.5811  36.8731  36.9053  37.4400  37.9034  38.4058
    39.0729  39.1412  39.3237  40.3455  41.1996  41.4571  42.0202  42.3628
    43.2707  43.2836  44.8619  45.1959  45.5124  45.6090  46.4566  46.7886
    47.1951  47.5595  48.0879  49.0379  49.8461  50.0677  50.3164  52.3763
    52.8191  53.1152  53.7195  53.8715  54.2355  54.3301  54.7406  54.7580
    55.1079

          k = 0.2000 0.0000 0.4286 (  2660 PWs)   bands (ev):

   -65.9490 -65.9387 -24.8518 -24.8487 -24.8471 -24.8453 -24.8450 -24.8393
   -18.7289 -18.5900 -18.1307 -17.8455 -17.4199 -17.2769   4.7187   5.2805
     7.0930   7.2641   7.4501   7.8634   8.2376   8.4924   8.7159   8.8242
     8.9083   9.3253   9.3934   9.5234   9.6127   9.6727  11.1633  12.0359
    23.1520  23.2086  23.2383  23.3516  23.4966  23.5076  23.5503  23.6132
    23.6435  23.8673  31.1118  31.4651  34.9395  34.9584  35.0198  35.4315
    36.1223  36.5571  36.8036  37.1229  37.4906  37.9734  38.0718  38.3874
    38.7178  38.7228  40.1248  40.1854  40.4930  41.4840  41.7616  42.0134
    42.7155  43.3580  44.4381  44.6475  45.0267  45.3880  46.1231  46.4564
    47.1854  47.3974  47.8814  48.5626  49.2458  50.3240  51.6115  52.1159
    52.6264  52.9848  53.1937  53.6437  54.2253  54.3471  54.6529  54.8264
    55.2508

          k = 0.2000 0.1667 0.0000 (  2672 PWs)   bands (ev):

   -65.9600 -65.9520 -24.8661 -24.8560 -24.8484 -24.8447 -24.8401 -24.8393
   -18.9289 -18.5289 -18.4316 -17.4217 -17.3723 -17.2714   4.6684   5.0149
     5.5439   7.2207   7.3368   7.3949   8.5666   8.5694   8.9916   9.1136
     9.2812   9.3277   9.4471   9.4548   9.5993  11.1576  11.4260  12.0443
    23.1768  23.3129  23.4539  23.4877  23.5523  23.5816  23.6220  23.6360
    23.7072  23.8200  30.8187  31.1039  33.9863  34.0891  34.9023  35.1857
    35.4786  35.6283  36.0099  36.3645  36.6475  37.0955  37.9493  38.2277
    39.2583  39.3391  39.9015  40.2613  41.6358  41.6976  42.3454  42.7151
    43.0469  43.9548  44.8460  45.7127  45.7708  45.9585  46.6676  47.1714
    47.3281  47.7038  48.4554  49.3540  49.5146  50.0878  50.7305  52.0639
    52.6584  52.8899  53.1804  53.9763  54.5183  54.5203  54.6355  54.9956
    55.1903

          k = 0.2000 0.1667 0.1429 (  2665 PWs)   bands (ev):

   -65.9593 -65.9395 -24.8587 -24.8570 -24.8454 -24.8431 -24.8407 -24.8361
   -18.8865 -18.4904 -18.4428 -17.4228 -17.3764 -17.3456   4.9183   5.0435
     5.5441   7.3192   7.3511   7.4041   8.2968   8.8239   8.9041   9.1673
     9.2493   9.3184   9.3735   9.5371   9.5771  11.1597  11.4201  11.5832
    23.2417  23.3007  23.4364  23.4607  23.5344  23.5757  23.6030  23.6117
    23.6788  23.7233  30.8302  31.2963  34.2526  34.2903  35.1407  35.4106
    35.5833  35.8857  36.3659  36.5762  36.6147  37.0140  37.7663  37.8855
    39.2477  39.6406  39.8789  40.3138  41.5105  41.6287  42.2350  42.3006
    42.9089  44.2248  44.5013  45.5135  45.6407  45.6993  45.8903  47.1064
    47.2354  47.6543  49.0364  49.1929  49.4517  50.0452  50.2499  52.3721
    52.9071  53.4533  53.5224  53.9880  54.5277  54.5927  54.6997  54.8968
    54.9213

          k = 0.2000 0.1667 0.2857 (  2655 PWs)   bands (ev):

   -65.9546 -65.9243 -24.8562 -24.8468 -24.8430 -24.8410 -24.8394 -24.8360
   -18.7809 -18.4893 -18.3546 -17.5637 -17.4213 -17.3763   5.0692   5.2872
     5.9532   7.3717   7.4192   7.5793   8.1133   8.7837   8.8808   9.0202
     9.2109   9.3559   9.4513   9.5424   9.6058  10.3957  11.1699  11.4212
    23.2501  23.3169  23.3922  23.4257  23.4432  23.4946  23.5146  23.5437
    23.6571  23.7223  30.9611  31.6802  34.7127  34.8134  35.1219  35.7379
    35.9690  36.4527  36.8207  37.0160  37.1274  37.3022  37.4587  38.4167
    39.2402  39.4568  39.6493  40.0868  40.9361  41.4389  41.6387  41.7643
    43.1673  43.7580  44.4485  44.8741  45.0519  45.3205  45.5082  46.8211
    47.2728  47.4442  48.4781  48.6758  49.6667  49.9344  50.5666  52.4597
    52.8385  53.7262  53.9470  54.0236  54.0702  54.3221  54.5779  54.8618
    55.4772

          k = 0.2000 0.1667 0.4286 (  2655 PWs)   bands (ev):

   -65.9407 -65.9359 -24.8525 -24.8507 -24.8471 -24.8429 -24.8394 -24.8360
   -18.6621 -18.5578 -18.1341 -17.8481 -17.4225 -17.3798   5.1112   5.2887
     7.0597   7.3791   7.5085   7.8681   8.0184   8.6335   8.6638   8.8107
     9.0160   9.1243   9.5251   9.5560   9.5808   9.6099  11.1656  11.4137
    23.1697  23.1870  23.3256  23.3624  23.4549  23.4742  23.5073  23.5315
    23.6802  23.7444  31.2980  31.6918  35.0835  35.2572  35.3328  35.8269
    36.4335  36.6954  36.7550  37.0796  37.5511  37.9028  38.3925  38.5058
    38.7696  39.1468  39.3779  40.0344  41.1618  41.2343  41.3795  41.5644
    42.6578  44.0493  44.2619  44.3661  44.4979  44.7615  45.4427  45.9381
    47.2730  47.5813  47.8310  48.6249  48.6505  49.6174  52.1398  52.3346
    52.7309  53.3811  53.7681  53.9244  54.1545  54.2855  54.7877  55.1328
    55.3360

          k = 0.2000 0.3333 0.0000 (  2656 PWs)   bands (ev):

   -65.9505 -65.9314 -24.8572 -24.8445 -24.8442 -24.8423 -24.8383 -24.8377
   -18.8007 -18.5492 -18.2847 -17.6516 -17.4185 -17.2747   4.7104   5.2769
     6.3239   7.2521   7.3778   7.6604   8.3818   8.4887   8.9115   8.9360
     9.3384   9.3559   9.3954   9.6070   9.6268   9.9119  11.1688  12.0370
    23.1742  23.3075  23.3204  23.4076  23.4520  23.4970  23.5574  23.6070
    23.6593  23.8566  30.9166  31.5196  34.6347  34.6747  34.7938  35.5032
    35.7107  36.5924  36.7472  37.1144  37.1277  37.4066  37.8380  38.6465
    39.0382  39.0620  39.3827  40.3151  40.8411  41.3278  41.9076  42.1906
    43.0451  43.3491  44.9301  44.9586  45.4760  45.5196  46.2925  46.4195
    47.2801  47.6953  47.7481  48.8627  49.7386  50.0757  50.6316  52.4280
    52.8152  53.0224  53.4998  53.9359  54.1245  54.5017  54.6033  54.7239
    55.1047

          k = 0.2000 0.3333 0.1429 (  2657 PWs)   bands (ev):

   -65.9527 -65.9296 -24.8567 -24.8460 -24.8452 -24.8429 -24.8422 -24.8357
   -18.7561 -18.5194 -18.2896 -17.6535 -17.4206 -17.3517   4.9907   5.2893
     6.2998   7.3542   7.4065   7.6743   8.1215   8.7124   8.8232   9.0153
     9.1793   9.3668   9.5054   9.5333   9.6111   9.9356  11.1665  11.5743
    23.2211  23.2621  23.3858  23.4088  23.4333  23.4686  23.5187  23.5612
    23.6562  23.7629  31.0151  31.6947  34.7538  34.9227  35.0628  35.8809
    36.0819  36.3992  36.7390  37.1848  37.2926  37.4370  37.5558  38.9157
    39.1351  39.2609  39.4761  40.0551  40.6805  41.4003  41.5670  41.7448
    43.1192  43.6809  44.4870  44.8163  45.0450  45.2967  45.4981  46.5287
    47.2702  47.5814  48.1091  48.5961  49.4311  49.9731  51.0008  52.3278
    52.8187  53.6226  53.6984  54.0218  54.0957  54.3964  54.5618  54.9863
    55.4283

          k = 0.2000 0.3333 0.2857 (  2656 PWs)   bands (ev):

   -65.9493 -65.9299 -24.8560 -24.8478 -24.8443 -24.8427 -24.8420 -24.8405
   -18.6526 -18.4334 -18.2870 -17.6620 -17.5559 -17.4238   5.2755   5.8171
     6.2860   7.4641   7.5735   7.7024   7.9174   8.7231   8.7922   8.9724
     9.2001   9.2497   9.4523   9.5646   9.6296   9.9542  10.4112  11.1655
    23.2262  23.2619  23.3440  23.3934  23.4251  23.4449  23.4654  23.5004
    23.5550  23.7176  31.3219  32.0680  35.1990  35.3868  35.6059  35.7384
    36.3329  36.6071  36.8853  37.2608  37.6697  38.0542  38.3403  38.7253
    38.8968  39.5448  39.6280  40.2426  40.3766  40.7787  41.1539  41.4557
    43.1087  43.3923  43.8947  44.3838  44.5565  44.8708  45.0721  46.4147
    46.7482  47.4715  47.6631  48.3402  48.6290  49.9524  51.3612  52.0433
    52.7736  53.2731  53.6977  54.0465  54.4249  54.6212  54.8496  55.3947
    55.8902

          k = 0.2000 0.3333 0.4286 (  2643 PWs)   bands (ev):

   -65.9292 -65.9244 -24.8496 -24.8477 -24.8418 -24.8389 -24.8362 -24.8325
   -18.5689 -18.3936 -18.1380 -17.8580 -17.6439 -17.4273   5.2926   6.2119
     7.0485   7.5472   7.5927   7.7462   8.0508   8.5876   8.6812   8.7146
     8.9893   9.1560   9.3682   9.5489   9.5846   9.6463   9.9630  11.1664
    23.1478  23.1946  23.2895  23.3437  23.4032  23.4212  23.4710  23.5093
    23.5390  23.7546  31.8018  32.1903  35.1012  35.5691  35.9921  36.0754
    36.5752  36.8352  37.1945  37.4988  37.8183  38.1349  38.6124  38.7632
    39.1339  39.2433  39.6123  39.9637  40.9023  41.0268  41.1760  41.7681
    42.4597  43.4551  43.7712  43.8732  44.1964  44.6934  44.8698  45.5877
    46.1276  46.6549  47.2878  47.8111  48.2500  49.9568  51.4144  52.0420
    52.5721  52.6160  53.6926  54.1331  54.7963  54.9602  55.1965  55.6223
    55.9454

          k = 0.2000-0.5000 0.0000 (  2658 PWs)   bands (ev):

   -65.9412 -65.9410 -24.8539 -24.8531 -24.8429 -24.8417 -24.8406 -24.8404
   -18.7023 -18.6089 -18.0055 -17.9801 -17.4202 -17.2766   4.7233   5.2819
     7.2628   7.2667   7.8985   7.9412   8.0354   8.2500   8.5009   8.7992
     8.8349   9.3146   9.4069   9.5272   9.6118   9.6903  11.1660  12.0338
    23.1377  23.1817  23.2323  23.3343  23.5049  23.5132  23.5493  23.6156
    23.6400  23.8703  31.2962  31.2992  35.0072  35.1144  35.1410  35.3661
    36.2532  36.4261  36.8447  37.0912  37.5629  38.1447  38.2003  38.2846
    38.5061  38.9129  39.9870  40.0854  40.3687  41.6839  41.7317  42.6346
    42.6762  43.2058  43.7480  44.3994  45.0469  45.3386  46.1069  46.7168
    47.0158  47.4233  47.9195  48.3772  49.1489  50.5113  51.8520  52.1709
    52.3316  52.9870  53.1387  53.6436  54.2073  54.3015  54.5821  54.9395
    55.1719

          k = 0.2000-0.5000 0.1429 (  2658 PWs)   bands (ev):

   -65.9414 -65.9410 -24.8502 -24.8501 -24.8459 -24.8447 -24.8439 -24.8421
   -18.6420 -18.5965 -18.0008 -17.9892 -17.4221 -17.3537   5.0132   5.2822
     7.3036   7.3108   7.8903   7.9201   8.0526   8.1196   8.6151   8.6804
     9.0021   9.1371   9.5242   9.5557   9.5835   9.6219  11.1652  11.5689
    23.1525  23.1617  23.3044  23.3423  23.4662  23.4921  23.5212  23.5475
    23.6709  23.7778  31.4545  31.4570  35.2153  35.2441  35.4030  35.5788
    36.4524  36.5989  36.8221  37.0654  37.7740  37.9793  38.4638  38.5027
    38.5086  38.9823  39.3904  39.8415  41.1052  41.3813  41.7051  41.7634
    43.1734  43.1809  44.0270  44.4057  44.6018  44.7441  45.7663  45.8259
    47.2103  47.6211  48.0573  48.1886  48.9394  49.6122  52.1940  52.5972
    52.8561  53.0644  53.6106  53.7109  54.1748  54.2410  54.7457  55.0978
    55.1174

          k = 0.2000-0.5000 0.2857 (  2648 PWs)   bands (ev):

   -65.9318 -65.9313 -24.8499 -24.8498 -24.8449 -24.8432 -24.8351 -24.8346
   -18.5667 -18.4718 -18.0107 -17.9911 -17.5591 -17.4262   5.2913   5.8411
     7.3784   7.4181   7.7771   7.8576   8.0767   8.1649   8.6343   8.6356
     9.0044   9.1237   9.4233   9.5534   9.5814   9.6340  10.4057  11.1644
    23.1583  23.1636  23.3110  23.3683  23.3928  23.4149  23.4937  23.5096
    23.5789  23.7405  31.8697  31.8739  35.2050  35.6425  35.8623  35.8625
    36.7283  36.7992  37.0543  37.6398  37.6623  38.3439  38.4280  38.7681
    38.7830  38.9670  39.4869  39.8769  40.9974  41.1251  41.4645  41.7634
    43.0240  43.1033  43.7749  43.8442  44.1332  44.7569  45.0186  45.2637
    46.6948  47.2430  47.2885  47.7219  48.3942  49.5173  51.8988  52.4412
    52.7215  52.7291  53.8320  54.1912  54.4006  54.8055  55.0761  55.4070
    55.7144

          k = 0.2000-0.5000 0.4286 (  2646 PWs)   bands (ev):

   -65.9294 -65.9288 -24.8471 -24.8470 -24.8423 -24.8418 -24.8414 -24.8398
   -18.5406 -18.2297 -18.0300 -18.0032 -17.8110 -17.4296   5.2968   7.0242
     7.3845   7.5604   7.6496   7.8404   8.0591   8.3873   8.4669   8.5947
     8.7461   9.1431   9.2296   9.2587   9.5973   9.6011   9.6596  11.1620
    23.1207  23.1628  23.2009  23.3013  23.3881  23.4230  23.4327  23.5411
    23.5449  23.7827  32.3169  32.3215  34.7765  35.3768  36.2012  36.3968
    37.0568  37.1694  37.5991  37.6894  37.8461  38.1063  38.4580  38.6793
    38.7046  39.1023  39.2446  40.4610  41.5035  41.6538  41.9746  42.0962
    43.0874  43.1657  43.4084  43.4658  43.7368  43.9738  44.6233  45.1151
    45.4009  45.8587  46.0102  47.8194  48.4777  50.3951  50.7800  51.9116
    52.0674  52.0855  53.0964  54.5787  54.6847  55.0692  55.6752  56.3240
    56.3802

          k = 0.4000 0.0000 0.0000 (  2657 PWs)   bands (ev):

   -65.9543 -65.9255 -24.8532 -24.8468 -24.8468 -24.8411 -24.8365 -24.8365
   -18.8111 -18.6536 -18.1766 -17.7812 -17.2725 -17.2725   4.6778   4.7658
     6.9538   7.1763   7.1763   7.8699   8.3907   8.6823   8.6823   9.0512
     9.1383   9.2825   9.3941   9.3941   9.6293   9.6293  12.0364  12.0364
    23.1558  23.2544  23.2544  23.2969  23.4824  23.5191  23.7373  23.7597
    23.7665  23.7665  30.8278  31.1928  34.4572  34.4572  34.6795  35.4943
    35.6018  36.4456  36.4456  37.0402  37.2323  37.8892  37.9036  37.9036
    38.5465  39.5527  40.1264  40.2525  40.5174  40.5174  42.4756  42.6913
    42.6913  43.8678  44.0428  45.4321  45.5800  45.5800  47.1636  47.1636
    48.0377  48.2082  48.4700  48.5558  48.5558  50.0949  51.1097  51.9858
    51.9858  52.8168  52.8168  53.0905  53.8633  54.1178  55.3615  55.8041
    55.7159

          k = 0.4000 0.0000 0.1429 (  2659 PWs)   bands (ev):

   -65.9508 -65.9354 -24.8536 -24.8474 -24.8447 -24.8446 -24.8432 -24.8371
   -18.7755 -18.6166 -18.1786 -17.7837 -17.3500 -17.2753   4.7115   5.0140
     6.8985   7.2232   7.3089   7.8394   8.3129   8.5602   8.7839   8.9589
     9.1173   9.2972   9.3612   9.5535   9.5752   9.6421  11.5727  12.0404
    23.1626  23.2446  23.2476  23.3436  23.4817  23.5102  23.6387  23.6764
    23.6765  23.8370  30.9384  31.3644  34.6686  34.7040  34.7945  35.4979
    36.0775  36.4017  36.6116  36.9056  37.3579  37.8282  37.8403  38.4494
    38.7186  39.0356  39.8603  40.3046  40.4736  41.1695  42.0919  42.1022
    43.1885  43.2107  44.6521  44.9833  45.2107  45.6872  46.3997  46.7907
    47.6263  47.6578  47.7703  48.8333  49.7164  49.7400  51.1539  52.2572
    52.3146  52.8334  53.2893  53.6010  54.1373  54.2657  54.4074  54.8611
    55.5675

          k = 0.4000 0.0000 0.2857 (  2657 PWs)   bands (ev):

   -65.9506 -65.9335 -24.8531 -24.8507 -24.8441 -24.8441 -24.8423 -24.8407
   -18.7090 -18.4880 -18.1815 -17.7940 -17.5534 -17.2785   4.7222   5.8279
     6.8535   7.3338   7.5382   7.7470   8.2801   8.3968   8.6669   8.8688
     9.0630   9.2937   9.4665   9.5171   9.6676   9.6995  10.4061  12.0255
    23.1502  23.2052  23.2342  23.3835  23.4194  23.4604  23.5210  23.5606
    23.6101  23.8997  31.2625  31.7478  34.8329  35.2691  35.3989  35.4238
    35.8179  36.8516  37.0282  37.4076  37.6904  37.8870  38.1246  38.4743
    38.8271  38.9782  39.9283  40.4616  40.9319  41.3857  41.4021  41.8793
    42.2864  43.3156  44.2512  44.6117  44.6806  45.5237  45.6184  46.1181
    46.7114  46.8583  47.9160  48.1050  49.0097  50.8488  51.6784  52.0886
    52.7335  53.1787  53.2706  53.4864  54.0710  54.5738  54.8704  54.9558
    55.3381

          k = 0.4000 0.0000 0.4286 (  2657 PWs)   bands (ev):

   -65.9449 -65.9380 -24.8571 -24.8527 -24.8469 -24.8464 -24.8453 -24.8351
   -18.6672 -18.3256 -18.1214 -17.8913 -17.7366 -17.2805   4.7339   6.7411
     7.0903   7.4492   7.7067   7.7190   8.3239   8.3386   8.4288   8.6539
     8.8065   9.2344   9.2962   9.4151   9.6625   9.7058   9.7596  12.0114
    23.1123  23.1145  23.1403  23.3089  23.3973  23.4215  23.5722  23.5743
    23.5774  23.9338  31.7130  31.9720  34.4708  35.3422  35.4975  36.2911
    36.5028  36.8646  37.2017  37.2269  37.5835  37.7065  38.5804  38.6831
    38.9611  39.0666  40.5465  41.0306  41.0589  41.6255  41.6845  41.8406
    42.1215  42.5176  44.0027  44.0712  44.3117  44.5742  45.1604  45.9173
    46.0278  46.4364  46.5421  48.5664  48.5764  51.3760  51.5931  51.9726
    52.3649  52.9924  53.3165  53.5384  53.7668  54.1989  54.7253  55.3379
    55.7556

          k = 0.4000 0.1667 0.0000 (  2659 PWs)   bands (ev):

   -65.9472 -65.9391 -24.8544 -24.8514 -24.8444 -24.8437 -24.8393 -24.8388
   -18.7645 -18.6022 -18.1795 -17.7847 -17.3766 -17.2759   4.7134   5.1155
     6.8881   7.2379   7.3450   7.8283   8.2990   8.5302   8.8051   8.9128
     9.1100   9.3311   9.3511   9.5591   9.5813   9.6476  11.4151  12.0395
    23.1626  23.2410  23.2487  23.3536  23.4832  23.5076  23.6041  23.6493
    23.6635  23.8495  30.9779  31.4211  34.7475  34.7920  34.8255  35.4827
    36.0934  36.4952  36.6688  36.9459  37.3857  37.8470  37.8675  38.4881
    38.7649  38.8776  39.9619  40.3311  40.4368  41.2306  41.9701  42.0495
    43.0312  43.2702  44.8121  44.8331  45.1223  45.6135  46.2507  46.6195
    47.4919  47.5611  47.7749  48.7991  49.5776  49.9303  51.2065  52.2685
    52.4680  52.8776  53.2914  53.8642  54.0577  54.2095  54.4923  54.8240
    55.4466

          k = 0.4000 0.1667 0.1429 (  2662 PWs)   bands (ev):

   -65.9488 -65.9422 -24.8557 -24.8494 -24.8490 -24.8465 -24.8448 -24.8377
   -18.7203 -18.5738 -18.1829 -17.7874 -17.3786 -17.3523   4.9945   5.1293
     6.8550   7.3313   7.3932   7.8230   8.1172   8.6709   8.7075   9.0267
     9.0792   9.1311   9.5157   9.5509   9.5860   9.6059  11.4128  11.5695
    23.1890  23.1979  23.3178  23.3629  23.4705  23.4853  23.5486  23.5663
    23.7116  23.7556  31.1003  31.5914  34.8617  34.9977  35.0905  35.9206
    36.2670  36.5381  36.5899  36.8974  37.5439  37.6502  38.0474  38.7917
    38.8334  39.0256  39.5127  40.1135  40.8314  41.3047  41.4972  41.7761
    42.8156  43.9751  44.3133  44.7761  44.8414  45.1519  45.7209  46.2111
    47.3862  47.5785  48.0214  48.6562  49.2371  49.7095  51.5973  52.3379
    52.6364  53.4369  53.5990  53.8407  54.0196  54.1778  54.6058  55.1635
    55.4362

          k = 0.4000 0.1667 0.2857 (  2650 PWs)   bands (ev):

   -65.9346 -65.9334 -24.8485 -24.8455 -24.8444 -24.8429 -24.8410 -24.8378
   -18.6347 -18.4621 -18.1864 -17.7936 -17.5570 -17.3820   5.1164   5.8366
     6.8268   7.4714   7.5459   7.7633   8.0056   8.6331   8.6900   8.9260
     9.0449   9.1830   9.4452   9.5723   9.5979   9.6564  10.4078  11.4138
    23.1708  23.2075  23.3220  23.3574  23.4178  23.4607  23.4807  23.5138
    23.5627  23.7800  31.4534  31.9867  35.0840  35.5163  35.6597  35.7802
    36.2817  36.8016  36.8990  37.3417  37.8943  38.1883  38.2725  38.4769
    38.9392  39.1858  39.7755  40.3290  40.6053  41.0028  41.1305  41.6589
    42.5820  43.6329  43.9560  44.2254  44.5708  44.8704  45.0140  45.9485
    46.6490  47.1637  47.8604  47.9786  48.4489  50.1161  51.7566  52.1752
    52.9092  53.0672  53.5900  53.9755  54.3486  54.6617  54.7463  55.4079
    55.7890

          k = 0.4000 0.1667 0.4286 (  2652 PWs)   bands (ev):

   -65.9366 -65.9342 -24.8537 -24.8484 -24.8468 -24.8432 -24.8416 -24.8388
   -18.5856 -18.3063 -18.1241 -17.8834 -17.7507 -17.3855   5.1251   6.7591
     7.0600   7.5966   7.6341   7.6565   8.1614   8.4886   8.5909   8.6816
     8.8595   9.1745   9.2915   9.3963   9.6157   9.6289   9.6938  11.4082
    23.1171  23.1647  23.2227  23.3086  23.4174  23.4312  23.4444  23.5390
    23.5481  23.8190  31.9423  32.2256  34.7993  35.4602  36.1320  36.1672
    36.6360  36.9170  37.3760  37.5996  37.7147  38.0996  38.4439  38.7181
    39.0042  39.1666  39.8565  40.1977  41.0863  41.4216  41.6510  41.8528
    42.4055  43.2247  43.6683  43.7920  44.0744  44.4412  45.2389  45.2733
    45.7003  46.0863  46.5785  48.0410  48.4826  50.6485  51.2247  52.0236
    52.2415  52.7245  53.1658  53.9838  54.6292  54.6411  55.4044  55.5244
    56.2300

          k = 0.4000 0.3333 0.0000 (  2652 PWs)   bands (ev):

   -65.9415 -65.9328 -24.8472 -24.8466 -24.8458 -24.8444 -24.8420 -24.8391
   -18.6911 -18.4274 -18.1760 -17.8041 -17.6331 -17.2788   4.7281   6.1889
     6.8545   7.3779   7.6092   7.7181   8.2979   8.3623   8.5766   8.8619
     9.0287   9.2695   9.4294   9.5833   9.6840   9.7270   9.9537  12.0201
    23.1408  23.1782  23.2040  23.3634  23.3874  23.4396  23.5412  23.5620
    23.5945  23.9147  31.4085  31.8658  34.7386  35.3296  35.4319  35.6994
    35.9661  36.9853  37.1633  37.3897  37.4075  37.8603  38.3048  38.6972
    39.0379  39.3667  39.5864  40.5494  41.2379  41.2702  41.5905  41.8094
    42.0611  43.0083  44.2524  44.3156  44.5383  45.1242  45.8012  46.1284
    46.2004  46.6316  47.4106  48.2744  48.8540  51.0982  51.8977  51.9161
    52.3950  53.2327  53.3303  53.5083  54.1863  54.3638  54.6714  54.9552
    55.4476

          k = 0.4000 0.3333 0.1429 (  2654 PWs)   bands (ev):

   -65.9404 -65.9355 -24.8495 -24.8473 -24.8461 -24.8454 -24.8425 -24.8419
   -18.6333 -18.4102 -18.1803 -17.8024 -17.6386 -17.3569   5.0167   6.1954
     6.8311   7.4899   7.5923   7.7096   8.0763   8.5795   8.6155   8.8953
     9.0248   9.2057   9.4095   9.5843   9.6180   9.6855   9.9625  11.5669
    23.1534  23.1841  23.2768  23.3360  23.4161  23.4534  23.4892  23.5199
    23.5467  23.8267  31.5577  32.0472  34.9681  35.4461  35.8401  35.8981
    36.1453  36.8414  37.0609  37.3923  37.8827  38.0663  38.2802  38.8042
    39.0311  39.3289  39.6281  40.4605  40.5981  41.0960  41.2416  41.7820
    42.4018  43.3756  43.9369  44.0394  44.4766  44.9045  45.2180  45.9306
    46.1968  46.6886  47.4417  48.0764  48.5342  50.5406  51.5827  52.2171
    52.6114  53.0884  53.4266  53.7417  54.3094  54.6379  54.9392  55.3980
    55.6499

          k = 0.4000 0.3333 0.2857 (  2651 PWs)   bands (ev):

   -65.9336 -65.9333 -24.8499 -24.8465 -24.8463 -24.8440 -24.8428 -24.8404
   -18.4818 -18.3540 -18.1932 -17.7995 -17.6522 -17.5641   5.8433   6.2149
     6.8070   7.5037   7.5606   7.8474   8.0032   8.6490   8.8264   8.8948
     8.9607   9.1609   9.3523   9.4910   9.5599   9.5804   9.9659  10.4100
    23.1728  23.2286  23.3007  23.3286  23.3960  23.4401  23.4589  23.4825
    23.5286  23.6095  31.9873  32.5053  35.4266  35.6215  36.0990  36.1640
    36.5497  37.0185  37.1349  37.5095  38.2214  38.3211  38.7582  38.8913
    39.2080  39.4656  39.9052  40.1093  40.3434  40.6040  40.9498  41.3862
    42.7532  43.2127  43.6207  43.9555  44.1702  44.4714  44.6377  45.6723
    46.1450  46.5966  47.0519  47.5385  47.9118  49.0941  50.4725  51.7333
    51.9200  52.4579  54.4372  54.9136  55.1059  55.3294  55.8234  55.9742
    56.4319

          k = 0.4000 0.3333 0.4286 (  2646 PWs)   bands (ev):

   -65.9293 -65.9267 -24.8500 -24.8468 -24.8455 -24.8420 -24.8392 -24.8375
   -18.3650 -18.2492 -18.1405 -17.8679 -17.7820 -17.6574   6.2257   6.7978
     7.0549   7.4436   7.4662   7.9833   8.1765   8.6159   8.6689   8.8525
     8.9334   9.0975   9.2534   9.3479   9.4567   9.4865   9.5075   9.9607
    23.1759  23.2125  23.2600  23.3256  23.3652  23.4511  23.4621  23.4697
    23.4906  23.5488  32.5755  32.8681  35.4427  35.5087  36.2616  36.4940
    36.6166  36.9419  37.4747  37.5486  38.3187  38.4117  38.5450  38.7863
    39.4478  39.8549  40.0757  40.2892  40.7633  40.9392  41.1688  41.5208
    42.7292  43.2308  43.6661  43.8004  44.1173  44.1628  44.4621  45.1863
    45.3891  45.7842  46.4909  47.0712  47.1931  48.5762  49.1354  50.3658
    52.1615  52.2201  54.8061  55.7002  55.7583  55.9434  56.0732  56.5617
    56.7467

          k = 0.4000-0.5000 0.0000 (  2650 PWs)   bands (ev):

   -65.9351 -65.9349 -24.8495 -24.8482 -24.8473 -24.8471 -24.8387 -24.8360
   -18.6607 -18.3033 -18.0376 -17.9922 -17.7488 -17.2804   4.7375   6.7754
     7.3731   7.4724   7.7318   8.0063   8.0398   8.3276   8.3809   8.3946
     8.7812   9.2249   9.2437   9.4006   9.6841   9.7123   9.7669  12.0101
    23.0917  23.0983  23.1309  23.3006  23.4029  23.4173  23.5705  23.5793
    23.5846  23.9385  31.8958  31.8981  34.3889  35.3237  35.5679  36.5090
    36.6279  36.7742  37.1566  37.2839  37.6436  37.6921  38.4935  38.6743
    38.9443  39.0282  40.5583  40.9834  41.4470  41.5724  41.7152  42.0487
    42.3007  42.7930  43.3163  43.9493  44.2405  44.5819  44.9386  45.9101
    45.9777  46.0995  46.5782  48.5061  48.6522  51.4446  51.5426  51.9146
    52.6200  52.8077  53.1071  53.5471  53.8588  54.0357  54.8033  55.4035
    56.0952

          k = 0.4000-0.5000 0.1429 (  2650 PWs)   bands (ev):

   -65.9342 -65.9329 -24.8498 -24.8490 -24.8434 -24.8434 -24.8413 -24.8397
   -18.6005 -18.2911 -18.0319 -17.9932 -17.7586 -17.3586   5.0255   6.7790
     7.3827   7.5266   7.6720   7.9019   8.0502   8.3254   8.4461   8.5308
     8.8333   9.1785   9.2532   9.3780   9.6329   9.6564   9.7202  11.5633
    23.1052  23.1343  23.1879  23.3040  23.4099  23.4301  23.4675  23.5557
    23.5611  23.8535  32.0755  32.0813  34.6365  35.4859  35.9607  36.2427
    36.7688  36.9012  37.3472  37.5065  37.9068  38.1064  38.4958  38.6660
    38.6672  39.0699  39.8771  40.3031  41.4383  41.7131  41.7482  41.9903
    42.9821  43.0341  43.1711  43.6624  43.9318  44.3503  45.0262  45.4730
    45.6213  46.1289  46.2900  48.1536  48.5815  50.9495  51.3100  51.9755
    52.4086  52.6489  53.0679  53.9704  54.1586  54.3791  55.4440  55.7290
    55.8486

          k = 0.4000-0.5000 0.2857 (  2640 PWs)   bands (ev):

   -65.9229 -65.9226 -24.8469 -24.8468 -24.8415 -24.8415 -24.8350 -24.8337
   -18.4295 -18.2584 -18.0194 -18.0000 -17.7796 -17.5685   5.8532   6.7971
     7.3843   7.4585   7.7116   7.7761   8.1621   8.3687   8.6080   8.7220
     8.9474   9.0785   9.2682   9.3216   9.5097   9.5194   9.5521  10.4085
    23.1631  23.2073  23.2609  23.2901  23.3426  23.4363  23.4548  23.4996
    23.5110  23.6345  32.5873  32.5906  35.2014  35.4495  36.1833  36.6101
    37.0842  37.1053  37.3951  37.4648  38.2110  38.3028  38.6023  38.7241
    38.9959  39.4270  39.6124  40.2324  41.2065  41.2257  41.5509  41.7886
    43.1070  43.1703  43.5753  43.7568  43.8924  43.9515  44.6194  44.7122
    45.2466  46.1101  46.2904  47.1587  47.7794  48.9178  50.0074  50.8018
    52.0643  52.1483  54.1649  55.4648  55.4935  56.0344  56.1054  56.2560
    56.6121

          k = 0.4000-0.5000 0.4286 (  2640 PWs)   bands (ev):

   -65.9210 -65.9210 -24.8490 -24.8490 -24.8420 -24.8418 -24.8330 -24.8325
   -18.2255 -18.1757 -18.0135 -18.0105 -17.8524 -17.7962   6.8176   7.0730
     7.3422   7.3557   7.7450   7.7468   8.2284   8.3490   8.7722   8.8293
     8.9775   9.0240   9.2149   9.2252   9.3281   9.3391   9.3405   9.4056
    23.2168  23.2192  23.2717  23.2769  23.3671  23.4197  23.4601  23.4621
    23.4776  23.4808  33.2097  33.2108  35.5522  35.5717  36.1708  36.3156
    36.4234  36.4482  37.9228  37.9358  38.3048  38.3476  38.3702  38.4900
    39.9986  40.0504  40.5099  40.5597  40.8129  41.2588  41.8755  41.9322
    42.9633  43.0633  43.7423  43.7611  43.8184  43.9166  44.6391  44.7654
    44.9297  45.4841  46.1189  46.4487  46.7710  47.2551  48.3477  48.5498
    52.4630  52.4641  55.5336  55.8789  56.2364  56.4243  56.5037  56.5363
    56.9109

     the Fermi energy is    47.5554 ev

!    total energy              =   -1779.20418036 Ry
     Harris-Foulkes estimate   =   -1779.20423887 Ry
     estimated scf accuracy    <       0.00006499 Ry

     The total energy is the sum of the following terms:

     one-electron contribution =     112.25855266 Ry
     hartree contribution      =     154.86076592 Ry
     xc contribution           =    -178.58813165 Ry
     ewald contribution        =   -1867.49614006 Ry
     smearing contrib. (-TS)   =      -0.23922724 Ry

     convergence has been achieved in   8 iterations

     Forces acting on atoms (Ry/au):

     atom    1 type  1   force =     0.00000000    0.00000000    0.00000000
     atom    2 type  1   force =     0.00000000    0.00000000    0.00000000
     atom    3 type  1   force =     0.00000000    0.00000000    0.00000000
     atom    4 type  1   force =     0.00000000    0.00000000    0.00000000
     atom    5 type  1   force =     0.00000000    0.00000000    0.00000000
     atom    6 type  1   force =     0.00000000    0.00000000    0.00000000
     atom    7 type  2   force =     0.00000000    0.00000000    0.00000000
     atom    8 type  2   force =     0.00000000    0.00000000    0.00000000

     Total force =     0.000000     Total SCF correction =     0.000000


     entering subroutine stress ...

          total   stress  (Ry/bohr**3)                   (kbar)     P= 4885.47
   0.03321073   0.00000000   0.00000000       4885.47      0.00      0.00
   0.00000000   0.03321073   0.00000000          0.00   4885.47      0.00
   0.00000000   0.00000000   0.03321073          0.00      0.00   4885.47


     BFGS Geometry Optimization

     number of scf cycles    =   1
     number of bfgs steps    =   0

     enthalpy new            =   -1779.2041803592 Ry

     new trust radius        =       0.5000000000 bohr
     new conv_thr            =       0.0001000000 Ry

     new unit-cell volume =    828.02266 a.u.^3 (   122.70030 Ang^3 )

CELL_PARAMETERS (alat=  8.53457320)
   1.100269143   0.000000000   0.000000000
   0.000000000   1.100269143   0.000000000
   0.000000000   0.000000000   1.100269143

ATOMIC_POSITIONS (crystal)
Cr       0.000000000   0.500000000   0.250000000
Cr       0.000000000   0.500000000   0.750000000
Cr       0.500000000   0.750000000   0.000000000
Cr       0.500000000   0.250000000   0.000000000
Cr       0.750000000   0.000000000   0.500000000
Cr       0.250000000   0.000000000   0.500000000
Si       0.500000000   0.500000000   0.500000000
Si       0.000000000   0.000000000   0.000000000



     Writing output data file Prototype-La-cP8-Cr3Si.save
     NEW-OLD atomic charge density approx. for the potential
     NEW k-points:
        k(    1) = (   0.0000000   0.0000000   0.0000000), wk =   0.0095238
        k(    2) = (   0.0000000   0.0000000   0.1298384), wk =   0.0190476
        k(    3) = (   0.0000000   0.0000000   0.2596767), wk =   0.0190476
        k(    4) = (   0.0000000   0.0000000   0.3895151), wk =   0.0190476
        k(    5) = (   0.0000000   0.1514781   0.0000000), wk =   0.0190476
        k(    6) = (   0.0000000   0.1514781   0.1298384), wk =   0.0380952
        k(    7) = (   0.0000000   0.1514781   0.2596767), wk =   0.0380952
        k(    8) = (   0.0000000   0.1514781   0.3895151), wk =   0.0380952
        k(    9) = (   0.0000000   0.3029562   0.0000000), wk =   0.0190476
        k(   10) = (   0.0000000   0.3029562   0.1298384), wk =   0.0380952
        k(   11) = (   0.0000000   0.3029562   0.2596767), wk =   0.0380952
        k(   12) = (   0.0000000   0.3029562   0.3895151), wk =   0.0380952
        k(   13) = (   0.0000000  -0.4544343   0.0000000), wk =   0.0095238
        k(   14) = (   0.0000000  -0.4544343   0.1298384), wk =   0.0190476
        k(   15) = (   0.0000000  -0.4544343   0.2596767), wk =   0.0190476
        k(   16) = (   0.0000000  -0.4544343   0.3895151), wk =   0.0190476
        k(   17) = (   0.1817737   0.0000000   0.0000000), wk =   0.0190476
        k(   18) = (   0.1817737   0.0000000   0.1298384), wk =   0.0380952
        k(   19) = (   0.1817737   0.0000000   0.2596767), wk =   0.0380952
        k(   20) = (   0.1817737   0.0000000   0.3895151), wk =   0.0380952
        k(   21) = (   0.1817737   0.1514781   0.0000000), wk =   0.0380952
        k(   22) = (   0.1817737   0.1514781   0.1298384), wk =   0.0761905
        k(   23) = (   0.1817737   0.1514781   0.2596767), wk =   0.0761905
        k(   24) = (   0.1817737   0.1514781   0.3895151), wk =   0.0761905
        k(   25) = (   0.1817737   0.3029562   0.0000000), wk =   0.0380952
        k(   26) = (   0.1817737   0.3029562   0.1298384), wk =   0.0761905
        k(   27) = (   0.1817737   0.3029562   0.2596767), wk =   0.0761905
        k(   28) = (   0.1817737   0.3029562   0.3895151), wk =   0.0761905
        k(   29) = (   0.1817737  -0.4544343   0.0000000), wk =   0.0190476
        k(   30) = (   0.1817737  -0.4544343   0.1298384), wk =   0.0380952
        k(   31) = (   0.1817737  -0.4544343   0.2596767), wk =   0.0380952
        k(   32) = (   0.1817737  -0.4544343   0.3895151), wk =   0.0380952
        k(   33) = (   0.3635474   0.0000000   0.0000000), wk =   0.0190476
        k(   34) = (   0.3635474   0.0000000   0.1298384), wk =   0.0380952
        k(   35) = (   0.3635474   0.0000000   0.2596767), wk =   0.0380952
        k(   36) = (   0.3635474   0.0000000   0.3895151), wk =   0.0380952
        k(   37) = (   0.3635474   0.1514781   0.0000000), wk =   0.0380952
        k(   38) = (   0.3635474   0.1514781   0.1298384), wk =   0.0761905
        k(   39) = (   0.3635474   0.1514781   0.2596767), wk =   0.0761905
        k(   40) = (   0.3635474   0.1514781   0.3895151), wk =   0.0761905
        k(   41) = (   0.3635474   0.3029562   0.0000000), wk =   0.0380952
        k(   42) = (   0.3635474   0.3029562   0.1298384), wk =   0.0761905
        k(   43) = (   0.3635474   0.3029562   0.2596767), wk =   0.0761905
        k(   44) = (   0.3635474   0.3029562   0.3895151), wk =   0.0761905
        k(   45) = (   0.3635474  -0.4544343   0.0000000), wk =   0.0190476
        k(   46) = (   0.3635474  -0.4544343   0.1298384), wk =   0.0380952
        k(   47) = (   0.3635474  -0.4544343   0.2596767), wk =   0.0380952
        k(   48) = (   0.3635474  -0.4544343   0.3895151), wk =   0.0380952

     total cpu time spent up to now is      218.0 secs

     Self-consistent Calculation

     iteration #  1     ecut=    40.00 Ry     beta=0.70
     CG style diagonalization
     c_bands:  1 eigenvalues not converged
     c_bands:  2 eigenvalues not converged
     c_bands:  3 eigenvalues not converged
     c_bands:  3 eigenvalues not converged
     c_bands:  1 eigenvalues not converged
     c_bands:  2 eigenvalues not converged
     c_bands:  1 eigenvalues not converged
     c_bands:  1 eigenvalues not converged
     c_bands:  2 eigenvalues not converged
     c_bands:  1 eigenvalues not converged
     c_bands:  1 eigenvalues not converged
     c_bands:  1 eigenvalues not converged
     c_bands:  1 eigenvalues not converged
     c_bands:  1 eigenvalues not converged
     c_bands:  3 eigenvalues not converged
     c_bands:  2 eigenvalues not converged
     c_bands:  1 eigenvalues not converged
     c_bands:  1 eigenvalues not converged
     c_bands:  1 eigenvalues not converged
     c_bands:  1 eigenvalues not converged
     c_bands:  2 eigenvalues not converged
     c_bands:  1 eigenvalues not converged
     c_bands:  1 eigenvalues not converged
     c_bands:  1 eigenvalues not converged
     c_bands:  3 eigenvalues not converged
     c_bands:  3 eigenvalues not converged
     c_bands:  2 eigenvalues not converged
     c_bands:  1 eigenvalues not converged
     ethr =  1.00E-06,  avg # of iterations = 21.3

     total cpu time spent up to now is      295.6 secs

     total energy              =   -1772.38777127 Ry
     Harris-Foulkes estimate   =   -1795.97914495 Ry
     estimated scf accuracy    <      30.55504622 Ry

     iteration #  2     ecut=    40.00 Ry     beta=0.70
     CG style diagonalization
     ethr =  1.00E-02,  avg # of iterations =  4.0

     total cpu time spent up to now is      311.0 secs

     total energy              =   -1781.12101620 Ry
     Harris-Foulkes estimate   =   -1783.95331790 Ry
     estimated scf accuracy    <       4.38070968 Ry

     iteration #  3     ecut=    40.00 Ry     beta=0.70
     CG style diagonalization
     ethr =  2.96E-03,  avg # of iterations =  3.6

     total cpu time spent up to now is      324.3 secs

     total energy              =   -1782.15210984 Ry
     Harris-Foulkes estimate   =   -1782.32907881 Ry
     estimated scf accuracy    <       0.28587785 Ry

     iteration #  4     ecut=    40.00 Ry     beta=0.70
     CG style diagonalization
     ethr =  1.93E-04,  avg # of iterations =  4.0

     total cpu time spent up to now is      339.6 secs

     total energy              =   -1782.25487810 Ry
     Harris-Foulkes estimate   =   -1782.25885903 Ry
     estimated scf accuracy    <       0.00691096 Ry

     iteration #  5     ecut=    40.00 Ry     beta=0.70
     CG style diagonalization
     c_bands:  1 eigenvalues not converged
     c_bands:  1 eigenvalues not converged
     c_bands:  1 eigenvalues not converged
     c_bands:  2 eigenvalues not converged
     c_bands:  1 eigenvalues not converged
     c_bands:  1 eigenvalues not converged
     c_bands:  1 eigenvalues not converged
     c_bands:  1 eigenvalues not converged
     c_bands:  1 eigenvalues not converged
     c_bands:  1 eigenvalues not converged
     c_bands:  1 eigenvalues not converged
     c_bands:  1 eigenvalues not converged
     c_bands:  1 eigenvalues not converged
     c_bands:  1 eigenvalues not converged
     c_bands:  1 eigenvalues not converged
     ethr =  4.67E-06,  avg # of iterations =  4.3

     total cpu time spent up to now is      355.6 secs

     End of self-consistent calculation

          k = 0.0000 0.0000 0.0000 (  2601 PWs)   bands (ev):

   -76.9781 -76.8562 -36.4411 -36.4411 -36.4411 -36.4225 -36.4225 -36.4225
   -29.5890 -29.4856 -29.4856 -28.9373 -28.9373 -28.9373  -4.0948  -4.0948
    -3.8073  -2.6615  -2.6615  -2.6615  -1.8405  -1.8405  -1.8405  -1.8102
    -1.8102  -1.8102  -1.5805  -1.5805  -1.5805  -0.4007  -0.4007  -0.4007
    12.1689  12.1689  12.3017  12.3017  12.3959  12.3959  12.3959  12.3964
    12.3964  12.3964  20.4668  21.6307  24.7618  24.7618  24.7618  25.7088
    25.7088  25.7088  25.7499  25.8402  25.8402  26.7704  28.8784  28.8784
    28.8784  29.1445  29.1445  29.1445  29.1626  29.1626  31.4118  31.4119
    31.4118  33.3975  33.3975  34.0272  34.0272  34.0272  34.1229  34.1229
    34.1229  35.0707  36.8188  36.8188  36.8223  36.8223  36.8223  36.9471
    39.2444  39.2445  39.2445  41.5485  41.5485  41.5486  42.1054  42.9310
    42.9310

          k = 0.0000 0.0000 0.1298 (  2657 PWs)   bands (ev):

   -77.0761 -76.9916 -36.4656 -36.4656 -36.4609 -36.4443 -36.4443 -36.4438
   -29.5861 -29.4951 -29.4620 -29.0045 -28.9731 -28.9731  -4.1276  -4.0703
    -3.7813  -2.6634  -2.6635  -2.6202  -1.9536  -1.9536  -1.8783  -1.8325
    -1.7536  -1.7536  -1.6451  -1.6451  -1.6416  -0.6110  -0.4190  -0.4190
    12.1561  12.1808  12.2746  12.2829  12.3436  12.3436  12.3696  12.3830
    12.3830  12.3888  20.6041  21.5545  24.8872  24.8872  25.1920  25.2885
    25.8254  25.8330  25.8330  25.8794  26.3126  26.9011  28.2910  28.2910
    28.4094  28.8318  29.2192  29.3930  29.6572  29.6572  31.4085  31.4085
    31.4698  33.0141  33.1084  33.7552  33.7552  33.9592  33.9592  34.2467
    34.3958  35.2699  35.4019  36.2470  36.6327  36.6327  36.7633  38.5242
    39.3081  39.3081  39.6283  41.6852  41.7175  41.7178  41.7563  41.7183
    42.1092

          k = 0.0000 0.0000 0.2597 (  2677 PWs)   bands (ev):

   -77.0986 -77.0529 -36.4697 -36.4688 -36.4688 -36.4659 -36.4513 -36.4513
   -29.5779 -29.5098 -29.4084 -29.0811 -28.9799 -28.9799  -4.1104  -4.0295
    -3.4175  -2.6551  -2.6551  -2.5072  -2.0032  -2.0032  -1.9883  -1.8457
    -1.7020  -1.7020  -1.6853  -1.6806  -1.6806  -1.2258  -0.4325  -0.4325
    12.1516  12.2222  12.2462  12.2772  12.2773  12.2773  12.3657  12.3755
    12.3755  12.3823  20.9760  21.4514  24.8574  25.2072  25.2072  25.7728
    25.9191  26.1255  26.1255  26.3043  27.2348  27.2662  27.5276  27.8337
    27.8337  28.6651  29.2359  29.3817  29.6847  29.6847  31.2687  31.4467
    31.4467  32.4971  32.6623  33.4674  33.4674  33.8122  33.8122  34.0064
    34.5311  34.6773  34.9212  36.0410  36.0410  36.2751  36.8770  39.1408
    39.1409  39.7328  39.7785  40.4972  42.1205  42.1221  42.1273  42.2726
    42.2705

          k = 0.0000 0.0000 0.3895 (  2658 PWs)   bands (ev):

   -77.0382 -77.0347 -36.4578 -36.4578 -36.4560 -36.4538 -36.4538 -36.4488
   -29.5488 -29.5126 -29.3042 -29.1869 -28.9751 -28.9751  -4.0833  -4.0502
    -2.7562  -2.6510  -2.6509  -2.3180  -2.1565  -2.0122  -2.0122  -1.9618
    -1.7909  -1.7316  -1.7106  -1.7106  -1.6221  -1.6221  -0.4247  -0.4247
    12.1866  12.2113  12.2303  12.2303  12.2642  12.2870  12.3735  12.3738
    12.3811  12.3811  21.3201  21.4146  24.9397  25.5310  25.5310  25.5660
    25.9271  26.1390  26.3102  26.3102  27.7833  27.7851  27.7884  27.7884
    28.3014  28.9127  29.0470  29.1903  29.1903  29.3192  30.7662  31.4372
    31.4372  32.1843  32.2394  32.3254  33.2705  33.2705  34.3841  34.3841
    34.7144  34.7742  34.9416  35.2630  35.2630  35.5203  38.6774  38.7234
    38.7234  39.5100  39.5902  40.7444  41.9341  42.1439  42.1438  42.4235
    42.5814

          k = 0.0000 0.1515 0.0000 (  2653 PWs)   bands (ev):

   -77.0615 -76.9915 -36.4633 -36.4633 -36.4560 -36.4443 -36.4443 -36.4439
   -29.5804 -29.4919 -29.4537 -29.0145 -28.9736 -28.9736  -4.1250  -4.0540
    -3.7478  -2.6574  -2.6574  -2.5931  -1.9630  -1.9630  -1.8740  -1.8486
    -1.7393  -1.7393  -1.6495  -1.6495  -1.6469  -0.6780  -0.4164  -0.4164
    12.1565  12.1869  12.2712  12.2841  12.3381  12.3381  12.3692  12.3836
    12.3836  12.3884  20.6574  21.5355  24.9305  24.9305  25.2031  25.3372
    25.8223  25.8759  25.8759  25.8943  26.4669  26.9473  28.1942  28.1942
    28.2364  28.8150  29.2304  29.4022  29.7178  29.7178  31.4124  31.4124
    31.4749  32.9210  33.0340  33.6842  33.6842  33.9205  33.9205  34.2985
    34.4538  35.1821  35.2959  36.1855  36.5590  36.5590  36.7171  38.7985
    39.3131  39.3133  39.6928  41.4096  41.7180  41.7930  41.7929  41.8330
    42.1231

          k = 0.0000 0.1515 0.1298 (  2662 PWs)   bands (ev):

   -77.0933 -76.9992 -36.4699 -36.4687 -36.4615 -36.4580 -36.4421 -36.4379
   -29.5845 -29.4777 -29.4513 -29.0141 -29.0046 -28.9756  -4.0984  -3.9649
    -3.7258  -2.6467  -2.6187  -2.5966  -2.0136  -2.0094  -1.8540  -1.8154
    -1.7774  -1.7083  -1.7020  -1.6668  -1.6125  -0.7050  -0.6274  -0.4193
    12.1658  12.1939  12.2683  12.2772  12.3300  12.3300  12.3421  12.3582
    12.3797  12.3869  20.7999  21.5079  25.0623  25.0746  25.3397  25.5129
    25.6541  25.9348  26.0098  26.2638  26.5449  27.0656  27.6036  27.9597
    28.6089  28.8132  28.9661  29.2767  29.8694  29.9230  31.2930  31.3101
    31.5321  32.5539  32.9165  33.5509  33.6043  33.6456  33.9829  34.2567
    34.3798  34.9131  35.3521  35.8415  35.9907  36.5877  37.1531  38.3696
    39.3160  40.0243  40.2642  41.4259  41.6374  41.6349  41.7246  41.8546
    42.0512

          k = 0.0000 0.1515 0.2597 (  2666 PWs)   bands (ev):

   -77.0717 -77.0387 -36.4661 -36.4636 -36.4621 -36.4600 -36.4517 -36.4454
   -29.5625 -29.4821 -29.3988 -29.0832 -29.0163 -28.9779  -4.0844  -3.8628
    -3.4238  -2.6255  -2.5965  -2.5037  -2.0902  -2.0544  -1.8824  -1.8519
    -1.7394  -1.7245  -1.6946  -1.6634  -1.6135  -1.1973  -0.7060  -0.4227
    12.1709  12.2274  12.2429  12.2704  12.2757  12.2889  12.3395  12.3488
    12.3702  12.3838  21.1549  21.4842  25.0229  25.4059  25.4183  25.7024
    25.9453  26.3240  26.4593  26.5736  26.9075  27.3621  27.5296  27.6908
    28.0894  28.7222  28.8392  29.3147  29.7333  30.0171  30.9752  31.0890
    31.5990  31.9959  32.7989  33.0662  33.3055  33.3501  33.8400  33.9397
    34.3489  34.6335  34.7312  35.4317  36.0448  36.4309  37.1626  38.7540
    39.0493  40.1230  40.5888  40.9363  41.4692  41.6562  42.0263  42.1302
    42.4226

          k = 0.0000 0.1515 0.3895 (  2658 PWs)   bands (ev):

   -77.0497 -77.0261 -36.4619 -36.4599 -36.4580 -36.4538 -36.4523 -36.4432
   -29.5285 -29.4952 -29.3037 -29.1860 -29.0124 -28.9821  -4.0810  -3.8612
    -2.7827  -2.6085  -2.5710  -2.3394  -2.1783  -2.0645  -1.9841  -1.9340
    -1.8869  -1.7316  -1.7151  -1.6596  -1.6305  -1.6235  -0.7067  -0.4120
    12.1863  12.2092  12.2241  12.2490  12.2656  12.2805  12.3377  12.3512
    12.3627  12.3924  21.4555  21.5158  25.0808  25.5371  25.7674  25.8070
    26.0100  26.1565  26.4881  26.5205  27.5950  27.6046  27.9608  27.9966
    28.4235  28.4448  29.0509  29.1621  29.2276  29.9794  30.6040  30.9235
    31.5633  31.6808  32.1054  32.6710  32.7691  33.1304  33.7327  33.7752
    34.3345  34.4884  34.9122  35.0457  35.3285  36.2095  38.5372  38.5759
    39.0263  39.8209  40.1993  40.6733  41.5226  41.7365  41.9163  42.6017
    42.7209

          k = 0.0000 0.3030 0.0000 (  2677 PWs)   bands (ev):

   -77.0987 -77.0514 -36.4682 -36.4682 -36.4672 -36.4573 -36.4573 -36.4567
   -29.5711 -29.5157 -29.3750 -29.1258 -28.9748 -28.9748  -4.1025  -4.0274
    -3.2430  -2.6562  -2.6562  -2.4544  -2.0559  -2.0119  -2.0119  -1.8285
    -1.7085  -1.7085  -1.6922  -1.6623  -1.6623  -1.4319  -0.4431  -0.4431
    12.1647  12.2320  12.2356  12.2547  12.2547  12.2851  12.3667  12.3753
    12.3753  12.3755  21.1113  21.4327  24.8064  25.3293  25.3294  25.7455
    25.9190  26.2138  26.2138  26.6773  26.9110  27.4276  27.7701  27.7701
    28.0508  28.5674  29.2061  29.3614  29.5364  29.5364  31.0512  31.4489
    31.4489  32.3733  32.5299  33.4034  33.4034  33.4456  33.9185  33.9185
    34.6054  34.7292  34.8364  35.7964  35.7964  36.0263  37.4109  38.9937
    38.9936  39.6793  39.6983  40.7177  42.2215  42.2869  42.2434  42.3300
    42.2900

          k = 0.0000 0.3030 0.1298 (  2660 PWs)   bands (ev):

   -77.0518 -77.0330 -36.4648 -36.4604 -36.4588 -36.4548 -36.4519 -36.4435
   -29.5500 -29.4879 -29.3707 -29.1145 -29.0069 -28.9792  -4.0847  -3.9166
    -3.2290  -2.6250  -2.6047  -2.4418  -2.1050  -2.0492  -1.9204  -1.8492
    -1.7302  -1.7295  -1.6846  -1.6445  -1.6257  -1.4212  -0.6296  -0.4141
    12.1780  12.2309  12.2392  12.2547  12.2700  12.2848  12.3459  12.3566
    12.3682  12.3871  21.2379  21.4777  24.9380  25.4617  25.4849  25.7803
    26.0017  26.3330  26.3624  26.6653  26.9110  27.4577  27.7113  27.8110
    28.2146  28.6339  28.7765  29.2700  29.5592  29.9682  30.8523  31.1133
    31.5867  31.9800  32.7326  33.0256  33.2188  33.3046  33.7390  33.7800
    34.4590  34.6362  34.7093  35.3299  35.9294  36.2366  37.5594  38.8116
    38.9029  39.9100  40.3172  40.9669  41.5970  41.9180  42.1993  42.3133
    42.3590

          k = 0.0000 0.3030 0.2597 (  2658 PWs)   bands (ev):

   -77.0602 -77.0195 -36.4617 -36.4613 -36.4567 -36.4530 -36.4526 -36.4439
   -29.5247 -29.4427 -29.3623 -29.1180 -29.0796 -28.9849  -4.0813  -3.4918
    -3.2319  -2.5733  -2.5046  -2.4488  -2.1518  -2.1183  -1.9504  -1.8534
    -1.7694  -1.7370  -1.6793  -1.6293  -1.5937  -1.4290  -1.1679  -0.4162
    12.1845  12.2236  12.2330  12.2558  12.2715  12.2877  12.3033  12.3059
    12.3578  12.3989  21.5203  21.5992  25.1517  25.6189  25.6905  25.9036
    25.9170  26.6616  26.7662  27.1995  27.2976  27.4092  27.5325  27.8946
    28.0989  28.7265  28.8195  29.3703  29.6472  30.0634  30.5241  30.6004
    31.2599  31.4844  32.4141  32.6206  32.8606  33.1723  33.1756  33.8148
    33.8216  34.1119  34.8051  34.9334  35.3593  36.8597  37.8106  38.6505
    39.0023  39.7475  40.8333  40.9785  41.0608  41.7585  41.8433  42.3092
    42.8536

          k = 0.0000 0.3030 0.3895 (  2654 PWs)   bands (ev):

   -77.0350 -77.0253 -36.4643 -36.4596 -36.4590 -36.4585 -36.4401 -36.4396
   -29.5147 -29.4038 -29.3059 -29.1889 -29.1114 -28.9808  -4.0796  -3.2772
    -2.8065  -2.5298  -2.4592  -2.3906  -2.1590  -2.1375  -2.0478  -2.0015
    -1.8785  -1.7643  -1.7074  -1.6318  -1.6043  -1.5883  -1.4006  -0.4301
    12.1882  12.1956  12.2014  12.2698  12.2768  12.2851  12.2857  12.3005
    12.3510  12.4020  21.7362  21.7476  25.0501  25.5552  25.9719  26.1292
    26.4053  26.5132  26.9374  27.0470  27.4020  27.4759  27.9765  28.1770
    28.6686  28.7248  28.8725  29.4369  29.8621  30.2383  30.2674  30.3898
    30.7982  31.1425  31.8019  32.1130  32.3289  32.7471  33.0602  33.3357
    33.6887  33.9267  34.0196  35.1498  35.2691  37.3150  38.2042  38.3452
    38.9524  39.1335  40.7448  41.0767  41.6193  41.8125  41.9424  42.4255
    42.9344

          k = 0.0000-0.4544 0.0000 (  2666 PWs)   bands (ev):

   -77.0515 -77.0515 -36.4589 -36.4589 -36.4586 -36.4586 -36.4559 -36.4559
   -29.5344 -29.5344 -29.2482 -29.2482 -28.9763 -28.9763  -4.0746  -4.0746
[...]
    33.0163  33.1460  34.3101  34.5831  35.7474  35.9569  36.0872  36.2076
    37.3530

          k = 0.1731-0.4328 0.2473 (  4108 PWs)   bands (ev):

   -82.7433 -82.7433 -41.3939 -41.3938 -41.3889 -41.3885 -41.3857 -41.3856
   -34.3209 -34.2942 -34.1899 -34.1884 -34.0895 -34.0600  -8.2173  -8.0129
    -7.3689  -7.3497  -7.2531  -7.2454  -7.1974  -7.1553  -7.0173  -7.0162
    -6.9193  -6.8963  -6.8237  -6.7945  -6.7881  -6.7755  -6.4776  -6.2430
     7.6026   7.6044   7.6213   7.6291   7.6295   7.6342   7.6549   7.6649
     7.6657   7.6814  17.4601  17.4626  21.3207  21.5255  22.0447  22.1217
    22.2988  22.4006  22.5513  22.9721  23.0096  23.1590  23.5985  23.7354
    24.1449  24.1543  24.4678  24.6565  25.1382  25.1705  25.4014  25.4064
    26.0233  26.1352  27.0086  27.0576  27.2063  27.5292  27.6456  27.8084
    28.2125  28.5967  28.6724  28.9948  29.1685  29.8315  31.5797  31.9493
    33.0963  33.1965  34.9960  35.5911  35.9498  36.2280  36.3480  36.5904
    37.4085

          k = 0.1731-0.4328 0.3709 (  4104 PWs)   bands (ev):

   -82.7410 -82.7409 -41.3942 -41.3942 -41.3866 -41.3864 -41.3843 -41.3843
   -34.3192 -34.2340 -34.1914 -34.1888 -34.1504 -34.0597  -8.2163  -7.5719
    -7.3758  -7.3229  -7.2777  -7.2477  -7.2044  -7.0892  -7.0721  -7.0242
    -6.9847  -6.9046  -6.8723  -6.8643  -6.7789  -6.7778  -6.7661  -6.2415
     7.6016   7.6023   7.6091   7.6305   7.6312   7.6413   7.6436   7.6474
     7.6631   7.6836  17.6061  17.6071  21.1156  21.8242  22.1220  22.3713
    22.5159  22.7295  22.8044  22.8621  22.8766  23.2470  23.5406  23.9373
    24.3011  24.4207  24.4862  24.6629  25.1890  25.3061  25.3503  25.3893
    25.9256  26.0423  26.5392  26.6830  26.9474  27.0361  27.0504  27.7556
    27.8691  28.1402  28.2629  29.1386  29.2451  30.3663  30.6463  31.4080
    33.1429  33.1727  35.0540  36.3934  36.4338  36.8102  36.8675  37.0565
    37.1638

          k = 0.3462 0.0000 0.0000 (  4088 PWs)   bands (ev):

   -82.7406 -82.7262 -41.3989 -41.3847 -41.3814 -41.3814 -41.3784 -41.3784
   -34.3649 -34.3420 -34.2330 -34.1391 -34.0287 -34.0287  -8.4391  -8.4093
    -7.6291  -7.3954  -7.3954  -7.2315  -7.0897  -7.0053  -7.0053  -6.8817
    -6.8803  -6.8325  -6.8238  -6.8238  -6.7714  -6.7714  -5.9802  -5.9802
     7.5884   7.6082   7.6248   7.6322   7.6322   7.6402   7.6874   7.6923
     7.6973   7.6973  16.9484  17.2000  20.8008  21.3371  21.6043  21.6043
    21.9262  22.0622  22.0622  22.1645  23.1274  23.5027  23.5027  23.5367
    24.0178  24.0584  24.5921  24.5988  24.5988  24.7618  25.8656  26.5865
    26.5865  27.2187  27.2455  27.3368  28.0474  28.0474  28.7561  28.7561
    29.0313  29.0857  29.1429  29.5634  29.7863  29.7863  32.0572  32.7695
    32.7696  33.1674  33.4551  34.7116  35.9344  36.2921  36.2922  36.5893
    37.0742

          k = 0.3462 0.0000 0.1236 (  4098 PWs)   bands (ev):

   -82.7430 -82.7345 -41.3964 -41.3948 -41.3855 -41.3852 -41.3802 -41.3781
   -34.3590 -34.3333 -34.2341 -34.1392 -34.0443 -34.0286  -8.4258  -8.3108
    -7.6357  -7.3808  -7.3675  -7.2402  -7.1048  -7.0310  -6.9847  -6.9132
    -6.8908  -6.8340  -6.8337  -6.7881  -6.7832  -6.7722  -6.1196  -5.9841
     7.5909   7.6077   7.6249   7.6290   7.6353   7.6383   7.6785   7.6855
     7.6894   7.6988  17.0280  17.2469  20.8948  21.3824  21.7332  21.7339
    21.8834  22.0757  22.1852  22.2993  23.1210  23.3614  23.5174  23.6334
    24.0721  24.1433  24.1724  24.6056  24.6503  25.1811  25.7914  26.2731
    26.6275  26.9231  27.1562  27.5614  27.6776  27.9549  28.4098  28.4261
    28.8160  28.9766  29.2753  29.3433  29.6110  30.2752  32.0838  32.6135
    32.7067  33.6636  33.9522  34.4133  35.6351  35.8885  36.0696  36.4186
    36.8700

          k = 0.3462 0.0000 0.2473 (  4106 PWs)   bands (ev):

   -82.7434 -82.7428 -41.4065 -41.3928 -41.3878 -41.3855 -41.3834 -41.3785
   -34.3525 -34.2966 -34.2341 -34.1407 -34.0887 -34.0286  -8.4207  -8.0153
    -7.6471  -7.3414  -7.3111  -7.2574  -7.1035  -7.0698  -6.9912  -6.9639
    -6.9071  -6.8600  -6.8141  -6.7939  -6.7664  -6.7527  -6.4804  -5.9895
     7.5930   7.6052   7.6189   7.6283   7.6352   7.6425   7.6598   7.6613
     7.6868   7.7024  17.2303  17.3572  21.0178  21.3053  21.7725  21.9749
    22.0827  22.3440  22.5262  22.9400  23.0374  23.1528  23.1844  23.7580
    24.0280  24.2998  24.4854  24.5315  24.9343  25.3495  25.6203  25.7929
    26.2949  26.5042  26.9519  27.1037  27.4120  27.7644  27.9312  28.0141
    28.3964  28.7024  28.8266  29.4359  29.4753  31.0439  31.8686  32.2915
    32.6890  33.3903  34.5038  34.8737  35.1092  35.9519  36.2635  36.5631
    36.6002

          k = 0.3462 0.0000 0.3709 (  4099 PWs)   bands (ev):

   -82.7422 -82.7344 -41.3937 -41.3920 -41.3904 -41.3836 -41.3834 -41.3789
   -34.3495 -34.2539 -34.2182 -34.1579 -34.1337 -34.0279  -8.4201  -7.6740
    -7.5459  -7.2980  -7.2684  -7.2595  -7.0951  -7.0895  -7.0592  -7.0253
    -6.9690  -6.8792  -6.8608  -6.8174  -6.7633  -6.7552  -6.7423  -5.9931
     7.5933   7.5975   7.6051   7.6336   7.6348   7.6460   7.6489   7.6503
     7.6854   7.7055  17.4156  17.4543  20.8771  21.2807  22.0291  22.1898
    22.4047  22.5202  22.6381  22.8697  22.9773  23.0240  23.6879  23.8154
    24.4068  24.4279  24.4888  24.8111  25.3077  25.4288  25.4350  25.6222
    25.8419  25.9375  26.5222  26.8157  27.0975  27.1031  27.3149  28.1446
    28.1476  28.3798  28.5118  29.5595  29.5633  31.5775  31.8634  32.0028
    32.2790  32.9707  34.5073  35.0760  35.9426  36.3872  36.4917  36.6673
    36.8539

          k = 0.3462 0.1443 0.0000 (  4100 PWs)   bands (ev):

   -82.7454 -82.7344 -41.3989 -41.3963 -41.3872 -41.3854 -41.3792 -41.3765
   -34.3577 -34.3290 -34.2341 -34.1396 -34.0501 -34.0288  -8.4243  -8.2735
    -7.6389  -7.3748  -7.3594  -7.2418  -7.1071  -7.0393  -6.9790  -6.9255
    -6.8927  -6.8382  -6.8284  -6.7923  -6.7773  -6.7710  -6.1668  -5.9852
     7.5914   7.6076   7.6252   7.6280   7.6362   7.6377   7.6755   7.6816
     7.6890   7.6995  17.0567  17.2628  20.9219  21.3872  21.7601  21.7790
    21.8565  22.1158  22.2286  22.3661  23.1205  23.3292  23.4788  23.6543
    24.0243  24.1680  24.2236  24.6033  24.6678  25.2323  25.7675  26.1932
    26.6367  26.8220  27.1352  27.5583  27.6185  27.8865  28.3057  28.4018
    28.7210  28.9359  29.3020  29.3276  29.5298  30.4058  32.0567  32.5651
    32.7278  33.7635  34.0748  34.3394  35.4912  35.8668  36.0489  36.4173
    36.8158

          k = 0.3462 0.1443 0.1236 (  4098 PWs)   bands (ev):

   -82.7396 -82.7361 -41.4002 -41.3916 -41.3855 -41.3844 -41.3805 -41.3775
   -34.3454 -34.3251 -34.2346 -34.1394 -34.0501 -34.0444  -8.3205  -8.2712
    -7.6414  -7.3520  -7.3468  -7.2403  -7.1415  -7.0044  -6.9960  -6.9080
    -6.8987  -6.8810  -6.7954  -6.7929  -6.7812  -6.7799  -6.1661  -6.1190
     7.5951   7.6087   7.6239   7.6320   7.6342   7.6352   7.6733   7.6787
     7.6839   7.6882  17.1390  17.3117  21.0509  21.4910  21.8419  21.9044
    21.9868  22.0788  22.2503  22.4426  23.1274  23.2234  23.5522  23.6721
    24.0161  24.1766  24.2676  24.4018  24.8584  25.2843  25.6214  25.9584
    26.4134  27.0668  27.1136  27.3356  27.5988  27.6782  28.0972  28.2823
    28.7873  28.8653  29.0958  29.2333  29.6320  29.9129  32.0569  32.6280
    32.7247  33.8298  34.2170  34.4269  35.8504  35.9530  36.0318  36.1548
    36.8282

          k = 0.3462 0.1443 0.2473 (  4103 PWs)   bands (ev):

   -82.7453 -82.7355 -41.4001 -41.3902 -41.3886 -41.3840 -41.3826 -41.3823
   -34.3321 -34.2940 -34.2348 -34.1409 -34.0889 -34.0506  -8.2798  -8.0131
    -7.6516  -7.3152  -7.3030  -7.2428  -7.1754  -7.0095  -6.9963  -6.9409
    -6.9110  -6.8782  -6.8144  -6.7878  -6.7789  -6.7676  -6.4795  -6.1652
     7.5997   7.6083   7.6227   7.6272   7.6317   7.6402   7.6566   7.6633
     7.6722   7.6870  17.3359  17.4332  21.2320  21.5475  21.8935  22.0911
    22.1843  22.3746  22.5043  22.8430  23.0628  23.2211  23.3322  23.7508
    24.0124  24.2961  24.4055  24.5952  24.8877  25.1421  25.3243  25.5569
    26.2610  26.8752  26.9702  27.0677  27.3379  27.5882  27.7100  28.0211
    28.2466  28.5516  28.9692  29.1248  29.1568  30.2382  31.3391  32.5049
    32.8859  33.1802  34.7865  35.3576  35.7403  36.2001  36.3974  36.5186
    36.9541

          k = 0.3462 0.1443 0.3709 (  4099 PWs)   bands (ev):

   -82.7380 -82.7374 -41.3948 -41.3905 -41.3873 -41.3850 -41.3841 -41.3796
   -34.3287 -34.2503 -34.2193 -34.1577 -34.1357 -34.0501  -8.2800  -7.6723
    -7.5554  -7.2840  -7.2771  -7.2586  -7.1427  -7.0497  -7.0335  -7.0060
    -6.9544  -6.8910  -6.8567  -6.8198  -6.7749  -6.7669  -6.7589  -6.1667
     7.5999   7.6028   7.6111   7.6309   7.6316   7.6433   7.6461   7.6504
     7.6697   7.6893  17.5134  17.5414  21.0929  21.6416  22.0942  22.2594
    22.3554  22.6611  22.7424  22.7758  22.9713  23.2428  23.6319  23.8365
    24.3280  24.3804  24.4764  24.7104  24.8485  25.2721  25.3213  25.3678
    25.9916  26.5576  26.6275  26.7702  27.0069  27.1144  27.2745  27.8171
    28.0462  28.1897  28.4640  29.2346  29.2895  30.6438  30.8616  31.9603
    32.9519  33.0103  34.8715  35.9997  36.2039  36.6052  36.7435  36.8055
    37.1243

          k = 0.3462 0.2885 0.0000 (  4097 PWs)   bands (ev):

   -82.7388 -82.7354 -41.3960 -41.3927 -41.3867 -41.3842 -41.3815 -41.3774
   -34.3511 -34.2794 -34.2330 -34.1414 -34.1070 -34.0280  -8.4196  -7.8800
    -7.6431  -7.3255  -7.2916  -7.2575  -7.0977  -7.0767  -7.0157  -6.9629
    -6.9146  -6.8664  -6.8210  -6.7807  -6.7605  -6.7463  -6.6298  -5.9899
     7.5934   7.6029   7.6141   7.6303   7.6350   7.6453   7.6553   7.6554
     7.6864   7.7038  17.3029  17.3985  20.9921  21.2761  21.8362  22.0453
    22.2279  22.4396  22.6762  22.7772  23.0759  23.0993  23.4054  23.7770
    24.0922  24.3497  24.4782  24.5659  25.1232  25.3690  25.5545  25.6501
    26.1080  26.2889  26.9017  27.0594  27.2711  27.5566  27.6260  28.0183
    28.4035  28.5629  28.6155  29.4859  29.5130  31.2598  31.8207  32.1866
    32.5912  33.1665  34.7022  34.7705  35.3972  36.1675  36.4170  36.5017
    36.6984

          k = 0.3462 0.2885 0.1236 (  4104 PWs)   bands (ev):

   -82.7453 -82.7368 -41.4001 -41.3919 -41.3901 -41.3848 -41.3818 -41.3813
   -34.3359 -34.2776 -34.2338 -34.1416 -34.1081 -34.0448  -8.3185  -7.8802
    -7.6507  -7.3092  -7.2884  -7.2530  -7.1616  -7.0220  -7.0150  -6.9519
    -6.9156  -6.8755  -6.8211  -6.7824  -6.7719  -6.7618  -6.6249  -6.1209
     7.5986   7.6057   7.6179   7.6280   7.6323   7.6433   7.6519   7.6567
     7.6745   7.6917  17.3794  17.4568  21.1521  21.5036  21.9165  22.1815
    22.2006  22.5052  22.5854  22.7651  23.1268  23.2472  23.4296  23.7237
    24.0712  24.3207  24.4473  24.6399  24.9577  25.1654  25.3171  25.4903
    26.1585  26.6955  26.9336  26.9750  27.2313  27.5413  27.6185  27.7967
    28.2302  28.4153  28.7300  29.2480  29.2739  30.6085  31.2132  32.4999
    32.7997  33.0156  34.7303  35.6161  35.6670  36.3302  36.5376  36.6617
    36.8275

          k = 0.3462 0.2885 0.2473 (  4098 PWs)   bands (ev):

   -82.7404 -82.7337 -41.3932 -41.3914 -41.3886 -41.3837 -41.3826 -41.3801
   -34.2950 -34.2714 -34.2353 -34.1414 -34.1093 -34.0897  -8.0158  -7.8768
    -7.6591  -7.3043  -7.2786  -7.2159  -7.1811  -7.0111  -6.9705  -6.9497
    -6.9306  -6.8750  -6.8308  -6.8024  -6.7892  -6.7825  -6.6222  -6.4737
     7.6102   7.6130   7.6219   7.6255   7.6301   7.6373   7.6472   7.6501
     7.6584   7.6657  17.5623  17.6057  21.5570  21.8006  22.0888  22.1601
    22.2796  22.6890  22.8474  22.9561  23.0639  23.3942  23.4762  23.9097
    23.9762  24.1840  24.5573  24.5941  24.6211  24.8448  25.0983  25.2746
    26.2680  26.7282  26.9682  27.0378  27.1848  27.3316  27.4440  27.6878
    28.0105  28.2038  28.4725  28.6551  29.0406  29.6311  30.3245  31.4388
    33.3144  33.4224  35.6335  35.9201  36.5179  36.7717  36.9620  37.0357
    37.2021

          k = 0.3462 0.2885 0.3709 (  4096 PWs)   bands (ev):

   -82.7367 -82.7357 -41.3914 -41.3905 -41.3865 -41.3847 -41.3830 -41.3810
   -34.2721 -34.2437 -34.2223 -34.1561 -34.1392 -34.1098  -7.8760  -7.6676
    -7.5676  -7.3085  -7.3034  -7.1863  -7.1422  -7.0347  -7.0085  -6.9603
    -6.9379  -6.8927  -6.8556  -6.8368  -6.8123  -6.8097  -6.7963  -6.6175
     7.6140   7.6142   7.6224   7.6242   7.6273   7.6357   7.6399   7.6423
     7.6489   7.6563  17.7267  17.7371  21.6544  21.9774  22.0992  22.3637
    22.4255  22.5968  23.0618  23.1129  23.3669  23.4447  23.6324  23.7545
    23.9827  24.2396  24.5924  24.6788  24.6978  25.0080  25.0384  25.1243
    26.0849  26.2885  26.9444  27.0130  27.0898  27.1845  27.2269  27.4018
    27.7762  27.9369  28.1374  28.5728  28.6987  29.4218  29.7249  30.5053
    33.6090  33.7652  36.0123  36.5262  36.6911  37.1783  37.5148  37.5611
    37.6436

          k = 0.3462-0.4328 0.0000 (  4096 PWs)   bands (ev):

   -82.7365 -82.7363 -41.3920 -41.3915 -41.3862 -41.3858 -41.3809 -41.3807
   -34.3493 -34.2491 -34.1913 -34.1877 -34.1355 -34.0276  -8.4162  -7.6644
    -7.3857  -7.2897  -7.2709  -7.2414  -7.1995  -7.0902  -7.0864  -7.0693
    -6.9744  -6.8884  -6.8701  -6.8254  -6.7594  -6.7535  -6.7363  -5.9927
     7.5933   7.5949   7.6028   7.6340   7.6346   7.6448   7.6497   7.6501
     7.6859   7.7059  17.4552  17.4575  20.8401  21.2859  22.2005  22.2028
    22.2485  22.6819  22.7153  22.7160  22.9232  23.1551  23.5929  23.8576
    24.4049  24.4461  24.5902  25.1577  25.2647  25.3775  25.5059  25.7755
    25.7919  25.8390  26.0082  26.6889  27.0605  27.1111  27.2650  28.0299
    28.1898  28.3486  28.5005  29.5739  29.5781  31.6781  31.9312  31.9708
    32.1032  32.9423  34.4709  35.1317  36.2207  36.3657  36.5585  36.5926
    36.6860

          k = 0.3462-0.4328 0.1236 (  4108 PWs)   bands (ev):

   -82.7435 -82.7434 -41.3925 -41.3921 -41.3909 -41.3903 -41.3853 -41.3853
   -34.3339 -34.2477 -34.1915 -34.1884 -34.1374 -34.0448  -8.3176  -7.6678
    -7.3795  -7.3159  -7.2613  -7.2272  -7.2231  -7.1061  -7.0618  -7.0417
    -6.9580  -6.8977  -6.8686  -6.8285  -6.7713  -6.7666  -6.7580  -6.1228
     7.5975   7.5994   7.6073   7.6317   7.6326   7.6419   7.6462   7.6499
     7.6730   7.6938  17.5236  17.5256  21.0015  21.5691  22.1606  22.2510
    22.3516  22.6806  22.7298  22.8025  22.9622  23.2402  23.5469  23.8725
    24.3280  24.4116  24.5449  24.7683  25.2535  25.2607  25.4086  25.4446
    25.9397  26.0530  26.4544  26.7004  27.0094  27.1141  27.1889  27.9268
    27.9763  28.2377  28.4037  29.3278  29.4111  30.7270  31.1413  32.0452
    32.8250  32.8809  34.7486  35.8862  36.2693  36.5411  36.7445  36.8598
    37.0260

          k = 0.3462-0.4328 0.2473 (  4094 PWs)   bands (ev):

   -82.7348 -82.7347 -41.3922 -41.3920 -41.3831 -41.3829 -41.3817 -41.3816
   -34.2900 -34.2439 -34.1907 -34.1890 -34.1390 -34.0899  -8.0127  -7.6655
    -7.3623  -7.3335  -7.2884  -7.2711  -7.1571  -7.0933  -7.0295  -6.9946
    -6.9240  -6.9121  -6.8572  -6.8387  -6.8016  -6.7949  -6.7886  -6.4707
     7.6094   7.6098   7.6183   7.6274   7.6280   7.6370   7.6420   7.6485
     7.6489   7.6653  17.6954  17.6954  21.4394  21.9580  22.1838  22.3747
    22.5213  22.6007  22.9550  23.0327  23.0687  23.4236  23.5751  23.7975
    24.0727  24.3405  24.5180  24.5636  24.9737  25.1645  25.2635  25.2652
    25.9256  26.0179  26.8201  27.0188  27.0755  27.0988  27.1374  27.5236
    27.6639  28.1506  28.3226  28.5225  28.8973  29.5920  30.2623  30.6437
    33.5322  33.5606  35.6917  36.4720  36.8239  36.8542  37.2820  37.4207
    37.5026

          k = 0.3462-0.4328 0.3709 (  4102 PWs)   bands (ev):

   -82.7395 -82.7394 -41.3904 -41.3903 -41.3881 -41.3880 -41.3850 -41.3849
   -34.2406 -34.2277 -34.1908 -34.1905 -34.1545 -34.1412  -7.6670  -7.5715
    -7.3462  -7.3390  -7.3082  -7.3042  -7.1431  -7.1038  -6.9892  -6.9749
    -6.9308  -6.9242  -6.8673  -6.8628  -6.8497  -6.8396  -6.8375  -6.8068
     7.6182   7.6184   7.6234   7.6241   7.6266   7.6305   7.6358   7.6359
     7.6419   7.6440  17.8465  17.8474  21.8735  22.0052  22.2657  22.3180
    22.4548  22.4782  23.3098  23.3170  23.4427  23.4487  23.6008  23.6665
    24.1978  24.4487  24.6929  24.7424  24.8760  24.9174  25.1306  25.1753
    25.7441  25.7791  26.8544  26.9344  27.0413  27.0762  27.2683  27.4439
    27.5996  27.6393  28.2303  28.3721  28.5745  28.8119  29.3993  29.4717
    34.0493  34.0509  36.5232  36.6570  37.0669  37.1000  37.8097  37.8224
    38.2337

     the Fermi energy is    28.9861 ev

!    total energy              =   -1785.25486050 Ry
     Harris-Foulkes estimate   =   -1785.25486059 Ry
     estimated scf accuracy    <       0.00000011 Ry

     The total energy is the sum of the following terms:

     one-electron contribution =    -235.44222388 Ry
     hartree contribution      =     237.76802460 Ry
     xc contribution           =    -170.83796131 Ry
     ewald contribution        =   -1616.31955851 Ry
     smearing contrib. (-TS)   =      -0.42314141 Ry

     convergence has been achieved in  11 iterations

     Forces acting on atoms (Ry/au):

     atom    1 type  1   force =     0.00000000    0.00000000    0.00000000
     atom    2 type  1   force =     0.00000000    0.00000000    0.00000000
     atom    3 type  1   force =     0.00000000    0.00000000    0.00000000
     atom    4 type  1   force =     0.00000000    0.00000000    0.00000000
     atom    5 type  1   force =     0.00000000    0.00000000    0.00000000
     atom    6 type  1   force =     0.00000000    0.00000000    0.00000000
     atom    7 type  2   force =     0.00000000    0.00000000    0.00000000
     atom    8 type  2   force =     0.00000000    0.00000000    0.00000000

     Total force =     0.000000     Total SCF correction =     0.000000


     entering subroutine stress ...

          total   stress  (Ry/bohr**3)                   (kbar)     P=  162.02
   0.00110141   0.00000000   0.00000000        162.02      0.00      0.00
   0.00000000   0.00110141   0.00000000          0.00    162.02      0.00
   0.00000000   0.00000000   0.00110141          0.00      0.00    162.02


     Writing output data file Prototype-La-cP8-Cr3Si.save
 
     init_run     :      6.96s CPU      8.58s WALL (       2 calls)
     electrons    :    971.10s CPU   1136.36s WALL (       5 calls)
     update_pot   :      1.42s CPU      1.43s WALL (       3 calls)
     forces       :      5.69s CPU      6.19s WALL (       5 calls)
     stress       :     15.09s CPU     15.49s WALL (       5 calls)

     Called by init_run:
     wfcinit      :      6.39s CPU      8.00s WALL (       2 calls)
     potinit      :      0.22s CPU      0.22s WALL (       2 calls)

     Called by electrons:
     c_bands      :    937.08s CPU   1087.53s WALL (      36 calls)
     sum_band     :     33.81s CPU     38.35s WALL (      36 calls)
     v_of_rho     :      0.04s CPU      0.05s WALL (      41 calls)
     mix_rho      :      0.04s CPU      0.05s WALL (      36 calls)

     Called by c_bands:
     init_us_2    :      2.19s CPU      2.72s WALL (    4032 calls)
     ccgdiagg     :    839.80s CPU    961.74s WALL (    1912 calls)
     wfcrot       :    101.15s CPU    128.88s WALL (    1960 calls)

     Called by *cgdiagg:
     h_psi        :    623.03s CPU    746.55s WALL (  901657 calls)
     cdiaghg      :      6.50s CPU      6.89s WALL (    1960 calls)

     Called by h_psi:
     add_vuspsi   :     78.60s CPU    101.21s WALL (  901657 calls)

     General routines
     calbec       :    214.83s CPU    218.43s WALL ( 1801834 calls)
     fft          :      0.06s CPU      0.06s WALL (     187 calls)
     fftw         :    425.66s CPU    500.35s WALL ( 2302066 calls)
     davcio       :      1.86s CPU      4.41s WALL (    5760 calls)
 
     Parallel routines
     fft_scatter  :    177.83s CPU    206.49s WALL ( 2302253 calls)
 
     PWSCF        : 16m40.96s CPU    19m30.40s WALL

 
   This run was terminated on:  21:36:12  22Mar2018            

=------------------------------------------------------------------------------=
   JOB DONE.
=------------------------------------------------------------------------------=
