
     Program PWSCF v.5.0.2 starts on 22Mar2018 at 16: 7:17 

     This program is part of the open-source Quantum ESPRESSO suite
     for quantum simulation of materials; please cite
         "P. Giannozzi et al., J. Phys.:Condens. Matter 21 395502 (2009);
          URL http://www.quantum-espresso.org", 
     in publications or presentations arising from this work. More details at
     http://www.quantum-espresso.org/quote.php

     Parallel version (MPI), running on     4 processors
     R & G space division:  proc/nbgrp/npool/nimage =       4

     Current dimensions of program PWSCF are:
     Max number of different atomic species (ntypx) = 10
     Max number of k-points (npk) =  40000
     Max angular momentum in pseudopotentials (lmaxx) =  3
     Waiting for input...
     Reading input from standard input

     Subspace diagonalization in iterative solution of the eigenvalue problem:
     a serial algorithm will be used

 
     Parallelization info
     --------------------
     sticks:   dense  smooth     PW     G-vecs:    dense   smooth      PW
     Min          93      93     30                 1717     1717     310
     Max          94      94     31                 1720     1720     313
     Sum         373     373    121                 6871     6871    1247
 


     bravais-lattice index     =            0
     lattice parameter (alat)  =       5.4125  a.u.
     unit-cell volume          =     202.7222 (a.u.)^3
     number of atoms/cell      =            2
     number of atomic types    =            2
     number of electrons       =        48.00
     number of Kohn-Sham states=           29
     kinetic-energy cutoff     =      40.0000  Ry
     charge density cutoff     =     160.0000  Ry
     convergence threshold     =      1.0E-04
     mixing beta               =       0.7000
     number of iterations used =            8  plain     mixing
     Exchange-correlation      = SLA-PZ-NOGX-NOGC ( 1 1 0 0 0)
     EXX-fraction              =        0.00
     nstep                     =           50


     celldm(1)=   5.412493  celldm(2)=   0.000000  celldm(3)=   0.000000
     celldm(4)=   0.000000  celldm(5)=   0.000000  celldm(6)=   0.000000

     crystal axes: (cart. coord. in units of alat)
               a(1) = (   1.000000   0.000000   0.000000 )  
               a(2) = (   0.000000   1.000000   0.000000 )  
               a(3) = (   0.000000   0.000000   1.278525 )  

     reciprocal axes: (cart. coord. in units 2 pi/alat)
               b(1) = (  1.000000  0.000000  0.000000 )  
               b(2) = (  0.000000  1.000000  0.000000 )  
               b(3) = (  0.000000  0.000000  0.782151 )  


     PseudoPot. # 1 for Tm read from file:
     /home/cwx6513/pp.La/Tm.UPF
     MD5 check sum: 245516e0878b5372ceeb9443ded2c4e1
     Pseudo is Norm-conserving, Zval = 23.0
     Generated in analytical, separable form
     Using radial grid of 1269 points,  6 beta functions with: 
                l(1) =   0
                l(2) =   0
                l(3) =   1
                l(4) =   1
                l(5) =   2
                l(6) =   3

     PseudoPot. # 2 for Lu read from file:
     /home/cwx6513/pp.La/La.UPF
     MD5 check sum: 4fc038260c66a0bf25fb4835376efb80
     Pseudo is Norm-conserving, Zval = 25.0
     Generated in analytical, separable form
     Using radial grid of 1271 points,  6 beta functions with: 
                l(1) =   0
                l(2) =   0
                l(3) =   1
                l(4) =   1
                l(5) =   2
                l(6) =   3

     atomic species   valence    mass     pseudopotential
        Cu            23.00    63.54600     Tm( 1.00)
        Au            25.00   196.96600     Lu( 1.00)

     16 Sym. Ops., with inversion, found



   Cartesian axes

     site n.     atom                  positions (alat units)
         1           Cu  tau(   1) = (   0.5000000   0.5000000   0.6392626  )
         2           Au  tau(   2) = (   0.0000000   0.0000000   0.0000000  )

     number of k points=   100  gaussian smearing, width (Ry)=  0.1000

     Number of k-points >= 100: set verbosity='high' to print them.

     Dense  grid:     6871 G-vectors     FFT dimensions: (  24,  24,  27)

     Largest allocated arrays     est. size (Mb)     dimensions
        Kohn-Sham Wavefunctions         0.10 Mb     (    228,   29)
        NL pseudopotentials             0.14 Mb     (    228,   40)
        Each V/rho on FFT grid          0.06 Mb     (   4032)
        Each G-vector array             0.01 Mb     (   1720)
        G-vector shells                 0.01 Mb     (   1720)
     Largest temporary arrays     est. size (Mb)     dimensions
        Each subspace H/S matrix        0.01 Mb     (  29,  29)
        Each <psi_i|beta_j> matrix      0.02 Mb     (     40,   29)
        Arrays for rho mixing           0.49 Mb     (   4032,   8)

     Initial potential from superposition of free atoms

     Starting from uniform charge
     Starting wfc are    0 randomized atomic wfcs

     total cpu time spent up to now is        1.0 secs

     Self-consistent Calculation

     iteration #  1     ecut=    40.00 Ry     beta=0.70
     CG style diagonalization
     c_bands:  2 eigenvalues not converged
     c_bands:  1 eigenvalues not converged
     c_bands:  2 eigenvalues not converged
     c_bands:  1 eigenvalues not converged
     c_bands:  1 eigenvalues not converged
     c_bands:  1 eigenvalues not converged
     c_bands:  1 eigenvalues not converged
     c_bands:  1 eigenvalues not converged
     c_bands:  1 eigenvalues not converged
     c_bands:  1 eigenvalues not converged
     c_bands:  1 eigenvalues not converged
     c_bands:  1 eigenvalues not converged
     c_bands:  1 eigenvalues not converged
     c_bands:  1 eigenvalues not converged
     c_bands:  1 eigenvalues not converged
     c_bands:  1 eigenvalues not converged
     c_bands:  1 eigenvalues not converged
     c_bands:  1 eigenvalues not converged
     c_bands:  1 eigenvalues not converged
     c_bands:  1 eigenvalues not converged
     c_bands:  3 eigenvalues not converged
     c_bands:  1 eigenvalues not converged
     c_bands:  1 eigenvalues not converged
     c_bands:  1 eigenvalues not converged
     c_bands:  1 eigenvalues not converged
     c_bands:  2 eigenvalues not converged
     c_bands:  1 eigenvalues not converged
     c_bands:  1 eigenvalues not converged
     c_bands:  1 eigenvalues not converged
     c_bands:  3 eigenvalues not converged
     ethr =  1.00E-02,  avg # of iterations = 13.5

     total cpu time spent up to now is       10.2 secs

     total energy              =    -704.12479848 Ry
     Harris-Foulkes estimate   =   -1010.88902462 Ry
     estimated scf accuracy    <     381.42468600 Ry

     iteration #  2     ecut=    40.00 Ry     beta=0.70
     CG style diagonalization
     c_bands:  1 eigenvalues not converged
     c_bands:  1 eigenvalues not converged
     c_bands:  1 eigenvalues not converged
     c_bands:  1 eigenvalues not converged
     ethr =  1.00E-02,  avg # of iterations =  8.8

     total cpu time spent up to now is       15.7 secs

     total energy              =    -748.38802429 Ry
     Harris-Foulkes estimate   =    -863.69953689 Ry
     estimated scf accuracy    <     178.80150910 Ry

     iteration #  3     ecut=    40.00 Ry     beta=0.70
     CG style diagonalization
     c_bands:  1 eigenvalues not converged
     c_bands:  1 eigenvalues not converged
     ethr =  1.00E-02,  avg # of iterations =  8.9

     total cpu time spent up to now is       21.3 secs

     total energy              =    -793.12342440 Ry
     Harris-Foulkes estimate   =    -836.73056057 Ry
     estimated scf accuracy    <     106.42122709 Ry

     iteration #  4     ecut=    40.00 Ry     beta=0.70
     CG style diagonalization
     ethr =  1.00E-02,  avg # of iterations =  6.1

     total cpu time spent up to now is       25.1 secs

     total energy              =    -819.30323021 Ry
     Harris-Foulkes estimate   =    -819.72481651 Ry
     estimated scf accuracy    <       0.72254759 Ry

     iteration #  5     ecut=    40.00 Ry     beta=0.70
     CG style diagonalization
     ethr =  1.51E-03,  avg # of iterations =  3.8

     total cpu time spent up to now is       27.4 secs

     total energy              =    -819.46697819 Ry
     Harris-Foulkes estimate   =    -819.49052606 Ry
     estimated scf accuracy    <       0.04893663 Ry

     iteration #  6     ecut=    40.00 Ry     beta=0.70
     CG style diagonalization
     c_bands:  1 eigenvalues not converged
     ethr =  1.02E-04,  avg # of iterations =  3.9

     total cpu time spent up to now is       30.4 secs

     total energy              =    -819.47446453 Ry
     Harris-Foulkes estimate   =    -819.47767881 Ry
     estimated scf accuracy    <       0.00719782 Ry

     iteration #  7     ecut=    40.00 Ry     beta=0.70
     CG style diagonalization
     c_bands:  1 eigenvalues not converged
     c_bands:  1 eigenvalues not converged
     c_bands:  1 eigenvalues not converged
     c_bands:  1 eigenvalues not converged
     ethr =  1.50E-05,  avg # of iterations =  3.8

     total cpu time spent up to now is       32.8 secs

     total energy              =    -819.47492909 Ry
     Harris-Foulkes estimate   =    -819.47582129 Ry
     estimated scf accuracy    <       0.00167477 Ry

     iteration #  8     ecut=    40.00 Ry     beta=0.70
     CG style diagonalization
     c_bands:  1 eigenvalues not converged
     ethr =  3.49E-06,  avg # of iterations =  3.7

     total cpu time spent up to now is       35.8 secs

     total energy              =    -819.47513981 Ry
     Harris-Foulkes estimate   =    -819.47521349 Ry
     estimated scf accuracy    <       0.00014536 Ry

     iteration #  9     ecut=    40.00 Ry     beta=0.70
     CG style diagonalization
     ethr =  3.03E-07,  avg # of iterations =  3.7

     total cpu time spent up to now is       38.1 secs

     End of self-consistent calculation

     Number of k-points >= 100: set verbosity='high' to print the bands.

     the Fermi energy is    42.5956 ev

!    total energy              =    -819.47517526 Ry
     Harris-Foulkes estimate   =    -819.47518191 Ry
     estimated scf accuracy    <       0.00000757 Ry

     The total energy is the sum of the following terms:

     one-electron contribution =    -158.70843517 Ry
     hartree contribution      =     118.92742432 Ry
     xc contribution           =     -65.39223384 Ry
     ewald contribution        =    -714.22133432 Ry
     smearing contrib. (-TS)   =      -0.08059626 Ry

     convergence has been achieved in   9 iterations

     Forces acting on atoms (Ry/au):

     atom    1 type  1   force =     0.00000000    0.00000000    0.00000000
     atom    2 type  2   force =     0.00000000    0.00000000    0.00000000

     Total force =     0.000000     Total SCF correction =     0.000000


     entering subroutine stress ...

          total   stress  (Ry/bohr**3)                   (kbar)     P= 1816.93
   0.01216548   0.00000000   0.00000000       1789.60      0.00      0.00
   0.00000000   0.01216548   0.00000000          0.00   1789.60      0.00
   0.00000000   0.00000000   0.01272270          0.00      0.00   1871.57


     BFGS Geometry Optimization

     number of scf cycles    =   1
     number of bfgs steps    =   0

     enthalpy new            =    -819.4751752643 Ry

     new trust radius        =       0.5000000000 bohr
     new conv_thr            =       0.0001000000 Ry

     new unit-cell volume =    325.06000 a.u.^3 (    48.16892 Ang^3 )

CELL_PARAMETERS (alat=  5.41249258)
   1.167895525   0.000000000   0.000000000
   0.000000000   1.167895525   0.000000000
   0.000000000   0.000000000   1.503015978

ATOMIC_POSITIONS (crystal)
Cu       0.500000000   0.500000000   0.500000000
Au       0.000000000   0.000000000   0.000000000



     Writing output data file Prototype-La-tP2-AuCu.save
     NEW-OLD atomic charge density approx. for the potential
     NEW k-points: (use verbosity='high' to print them)

     total cpu time spent up to now is       39.0 secs

     Self-consistent Calculation

     iteration #  1     ecut=    40.00 Ry     beta=0.70
     CG style diagonalization
     c_bands:  5 eigenvalues not converged
     c_bands:  5 eigenvalues not converged
     c_bands:  4 eigenvalues not converged
     c_bands:  4 eigenvalues not converged
     c_bands:  1 eigenvalues not converged
     c_bands:  4 eigenvalues not converged
     c_bands:  1 eigenvalues not converged
     c_bands:  1 eigenvalues not converged
     c_bands:  1 eigenvalues not converged
     c_bands:  1 eigenvalues not converged
     c_bands:  4 eigenvalues not converged
     c_bands:  1 eigenvalues not converged
     c_bands:  1 eigenvalues not converged
     c_bands:  1 eigenvalues not converged
     c_bands:  4 eigenvalues not converged
     c_bands:  2 eigenvalues not converged
     c_bands:  3 eigenvalues not converged
     c_bands:  2 eigenvalues not converged
     c_bands:  1 eigenvalues not converged
     c_bands:  2 eigenvalues not converged
     c_bands:  3 eigenvalues not converged
     c_bands:  1 eigenvalues not converged
     c_bands:  1 eigenvalues not converged
     c_bands:  5 eigenvalues not converged
     c_bands:  1 eigenvalues not converged
     c_bands:  1 eigenvalues not converged
     c_bands:  3 eigenvalues not converged
     c_bands:  5 eigenvalues not converged
     c_bands:  4 eigenvalues not converged
     c_bands:  2 eigenvalues not converged
     c_bands:  1 eigenvalues not converged
     c_bands:  1 eigenvalues not converged
     c_bands:  5 eigenvalues not converged
     c_bands:  1 eigenvalues not converged
     c_bands:  1 eigenvalues not converged
     c_bands:  1 eigenvalues not converged
     c_bands:  1 eigenvalues not converged
     c_bands:  5 eigenvalues not converged
     c_bands:  1 eigenvalues not converged
     c_bands:  1 eigenvalues not converged
     c_bands:  2 eigenvalues not converged
     c_bands:  4 eigenvalues not converged
     c_bands:  3 eigenvalues not converged
     c_bands:  5 eigenvalues not converged
     c_bands:  4 eigenvalues not converged
     c_bands:  4 eigenvalues not converged
     c_bands:  1 eigenvalues not converged
     c_bands:  1 eigenvalues not converged
     c_bands:  1 eigenvalues not converged
     c_bands:  1 eigenvalues not converged
     c_bands:  5 eigenvalues not converged
     c_bands:  3 eigenvalues not converged
     c_bands:  5 eigenvalues not converged
     c_bands:  2 eigenvalues not converged
     ethr =  1.00E-06,  avg # of iterations = 19.9

     total cpu time spent up to now is       52.4 secs

     total energy              =    -808.18325936 Ry
     Harris-Foulkes estimate   =    -835.88164788 Ry
     estimated scf accuracy    <      34.18385765 Ry

     iteration #  2     ecut=    40.00 Ry     beta=0.70
     CG style diagonalization
     ethr =  1.00E-02,  avg # of iterations =  4.6

     total cpu time spent up to now is       55.3 secs

     total energy              =    -817.93905551 Ry
     Harris-Foulkes estimate   =    -820.33258098 Ry
     estimated scf accuracy    <       3.37386392 Ry

     iteration #  3     ecut=    40.00 Ry     beta=0.70
     CG style diagonalization
     ethr =  7.03E-03,  avg # of iterations =  3.6

     total cpu time spent up to now is       58.3 secs

     total energy              =    -818.85765945 Ry
     Harris-Foulkes estimate   =    -818.94028784 Ry
     estimated scf accuracy    <       0.14174993 Ry

     iteration #  4     ecut=    40.00 Ry     beta=0.70
     CG style diagonalization
     ethr =  2.95E-04,  avg # of iterations =  3.9

     total cpu time spent up to now is       60.7 secs

     total energy              =    -818.91045934 Ry
     Harris-Foulkes estimate   =    -818.91456973 Ry
     estimated scf accuracy    <       0.00724167 Ry

     iteration #  5     ecut=    40.00 Ry     beta=0.70
     CG style diagonalization
     ethr =  1.51E-05,  avg # of iterations =  3.9

     total cpu time spent up to now is       63.1 secs

     total energy              =    -818.91181646 Ry
     Harris-Foulkes estimate   =    -818.91202176 Ry
     estimated scf accuracy    <       0.00035679 Ry

     iteration #  6     ecut=    40.00 Ry     beta=0.70
     CG style diagonalization
     c_bands:  1 eigenvalues not converged
     c_bands:  1 eigenvalues not converged
     c_bands:  1 eigenvalues not converged
     ethr =  7.43E-07,  avg # of iterations =  4.0

     total cpu time spent up to now is       65.6 secs

     End of self-consistent calculation

     Number of k-points >= 100: set verbosity='high' to print the bands.

     the Fermi energy is    25.5628 ev

!    total energy              =    -818.91193462 Ry
     Harris-Foulkes estimate   =    -818.91197494 Ry
     estimated scf accuracy    <       0.00004878 Ry

     The total energy is the sum of the following terms:

     one-electron contribution =    -311.50764204 Ry
     hartree contribution      =     166.31198502 Ry
     xc contribution           =     -63.43416298 Ry
     ewald contribution        =    -610.21050990 Ry
     smearing contrib. (-TS)   =      -0.07160472 Ry

     convergence has been achieved in   6 iterations

     Forces acting on atoms (Ry/au):

     atom    1 type  1   force =     0.00000000    0.00000000    0.00000000
     atom    2 type  2   force =     0.00000000    0.00000000    0.00000000

     Total force =     0.000000     Total SCF correction =     0.000000


     entering subroutine stress ...

          total   stress  (Ry/bohr**3)                   (kbar)     P=-2277.12
  -0.01541970   0.00000000   0.00000000      -2268.32      0.00      0.00
   0.00000000  -0.01541970   0.00000000          0.00  -2268.32      0.00
   0.00000000   0.00000000  -0.01559930          0.00      0.00  -2294.74


     number of scf cycles    =   2
     number of bfgs steps    =   1

     enthalpy old            =    -819.4751752643 Ry
     enthalpy new            =    -818.9119346163 Ry

     CASE: enthalpy_new > enthalpy_old

     new trust radius        =       0.1870458907 bohr

     trust_radius < trust_radius_min

     resetting bfgs history

     new conv_thr            =       0.0001000000 Ry

     new unit-cell volume =    313.88717 a.u.^3 (    46.51328 Ang^3 )

CELL_PARAMETERS (alat=  5.41249258)
   1.153837287   0.000000000   0.000000000
   0.000000000   1.153837287   0.000000000
   0.000000000   0.000000000   1.486936693

ATOMIC_POSITIONS (crystal)
Cu       0.500000000   0.500000000   0.500000000
Au       0.000000000   0.000000000   0.000000000



     Writing output data file Prototype-La-tP2-AuCu.save
     NEW-OLD atomic charge density approx. for the potential
     NEW k-points: (use verbosity='high' to print them)

     total cpu time spent up to now is       66.5 secs

     Self-consistent Calculation

     iteration #  1     ecut=    40.00 Ry     beta=0.70
     CG style diagonalization
     ethr =  1.00E-06,  avg # of iterations =  7.1

     total cpu time spent up to now is       71.2 secs

     total energy              =    -819.00400903 Ry
     Harris-Foulkes estimate   =    -819.17607430 Ry
     estimated scf accuracy    <       0.21054426 Ry

     iteration #  2     ecut=    40.00 Ry     beta=0.70
     CG style diagonalization
     ethr =  4.39E-04,  avg # of iterations =  3.8

     total cpu time spent up to now is       73.7 secs

     total energy              =    -819.07027558 Ry
     Harris-Foulkes estimate   =    -819.08610183 Ry
     estimated scf accuracy    <       0.02255076 Ry

     iteration #  3     ecut=    40.00 Ry     beta=0.70
     CG style diagonalization
     ethr =  4.70E-05,  avg # of iterations =  3.6

     total cpu time spent up to now is       76.2 secs

     total energy              =    -819.07559393 Ry
     Harris-Foulkes estimate   =    -819.07569724 Ry
     estimated scf accuracy    <       0.00013771 Ry

     iteration #  4     ecut=    40.00 Ry     beta=0.70
     CG style diagonalization
     ethr =  2.87E-07,  avg # of iterations =  4.5

     total cpu time spent up to now is       79.2 secs

     End of self-consistent calculation

     Number of k-points >= 100: set verbosity='high' to print the bands.

     the Fermi energy is    26.6219 ev

!    total energy              =    -819.07576402 Ry
     Harris-Foulkes estimate   =    -819.07581896 Ry
     estimated scf accuracy    <       0.00006154 Ry

     The total energy is the sum of the following terms:

     one-electron contribution =    -300.89991220 Ry
     hartree contribution      =     162.82315424 Ry
     xc contribution           =     -63.56212004 Ry
     ewald contribution        =    -617.36671733 Ry
     smearing contrib. (-TS)   =      -0.07016869 Ry

     convergence has been achieved in   4 iterations

     Forces acting on atoms (Ry/au):

     atom    1 type  1   force =     0.00000000    0.00000000    0.00000000
     atom    2 type  2   force =     0.00000000    0.00000000    0.00000000

     Total force =     0.000000     Total SCF correction =     0.000000


     entering subroutine stress ...

          total   stress  (Ry/bohr**3)                   (kbar)     P=-2067.30
  -0.01397804   0.00000000   0.00000000      -2056.24      0.00      0.00
   0.00000000  -0.01397804   0.00000000          0.00  -2056.24      0.00
   0.00000000   0.00000000  -0.01420362          0.00      0.00  -2089.42


     number of scf cycles    =   3
     number of bfgs steps    =   1

     enthalpy old            =    -819.4751752643 Ry
     enthalpy new            =    -819.0757640154 Ry

     CASE: enthalpy_new > enthalpy_old

     new trust radius        =       0.1854941805 bohr

     trust_radius < trust_radius_min

     resetting bfgs history

     Message from routine bfgs:
     history already reset at previous step: stopping
     new conv_thr            =       0.0001000000 Ry

     new unit-cell volume =    314.52219 a.u.^3 (    46.60738 Ang^3 )

CELL_PARAMETERS (alat=  5.41249258)
   1.154457452   0.000000000   0.000000000
   0.000000000   1.154457452   0.000000000
   0.000000000   0.000000000   1.488344547

ATOMIC_POSITIONS (crystal)
Cu       0.500000000   0.500000000   0.500000000
Au       0.000000000   0.000000000   0.000000000



     Writing output data file Prototype-La-tP2-AuCu.save
     NEW-OLD atomic charge density approx. for the potential
     NEW k-points: (use verbosity='high' to print them)

     total cpu time spent up to now is       80.1 secs

     Self-consistent Calculation

     iteration #  1     ecut=    40.00 Ry     beta=0.70
     CG style diagonalization
     ethr =  1.00E-06,  avg # of iterations =  4.6

     total cpu time spent up to now is       82.9 secs

     total energy              =    -819.06653405 Ry
     Harris-Foulkes estimate   =    -819.06730070 Ry
     estimated scf accuracy    <       0.00093834 Ry

     iteration #  2     ecut=    40.00 Ry     beta=0.70
     CG style diagonalization
     ethr =  1.95E-06,  avg # of iterations =  3.8

     total cpu time spent up to now is       85.4 secs

     total energy              =    -819.06680745 Ry
     Harris-Foulkes estimate   =    -819.06694254 Ry
     estimated scf accuracy    <       0.00019842 Ry

     iteration #  3     ecut=    40.00 Ry     beta=0.70
     CG style diagonalization
     ethr =  4.13E-07,  avg # of iterations =  3.4

     total cpu time spent up to now is       87.5 secs

     End of self-consistent calculation

     Number of k-points >= 100: set verbosity='high' to print the bands.

     the Fermi energy is    26.5581 ev

!    total energy              =    -819.06686046 Ry
     Harris-Foulkes estimate   =    -819.06687837 Ry
     estimated scf accuracy    <       0.00001929 Ry

     The total energy is the sum of the following terms:

     one-electron contribution =    -301.50706938 Ry
     hartree contribution      =     163.01633350 Ry
     xc contribution           =     -63.55470591 Ry
     ewald contribution        =    -616.95104235 Ry
     smearing contrib. (-TS)   =      -0.07037633 Ry

     convergence has been achieved in   3 iterations

     Forces acting on atoms (Ry/au):

     atom    1 type  1   force =     0.00000000    0.00000000    0.00000000
     atom    2 type  2   force =     0.00000000    0.00000000    0.00000000

     Total force =     0.000000     Total SCF correction =     0.000000


     entering subroutine stress ...

          total   stress  (Ry/bohr**3)                   (kbar)     P=-2077.15
  -0.01403633   0.00000000   0.00000000      -2064.81      0.00      0.00
   0.00000000  -0.01403633   0.00000000          0.00  -2064.81      0.00
   0.00000000   0.00000000  -0.01428797          0.00      0.00  -2101.83


     The maximum number of steps has been reached.

     End of BFGS Geometry Optimization
Begin final coordinates
     new unit-cell volume =    314.52219 a.u.^3 (    46.60738 Ang^3 )

CELL_PARAMETERS (alat=  5.41249258)
   1.154457452   0.000000000   0.000000000
   0.000000000   1.154457452   0.000000000
   0.000000000   0.000000000   1.488344547

ATOMIC_POSITIONS (crystal)
Cu       0.500000000   0.500000000   0.500000000
Au       0.000000000   0.000000000   0.000000000
End final coordinates



     A final scf calculation at the relaxed structure.
     The G-vectors are recalculated for the final unit cell
     Results may differ from those at the preceding step.
 
     Parallelization info
     --------------------
     sticks:   dense  smooth     PW     G-vecs:    dense   smooth      PW
     Min         124     124     37                 2686     2686     459
     Max         125     125     38                 2687     2687     461
     Sum         497     497    149                10745    10745    1839
 


     bravais-lattice index     =            0
     lattice parameter (alat)  =       5.4125  a.u.
     unit-cell volume          =     314.5222 (a.u.)^3
     number of atoms/cell      =            2
     number of atomic types    =            2
     number of electrons       =        48.00
     number of Kohn-Sham states=           29
     kinetic-energy cutoff     =      40.0000  Ry
     charge density cutoff     =     160.0000  Ry
     convergence threshold     =      1.0E-04
     mixing beta               =       0.7000
     number of iterations used =            8  plain     mixing
     Exchange-correlation      = SLA-PZ-NOGX-NOGC ( 1 1 0 0 0)
     EXX-fraction              =        0.00

     celldm(1)=   5.412493  celldm(2)=   0.000000  celldm(3)=   0.000000
     celldm(4)=   0.000000  celldm(5)=   0.000000  celldm(6)=   0.000000

     crystal axes: (cart. coord. in units of alat)
               a(1) = (   1.154457   0.000000   0.000000 )  
               a(2) = (   0.000000   1.154457   0.000000 )  
               a(3) = (   0.000000   0.000000   1.488345 )  

     reciprocal axes: (cart. coord. in units 2 pi/alat)
               b(1) = (  0.866208  0.000000  0.000000 )  
               b(2) = (  0.000000  0.866208  0.000000 )  
               b(3) = (  0.000000  0.000000  0.671887 )  


     PseudoPot. # 1 for Tm read from file:
     /home/cwx6513/pp.La/Tm.UPF
     MD5 check sum: 245516e0878b5372ceeb9443ded2c4e1
     Pseudo is Norm-conserving, Zval = 23.0
     Generated in analytical, separable form
     Using radial grid of 1269 points,  6 beta functions with: 
                l(1) =   0
                l(2) =   0
                l(3) =   1
                l(4) =   1
                l(5) =   2
                l(6) =   3

     PseudoPot. # 2 for Lu read from file:
     /home/cwx6513/pp.La/La.UPF
     MD5 check sum: 4fc038260c66a0bf25fb4835376efb80
     Pseudo is Norm-conserving, Zval = 25.0
     Generated in analytical, separable form
     Using radial grid of 1271 points,  6 beta functions with: 
                l(1) =   0
                l(2) =   0
                l(3) =   1
                l(4) =   1
                l(5) =   2
                l(6) =   3

     atomic species   valence    mass     pseudopotential
        Cu            23.00    63.54600     Tm( 1.00)
        Au            25.00   196.96600     Lu( 1.00)

     16 Sym. Ops., with inversion, found



   Cartesian axes

     site n.     atom                  positions (alat units)
         1           Cu  tau(   1) = (   0.5772287   0.5772287   0.7441723  )
         2           Au  tau(   2) = (   0.0000000   0.0000000   0.0000000  )

     number of k points=   100  gaussian smearing, width (Ry)=  0.1000

     Number of k-points >= 100: set verbosity='high' to print them.

     Dense  grid:    10745 G-vectors     FFT dimensions: (  25,  25,  36)

     Largest allocated arrays     est. size (Mb)     dimensions
        Kohn-Sham Wavefunctions         0.15 Mb     (    342,   29)
        NL pseudopotentials             0.21 Mb     (    342,   40)
        Each V/rho on FFT grid          0.09 Mb     (   5625)
        Each G-vector array             0.02 Mb     (   2686)
        G-vector shells                 0.01 Mb     (    672)
     Largest temporary arrays     est. size (Mb)     dimensions
        Each subspace H/S matrix        0.01 Mb     (  29,  29)
        Each <psi_i|beta_j> matrix      0.02 Mb     (     40,   29)
        Arrays for rho mixing           0.69 Mb     (   5625,   8)

     Initial potential from superposition of free atoms

     Starting from uniform charge
     Starting wfc are    0 randomized atomic wfcs

     Writing output data file Prototype-La-tP2-AuCu.save

     total cpu time spent up to now is       89.1 secs

     Self-consistent Calculation

     iteration #  1     ecut=    40.00 Ry     beta=0.70
     CG style diagonalization
     c_bands:  4 eigenvalues not converged
     c_bands:  1 eigenvalues not converged
     c_bands:  4 eigenvalues not converged
     c_bands:  2 eigenvalues not converged
     c_bands:  3 eigenvalues not converged
     c_bands:  2 eigenvalues not converged
     c_bands:  1 eigenvalues not converged
     c_bands:  3 eigenvalues not converged
     c_bands:  3 eigenvalues not converged
     c_bands:  2 eigenvalues not converged
     c_bands:  3 eigenvalues not converged
     c_bands:  2 eigenvalues not converged
     c_bands:  2 eigenvalues not converged
     c_bands:  2 eigenvalues not converged
     c_bands:  1 eigenvalues not converged
     c_bands:  2 eigenvalues not converged
     c_bands:  3 eigenvalues not converged
     c_bands:  1 eigenvalues not converged
     c_bands:  1 eigenvalues not converged
     c_bands:  2 eigenvalues not converged
     c_bands:  5 eigenvalues not converged
     c_bands:  3 eigenvalues not converged
     c_bands:  1 eigenvalues not converged
     c_bands:  1 eigenvalues not converged
     c_bands:  3 eigenvalues not converged
     c_bands:  3 eigenvalues not converged
     c_bands:  3 eigenvalues not converged
     c_bands:  3 eigenvalues not converged
     c_bands:  3 eigenvalues not converged
     c_bands:  3 eigenvalues not converged
     c_bands:  3 eigenvalues not converged
     c_bands:  3 eigenvalues not converged
     c_bands:  3 eigenvalues not converged
     c_bands:  1 eigenvalues not converged
     c_bands:  2 eigenvalues not converged
     c_bands:  3 eigenvalues not converged
     c_bands:  3 eigenvalues not converged
     c_bands:  3 eigenvalues not converged
     c_bands:  2 eigenvalues not converged
     c_bands:  1 eigenvalues not converged
     c_bands:  1 eigenvalues not converged
     c_bands:  4 eigenvalues not converged
     c_bands:  3 eigenvalues not converged
     c_bands:  3 eigenvalues not converged
     c_bands:  1 eigenvalues not converged
     c_bands:  3 eigenvalues not converged
     c_bands:  3 eigenvalues not converged
     c_bands:  1 eigenvalues not converged
     c_bands:  2 eigenvalues not converged
     c_bands:  3 eigenvalues not converged
     c_bands:  3 eigenvalues not converged
     c_bands:  2 eigenvalues not converged
     c_bands:  3 eigenvalues not converged
     c_bands:  2 eigenvalues not converged
     c_bands:  3 eigenvalues not converged
     c_bands:  2 eigenvalues not converged
     c_bands:  2 eigenvalues not converged
     c_bands:  3 eigenvalues not converged
     c_bands:  2 eigenvalues not converged
     c_bands:  3 eigenvalues not converged
     c_bands:  2 eigenvalues not converged
     c_bands:  2 eigenvalues not converged
     c_bands:  4 eigenvalues not converged
     c_bands:  1 eigenvalues not converged
     c_bands:  2 eigenvalues not converged
     c_bands:  3 eigenvalues not converged
     c_bands:  1 eigenvalues not converged
     c_bands:  3 eigenvalues not converged
     c_bands:  1 eigenvalues not converged
     c_bands:  3 eigenvalues not converged
     c_bands:  1 eigenvalues not converged
     c_bands:  2 eigenvalues not converged
     c_bands:  3 eigenvalues not converged
     c_bands:  3 eigenvalues not converged
     c_bands:  1 eigenvalues not converged
     c_bands:  2 eigenvalues not converged
     c_bands:  1 eigenvalues not converged
     c_bands:  2 eigenvalues not converged
     c_bands:  4 eigenvalues not converged
     c_bands:  3 eigenvalues not converged
     c_bands:  1 eigenvalues not converged
     c_bands:  2 eigenvalues not converged
     c_bands:  2 eigenvalues not converged
     c_bands:  3 eigenvalues not converged
     c_bands:  1 eigenvalues not converged
     c_bands:  1 eigenvalues not converged
     c_bands:  5 eigenvalues not converged
     c_bands:  3 eigenvalues not converged
     c_bands:  3 eigenvalues not converged
     c_bands:  2 eigenvalues not converged
     c_bands:  5 eigenvalues not converged
     ethr =  1.00E-06,  avg # of iterations = 45.4

     total cpu time spent up to now is      128.3 secs

     total energy              =    -699.68894120 Ry
     Harris-Foulkes estimate   =   -1083.68984283 Ry
     estimated scf accuracy    <     473.64657271 Ry

     iteration #  2     ecut=    40.00 Ry     beta=0.70
     CG style diagonalization
     c_bands:  1 eigenvalues not converged
     c_bands:  1 eigenvalues not converged
     c_bands:  1 eigenvalues not converged
     c_bands:  1 eigenvalues not converged
     ethr =  1.00E-02,  avg # of iterations =  8.8

     total cpu time spent up to now is      136.3 secs

     total energy              =    -716.79664562 Ry
     Harris-Foulkes estimate   =    -873.63679864 Ry
     estimated scf accuracy    <     244.97721231 Ry

     iteration #  3     ecut=    40.00 Ry     beta=0.70
     CG style diagonalization
     c_bands:  1 eigenvalues not converged
     c_bands:  1 eigenvalues not converged
     c_bands:  1 eigenvalues not converged
     c_bands:  1 eigenvalues not converged
     c_bands:  1 eigenvalues not converged
     c_bands:  1 eigenvalues not converged
     c_bands:  1 eigenvalues not converged
     c_bands:  1 eigenvalues not converged
     c_bands:  1 eigenvalues not converged
     ethr =  1.00E-02,  avg # of iterations =  9.9

     total cpu time spent up to now is      145.2 secs

     total energy              =    -785.35354032 Ry
     Harris-Foulkes estimate   =    -862.66405908 Ry
     estimated scf accuracy    <     202.28400613 Ry

     iteration #  4     ecut=    40.00 Ry     beta=0.70
     CG style diagonalization
     ethr =  1.00E-02,  avg # of iterations =  7.0

     total cpu time spent up to now is      151.7 secs

     total energy              =    -820.75444148 Ry
     Harris-Foulkes estimate   =    -820.95142940 Ry
     estimated scf accuracy    <       0.32239147 Ry

     iteration #  5     ecut=    40.00 Ry     beta=0.70
     CG style diagonalization
     ethr =  6.72E-04,  avg # of iterations =  4.1

     total cpu time spent up to now is      155.7 secs

     total energy              =    -820.85339694 Ry
     Harris-Foulkes estimate   =    -820.87135116 Ry
     estimated scf accuracy    <       0.03750430 Ry

     iteration #  6     ecut=    40.00 Ry     beta=0.70
     CG style diagonalization
     c_bands:  1 eigenvalues not converged
     ethr =  7.81E-05,  avg # of iterations =  3.7

     total cpu time spent up to now is      159.0 secs

     total energy              =    -820.86109308 Ry
     Harris-Foulkes estimate   =    -820.86339602 Ry
     estimated scf accuracy    <       0.00489012 Ry

     iteration #  7     ecut=    40.00 Ry     beta=0.70
     CG style diagonalization
     c_bands:  1 eigenvalues not converged
     c_bands:  1 eigenvalues not converged
     ethr =  1.02E-05,  avg # of iterations =  3.8

     total cpu time spent up to now is      162.4 secs

     total energy              =    -820.86164709 Ry
     Harris-Foulkes estimate   =    -820.86200266 Ry
     estimated scf accuracy    <       0.00071727 Ry

     iteration #  8     ecut=    40.00 Ry     beta=0.70
     CG style diagonalization
     ethr =  1.49E-06,  avg # of iterations =  3.7

     total cpu time spent up to now is      165.8 secs

     End of self-consistent calculation

     Number of k-points >= 100: set verbosity='high' to print the bands.

     the Fermi energy is    26.5005 ev

!    total energy              =    -820.86176799 Ry
     Harris-Foulkes estimate   =    -820.86181289 Ry
     estimated scf accuracy    <       0.00004929 Ry

     The total energy is the sum of the following terms:

     one-electron contribution =    -304.73988599 Ry
     hartree contribution      =     164.70298245 Ry
     xc contribution           =     -63.80285011 Ry
     ewald contribution        =    -616.95102704 Ry
     smearing contrib. (-TS)   =      -0.07098730 Ry

     convergence has been achieved in   8 iterations

     Forces acting on atoms (Ry/au):

     atom    1 type  1   force =     0.00000000    0.00000000    0.00000000
     atom    2 type  2   force =     0.00000000    0.00000000    0.00000000

     Total force =     0.000000     Total SCF correction =     0.000000


     entering subroutine stress ...

          total   stress  (Ry/bohr**3)                   (kbar)     P= -455.67
  -0.00315683   0.00000000   0.00000000       -464.38      0.00      0.00
   0.00000000  -0.00315683   0.00000000          0.00   -464.38      0.00
   0.00000000   0.00000000  -0.00297901          0.00      0.00   -438.23


     Writing output data file Prototype-La-tP2-AuCu.save
 
     init_run     :      1.55s CPU      1.74s WALL (       2 calls)
     electrons    :    150.50s CPU    160.45s WALL (       5 calls)
     update_pot   :      0.47s CPU      0.48s WALL (       3 calls)
     forces       :      0.73s CPU      0.76s WALL (       5 calls)
     stress       :      1.91s CPU      1.95s WALL (       5 calls)

     Called by init_run:
     wfcinit      :      1.30s CPU      1.47s WALL (       2 calls)
     potinit      :      0.09s CPU      0.09s WALL (       2 calls)

     Called by electrons:
     c_bands      :    144.07s CPU    152.00s WALL (      30 calls)
     sum_band     :      6.34s CPU      6.72s WALL (      30 calls)
     v_of_rho     :      0.01s CPU      0.02s WALL (      35 calls)
     mix_rho      :      0.01s CPU      0.01s WALL (      30 calls)

     Called by c_bands:
     init_us_2    :      0.92s CPU      0.99s WALL (    7200 calls)
     ccgdiagg     :    125.82s CPU    131.64s WALL (    3267 calls)
     wfcrot       :     18.60s CPU     20.39s WALL (    3367 calls)

     Called by *cgdiagg:
     h_psi        :     98.64s CPU    106.38s WALL (  525416 calls)
     cdiaghg      :      1.05s CPU      1.32s WALL (    3367 calls)

     Called by h_psi:
     add_vuspsi   :      5.54s CPU      6.71s WALL (  525416 calls)

     General routines
     calbec       :     18.48s CPU     20.13s WALL ( 1048465 calls)
     fft          :      0.02s CPU      0.02s WALL (     163 calls)
     fftw         :     80.50s CPU     83.69s WALL ( 1326384 calls)
     davcio       :      0.71s CPU      1.18s WALL (   10200 calls)
 
     Parallel routines
     fft_scatter  :     27.37s CPU     30.43s WALL ( 1326547 calls)
 
     PWSCF        :  2m36.06s CPU     2m46.71s WALL

 
   This run was terminated on:  16:10: 4  22Mar2018            

=------------------------------------------------------------------------------=
   JOB DONE.
=------------------------------------------------------------------------------=
