
     Program PWSCF v.5.0.2 starts on 22Mar2018 at 22:44:12 

     This program is part of the open-source Quantum ESPRESSO suite
     for quantum simulation of materials; please cite
         "P. Giannozzi et al., J. Phys.:Condens. Matter 21 395502 (2009);
          URL http://www.quantum-espresso.org", 
     in publications or presentations arising from this work. More details at
     http://www.quantum-espresso.org/quote.php

     Parallel version (MPI), running on     4 processors
     R & G space division:  proc/nbgrp/npool/nimage =       4

     Current dimensions of program PWSCF are:
     Max number of different atomic species (ntypx) = 10
     Max number of k-points (npk) =  40000
     Max angular momentum in pseudopotentials (lmaxx) =  3
     Waiting for input...
     Reading input from standard input

     Subspace diagonalization in iterative solution of the eigenvalue problem:
     a serial algorithm will be used

 
     Parallelization info
     --------------------
     sticks:   dense  smooth     PW     G-vecs:    dense   smooth      PW
     Min         233     233     69                 5311     5311     851
     Max         234     234     70                 5314     5314     854
     Sum         933     933    277                21247    21247    3407
 


     bravais-lattice index     =            0
     lattice parameter (alat)  =       8.5346  a.u.
     unit-cell volume          =     621.6493 (a.u.)^3
     number of atoms/cell      =            8
     number of atomic types    =            2
     number of electrons       =       174.00
     number of Kohn-Sham states=          104
     kinetic-energy cutoff     =      40.0000  Ry
     charge density cutoff     =     160.0000  Ry
     convergence threshold     =      1.0E-04
     mixing beta               =       0.7000
     number of iterations used =            8  plain     mixing
     Exchange-correlation      = SLA-PZ-NOGX-NOGC ( 1 1 0 0 0)
     EXX-fraction              =        0.00
     nstep                     =           50


     celldm(1)=   8.534573  celldm(2)=   0.000000  celldm(3)=   0.000000
     celldm(4)=   0.000000  celldm(5)=   0.000000  celldm(6)=   0.000000

     crystal axes: (cart. coord. in units of alat)
               a(1) = (   1.000000   0.000000   0.000000 )  
               a(2) = (   0.000000   1.000000   0.000000 )  
               a(3) = (   0.000000   0.000000   1.000000 )  

     reciprocal axes: (cart. coord. in units 2 pi/alat)
               b(1) = (  1.000000  0.000000  0.000000 )  
               b(2) = (  0.000000  1.000000  0.000000 )  
               b(3) = (  0.000000  0.000000  1.000000 )  


     PseudoPot. # 1 for Er read from file:
     /home/cwx6513/pp.La/Er.UPF
     MD5 check sum: e152ae21b84514339d8526f066caf99b
     Pseudo is Norm-conserving, Zval = 22.0
     Generated in analytical, separable form
     Using radial grid of 1267 points,  6 beta functions with: 
                l(1) =   0
                l(2) =   0
                l(3) =   1
                l(4) =   1
                l(5) =   2
                l(6) =   3

     PseudoPot. # 2 for Ho read from file:
     /home/cwx6513/pp.La/Ho.UPF
     MD5 check sum: f307ee11bce99f5b724fa279e3790763
     Pseudo is Norm-conserving, Zval = 21.0
     Generated in analytical, separable form
     Using radial grid of 1265 points,  6 beta functions with: 
                l(1) =   0
                l(2) =   0
                l(3) =   1
                l(4) =   1
                l(5) =   2
                l(6) =   3

     atomic species   valence    mass     pseudopotential
        Cr            22.00    51.99610     Er( 1.00)
        Si            21.00    28.08550     Ho( 1.00)

     48 Sym. Ops., with inversion, found (24 have fractional translation)



   Cartesian axes

     site n.     atom                  positions (alat units)
         1           Cr  tau(   1) = (   0.0000000   0.5000000   0.2500000  )
         2           Cr  tau(   2) = (   0.0000000   0.5000000   0.7500000  )
         3           Cr  tau(   3) = (   0.5000000   0.7500000   0.0000000  )
         4           Cr  tau(   4) = (   0.5000000   0.2500000   0.0000000  )
         5           Cr  tau(   5) = (   0.7500000   0.0000000   0.5000000  )
         6           Cr  tau(   6) = (   0.2500000   0.0000000   0.5000000  )
         7           Si  tau(   7) = (   0.5000000   0.5000000   0.5000000  )
         8           Si  tau(   8) = (   0.0000000   0.0000000   0.0000000  )

     number of k points=    48  gaussian smearing, width (Ry)=  0.1000
                       cart. coord. in units 2pi/alat
        k(    1) = (   0.0000000   0.0000000   0.0000000), wk =   0.0095238
        k(    2) = (   0.0000000   0.0000000   0.1428571), wk =   0.0190476
        k(    3) = (   0.0000000   0.0000000   0.2857143), wk =   0.0190476
        k(    4) = (   0.0000000   0.0000000   0.4285714), wk =   0.0190476
        k(    5) = (   0.0000000   0.1666667   0.0000000), wk =   0.0190476
        k(    6) = (   0.0000000   0.1666667   0.1428571), wk =   0.0380952
        k(    7) = (   0.0000000   0.1666667   0.2857143), wk =   0.0380952
        k(    8) = (   0.0000000   0.1666667   0.4285714), wk =   0.0380952
        k(    9) = (   0.0000000   0.3333333   0.0000000), wk =   0.0190476
        k(   10) = (   0.0000000   0.3333333   0.1428571), wk =   0.0380952
        k(   11) = (   0.0000000   0.3333333   0.2857143), wk =   0.0380952
        k(   12) = (   0.0000000   0.3333333   0.4285714), wk =   0.0380952
        k(   13) = (   0.0000000  -0.5000000   0.0000000), wk =   0.0095238
        k(   14) = (   0.0000000  -0.5000000   0.1428571), wk =   0.0190476
        k(   15) = (   0.0000000  -0.5000000   0.2857143), wk =   0.0190476
        k(   16) = (   0.0000000  -0.5000000   0.4285714), wk =   0.0190476
        k(   17) = (   0.2000000   0.0000000   0.0000000), wk =   0.0190476
        k(   18) = (   0.2000000   0.0000000   0.1428571), wk =   0.0380952
        k(   19) = (   0.2000000   0.0000000   0.2857143), wk =   0.0380952
        k(   20) = (   0.2000000   0.0000000   0.4285714), wk =   0.0380952
        k(   21) = (   0.2000000   0.1666667   0.0000000), wk =   0.0380952
        k(   22) = (   0.2000000   0.1666667   0.1428571), wk =   0.0761905
        k(   23) = (   0.2000000   0.1666667   0.2857143), wk =   0.0761905
        k(   24) = (   0.2000000   0.1666667   0.4285714), wk =   0.0761905
        k(   25) = (   0.2000000   0.3333333   0.0000000), wk =   0.0380952
        k(   26) = (   0.2000000   0.3333333   0.1428571), wk =   0.0761905
        k(   27) = (   0.2000000   0.3333333   0.2857143), wk =   0.0761905
        k(   28) = (   0.2000000   0.3333333   0.4285714), wk =   0.0761905
        k(   29) = (   0.2000000  -0.5000000   0.0000000), wk =   0.0190476
        k(   30) = (   0.2000000  -0.5000000   0.1428571), wk =   0.0380952
        k(   31) = (   0.2000000  -0.5000000   0.2857143), wk =   0.0380952
        k(   32) = (   0.2000000  -0.5000000   0.4285714), wk =   0.0380952
        k(   33) = (   0.4000000   0.0000000   0.0000000), wk =   0.0190476
        k(   34) = (   0.4000000   0.0000000   0.1428571), wk =   0.0380952
        k(   35) = (   0.4000000   0.0000000   0.2857143), wk =   0.0380952
        k(   36) = (   0.4000000   0.0000000   0.4285714), wk =   0.0380952
        k(   37) = (   0.4000000   0.1666667   0.0000000), wk =   0.0380952
        k(   38) = (   0.4000000   0.1666667   0.1428571), wk =   0.0761905
        k(   39) = (   0.4000000   0.1666667   0.2857143), wk =   0.0761905
        k(   40) = (   0.4000000   0.1666667   0.4285714), wk =   0.0761905
        k(   41) = (   0.4000000   0.3333333   0.0000000), wk =   0.0380952
        k(   42) = (   0.4000000   0.3333333   0.1428571), wk =   0.0761905
        k(   43) = (   0.4000000   0.3333333   0.2857143), wk =   0.0761905
        k(   44) = (   0.4000000   0.3333333   0.4285714), wk =   0.0761905
        k(   45) = (   0.4000000  -0.5000000   0.0000000), wk =   0.0190476
        k(   46) = (   0.4000000  -0.5000000   0.1428571), wk =   0.0380952
        k(   47) = (   0.4000000  -0.5000000   0.2857143), wk =   0.0380952
        k(   48) = (   0.4000000  -0.5000000   0.4285714), wk =   0.0380952

     Dense  grid:    21247 G-vectors     FFT dimensions: (  36,  36,  36)

     Largest allocated arrays     est. size (Mb)     dimensions
        Kohn-Sham Wavefunctions         1.08 Mb     (    683,  104)
        NL pseudopotentials             1.67 Mb     (    683,  160)
        Each V/rho on FFT grid          0.18 Mb     (  11664)
        Each G-vector array             0.04 Mb     (   5314)
        G-vector shells                 0.04 Mb     (   5314)
     Largest temporary arrays     est. size (Mb)     dimensions
        Each subspace H/S matrix        0.17 Mb     ( 104, 104)
        Each <psi_i|beta_j> matrix      0.25 Mb     (    160,  104)
        Arrays for rho mixing           1.42 Mb     (  11664,   8)

     Initial potential from superposition of free atoms

     Starting from uniform charge
     Starting wfc are    0 randomized atomic wfcs

     total cpu time spent up to now is        4.6 secs

     Self-consistent Calculation

     iteration #  1     ecut=    40.00 Ry     beta=0.70
     CG style diagonalization
     c_bands:  3 eigenvalues not converged
     c_bands:  3 eigenvalues not converged
     c_bands:  4 eigenvalues not converged
     c_bands:  4 eigenvalues not converged
     c_bands:  2 eigenvalues not converged
     c_bands:  4 eigenvalues not converged
     c_bands:  4 eigenvalues not converged
     c_bands:  4 eigenvalues not converged
     c_bands:  5 eigenvalues not converged
     c_bands:  2 eigenvalues not converged
     c_bands:  3 eigenvalues not converged
     c_bands:  3 eigenvalues not converged
     c_bands:  1 eigenvalues not converged
     c_bands:  5 eigenvalues not converged
     c_bands:  2 eigenvalues not converged
     c_bands:  2 eigenvalues not converged
     c_bands:  4 eigenvalues not converged
     c_bands:  2 eigenvalues not converged
     c_bands:  4 eigenvalues not converged
     c_bands:  4 eigenvalues not converged
     c_bands:  3 eigenvalues not converged
     c_bands:  3 eigenvalues not converged
     c_bands:  1 eigenvalues not converged
     c_bands:  2 eigenvalues not converged
     c_bands:  2 eigenvalues not converged
     ethr =  1.00E-02,  avg # of iterations = 13.9

     total cpu time spent up to now is       90.7 secs

     total energy              =   -2331.07106823 Ry
     Harris-Foulkes estimate   =   -2931.56764945 Ry
     estimated scf accuracy    <     767.33953130 Ry

     iteration #  2     ecut=    40.00 Ry     beta=0.70
     CG style diagonalization
     c_bands:  1 eigenvalues not converged
     c_bands:  1 eigenvalues not converged
     ethr =  1.00E-02,  avg # of iterations =  9.0

     total cpu time spent up to now is      146.2 secs

     total energy              =   -2518.00965834 Ry
     Harris-Foulkes estimate   =   -2585.15472942 Ry
     estimated scf accuracy    <      94.18651461 Ry

     iteration #  3     ecut=    40.00 Ry     beta=0.70
     CG style diagonalization
     ethr =  1.00E-02,  avg # of iterations =  5.3

     total cpu time spent up to now is      176.4 secs

     total energy              =   -2545.97140254 Ry
     Harris-Foulkes estimate   =   -2557.05403001 Ry
     estimated scf accuracy    <      20.80855496 Ry

     iteration #  4     ecut=    40.00 Ry     beta=0.70
     CG style diagonalization
     ethr =  1.00E-02,  avg # of iterations =  3.5

     total cpu time spent up to now is      196.2 secs

     total energy              =   -2550.47719050 Ry
     Harris-Foulkes estimate   =   -2550.80868435 Ry
     estimated scf accuracy    <       0.50064785 Ry

     iteration #  5     ecut=    40.00 Ry     beta=0.70
     CG style diagonalization
     c_bands:  1 eigenvalues not converged
     c_bands:  1 eigenvalues not converged
     c_bands:  1 eigenvalues not converged
     c_bands:  1 eigenvalues not converged
     c_bands:  1 eigenvalues not converged
     c_bands:  1 eigenvalues not converged
     ethr =  2.88E-04,  avg # of iterations =  4.6

     total cpu time spent up to now is      223.4 secs

     total energy              =   -2550.67794274 Ry
     Harris-Foulkes estimate   =   -2550.77586596 Ry
     estimated scf accuracy    <       0.15494958 Ry

     iteration #  6     ecut=    40.00 Ry     beta=0.70
     CG style diagonalization
     c_bands:  1 eigenvalues not converged
     c_bands:  1 eigenvalues not converged
     ethr =  8.91E-05,  avg # of iterations =  3.7

     total cpu time spent up to now is      244.9 secs

     total energy              =   -2550.71205753 Ry
     Harris-Foulkes estimate   =   -2550.71336941 Ry
     estimated scf accuracy    <       0.00238191 Ry

     iteration #  7     ecut=    40.00 Ry     beta=0.70
     CG style diagonalization
     c_bands:  1 eigenvalues not converged
     c_bands:  1 eigenvalues not converged
     c_bands:  1 eigenvalues not converged
     c_bands:  1 eigenvalues not converged
     c_bands:  1 eigenvalues not converged
     c_bands:  1 eigenvalues not converged
     c_bands:  1 eigenvalues not converged
     c_bands:  1 eigenvalues not converged
     c_bands:  1 eigenvalues not converged
     c_bands:  1 eigenvalues not converged
     c_bands:  1 eigenvalues not converged
     c_bands:  1 eigenvalues not converged
     c_bands:  1 eigenvalues not converged
     c_bands:  1 eigenvalues not converged
     c_bands:  1 eigenvalues not converged
     c_bands:  1 eigenvalues not converged
     ethr =  1.37E-06,  avg # of iterations =  4.8

     total cpu time spent up to now is      272.9 secs

     End of self-consistent calculation

          k = 0.0000 0.0000 0.0000 (  2601 PWs)   bands (ev):

   -51.9552 -51.9552 -51.8989 -51.5034 -51.5034 -51.5034 -43.2618 -43.2166
   -15.8126 -15.8126 -15.6488 -14.2957 -14.2957 -14.2957 -13.8156 -13.8156
   -13.8156 -13.7147 -13.7147 -13.7147 -13.5982 -13.5982 -13.5982 -13.1515
   -13.1515 -13.1515  -7.7606  -7.7606  -7.7606  -7.7545  -7.7545  -7.7545
    26.3468  26.3468  26.5762  27.7042  27.7042  27.7042  29.5068  29.6416
    29.6416  29.6416  29.8244  29.9525  30.2344  30.2344  30.2790  30.2790
    30.2790  32.9991  32.9991  32.9991  33.0343  33.0343  33.2652  33.2652
    33.2652  33.6900  33.6900  33.6900  34.3186  34.3186  34.4928  34.4928
    34.4928  36.1979  36.1979  36.1979  36.2155  36.2155  37.2515  37.2515
    37.2515  42.5276  42.5276  42.5276  45.5828  45.5828  45.9111  49.6316
    50.7453  50.7453  50.7453  51.9804  51.9804  52.2134  52.2134  52.2134
    53.1932  53.1932  53.1932  53.4887  53.4887  53.4887  54.9602  54.9602
    54.9602  55.5857  55.9815  55.9815  55.9814  59.8234  60.8630  60.8626

          k = 0.0000 0.0000 0.1429 (  2657 PWs)   bands (ev):

   -51.9670 -51.9313 -51.9123 -51.6089 -51.5828 -51.5828 -43.2759 -43.2647
   -15.8492 -15.8065 -15.6285 -14.2932 -14.2932 -14.2649 -13.8588 -13.8588
   -13.8073 -13.7544 -13.7371 -13.7371 -13.6550 -13.6550 -13.6469 -13.2954
   -13.1684 -13.1684  -7.8083  -7.8002  -7.8002  -7.7663  -7.7565  -7.7565
    26.3566  26.4870  26.8552  27.5469  27.8106  27.8106  29.2757  29.5687
    29.5687  29.7170  29.8542  30.1607  30.2736  30.3005  30.3053  30.3053
    30.3721  32.5435  32.5435  32.6961  33.2108  33.2386  33.3298  33.4144
    33.4144  33.5902  33.6605  33.6605  34.2033  34.2098  34.3564  34.5663
    34.5663  36.1051  36.3023  36.5583  36.5583  36.6085  36.9609  36.9609
    37.2240  40.5765  42.8026  42.8026  45.4106  45.6453  47.5647  49.1350
    49.5915  50.4557  50.7866  50.7865  51.4326  51.4326  52.9043  52.9043
    53.2104  53.2439  53.5505  53.9779  53.9779  53.9835  55.0374  55.0587
    55.0587  55.6020  56.4318  56.4319  56.7803  59.3631  60.0850  60.5347

          k = 0.0000 0.0000 0.2857 (  2677 PWs)   bands (ev):

   -51.9719 -51.9560 -51.8964 -51.6578 -51.5970 -51.5970 -43.2852 -43.2791
   -15.8449 -15.7902 -15.3319 -14.2756 -14.2756 -14.1826 -13.9044 -13.9044
   -13.8809 -13.7406 -13.7264 -13.7164 -13.7164 -13.6857 -13.6857 -13.6693
   -13.1785 -13.1785  -7.8275  -7.8136  -7.7959  -7.7959  -7.7603  -7.7603
    26.3875  26.5313  27.3759  27.9306  28.0647  28.0647  28.5834  29.4419
    29.4419  29.9404  30.0250  30.2409  30.2459  30.3383  30.3383  30.6615
    31.0367  32.1538  32.1687  32.1687  32.8646  32.8646  33.0158  33.4345
    33.4609  33.6323  33.9355  33.9355  33.9891  34.0236  34.3597  34.7670
    34.7670  35.9233  36.1610  36.1610  36.5353  37.1387  37.2285  37.4828
    37.4828  37.7523  43.4296  43.4296  44.9592  45.3228  47.8787  48.6412
    49.4998  49.4998  50.0506  50.5450  51.4836  51.4836  53.3485  53.3485
    53.4202  53.4202  53.8508  53.9809  54.0904  54.7562  55.2548  55.4167
    56.0707  56.0707  57.2442  57.2442  57.8179  58.4178  59.2871  59.4072

          k = 0.0000 0.0000 0.4286 (  2658 PWs)   bands (ev):

   -51.9569 -51.9339 -51.8066 -51.7233 -51.5856 -51.5856 -43.2742 -43.2713
   -15.8316 -15.8083 -14.8280 -14.2609 -14.2609 -14.2509 -14.0443 -13.9479
   -13.9097 -13.9097 -13.7152 -13.7152 -13.7140 -13.6866 -13.6613 -13.6613
   -13.1714 -13.1714  -7.8280  -7.8125  -7.7819  -7.7819  -7.7639  -7.7639
    26.4530  26.5189  27.4511  27.8280  28.2858  28.2858  29.3008  29.3008
    29.6037  30.0600  30.1736  30.1955  30.2636  30.5936  30.5936  31.0020
    31.5038  31.5953  31.5953  31.6416  32.5689  32.6387  32.6387  33.3821
    33.4525  33.9220  34.0554  34.1009  34.2215  34.2215  34.2417  34.9736
    34.9736  35.1242  35.4466  35.4466  36.5387  36.7826  36.9899  37.2238
    38.1239  38.1239  44.0676  44.0676  44.6579  44.8819  47.5542  47.8562
    48.2137  48.2137  51.5929  51.6945  51.6944  51.8623  53.0942  53.0942
    53.9115  53.9115  53.9725  53.9969  54.4440  54.8955  55.0014  55.1153
    57.1486  57.1486  57.7280  57.7281  57.9705  58.5107  58.8425  59.3631

          k = 0.0000 0.1667 0.0000 (  2653 PWs)   bands (ev):

   -51.9560 -51.9276 -51.9030 -51.6156 -51.5836 -51.5836 -43.2726 -43.2646
   -15.8484 -15.7965 -15.5993 -14.2861 -14.2861 -14.2428 -13.8660 -13.8660
   -13.8128 -13.7525 -13.7295 -13.7295 -13.6585 -13.6585 -13.6495 -13.3390
   -13.1657 -13.1657  -7.8059  -7.7970  -7.7970  -7.7691  -7.7560  -7.7560
    26.3608  26.5004  26.9890  27.5082  27.8465  27.8465  29.1658  29.5490
    29.5490  29.7773  29.8650  30.1925  30.2712  30.3094  30.3094  30.3454
    30.4332  32.4686  32.4686  32.6102  33.2620  33.2973  33.3406  33.3406
    33.3511  33.5623  33.7062  33.7062  34.1154  34.1770  34.3636  34.5936
    34.5936  36.0700  36.3361  36.6314  36.6314  36.7221  36.9113  36.9113
    37.2140  40.1074  42.8924  42.8924  45.3513  45.6086  47.9917  48.8677
    49.5268  50.3062  50.7027  50.7027  51.3143  51.3143  52.9678  52.9678
    53.3454  53.4329  53.5819  53.8980  53.8980  54.1716  55.0741  55.2137
    55.2137  55.6275  56.5549  56.5549  56.9970  59.2195  59.9393  60.3408

          k = 0.0000 0.1667 0.1429 (  2662 PWs)   bands (ev):

   -51.9521 -51.9294 -51.9208 -51.6123 -51.6095 -51.5878 -43.2826 -43.2663
   -15.8337 -15.7230 -15.5836 -14.2733 -14.2598 -14.2442 -13.8969 -13.8954
   -13.8025 -13.7590 -13.7402 -13.7060 -13.6854 -13.6712 -13.6333 -13.3617
   -13.3101 -13.1676  -7.8111  -7.8059  -7.7981  -7.7791  -7.7605  -7.7522
    26.4355  26.8273  27.0139  27.5999  27.7134  27.9648  29.1304  29.2954
    29.5593  29.7772  29.9744  30.0363  30.2586  30.3834  30.4371  30.5084
    30.6391  31.9131  32.2405  32.8198  33.1635  33.1772  33.2568  33.3967
    33.4308  33.5439  33.7414  33.7739  33.9230  34.1795  34.4250  34.6509
    34.8384  36.1503  36.5114  36.5259  36.5695  36.6527  36.9031  36.9629
    37.1343  40.3595  41.0033  43.1924  45.3564  46.6189  47.9248  48.6558
    48.8862  49.7493  50.4466  51.0651  51.2089  51.4350  53.1449  53.2424
    53.2434  53.5899  54.1200  54.1821  54.2146  54.3901  54.7109  54.8438
    55.7764  56.2838  56.5968  56.6996  57.4869  58.8144  60.0067  60.1806

          k = 0.0000 0.1667 0.2857 (  2666 PWs)   bands (ev):

   -51.9562 -51.9323 -51.8740 -51.6614 -51.6178 -51.5917 -43.2796 -43.2757
   -15.8325 -15.6564 -15.3360 -14.2477 -14.2351 -14.1759 -13.9327 -13.9273
   -13.8299 -13.7706 -13.7364 -13.6988 -13.6961 -13.6861 -13.6845 -13.6386
   -13.3637 -13.1692  -7.8210  -7.8001  -7.7980  -7.7846  -7.7748  -7.7617
    26.4772  27.0020  27.5216  27.8199  27.9982  28.2511  28.6358  29.2123
    29.3937  29.6883  30.1011  30.1536  30.2398  30.4498  30.8174  30.8599
    31.0032  31.5920  31.9599  32.3560  32.6378  32.8297  33.1083  33.1781
    33.4316  33.5922  33.7053  34.0097  34.0298  34.4355  34.6440  34.8031
    34.8542  35.5962  36.0346  36.3171  36.7027  36.9313  37.0801  37.2318
    37.5765  38.4210  41.1046  43.8872  45.0068  45.2656  47.5955  48.7715
    49.1462  49.5753  50.2454  51.2314  51.4354  51.8268  53.2516  53.2979
    53.3446  53.8065  54.0502  54.3189  54.6006  54.8755  55.0897  55.8129
    56.2036  56.5037  56.7179  57.3815  58.1231  58.3789  59.4181  60.0333

          k = 0.0000 0.1667 0.4286 (  2658 PWs)   bands (ev):

   -51.9359 -51.9276 -51.8043 -51.7195 -51.6092 -51.6007 -43.2760 -43.2717
   -15.8368 -15.6606 -14.8294 -14.2731 -14.2266 -14.1951 -14.0541 -13.9607
   -13.9389 -13.8605 -13.7971 -13.7350 -13.6910 -13.6816 -13.6660 -13.6516
   -13.3634 -13.1587  -7.8260  -7.8054  -7.7914  -7.7760  -7.7759  -7.7608
    26.5149  27.0134  27.5667  27.9429  28.0778  28.5066  29.1384  29.2712
    29.5960  29.8625  30.0477  30.2317  30.2884  30.6212  30.9709  31.0157
    31.3945  31.4862  31.5502  31.8645  32.2305  32.3601  32.8628  33.0449
    33.5580  33.6936  33.7488  34.0959  34.2039  34.3651  34.5929  34.9851
    35.0512  35.1398  35.4912  35.7406  36.7550  36.8216  37.0386  37.2249
    37.8509  38.1517  42.0890  43.5389  44.6001  44.7083  47.1077  47.9434
    48.9717  49.8112  50.6162  51.8005  52.1509  52.4175  52.9162  53.0551
    53.5111  53.9334  54.4026  54.4836  54.6362  54.7791  55.3115  55.7860
    56.8068  56.8438  57.5605  57.8176  57.9761  58.7174  59.4966  59.6682

          k = 0.0000 0.3333 0.0000 (  2677 PWs)   bands (ev):

   -51.9729 -51.9697 -51.8574 -51.7046 -51.5850 -51.5850 -43.2859 -43.2785
   -15.8425 -15.7894 -15.2000 -14.2733 -14.2733 -14.1410 -13.9303 -13.9117
   -13.9117 -13.8486 -13.7321 -13.7205 -13.7205 -13.6789 -13.6789 -13.6681
   -13.1871 -13.1871  -7.8340  -7.8091  -7.7933  -7.7933  -7.7665  -7.7665
    26.4048  26.5333  27.3692  28.1526  28.1526  28.1629  28.6109  29.3933
    29.3933  29.9782  30.1000  30.2274  30.2389  30.3877  30.3877  30.7847
    31.3917  32.0149  32.0149  32.0155  32.6197  32.7277  32.7277  33.4013
    33.4821  33.7782  33.9996  34.0310  34.0310  34.0633  34.3340  34.8407
    34.8407  35.9020  35.9020  35.9184  36.6199  36.9086  37.0962  37.3254
    37.7478  37.7479  43.6639  43.6639  44.8111  45.1781  47.6753  48.3148
    48.9934  48.9934  50.7812  50.8442  51.5895  51.5895  53.2324  53.2324
    53.5822  53.5822  54.0178  54.1114  54.2623  54.8694  55.1252  55.2689
    56.4526  56.4526  57.5001  57.5001  58.0926  58.1286  59.1289  59.2013

          k = 0.0000 0.3333 0.1429 (  2660 PWs)   bands (ev):

   -51.9422 -51.9267 -51.8522 -51.6780 -51.6121 -51.5945 -43.2749 -43.2740
   -15.8344 -15.7026 -15.1836 -14.2443 -14.2369 -14.1279 -13.9428 -13.9269
   -13.8863 -13.8201 -13.7694 -13.7254 -13.6987 -13.6832 -13.6728 -13.6466
   -13.3100 -13.1613  -7.8251  -7.7961  -7.7893  -7.7792  -7.7784  -7.7610
    26.4816  26.8746  27.4746  27.9845  28.2029  28.3005  28.6468  29.2870
    29.3282  29.7812  30.0911  30.1658  30.2135  30.4781  30.7907  30.9092
    31.2586  31.6830  31.9056  32.1432  32.4958  32.5566  32.9737  33.2049
    33.5530  33.5535  33.7947  34.0267  34.1357  34.4709  34.6057  34.7918
    34.8547  35.4608  35.8504  36.1821  36.7239  36.9409  37.0570  37.3117
    37.7930  37.8602  41.7990  44.0266  44.8012  45.0268  47.4570  48.6292
    48.7691  49.6455  50.4569  51.3775  51.5837  51.8338  53.1876  53.1908
    53.4625  53.7132  54.3033  54.3788  54.6830  54.7955  55.1295  55.8193
    56.2587  56.6547  57.0213  57.6042  57.9911  58.3807  59.3315  59.7284

          k = 0.0000 0.3333 0.2857 (  2658 PWs)   bands (ev):

   -51.9274 -51.8902 -51.8430 -51.6785 -51.6570 -51.6067 -43.2787 -43.2706
   -15.8398 -15.3655 -15.1854 -14.2011 -14.1668 -14.1323 -13.9678 -13.9514
   -13.8881 -13.8368 -13.8028 -13.7317 -13.7147 -13.6803 -13.6682 -13.6672
   -13.6363 -13.1616  -7.8196  -7.8084  -7.7986  -7.7834  -7.7748  -7.7609
    26.5364  27.5819  27.7224  28.0554  28.3550  28.6768  28.7727  28.9084
    29.0221  29.7422  29.9718  30.2357  30.4771  30.5668  30.9744  31.1627
    31.3141  31.4666  31.8144  32.0309  32.0942  32.5280  32.5869  32.8839
    33.1767  33.3815  33.7896  34.0398  34.2886  34.8099  34.8596  34.8831
    34.9669  35.1889  35.6110  36.3250  36.7795  36.9464  37.2248  37.3212
    37.9478  38.5159  39.4599  43.0748  44.7129  44.8785  46.7397  48.1139
    49.5697  50.7765  51.0155  51.4968  51.5352  52.8717  52.9355  53.3315
    53.3709  53.6301  54.2216  54.9536  55.1601  55.2143  55.4896  55.8935
    56.2483  56.2995  57.3803  57.7830  58.4268  58.6172  59.0924  59.6898

          k = 0.0000 0.3333 0.4286 (  2654 PWs)   bands (ev):

   -51.9273 -51.8573 -51.8082 -51.7182 -51.6750 -51.5969 -43.2733 -43.2716
   -15.8443 -15.2021 -14.8350 -14.2818 -14.1641 -14.1114 -14.0826 -13.9809
   -13.9464 -13.9040 -13.8967 -13.7621 -13.7405 -13.7186 -13.6580 -13.6533
   -13.6398 -13.1719  -7.8169  -7.8070  -7.8031  -7.7858  -7.7731  -7.7651
    26.5770  27.5754  27.7341  28.4528  28.4820  28.7240  29.1037  29.1263
    29.5357  29.9189  29.9248  30.0496  30.7676  30.7878  31.0038  31.0307
    31.2410  31.4760  31.5807  31.8831  31.9453  32.1320  32.1904  32.8210
    32.9076  33.1510  33.5510  33.9240  34.3383  34.3632  34.7638  35.1204
    35.3103  35.4203  35.5704  36.6094  36.7580  36.9548  37.2297  37.5730
    37.8624  38.2392  39.6430  41.2059  44.4283  45.7662  46.1957  47.3050
    50.0421  50.6766  51.5136  51.9364  52.3019  52.4379  53.3390  53.6066
    53.7186  53.8713  53.9456  54.6936  55.2386  55.7232  55.8682  56.0085
    56.3918  56.7206  57.6873  57.8522  58.4364  58.6154  59.4288  60.1269

          k = 0.0000-0.5000 0.0000 (  2666 PWs)   bands (ev):

   -51.9543 -51.9543 -51.7700 -51.7700 -51.5881 -51.5881 -43.2763 -43.2763
   -15.8267 -15.8267 -14.5463 -14.5463 -14.2592 -14.2592 -14.0033 -14.0033
   -13.9133 -13.9133 -13.7270 -13.7270 -13.7019 -13.7019 -13.6560 -13.6560
   -13.1723 -13.1723  -7.8278  -7.8278  -7.7850  -7.7850  -7.7677  -7.7677
    26.4898  26.4898  27.6013  27.6013  28.3202  28.3202  29.2721  29.2721
    30.0872  30.0872  30.1202  30.1202  30.7066  30.7066  30.7129  30.7129
    31.3254  31.3254  31.4136  31.4136  32.6343  32.6343  33.3656  33.3656
    33.4076  33.4076  34.1479  34.1479  34.2900  34.2900  34.4445  34.4445
    35.0364  35.0364  35.2825  35.2825  36.8928  36.8928  36.9129  36.9129
    38.2150  38.2150  44.1870  44.1870  44.7132  44.7132  47.6390  47.6390
    48.0006  48.0006  51.7065  51.7065  52.0315  52.0315  53.0585  53.0585
    53.7610  53.7610  53.9909  53.9909  54.8079  54.8079  54.9933  54.9933
    57.3917  57.3917  57.7080  57.7080  58.1378  58.1379  59.3083  59.3082

          k = 0.0000-0.5000 0.1429 (  2666 PWs)   bands (ev):

   -51.9483 -51.9419 -51.7716 -51.7684 -51.6056 -51.5940 -43.2774 -43.2774
   -15.8311 -15.7054 -14.5547 -14.5497 -14.2317 -14.2226 -14.0277 -13.9916
   -13.9330 -13.8869 -13.7906 -13.7361 -13.6944 -13.6803 -13.6688 -13.6539
   -13.3189 -13.1674  -7.8273  -7.8228  -7.7884  -7.7762  -7.7733  -7.7633
    26.5134  26.8827  27.6166  27.7563  28.1574  28.4884  29.1460  29.2800
    29.9209  29.9450  30.1384  30.2615  30.4910  30.6599  30.7739  31.0340
    31.2646  31.3514  31.4307  31.5724  32.2974  32.5395  33.1238  33.2346
    33.5207  33.6015  33.8178  33.8730  34.2893  34.3293  34.4498  35.0206
    35.0794  35.1716  35.3453  35.3789  36.8536  36.8963  36.9839  37.0543
    37.9527  38.2312  42.9331  43.2964  44.5996  44.6699  47.1744  47.7998
    48.7268  49.4454  50.7746  51.8187  52.2568  52.6958  52.8384  53.0090
    53.5231  53.8533  54.1042  54.5011  54.7666  54.7839  55.2538  55.5863
    56.9264  57.1499  57.4988  57.8931  58.0734  59.0310  59.0980  59.4078

          k = 0.0000-0.5000 0.2857 (  2658 PWs)   bands (ev):

   -51.9250 -51.8807 -51.7672 -51.7664 -51.6531 -51.6064 -43.2745 -43.2741
   -15.8470 -15.3560 -14.5643 -14.5482 -14.1804 -14.1445 -14.0477 -13.9748
   -13.9588 -13.8849 -13.8310 -13.7482 -13.7021 -13.6735 -13.6650 -13.6613
   -13.6555 -13.1728  -7.8195  -7.8101  -7.8009  -7.7792  -7.7767  -7.7685
    26.5665  27.5293  27.8372  28.0868  28.2210  28.8009  28.9596  29.2227
    29.7354  29.9068  29.9210  30.3821  30.6617  30.7754  31.0066  31.0218
    31.2191  31.2534  31.5322  31.8965  31.9110  32.2509  32.4179  32.8001
    33.1130  33.1979  33.5933  33.8136  34.5293  34.5597  34.7195  35.1257
    35.1890  35.3310  35.4103  36.3024  36.7780  36.7921  37.2891  37.4141
    37.6655  38.2760  40.8661  41.1605  44.4792  45.5949  46.3644  47.2966
    50.1405  50.3527  51.5086  51.9187  52.0855  52.4570  53.2543  53.5523
    53.6247  53.9112  54.0139  54.4359  55.1968  55.5354  55.6462  55.7937
    56.8229  57.0282  57.3743  57.6512  58.6018  58.8342  59.6514  60.0155

          k = 0.0000-0.5000 0.4286 (  2662 PWs)   bands (ev):

   -51.9420 -51.8230 -51.7740 -51.7700 -51.7152 -51.5929 -43.2770 -43.2768
   -15.8420 -14.8605 -14.5761 -14.5561 -14.2816 -14.1072 -14.0797 -14.0512
   -13.9957 -13.9814 -13.9511 -13.7748 -13.7653 -13.7496 -13.6471 -13.6406
   -13.6362 -13.1812  -7.8236  -7.8192  -7.8118  -7.7923  -7.7670  -7.7669
    26.6081  27.5778  27.6131  28.5435  28.8353  28.9467  29.4045  29.5530
    29.7454  29.9075  30.0920  30.2387  30.5232  30.9358  30.9608  30.9637
    31.3381  31.3824  31.7102  31.7262  31.8549  31.9545  31.9578  32.2615
    32.4320  32.9794  33.3249  33.3869  34.1813  34.6084  34.6139  35.0258
    35.2621  36.1907  36.5473  36.7226  36.7979  37.1073  37.1969  37.5295
    37.8623  38.3655  39.3380  39.4627  44.1826  45.7930  46.5777  46.8254
    50.3689  50.3977  50.8745  52.3561  52.8731  53.2237  53.4657  53.4799
    53.7432  54.1182  54.7491  54.8767  54.9511  55.8736  55.9768  56.5791
    56.7551  56.8465  56.8925  58.3195  58.3441  59.2283  59.6075  59.9451

          k = 0.2000 0.0000 0.0000 (  2661 PWs)   bands (ev):

   -51.9573 -51.9442 -51.9101 -51.6260 -51.5844 -51.5844 -43.2832 -43.2642
   -15.8469 -15.7879 -15.5435 -14.2829 -14.2829 -14.2248 -13.8827 -13.8827
   -13.8392 -13.7491 -13.7233 -13.7233 -13.6636 -13.6636 -13.6536 -13.4338
   -13.1743 -13.1743  -7.8170  -7.7997  -7.7997  -7.7736  -7.7553  -7.7553
    26.3667  26.5128  27.2134  27.4582  27.9029  27.9029  29.0001  29.5203
    29.5203  29.8577  29.8828  30.2179  30.2667  30.3129  30.3129  30.4281
    30.5494  32.3764  32.3764  32.4830  33.2143  33.2143  33.3119  33.3835
    33.3854  33.5229  33.7714  33.7714  33.9994  34.1291  34.3701  34.6372
    34.6372  36.0182  36.3879  36.5868  36.5868  36.8833  36.9900  36.9900
    37.1973  39.4415  43.0304  43.0304  45.2521  45.5440  48.4688  48.6398
    49.3187  50.2459  50.4300  50.4300  51.2895  51.2895  53.0736  53.0736
    53.5340  53.6371  53.6446  53.7514  53.7514  54.3974  55.1295  55.4482
    55.4482  55.6297  56.7410  56.7409  57.2802  59.0022  59.7211  60.0009

          k = 0.2000 0.0000 0.1429 (  2667 PWs)   bands (ev):

   -51.9507 -51.9415 -51.9133 -51.6249 -51.6076 -51.5969 -43.2802 -43.2742
   -15.8349 -15.7069 -15.5356 -14.2692 -14.2555 -14.2307 -13.9108 -13.9080
   -13.8063 -13.7599 -13.7374 -13.7070 -13.6938 -13.6726 -13.6366 -13.4490
   -13.3152 -13.1679  -7.8088  -7.8041  -7.7958  -7.7929  -7.7672  -7.7563
    26.4447  26.8493  27.2238  27.5597  27.7627  28.0260  28.9955  29.2783
    29.5434  29.7363  30.0442  30.0504  30.2411  30.3921  30.5360  30.6099
    30.6843  31.8087  32.1626  32.7204  33.0564  33.1298  33.2568  33.3636
    33.4543  33.5988  33.6957  33.7274  34.0306  34.1396  34.4797  34.6843
    34.8641  36.0549  36.4543  36.4625  36.5587  36.7288  37.0014  37.0836
    37.1350  39.7501  41.1185  43.3406  45.2842  46.3701  48.0553  48.7307
    48.7769  49.8256  50.1250  51.1481  51.1611  51.4931  53.1841  53.3057
    53.3156  53.6650  54.0057  54.1403  54.3408  54.4852  54.8202  55.1098
    55.9457  56.3337  56.6504  56.8042  57.7723  58.6244  59.8253  60.1165

          k = 0.2000 0.0000 0.2857 (  2659 PWs)   bands (ev):

   -51.9410 -51.9200 -51.8679 -51.6552 -51.6265 -51.5950 -43.2753 -43.2738
   -15.8332 -15.5872 -15.3304 -14.2380 -14.2184 -14.1727 -13.9387 -13.9266
   -13.8118 -13.7756 -13.7347 -13.7002 -13.6936 -13.6878 -13.6816 -13.6370
   -13.4382 -13.1649  -7.8186  -7.7978  -7.7914  -7.7783  -7.7774  -7.7636
    26.4902  27.2140  27.5888  27.7629  28.0067  28.3270  28.6650  29.1039
    29.3360  29.6534  30.0781  30.2087  30.2985  30.4503  30.8845  30.9297
    31.0446  31.5111  31.9047  32.3344  32.5590  32.8457  33.0213  33.0543
    33.3413  33.6396  33.6875  33.9478  34.1512  34.5665  34.7207  34.8279
    34.8656  35.4669  35.9700  36.3884  36.7423  36.8236  37.1036  37.2268
    37.6214  38.6026  40.5245  44.0632  44.8351  45.0121  47.4508  48.9835
    49.0311  49.6925  50.3295  51.3585  51.4343  52.0459  53.2159  53.3007
    53.3607  53.8946  53.9802  54.4446  54.6395  55.0600  55.1421  55.7696
    56.3333  56.4829  56.7017  57.5852  58.0489  58.5306  59.4177  59.9821

          k = 0.2000 0.0000 0.4286 (  2660 PWs)   bands (ev):

   -51.9334 -51.9206 -51.8046 -51.7247 -51.6190 -51.6034 -43.2769 -43.2727
   -15.8396 -15.5931 -14.8353 -14.2741 -14.2156 -14.1801 -14.0596 -13.9651
   -13.9483 -13.8501 -13.8180 -13.7417 -13.6878 -13.6858 -13.6638 -13.6455
   -13.4436 -13.1579  -7.8215  -7.8095  -7.7983  -7.7790  -7.7754  -7.7621
    26.5270  27.2164  27.6205  27.9803  28.0369  28.5994  29.0629  29.2400
    29.5859  29.8446  30.0037  30.2013  30.3671  30.6566  31.0281  31.0349
    31.4010  31.4463  31.5474  31.9246  32.1127  32.3041  32.8417  32.8948
    33.5771  33.6071  33.6473  33.9695  34.2391  34.5323  34.6450  35.0050
    35.0856  35.2063  35.4855  35.8174  36.8148  36.8219  37.1111  37.2109
    37.8007  38.1634  41.5606  43.0763  44.6708  44.8093  46.9257  47.8335
    49.3337  50.2307  50.5427  51.8297  52.1760  52.6232  52.7248  53.1376
    53.4697  54.1097  54.3072  54.4831  54.6170  54.9433  55.4456  55.8872
    56.7417  56.7809  57.5087  57.8873  58.0474  58.7557  59.4822  59.7122

          k = 0.2000 0.1667 0.0000 (  2672 PWs)   bands (ev):

   -51.9605 -51.9424 -51.9024 -51.6320 -51.6249 -51.5971 -43.2806 -43.2796
   -15.8384 -15.6737 -15.5385 -14.2619 -14.2457 -14.2311 -13.9201 -13.9160
   -13.8004 -13.7653 -13.7368 -13.7101 -13.6952 -13.6891 -13.6360 -13.4515
   -13.3609 -13.1721  -7.8140  -7.8038  -7.7993  -7.7919  -7.7691  -7.7665
    26.4528  26.9834  27.2286  27.5912  27.7322  28.0677  28.9917  29.1988
    29.5539  29.6688  30.0669  30.0892  30.2370  30.4163  30.5562  30.6729
    30.7342  31.7220  32.1080  32.7069  33.0018  33.1245  33.2027  33.3175
    33.4707  33.5698  33.7171  33.7248  34.1010  34.1178  34.5325  34.7015
    34.9047  35.9876  36.3959  36.5022  36.6003  36.6712  37.0261  37.1041
    37.1589  39.8293  40.6973  43.4419  45.2497  46.2475  48.0868  48.6942
    48.8139  49.8273  49.9786  51.1780  51.2219  51.5737  53.2237  53.2805
    53.3942  53.6767  54.0195  54.1883  54.4073  54.4704  54.9260  55.1079
    56.0460  56.4543  56.6194  56.8685  57.9166  58.5107  59.8255  60.1496

          k = 0.2000 0.1667 0.1429 (  2665 PWs)   bands (ev):

   -51.9394 -51.9284 -51.9135 -51.6300 -51.6222 -51.5960 -43.2798 -43.2738
   -15.7214 -15.6680 -15.5350 -14.2429 -14.2356 -14.2244 -13.9694 -13.8450
   -13.8249 -13.7367 -13.7342 -13.7184 -13.7086 -13.6691 -13.6511 -13.4480
   -13.3651 -13.3086  -7.8092  -7.8026  -7.7996  -7.7923  -7.7689  -7.7634
    26.8424  27.0087  27.2520  27.6960  27.8466  27.9392  29.0215  29.1774
    29.2772  29.8352  29.9364  30.0896  30.2994  30.4256  30.4982  30.8697
    30.9166  31.5645  31.5937  32.8818  32.9900  33.1271  33.1421  33.4622
    33.4849  33.5520  33.6838  33.9683  33.9891  34.1190  34.1760  35.0303
    35.0528  35.9102  36.0223  36.6322  36.7803  36.8421  36.8923  36.9794
    37.0175  40.1472  40.9490  41.4697  46.2282  46.2702  48.0723  48.1440
    48.6936  48.8745  50.0688  50.8665  52.3907  52.4975  53.2849  53.4026
    53.4569  53.5380  53.7087  53.8103  54.9789  55.1657  55.2042  55.6330
    55.7625  56.1193  57.1254  57.4423  57.9408  58.1479  59.8413  60.2224

          k = 0.2000 0.1667 0.2857 (  2655 PWs)   bands (ev):

   -51.9160 -51.9084 -51.8675 -51.6600 -51.6199 -51.6119 -43.2789 -43.2655
   -15.6717 -15.5838 -15.3412 -14.2161 -14.1999 -14.1601 -13.9880 -13.8557
   -13.8237 -13.7709 -13.7435 -13.7281 -13.6962 -13.6698 -13.6667 -13.6505
   -13.4359 -13.3558  -7.8152  -7.7988  -7.7952  -7.7856  -7.7699  -7.7664
    27.0260  27.2673  27.7348  27.9138  28.0368  28.1728  28.6989  29.0955
    29.2864  29.6285  29.8214  30.1843  30.3236  30.4268  30.8615  30.9550
    31.1920  31.3210  31.4682  32.4618  32.6693  32.8949  33.0840  33.3127
    33.4366  33.5437  33.6236  33.9211  34.1463  34.4414  34.4990  34.8957
    35.2687  35.5057  35.6283  36.4772  36.8313  36.9203  36.9854  37.1766
    37.2601  39.0438  40.8727  41.5741  45.0111  45.4073  47.2115  48.1491
    49.0939  49.6410  50.2214  51.3371  52.7538  52.8621  53.0595  53.3744
    53.8085  53.8849  54.0219  54.2034  55.2535  55.5254  55.6328  55.8892
    56.5221  56.6408  57.2022  57.4696  57.7552  58.5322  59.4256  59.8878

          k = 0.2000 0.1667 0.4286 (  2655 PWs)   bands (ev):

   -51.9167 -51.9078 -51.7991 -51.7281 -51.6210 -51.6076 -43.2727 -43.2714
   -15.6672 -15.5938 -14.8403 -14.2796 -14.1933 -14.1640 -14.0545 -14.0004
   -13.8911 -13.8685 -13.7861 -13.7671 -13.6866 -13.6788 -13.6654 -13.6534
   -13.4363 -13.3587  -7.8130  -7.8104  -7.7941  -7.7842  -7.7735  -7.7706
    27.0682  27.2832  27.7652  28.0475  28.2349  28.3995  29.1902  29.3413
    29.5368  29.7073  29.7304  30.1425  30.2569  30.4815  30.7953  30.9083
    31.2801  31.5270  31.8334  31.9127  32.2151  32.5233  32.7419  33.1529
    33.3736  33.4432  33.7117  33.9119  34.1298  34.2975  34.7848  34.9650
    35.1637  35.3441  35.6631  36.0422  36.8305  36.9320  37.0949  37.2013
    37.7615  37.9054  41.8504  42.5106  43.2978  43.8609  47.3517  47.6743
    49.4969  49.8602  51.0121  51.4658  52.9103  53.0047  53.0878  53.2334
    54.0401  54.2238  54.5012  54.9381  55.1386  55.2838  55.9341  56.1510
    56.5388  56.6625  57.4673  57.8194  58.1436  58.9449  59.0297  59.9038

          k = 0.2000 0.3333 0.0000 (  2656 PWs)   bands (ev):

   -51.9389 -51.9196 -51.8446 -51.6774 -51.6189 -51.5919 -43.2768 -43.2693
   -15.8317 -15.5836 -15.1834 -14.2303 -14.2155 -14.1320 -13.9421 -13.9409
   -13.8824 -13.8087 -13.7907 -13.7243 -13.6909 -13.6866 -13.6736 -13.6366
   -13.4394 -13.1648  -7.8236  -7.7960  -7.7940  -7.7781  -7.7753  -7.7589
    26.5041  27.2122  27.5819  27.8729  28.2500  28.4337  28.6808  29.1524
    29.2247  29.7161  30.0198  30.2702  30.2759  30.5070  30.9147  31.0219
    31.2315  31.5730  31.8423  32.1329  32.3423  32.5843  32.9134  32.9827
    33.4196  33.6331  33.6858  33.9896  34.2737  34.6143  34.7369  34.8689
    34.8904  35.2846  35.7824  36.2583  36.7747  36.8759  37.1067  37.2807
    37.8374  38.0736  40.8212  44.2321  44.3328  44.8760  47.2138  48.5518
    49.1407  49.9421  50.5453  51.5744  51.5755  52.1976  53.0770  53.2080
    53.3970  53.9709  54.1279  54.5948  54.6984  55.0233  55.2664  56.0603
    56.2141  56.5133  57.0571  57.8829  57.9039  58.5337  59.3265  59.8990

          k = 0.2000 0.3333 0.1429 (  2657 PWs)   bands (ev):

   -51.9254 -51.9128 -51.8447 -51.6849 -51.6166 -51.6084 -43.2781 -43.2683
   -15.7126 -15.5850 -15.1904 -14.2145 -14.2048 -14.1239 -13.9894 -13.8826
   -13.8729 -13.8253 -13.7772 -13.7477 -13.7025 -13.6852 -13.6670 -13.6508
   -13.4405 -13.3088  -7.8196  -7.7992  -7.7913  -7.7875  -7.7723  -7.7696
    26.9034  27.2591  27.6855  28.0254  28.2599  28.2888  28.7052  29.1314
    29.4139  29.5008  29.8089  30.2587  30.3037  30.4484  30.8739  31.0597
    31.1675  31.3505  31.6658  32.2522  32.4796  32.7371  32.9656  33.2087
    33.4151  33.5803  33.6453  33.9135  34.2789  34.4962  34.6369  34.7198
    35.2615  35.4051  35.5277  36.3565  36.8135  36.9617  37.0328  37.2553
    37.5161  38.3737  41.0749  42.2492  44.3816  45.1038  47.4949  47.8278
    49.1800  49.7848  50.6525  51.3304  52.5930  52.6536  53.0689  53.2092
    53.8239  54.0103  54.1770  54.5236  55.1573  55.5209  55.6892  55.8596
    56.6711  56.7686  57.1362  57.3297  57.8435  58.6524  59.2682  59.8559

          k = 0.2000 0.3333 0.2857 (  2656 PWs)   bands (ev):

   -51.9035 -51.8827 -51.8524 -51.6766 -51.6462 -51.6232 -43.2772 -43.2685
   -15.6010 -15.3616 -15.1947 -14.1752 -14.1514 -14.1114 -14.0282 -13.8872
   -13.8590 -13.8354 -13.8018 -13.7542 -13.7182 -13.6916 -13.6735 -13.6669
   -13.6569 -13.4366  -7.8120  -7.8050  -7.7946  -7.7915  -7.7823  -7.7729
    27.3154  27.8572  28.0266  28.1029  28.3858  28.4468  28.7811  28.9088
    29.2873  29.4193  29.8650  30.1442  30.2226  30.3047  30.7021  30.9582
    31.0676  31.5186  31.6890  32.1562  32.3725  32.5645  32.9380  33.0927
    33.3903  33.4306  33.6574  33.7971  34.2930  34.4262  34.8155  34.9075
    35.1608  35.4884  35.6935  36.3463  36.7335  37.0241  37.1170  37.2465
    37.4552  38.9749  39.9281  41.6480  43.4114  44.7549  45.8575  47.6370
    49.9510  50.1024  50.5620  52.0600  53.1245  53.5369  53.5958  53.7519
    53.8960  54.1236  54.6471  54.7806  55.6592  55.8823  55.9415  56.2682
    56.5029  56.9714  57.3140  57.5683  57.9933  58.5515  59.1651  59.9463

          k = 0.2000 0.3333 0.4286 (  2643 PWs)   bands (ev):

   -51.8844 -51.8561 -51.7940 -51.7146 -51.6532 -51.6237 -43.2679 -43.2648
   -15.6023 -15.2004 -14.8416 -14.2849 -14.1307 -14.0874 -14.0720 -14.0041
   -13.9019 -13.8841 -13.8468 -13.7699 -13.7483 -13.7151 -13.6835 -13.6682
   -13.6570 -13.4283  -7.8074  -7.8018  -7.7984  -7.7869  -7.7769  -7.7709
    27.3667  27.8958  28.0606  28.4507  28.5383  28.8471  29.0089  29.2798
    29.4522  29.7050  29.8434  29.9518  30.1631  30.3234  30.3980  30.7100
    31.3109  31.6360  31.7879  31.8236  32.0053  32.5119  32.5832  32.8347
    33.0809  33.2994  33.4929  33.7292  33.8616  34.4589  34.8784  35.0191
    35.3770  35.7253  35.9172  36.6630  36.7024  37.0654  37.2678  37.4249
    37.6558  38.1414  40.0192  41.5713  42.4138  44.0271  45.6453  46.5386
    50.2473  50.5821  51.3466  52.5668  53.3202  53.6746  53.9676  54.1432
    54.3331  54.4196  54.9234  55.1733  55.4256  56.0895  56.2973  56.4264
    56.7655  56.8271  57.4176  57.9185  58.1354  58.5625  59.3143  59.5625

          k = 0.2000-0.5000 0.0000 (  2658 PWs)   bands (ev):

   -51.9368 -51.9127 -51.7655 -51.7650 -51.6211 -51.5938 -43.2737 -43.2734
   -15.8365 -15.5920 -14.5577 -14.5484 -14.2134 -14.1915 -14.0383 -13.9759
   -13.9437 -13.8604 -13.8249 -13.7410 -13.6896 -13.6805 -13.6602 -13.6419
   -13.4374 -13.1600  -7.8226  -7.8152  -7.7927  -7.7774  -7.7713  -7.7606
    26.5330  27.2203  27.6575  27.8952  28.0467  28.6455  29.0193  29.2616
    29.8561  29.8847  30.0635  30.3939  30.4346  30.6931  30.8296  31.1834
    31.2161  31.3012  31.4761  31.7044  32.0911  32.4451  32.8750  33.0289
    33.5394  33.5732  33.6202  33.7639  34.4228  34.4997  34.5044  35.0439
    35.1819  35.2415  35.4038  35.5904  36.8242  36.8606  37.1120  37.1554
    37.7953  38.2456  42.1138  42.4303  44.6170  44.9562  46.8662  47.6240
    49.3812  50.2701  50.5275  51.9122  52.3277  52.6264  52.9259  53.0093
    53.4831  54.2094  54.2529  54.2747  54.5888  55.1475  55.4676  55.7346
    56.9885  57.0076  57.2858  57.9465  58.2433  58.9147  59.4864  59.5114

          k = 0.2000-0.5000 0.1429 (  2658 PWs)   bands (ev):

   -51.9228 -51.9105 -51.7652 -51.7649 -51.6207 -51.6075 -43.2739 -43.2735
   -15.7144 -15.5967 -14.5557 -14.5504 -14.1979 -14.1882 -14.0270 -14.0038
   -13.9110 -13.8787 -13.7923 -13.7633 -13.6830 -13.6745 -13.6650 -13.6580
   -13.4368 -13.3099  -7.8165  -7.8132  -7.7911  -7.7835  -7.7768  -7.7707
    26.9371  27.2698  27.7873  27.9041  28.2130  28.4868  29.1590  29.2955
    29.7311  29.7695  30.0748  30.2334  30.3329  30.3777  30.8147  30.8259
    31.4050  31.4483  31.5892  31.7368  32.4018  32.5444  32.8623  32.9452
    33.2545  33.4132  33.7354  33.9296  34.1847  34.2963  34.7032  34.9856
    35.2285  35.3067  35.6085  35.8808  36.8183  36.9793  37.0253  37.1587
    37.7994  37.9598  42.4622  42.4642  43.3367  43.6052  47.4325  47.6857
    49.5364  49.8337  50.9664  51.3979  52.8691  52.9006  53.1687  53.2580
    53.9217  54.1655  54.6546  54.7491  54.8719  55.2561  55.9951  56.0903
    56.5298  56.5317  57.5640  57.9792  58.6079  58.6138  59.3399  59.4259

          k = 0.2000-0.5000 0.2857 (  2648 PWs)   bands (ev):

   -51.8933 -51.8797 -51.7608 -51.7588 -51.6346 -51.6207 -43.2692 -43.2687
   -15.5997 -15.3608 -14.5624 -14.5560 -14.1470 -14.1283 -14.0428 -14.0104
   -13.8963 -13.8745 -13.7954 -13.7673 -13.6998 -13.6868 -13.6777 -13.6670
   -13.6531 -13.4330  -7.8099  -7.8059  -7.7958  -7.7833  -7.7798  -7.7734
    27.3521  27.8338  28.1278  28.1404  28.2649  28.6999  29.1029  29.3592
    29.6033  29.7326  29.8515  30.0925  30.2222  30.2410  30.4878  30.6801
    31.5007  31.5457  31.7102  31.9254  32.3294  32.3963  32.4151  32.6169
    33.1997  33.3794  33.4373  33.7979  34.1353  34.3093  35.0175  35.1119
    35.2025  35.6458  35.8929  36.4347  36.7109  37.0378  37.1433  37.3818
    37.6867  37.7914  41.2784  41.5004  42.6148  43.3152  46.5193  46.5557
    50.1848  50.2823  51.4459  52.1002  53.3925  53.6279  53.6405  53.9245
    54.3734  54.4670  54.9323  55.0499  55.2902  55.7785  56.1948  56.3960
    56.5819  56.8589  57.4486  57.9937  58.4370  58.5869  59.4574  59.5825

          k = 0.2000-0.5000 0.4286 (  2646 PWs)   bands (ev):

   -51.8841 -51.8013 -51.7656 -51.7572 -51.7051 -51.6261 -43.2682 -43.2678
   -15.6122 -14.8621 -14.5746 -14.5592 -14.2804 -14.0971 -14.0899 -14.0207
   -13.9648 -13.9077 -13.9071 -13.7736 -13.7428 -13.7344 -13.6833 -13.6658
   -13.6624 -13.4295  -7.8125  -7.8055  -7.8013  -7.7855  -7.7797  -7.7775
    27.4071  27.9021  27.9383  28.7032  29.0158  29.1030  29.3691  29.4816
    29.6839  29.8333  29.8339  30.0042  30.0727  30.2225  30.3524  30.5327
    31.1782  31.6228  31.7118  31.7780  31.9771  32.1375  32.2127  32.8131
    32.9019  33.1518  33.2106  33.3612  33.5665  34.5716  34.6836  34.8619
    35.5690  36.4580  36.5530  36.7651  37.1360  37.2005  37.2453  37.5705
    37.6171  38.2034  39.5918  39.6942  42.9377  44.2746  44.9512  45.3851
    50.3247  51.3592  51.6592  52.7573  53.3701  54.0417  54.1537  54.6237
    54.7921  54.9017  55.0720  55.2648  55.6562  56.2607  56.4028  56.4778
    56.9923  57.1642  57.3928  57.6944  57.8588  58.4788  59.4042  59.5683

          k = 0.4000 0.0000 0.0000 (  2657 PWs)   bands (ev):

   -51.9504 -51.9463 -51.8244 -51.7077 -51.5796 -51.5796 -43.2787 -43.2656
   -15.8327 -15.8000 -14.9360 -14.2630 -14.2630 -14.1331 -14.0640 -13.9264
   -13.9132 -13.9132 -13.7144 -13.7140 -13.7140 -13.6756 -13.6675 -13.6675
   -13.1749 -13.1749  -7.8290  -7.8032  -7.7855  -7.7855  -7.7593  -7.7593
    26.4376  26.5265  27.4128  27.9362  28.2545  28.2545  29.2909  29.3251
    29.3251  30.0351  30.1921  30.2022  30.2159  30.5208  30.5208  30.9463
    31.5700  31.7230  31.7230  31.9459  32.2774  32.6484  32.6484  33.3811
    33.4689  33.9972  34.0231  34.0266  34.1684  34.1684  34.2747  34.9364
    34.9364  35.4926  35.5673  35.5673  36.4392  36.7358  37.0248  37.2970
    38.0385  38.0385  43.9646  43.9646  44.6795  44.9686  47.5587  47.9692
    48.4024  48.4024  51.3537  51.6108  51.6794  51.6794  53.1274  53.1274
    53.8269  53.8269  54.0673  54.1757  54.3090  54.8794  54.9748  55.2015
    56.9604  56.9604  57.7023  57.7024  57.9855  58.6134  58.7045  59.2949

          k = 0.4000 0.0000 0.1429 (  2659 PWs)   bands (ev):

   -51.9390 -51.9320 -51.8164 -51.7099 -51.6033 -51.6008 -43.2774 -43.2712
   -15.8350 -15.7016 -14.9446 -14.2366 -14.2348 -14.1270 -14.0680 -13.9512
   -13.9322 -13.8630 -13.7806 -13.7321 -13.6951 -13.6790 -13.6720 -13.6540
   -13.3155 -13.1587  -7.8263  -7.8060  -7.7895  -7.7785  -7.7723  -7.7594
    26.5002  26.8796  27.5077  28.0040  28.0926  28.4138  29.2195  29.2821
    29.3108  29.8595  30.0720  30.2225  30.2312  30.5622  30.8648  30.9957
    31.3988  31.6473  31.6771  32.0252  32.2341  32.3419  32.8326  33.1537
    33.5294  33.6956  33.8447  34.1044  34.2779  34.3447  34.5821  34.8681
    34.9430  35.2051  35.5779  35.9038  36.6720  36.7948  37.0218  37.2862
    37.8584  38.0639  42.2477  44.1410  44.3538  44.7863  47.2694  48.1969
    48.6836  49.5657  50.6519  51.7377  52.0033  52.0530  53.0679  53.0755
    53.5521  53.7720  54.4749  54.5733  54.6092  54.6416  55.1958  55.6953
    56.7406  56.7959  57.4911  57.7712  57.8893  58.5669  59.4445  59.4837

          k = 0.4000 0.0000 0.2857 (  2657 PWs)   bands (ev):

   -51.9276 -51.8802 -51.8180 -51.7128 -51.6551 -51.6034 -43.2780 -43.2701
   -15.8451 -15.3607 -14.9490 -14.1959 -14.1904 -14.1028 -14.0863 -13.9738
   -13.9496 -13.8666 -13.8210 -13.7392 -13.7090 -13.6714 -13.6704 -13.6610
   -13.6399 -13.1678  -7.8188  -7.8060  -7.8027  -7.7821  -7.7777  -7.7647
    26.5545  27.5428  27.8016  28.0750  28.3175  28.8004  28.9332  29.0691
    29.3216  29.8382  29.9193  30.1286  30.5902  30.7000  31.0079  31.0843
    31.3867  31.4955  31.6742  31.9051  31.9945  32.2357  32.4742  32.7979
    33.2183  33.3108  33.8059  33.8374  34.2311  34.7660  34.7930  35.0501
    35.0798  35.2832  35.4466  36.3002  36.7786  37.0294  37.1539  37.3838
    37.9437  38.1416  40.0019  42.2083  44.5735  45.2739  46.5000  47.6610
    49.8023  50.7596  51.1966  51.6709  52.0772  52.4869  53.1805  53.3626
    53.5443  53.7413  54.1672  54.7983  55.1668  55.2322  55.7201  55.9730
    56.3670  56.5853  57.6235  57.9477  58.1654  58.8274  59.0970  59.9191

          k = 0.4000 0.0000 0.4286 (  2657 PWs)   bands (ev):

   -51.9308 -51.8176 -51.8086 -51.7344 -51.7042 -51.5994 -43.2762 -43.2725
   -15.8456 -14.9721 -14.8352 -14.2899 -14.1763 -14.1385 -14.0700 -14.0484
   -13.9979 -13.9448 -13.9448 -13.7736 -13.7431 -13.7386 -13.6535 -13.6435
   -13.6393 -13.1779  -7.8196  -7.8151  -7.8021  -7.7901  -7.7717  -7.7649
    26.5965  27.5978  27.6415  28.6113  28.7184  28.7938  29.3093  29.3567
    29.6419  29.8867  29.9877  30.0111  30.6415  30.9018  31.0336  31.0792
    31.2073  31.3415  31.7046  31.8172  31.8938  31.9263  32.0717  32.5564
    32.7216  33.1196  33.3224  33.7559  34.0750  34.4338  34.7599  35.1005
    35.2465  35.7425  36.0942  36.7359  36.8924  36.9424  37.2844  37.7615
    37.8287  38.3020  39.1020  40.3715  44.2829  45.9379  46.2061  47.0499
    50.1720  50.6097  51.1446  52.3294  52.6739  52.7365  53.4484  53.4824
    53.7089  54.1331  54.3123  54.7205  55.0707  55.9669  56.0499  56.3252
    56.3875  56.7314  57.5154  57.9891  58.3625  58.8655  59.5417  59.5755

          k = 0.4000 0.1667 0.0000 (  2659 PWs)   bands (ev):

   -51.9351 -51.9272 -51.8163 -51.7107 -51.6093 -51.6037 -43.2756 -43.2731
   -15.8375 -15.6587 -14.9456 -14.2297 -14.2289 -14.1244 -14.0684 -13.9537
   -13.9381 -13.8554 -13.7945 -13.7330 -13.6935 -13.6824 -13.6708 -13.6492
   -13.3650 -13.1577  -7.8253  -7.8051  -7.7911  -7.7768  -7.7764  -7.7609
    26.5090  27.0114  27.5410  28.0238  28.0563  28.4696  29.1749  29.2602
    29.3116  29.8312  30.0301  30.2293  30.2679  30.5820  30.9206  31.0229
    31.3760  31.6192  31.6688  32.0455  32.2233  32.2598  32.8399  33.0614
    33.5617  33.6388  33.7645  34.1245  34.2519  34.3892  34.6315  34.9532
    34.9607  35.1757  35.5736  35.9310  36.7366  36.8041  37.0463  37.2720
    37.8294  38.0728  41.8602  43.8519  44.4830  44.7600  47.1618  48.1263
    48.9388  49.8159  50.5828  51.7497  52.0246  52.2101  52.9643  53.1014
    53.5081  53.8989  54.4847  54.5542  54.6031  54.6981  55.2909  55.8334
    56.6696  56.7378  57.5297  57.7177  57.9765  58.5774  59.5107  59.6183

          k = 0.4000 0.1667 0.1429 (  2662 PWs)   bands (ev):

   -51.9293 -51.9232 -51.8162 -51.7224 -51.6160 -51.6067 -43.2766 -43.2748
   -15.7129 -15.6585 -14.9510 -14.2254 -14.2161 -14.1223 -14.0704 -13.9855
   -13.8959 -13.8669 -13.7797 -13.7624 -13.6870 -13.6860 -13.6740 -13.6541
   -13.3646 -13.3154  -7.8212  -7.8062  -7.7914  -7.7868  -7.7753  -7.7730
    26.9013  27.0542  27.6482  28.0731  28.2058  28.3142  29.2065  29.3123
    29.3709  29.6608  29.7685  30.2133  30.3112  30.5299  30.8181  31.0655
    31.2745  31.3764  31.8896  32.0510  32.1476  32.5882  32.7873  33.2395
    33.3641  33.6926  33.7341  33.9873  34.2034  34.2669  34.7057  34.7952
    35.2367  35.2972  35.4453  36.1180  36.8403  36.9252  36.9777  37.2590
    37.7665  37.9467  42.0836  42.5742  44.0045  44.3434  47.7328  47.8307
    49.0632  49.6998  50.9756  51.2300  52.5472  52.7037  53.0072  53.0710
    53.8528  54.0721  54.3455  54.7984  54.9763  55.1727  55.8323  55.9249
    56.5264  56.7363  57.3669  57.6347  57.9719  58.7689  59.2462  59.7900

          k = 0.4000 0.1667 0.2857 (  2650 PWs)   bands (ev):

   -51.9045 -51.8788 -51.8186 -51.7012 -51.6427 -51.6133 -43.2706 -43.2693
   -15.6741 -15.3571 -14.9495 -14.2028 -14.1670 -14.0899 -14.0763 -14.0059
   -13.8909 -13.8551 -13.8049 -13.7548 -13.7103 -13.6857 -13.6722 -13.6609
   -13.6508 -13.3534  -7.8109  -7.8022  -7.7968  -7.7818  -7.7806  -7.7729
    27.1048  27.7505  28.0281  28.1081  28.3244  28.6556  29.0138  29.2435
    29.3250  29.5657  29.8321  30.0938  30.2988  30.3942  30.6096  30.9021
    31.2506  31.6208  31.8253  31.8984  32.1712  32.4384  32.8224  32.9709
    33.2590  33.3078  33.6078  33.8564  34.0624  34.4646  34.8872  34.9587
    35.2643  35.4451  35.6192  36.4177  36.7158  37.1187  37.1867  37.2715
    37.6990  38.1603  40.3112  42.4565  42.5732  44.4638  46.4253  47.2227
    50.1325  50.1681  50.9220  52.0909  52.9921  53.2730  53.5629  53.6564
    54.0027  54.1236  54.7366  55.0195  55.3357  55.7426  56.0373  56.2342
    56.5704  56.9755  57.1580  57.8982  58.0834  58.7892  59.0710  59.9828

          k = 0.4000 0.1667 0.4286 (  2652 PWs)   bands (ev):

   -51.8963 -51.8254 -51.8030 -51.7221 -51.6980 -51.6243 -43.2718 -43.2704
   -15.6827 -14.9707 -14.8403 -14.2894 -14.1864 -14.1168 -14.0754 -14.0357
   -13.9863 -13.9117 -13.9038 -13.7749 -13.7458 -13.7323 -13.6738 -13.6630
   -13.6590 -13.3557  -7.8137  -7.8075  -7.8035  -7.7885  -7.7801  -7.7758
    27.1546  27.8246  27.8705  28.6396  28.8508  28.9591  29.1996  29.3277
    29.6217  29.8262  29.9138  29.9297  30.1361  30.3720  30.5238  30.6811
    31.1785  31.6226  31.7271  31.7803  31.8645  32.3818  32.6318  32.9110
    32.9780  33.0399  33.2080  33.6283  33.7308  34.4722  34.6529  34.9662
    35.4365  36.0010  36.2113  36.6454  37.0128  37.0580  37.3807  37.5300
    37.7412  38.2756  39.2533  40.6138  43.0717  44.7496  45.4372  46.1860
    50.3137  50.9213  51.2619  52.8339  53.0788  53.6667  53.7524  54.2441
    54.3678  54.5869  54.6769  55.0335  55.4459  56.2253  56.3625  56.5103
    56.6805  56.9482  57.4396  57.8586  58.2259  58.3490  59.3309  59.5329

          k = 0.4000 0.3333 0.0000 (  2652 PWs)   bands (ev):

   -51.9292 -51.8506 -51.8182 -51.7072 -51.6751 -51.5945 -43.2737 -43.2699
   -15.8420 -15.2067 -14.9468 -14.1864 -14.1710 -14.1002 -14.0792 -13.9796
   -13.9420 -13.8945 -13.8928 -13.7585 -13.7394 -13.7165 -13.6572 -13.6543
   -13.6362 -13.1717  -7.8140  -7.8078  -7.8003  -7.7853  -7.7708  -7.7644
    26.5712  27.5913  27.7212  28.4663  28.4817  28.7517  29.0428  29.0524
    29.3375  29.8874  29.9119  30.0543  30.7223  30.7485  30.9682  31.0984
    31.2795  31.5861  31.6138  31.8732  31.9159  32.2006  32.2294  32.8522
    32.9776  33.1753  33.6746  33.9105  34.2815  34.4047  34.8187  35.0886
    35.3271  35.3573  35.4727  36.5627  36.7609  37.0522  37.1777  37.5473
    38.0619  38.1867  39.3899  41.5552  44.4733  45.6127  46.2627  47.4506
    49.9378  50.8166  51.5099  51.7786  52.2287  52.4013  53.3457  53.5667
    53.6204  53.7783  54.0219  54.8216  55.2058  55.7145  55.8490  56.0179
    56.2541  56.5858  57.7137  58.0976  58.1875  58.5792  59.2276  59.8412

          k = 0.4000 0.3333 0.1429 (  2654 PWs)   bands (ev):

   -51.9059 -51.8554 -51.8182 -51.7083 -51.6721 -51.6183 -43.2732 -43.2713
   -15.7225 -15.2093 -14.9491 -14.1963 -14.1521 -14.0929 -14.0754 -13.9992
   -13.9034 -13.9008 -13.8699 -13.7678 -13.7440 -13.7204 -13.6730 -13.6664
   -13.6506 -13.3069  -7.8151  -7.8033  -7.8027  -7.7865  -7.7798  -7.7730
    26.9812  27.7563  27.8900  28.4643  28.5055  28.8563  28.9235  29.1473
    29.3423  29.6729  29.9314  30.0446  30.3828  30.4722  30.5184  30.9320
    31.2339  31.6174  31.7859  31.8022  32.0595  32.4806  32.7840  32.8488
    33.0667  33.1673  33.6143  33.8222  33.9852  34.4893  34.7366  35.0065
    35.3525  35.5331  35.6198  36.6658  36.6898  37.1136  37.3006  37.3615
    37.7983  38.2768  39.6016  41.7416  43.0800  44.8876  46.2371  46.8608
    50.3695  50.4626  50.8520  52.3871  52.8424  53.2740  53.5719  53.8789
    53.9736  53.9959  54.5540  55.0883  55.2902  55.9442  56.1268  56.2042
    56.5943  56.8586  57.2342  58.0068  58.1009  58.6164  59.1934  59.8027

          k = 0.4000 0.3333 0.2857 (  2651 PWs)   bands (ev):

   -51.8667 -51.8486 -51.8178 -51.7050 -51.6723 -51.6490 -43.2704 -43.2698
   -15.3679 -15.2115 -14.9596 -14.1970 -14.1294 -14.0765 -14.0660 -14.0150
   -13.8896 -13.8584 -13.8306 -13.7876 -13.7549 -13.7203 -13.7069 -13.6890
   -13.6815 -13.6684  -7.8067  -7.8050  -7.7977  -7.7924  -7.7905  -7.7825
    28.0776  28.2310  28.3691  28.5141  28.5591  28.6704  29.0254  29.1723
    29.3550  29.5056  29.7149  29.9763  30.0387  30.0780  30.3791  30.5145
    31.2376  31.4675  31.8379  31.9236  32.0535  32.3525  32.4759  32.7610
    33.1696  33.3744  33.5492  33.6033  33.8686  34.3136  35.1189  35.3425
    35.5385  35.6877  36.1202  36.3534  36.8185  37.0220  37.2546  37.4692
    37.5098  38.6913  40.0677  41.0203  42.2915  43.1931  44.4150  46.0175
    50.4620  50.8928  51.6329  52.6214  53.8224  54.1806  54.3761  54.6177
    54.7293  54.9927  55.2704  55.4221  55.7062  56.3242  56.5092  56.6589
    56.8111  56.9602  57.2535  57.8671  57.9683  58.6944  59.2265  59.2655

          k = 0.4000 0.3333 0.4286 (  2646 PWs)   bands (ev):

   -51.8431 -51.8138 -51.7994 -51.7166 -51.6940 -51.6661 -43.2683 -43.2668
   -15.2154 -14.9657 -14.8498 -14.3002 -14.2002 -14.1119 -14.0915 -14.0240
   -13.9496 -13.8764 -13.8585 -13.7959 -13.7759 -13.7616 -13.7209 -13.7066
   -13.7021 -13.6899  -7.8043  -7.8030  -7.7968  -7.7937  -7.7893  -7.7865
    28.4213  28.4928  28.6508  28.7475  28.9060  28.9968  29.1578  29.3461
    29.4901  29.6429  29.6832  29.8563  29.9222  29.9902  30.1126  30.2453
    31.2461  31.4118  31.5096  31.8120  31.8984  32.1356  32.4439  32.5983
    32.8838  33.1263  33.2173  33.3675  33.5150  34.0000  35.5489  35.5909
    35.8354  36.1648  36.4162  36.4423  37.0787  37.2443  37.4492  37.4874
    37.6555  38.9017  39.7247  40.9460  41.3378  42.6338  43.1641  44.4489
    51.0725  51.6778  52.2292  52.9714  53.7192  54.5492  54.9460  55.3924
    55.4828  55.6964  55.7861  55.9503  56.1316  56.4220  56.5431  56.9250
    57.1311  57.3335  57.3612  57.5136  58.0524  58.3864  58.5292  59.1144

          k = 0.4000-0.5000 0.0000 (  2650 PWs)   bands (ev):

   -51.9248 -51.8181 -51.7663 -51.7611 -51.7010 -51.5931 -43.2711 -43.2711
   -15.8412 -14.9616 -14.5724 -14.5517 -14.1675 -14.1215 -14.0744 -14.0341
   -13.9917 -13.9638 -13.9457 -13.7620 -13.7519 -13.7349 -13.6459 -13.6407
   -13.6385 -13.1783  -7.8205  -7.8072  -7.8056  -7.7835  -7.7660  -7.7653
    26.6031  27.5748  27.6435  28.5768  28.7176  28.8830  29.3911  29.4473
    29.7370  29.7800  30.0578  30.2595  30.6166  30.9413  30.9516  31.0208
    31.2733  31.2797  31.6622  31.8287  31.8789  31.9384  31.9896  32.4272
    32.6062  32.9360  33.4109  33.5780  34.1133  34.6024  34.6071  35.0867
    35.2426  35.9925  36.2968  36.7300  36.7722  37.0296  37.2722  37.5834
    37.8042  38.3452  39.5382  39.7292  44.2332  45.8660  46.4255  46.8931
    50.3586  50.4036  51.0337  52.3165  52.8463  52.9443  53.5317  53.5544
    53.6162  54.1281  54.5104  54.7234  55.0402  55.9019  56.0068  56.4027
    56.8569  56.8662  56.9662  58.1367  58.4081  59.3746  59.3788  59.9359

          k = 0.4000-0.5000 0.1429 (  2650 PWs)   bands (ev):

   -51.8996 -51.8221 -51.7629 -51.7612 -51.6980 -51.6160 -43.2705 -43.2699
   -15.7235 -14.9620 -14.5757 -14.5579 -14.1828 -14.1075 -14.0838 -14.0340
   -13.9765 -13.9268 -13.9252 -13.7692 -13.7503 -13.7338 -13.6622 -13.6597
   -13.6491 -13.3043  -7.8179  -7.8078  -7.8057  -7.7875  -7.7726  -7.7702
    27.0164  27.7425  27.8118  28.6171  28.8545  28.9572  29.3134  29.4675
    29.7176  29.7353  29.9441  30.1827  30.3140  30.3540  30.6181  30.6612
    31.1437  31.5347  31.6638  31.8471  32.0524  32.2250  32.2942  32.8250
    32.8472  32.9097  33.4255  33.4517  33.7986  34.4779  34.5827  34.9753
    35.3976  36.1833  36.3585  36.6738  37.0107  37.0849  37.2752  37.6203
    37.8410  37.9747  39.7790  39.7957  43.4545  44.8712  45.9001  46.0131
    50.3597  50.9170  51.2136  52.5920  53.1617  53.5356  53.6642  54.0902
    54.3504  54.5627  54.7918  54.7962  55.3967  56.0984  56.3529  56.5610
    56.7785  57.0422  57.0636  58.0377  58.2533  58.4829  59.4940  59.6732

          k = 0.4000-0.5000 0.2857 (  2640 PWs)   bands (ev):

   -51.8533 -51.8162 -51.7515 -51.7505 -51.6884 -51.6494 -43.2648 -43.2647
   -15.3742 -14.9606 -14.5722 -14.5637 -14.1908 -14.0962 -14.0925 -13.9784
   -13.9632 -13.8769 -13.8665 -13.7824 -13.7500 -13.7216 -13.7101 -13.6857
   -13.6848 -13.6700  -7.8010  -7.7979  -7.7956  -7.7886  -7.7867  -7.7863
    28.1541  28.2144  28.2929  28.7197  29.0320  29.1439  29.1654  29.4419
    29.5773  29.6303  29.7504  29.8850  29.9736  30.0779  30.1042  30.3279
    31.4681  31.4858  31.6218  31.7506  31.8907  32.0754  32.2339  32.6420
    32.9797  33.0682  33.1983  33.4379  33.4802  34.3730  35.1788  35.2450
    35.7450  36.2929  36.6238  36.7638  36.8551  37.1706  37.4165  37.5049
    37.7486  38.2227  40.0426  40.4278  41.8680  42.8138  44.1620  44.5904
    50.7726  51.4530  52.1645  53.2557  53.3790  54.5302  54.7439  55.1348
    55.2992  55.3700  55.4487  55.9055  55.9933  56.2158  56.6499  56.7552
    57.0772  57.2359  57.2823  57.5804  57.8654  58.4154  59.1307  59.2111

          k = 0.4000-0.5000 0.4286 (  2640 PWs)   bands (ev):

   -51.8044 -51.7910 -51.7533 -51.7482 -51.7058 -51.6979 -43.2640 -43.2640
   -14.9682 -14.8578 -14.5788 -14.5764 -14.3045 -14.2003 -14.1061 -14.1043
   -13.8981 -13.8785 -13.8346 -13.8276 -13.7913 -13.7789 -13.7220 -13.7155
   -13.7146 -13.7106  -7.8008  -7.8005  -7.7961  -7.7933  -7.7873  -7.7859
    28.7299  28.7537  28.9110  28.9797  29.1477  29.2019  29.4035  29.4205
    29.4528  29.5707  29.7155  29.7596  29.9798  30.0158  30.0573  30.1534
    31.0743  31.0817  31.5824  31.6464  31.8941  31.9379  32.3884  32.5113
    32.6439  32.7280  32.9931  33.0589  33.3030  33.4156  36.0229  36.0750
    36.1386  36.3097  36.5770  36.6096  37.2553  37.2738  37.4193  37.4258
    38.7460  38.9398  40.2669  40.6898  40.8286  41.3421  42.4888  42.6349
    52.0722  52.2150  52.8721  53.2652  53.8260  54.1184  55.3071  55.6078
    55.9088  56.0117  56.2153  56.2220  56.7662  56.7689  56.9994  57.0213
    57.3187  57.3362  57.7036  57.7955  57.8131  57.9739  58.5938  58.6912

     the Fermi energy is    53.3284 ev

!    total energy              =   -2550.71317155 Ry
     Harris-Foulkes estimate   =   -2550.71322816 Ry
     estimated scf accuracy    <       0.00006414 Ry

     The total energy is the sum of the following terms:

     one-electron contribution =     -21.17906560 Ry
     hartree contribution      =     256.04658918 Ry
     xc contribution           =    -228.99317261 Ry
     ewald contribution        =   -2556.22076695 Ry
     smearing contrib. (-TS)   =      -0.36675558 Ry

     convergence has been achieved in   7 iterations

     Forces acting on atoms (Ry/au):

     atom    1 type  1   force =     0.00000000    0.00000000    0.00000000
     atom    2 type  1   force =     0.00000000    0.00000000    0.00000000
     atom    3 type  1   force =     0.00000000    0.00000000    0.00000000
     atom    4 type  1   force =     0.00000000    0.00000000    0.00000000
     atom    5 type  1   force =     0.00000000    0.00000000    0.00000000
     atom    6 type  1   force =     0.00000000    0.00000000    0.00000000
     atom    7 type  2   force =     0.00000000    0.00000000    0.00000000
     atom    8 type  2   force =     0.00000000    0.00000000    0.00000000

     Total force =     0.000000     Total SCF correction =     0.000000


     entering subroutine stress ...

          total   stress  (Ry/bohr**3)                   (kbar)     P= 6009.74
   0.04085338   0.00000000   0.00000000       6009.74      0.00      0.00
   0.00000000   0.04085338   0.00000000          0.00   6009.74      0.00
   0.00000000   0.00000000   0.04085338          0.00      0.00   6009.74


     BFGS Geometry Optimization

     number of scf cycles    =   1
     number of bfgs steps    =   0

     enthalpy new            =   -2550.7131715455 Ry

     new trust radius        =       0.5000000000 bohr
     new conv_thr            =       0.0001000000 Ry

     new unit-cell volume =    828.02266 a.u.^3 (   122.70030 Ang^3 )

CELL_PARAMETERS (alat=  8.53457320)
   1.100269143   0.000000000   0.000000000
   0.000000000   1.100269143   0.000000000
   0.000000000   0.000000000   1.100269143

ATOMIC_POSITIONS (crystal)
Cr       0.000000000   0.500000000   0.250000000
Cr       0.000000000   0.500000000   0.750000000
Cr       0.500000000   0.750000000   0.000000000
Cr       0.500000000   0.250000000   0.000000000
Cr       0.750000000   0.000000000   0.500000000
Cr       0.250000000   0.000000000   0.500000000
Si       0.500000000   0.500000000   0.500000000
Si       0.000000000   0.000000000   0.000000000



     Writing output data file Prototype-La-cP8-Cr3Si.save
     NEW-OLD atomic charge density approx. for the potential
     NEW k-points:
        k(    1) = (   0.0000000   0.0000000   0.0000000), wk =   0.0095238
        k(    2) = (   0.0000000   0.0000000   0.1298384), wk =   0.0190476
        k(    3) = (   0.0000000   0.0000000   0.2596767), wk =   0.0190476
        k(    4) = (   0.0000000   0.0000000   0.3895151), wk =   0.0190476
        k(    5) = (   0.0000000   0.1514781   0.0000000), wk =   0.0190476
        k(    6) = (   0.0000000   0.1514781   0.1298384), wk =   0.0380952
        k(    7) = (   0.0000000   0.1514781   0.2596767), wk =   0.0380952
        k(    8) = (   0.0000000   0.1514781   0.3895151), wk =   0.0380952
        k(    9) = (   0.0000000   0.3029562   0.0000000), wk =   0.0190476
        k(   10) = (   0.0000000   0.3029562   0.1298384), wk =   0.0380952
        k(   11) = (   0.0000000   0.3029562   0.2596767), wk =   0.0380952
        k(   12) = (   0.0000000   0.3029562   0.3895151), wk =   0.0380952
        k(   13) = (   0.0000000  -0.4544343   0.0000000), wk =   0.0095238
        k(   14) = (   0.0000000  -0.4544343   0.1298384), wk =   0.0190476
        k(   15) = (   0.0000000  -0.4544343   0.2596767), wk =   0.0190476
        k(   16) = (   0.0000000  -0.4544343   0.3895151), wk =   0.0190476
        k(   17) = (   0.1817737   0.0000000   0.0000000), wk =   0.0190476
        k(   18) = (   0.1817737   0.0000000   0.1298384), wk =   0.0380952
        k(   19) = (   0.1817737   0.0000000   0.2596767), wk =   0.0380952
        k(   20) = (   0.1817737   0.0000000   0.3895151), wk =   0.0380952
        k(   21) = (   0.1817737   0.1514781   0.0000000), wk =   0.0380952
        k(   22) = (   0.1817737   0.1514781   0.1298384), wk =   0.0761905
        k(   23) = (   0.1817737   0.1514781   0.2596767), wk =   0.0761905
        k(   24) = (   0.1817737   0.1514781   0.3895151), wk =   0.0761905
        k(   25) = (   0.1817737   0.3029562   0.0000000), wk =   0.0380952
        k(   26) = (   0.1817737   0.3029562   0.1298384), wk =   0.0761905
        k(   27) = (   0.1817737   0.3029562   0.2596767), wk =   0.0761905
        k(   28) = (   0.1817737   0.3029562   0.3895151), wk =   0.0761905
        k(   29) = (   0.1817737  -0.4544343   0.0000000), wk =   0.0190476
        k(   30) = (   0.1817737  -0.4544343   0.1298384), wk =   0.0380952
        k(   31) = (   0.1817737  -0.4544343   0.2596767), wk =   0.0380952
        k(   32) = (   0.1817737  -0.4544343   0.3895151), wk =   0.0380952
        k(   33) = (   0.3635474   0.0000000   0.0000000), wk =   0.0190476
        k(   34) = (   0.3635474   0.0000000   0.1298384), wk =   0.0380952
        k(   35) = (   0.3635474   0.0000000   0.2596767), wk =   0.0380952
        k(   36) = (   0.3635474   0.0000000   0.3895151), wk =   0.0380952
        k(   37) = (   0.3635474   0.1514781   0.0000000), wk =   0.0380952
        k(   38) = (   0.3635474   0.1514781   0.1298384), wk =   0.0761905
        k(   39) = (   0.3635474   0.1514781   0.2596767), wk =   0.0761905
        k(   40) = (   0.3635474   0.1514781   0.3895151), wk =   0.0761905
        k(   41) = (   0.3635474   0.3029562   0.0000000), wk =   0.0380952
        k(   42) = (   0.3635474   0.3029562   0.1298384), wk =   0.0761905
        k(   43) = (   0.3635474   0.3029562   0.2596767), wk =   0.0761905
        k(   44) = (   0.3635474   0.3029562   0.3895151), wk =   0.0761905
        k(   45) = (   0.3635474  -0.4544343   0.0000000), wk =   0.0190476
        k(   46) = (   0.3635474  -0.4544343   0.1298384), wk =   0.0380952
        k(   47) = (   0.3635474  -0.4544343   0.2596767), wk =   0.0380952
        k(   48) = (   0.3635474  -0.4544343   0.3895151), wk =   0.0380952

     total cpu time spent up to now is      278.4 secs

     Self-consistent Calculation

     iteration #  1     ecut=    40.00 Ry     beta=0.70
     CG style diagonalization
     c_bands:  1 eigenvalues not converged
     c_bands:  1 eigenvalues not converged
     c_bands:  1 eigenvalues not converged
     c_bands:  1 eigenvalues not converged
     c_bands:  1 eigenvalues not converged
     c_bands:  1 eigenvalues not converged
     c_bands:  1 eigenvalues not converged
     c_bands:  1 eigenvalues not converged
     c_bands:  2 eigenvalues not converged
     c_bands:  1 eigenvalues not converged
     c_bands:  1 eigenvalues not converged
     c_bands:  1 eigenvalues not converged
     c_bands:  1 eigenvalues not converged
     c_bands:  1 eigenvalues not converged
     c_bands:  1 eigenvalues not converged
     c_bands:  1 eigenvalues not converged
     c_bands:  1 eigenvalues not converged
     ethr =  1.00E-06,  avg # of iterations = 22.2

     total cpu time spent up to now is      403.1 secs

     total energy              =   -2540.53108828 Ry
     Harris-Foulkes estimate   =   -2576.99166676 Ry
     estimated scf accuracy    <      45.96583670 Ry

     iteration #  2     ecut=    40.00 Ry     beta=0.70
     CG style diagonalization
     ethr =  1.00E-02,  avg # of iterations =  4.0

     total cpu time spent up to now is      425.8 secs

     total energy              =   -2553.92871673 Ry
     Harris-Foulkes estimate   =   -2557.23575276 Ry
     estimated scf accuracy    <       4.80810504 Ry

     iteration #  3     ecut=    40.00 Ry     beta=0.70
     CG style diagonalization
     ethr =  2.76E-03,  avg # of iterations =  3.7

     total cpu time spent up to now is      446.6 secs

     total energy              =   -2555.15309822 Ry
     Harris-Foulkes estimate   =   -2555.16797193 Ry
     estimated scf accuracy    <       0.02202839 Ry

     iteration #  4     ecut=    40.00 Ry     beta=0.70
     CG style diagonalization
     c_bands:  1 eigenvalues not converged
     ethr =  1.27E-05,  avg # of iterations =  4.4

     total cpu time spent up to now is      472.1 secs

     total energy              =   -2555.16855960 Ry
     Harris-Foulkes estimate   =   -2555.17076221 Ry
     estimated scf accuracy    <       0.00380269 Ry

     iteration #  5     ecut=    40.00 Ry     beta=0.70
     CG style diagonalization
     c_bands:  1 eigenvalues not converged
     c_bands:  1 eigenvalues not converged
     c_bands:  1 eigenvalues not converged
     ethr =  2.19E-06,  avg # of iterations =  3.7

     total cpu time spent up to now is      492.3 secs

     total energy              =   -2555.16927339 Ry
     Harris-Foulkes estimate   =   -2555.16933828 Ry
     estimated scf accuracy    <       0.00010713 Ry

     iteration #  6     ecut=    40.00 Ry     beta=0.70
     CG style diagonalization
     c_bands:  1 eigenvalues not converged
     ethr =  6.16E-08,  avg # of iterations =  4.1

     total cpu time spent up to now is      513.7 secs

     End of self-consistent calculation

          k = 0.0000 0.0000 0.0000 (  2601 PWs)   bands (ev):

   -63.2398 -63.2398 -62.9392 -62.8425 -62.8425 -62.8425 -54.3063 -54.2175
   -26.4152 -26.4152 -26.3814 -25.7322 -25.7322 -25.7322 -25.5961 -25.5961
   -25.5961 -25.5015 -25.5015 -25.5015 -25.4791 -25.4791 -25.4791 -25.3952
   -25.3952 -25.3952 -18.8951 -18.8951 -18.8951 -18.8730 -18.8730 -18.8730
    16.9378  16.9378  17.0053  18.1025  18.1025  18.1025  19.1585  19.1585
    19.1585  19.4785  19.5265  19.7660  19.7660  19.9256  19.9256  19.9256
    20.2518  21.1002  21.1002  21.1002  21.6590  21.6590  21.6590  21.6844
    21.6844  21.6844  21.7731  21.7731  22.3843  22.3843  22.3843  22.7778
    22.7778  24.3359  24.3359  24.3359  24.5016  24.5016  24.6569  24.6569
    24.6569  29.6215  29.6215  29.6215  31.3064  31.3064  31.4539  36.5442
    36.5442  37.0263  37.0263  37.0263  37.1503  37.8596  37.8596  37.8596
    39.0818  39.0818  39.0818  41.0479  41.7674  41.7674  41.7674  42.2743
    42.2744  42.2744  44.7386  44.7386  44.7386  45.3889  47.2427  47.9424

          k = 0.0000 0.0000 0.1298 (  2657 PWs)   bands (ev):

   -63.2618 -63.2016 -63.0505 -63.0257 -63.0257 -62.9925 -54.3671 -54.3151
   -26.4584 -26.4512 -26.3947 -25.7344 -25.7344 -25.7255 -25.6043 -25.6043
   -25.5697 -25.5602 -25.5602 -25.5491 -25.5311 -25.5311 -25.5262 -25.4561
   -25.4151 -25.4151 -18.9305 -18.9305 -18.9257 -18.8994 -18.8992 -18.8992
    16.9405  16.9860  17.2147  18.0219  18.1590  18.1590  18.9810  19.1749
    19.1749  19.4983  19.6526  19.7954  19.8204  19.8797  19.8797  19.9192
    20.4274  20.9941  21.0185  21.0185  21.4983  21.4983  21.5437  21.5960
    21.7178  21.7178  21.8055  21.8740  22.1099  22.4412  22.4412  22.8573
    22.8994  24.3617  24.3843  24.3843  24.4226  24.6214  24.6214  24.6359
    24.6495  27.8977  29.8533  29.8533  31.3167  31.3703  33.1985  34.9487
    35.3542  36.4843  36.4843  37.0732  37.4012  37.4012  38.6918  39.1808
    39.1969  40.0742  40.0742  40.9918  41.3356  41.3356  41.6395  42.2509
    42.6008  42.6008  44.7279  44.7279  45.0327  45.3781  47.0065  47.3557

          k = 0.0000 0.0000 0.2597 (  2677 PWs)   bands (ev):

   -63.2575 -63.2008 -63.1308 -63.0655 -63.0577 -63.0577 -54.3843 -54.3551
   -26.4598 -26.4503 -26.2671 -25.7243 -25.7243 -25.7065 -25.6541 -25.6203
   -25.6203 -25.6113 -25.5679 -25.5679 -25.5475 -25.5456 -25.5456 -25.5352
   -25.4313 -25.4313 -18.9358 -18.9338 -18.9338 -18.9318 -18.9081 -18.9081
    16.9564  16.9961  17.9214  17.9433  18.3114  18.3114  18.6195  19.2646
    19.2646  19.5819  19.7804  19.7804  19.8039  19.8900  19.8908  19.9482
    20.7533  20.8676  20.8676  21.0118  21.1164  21.1164  21.3918  21.3978
    21.4841  21.8112  21.8112  21.8726  21.9562  22.5737  22.5737  23.0540
    23.1405  24.1491  24.1491  24.2559  24.4309  24.6327  24.8692  24.8715
    24.8715  25.8416  30.4882  30.4882  31.3243  31.3294  33.6818  33.9371
    35.0280  35.0280  35.7056  37.4198  37.7408  37.7408  39.4997  39.5057
    40.5840  40.5840  40.6885  41.2296  41.2296  41.2553  41.4037  41.8061
    43.3270  43.3270  44.7487  44.7487  45.4867  45.8403  46.8115  47.5250

          k = 0.0000 0.0000 0.3895 (  2658 PWs)   bands (ev):

   -63.1685 -63.1448 -63.1190 -63.0751 -63.0305 -63.0305 -54.3452 -54.3421
   -26.4587 -26.4529 -26.0594 -25.8341 -25.7180 -25.7180 -25.6484 -25.6302
   -25.6074 -25.6074 -25.5512 -25.5512 -25.5391 -25.5371 -25.5371 -25.5326
   -25.4289 -25.4289 -18.9198 -18.9192 -18.9192 -18.9131 -18.9131 -18.9089
    16.9827  16.9992  18.0047  18.2285  18.4391  18.4391  19.0027  19.3371
    19.3371  19.7037  19.8120  19.8170  19.8477  19.8477  19.9473  20.1216
    20.4501  20.4579  20.4579  20.5022  21.0032  21.0032  21.3411  21.3858
    21.8887  21.8887  21.9366  21.9712  21.9803  22.6793  22.6793  22.9864
    23.3387  23.8443  23.9057  23.9057  24.5173  24.5891  24.7793  24.9008
    25.1002  25.1002  31.2549  31.2549  31.3206  31.3280  33.0608  33.1248
    33.8118  33.8118  37.9790  38.0302  38.1837  38.1837  39.1164  39.9892
    39.9892  40.0244  40.3615  40.6660  41.7439  41.8572  41.8572  41.9672
    44.1210  44.1210  44.8582  44.8582  45.8813  46.5986  46.9106  47.0307

          k = 0.0000 0.1515 0.0000 (  2653 PWs)   bands (ev):

   -63.2337 -63.1919 -63.0532 -63.0271 -63.0271 -62.9860 -54.3576 -54.3150
   -26.4580 -26.4478 -26.3814 -25.7278 -25.7278 -25.7104 -25.6054 -25.6054
   -25.5729 -25.5586 -25.5586 -25.5486 -25.5323 -25.5323 -25.5270 -25.4678
   -25.4126 -25.4126 -18.9273 -18.9273 -18.9193 -18.8997 -18.8992 -18.8992
    16.9440  16.9899  17.3028  18.0042  18.1808  18.1808  18.9281  19.1852
    19.1852  19.5088  19.6877  19.8089  19.8347  19.8654  19.8654  19.9169
    20.4938  20.9631  20.9990  20.9990  21.4415  21.4415  21.5163  21.5793
    21.7334  21.7334  21.8160  21.8922  22.0195  22.4617  22.4617  22.8839
    22.9396  24.3669  24.3669  24.3710  24.3982  24.6454  24.6454  24.6480
    24.6766  27.5352  29.9365  29.9365  31.3189  31.3658  33.6033  34.7088
    35.0949  36.2562  36.2562  37.1202  37.4282  37.4282  38.9498  39.2200
    39.4712  40.2910  40.2910  41.0041  41.2190  41.2190  41.5947  42.2251
    42.7013  42.7013  44.7261  44.7262  45.1364  45.3826  46.9640  47.3616

          k = 0.0000 0.1515 0.1298 (  2662 PWs)   bands (ev):

   -63.2145 -63.1941 -63.1011 -63.0503 -63.0362 -63.0208 -54.3801 -54.3198
   -26.4607 -26.4139 -26.3752 -25.7254 -25.7209 -25.7151 -25.6146 -25.6097
   -25.5758 -25.5649 -25.5631 -25.5466 -25.5402 -25.5385 -25.5199 -25.4994
   -25.4668 -25.4199 -18.9349 -18.9344 -18.9261 -18.9185 -18.8958 -18.8907
    16.9697  17.2181  17.3104  18.0578  18.1296  18.2529  18.9591  19.0328
    19.2100  19.5214  19.7510  19.8110  19.8190  19.8566  19.8619  20.0085
    20.6173  20.7587  20.9280  21.0560  21.3036  21.4429  21.5206  21.5531
    21.5876  21.6963  21.7761  21.9378  21.9739  22.3528  22.5160  23.0007
    23.0415  24.2729  24.3302  24.4629  24.4885  24.5897  24.6463  24.6770
    24.6882  27.7527  28.1830  30.1775  31.3458  32.8160  33.6219  34.1091
    34.5816  36.0273  36.1448  36.8147  37.2617  38.1871  39.1949  39.5885
    39.6948  40.3724  40.6444  40.6850  41.0577  41.6818  41.7090  42.5321
    42.6803  43.0974  44.6638  44.9916  45.1203  45.2262  46.4101  47.0962

          k = 0.0000 0.1515 0.2597 (  2666 PWs)   bands (ev):

   -63.2050 -63.1498 -63.1453 -63.0745 -63.0450 -63.0434 -54.3666 -54.3457
   -26.4642 -26.3924 -26.2688 -25.7143 -25.7089 -25.7009 -25.6333 -25.6269
   -25.6153 -25.5829 -25.5679 -25.5616 -25.5452 -25.5450 -25.5403 -25.5240
   -25.4963 -25.4258 -18.9305 -18.9276 -18.9257 -18.9224 -18.9096 -18.9011
    16.9861  17.3189  17.9276  18.0284  18.2370  18.4275  18.6843  19.0878
    19.3007  19.4696  19.7107  19.7458  19.8921  19.9318  20.0524  20.0560
    20.5641  20.7981  20.8316  20.9635  20.9919  21.2997  21.3423  21.4484
    21.4840  21.6930  21.7270  21.7782  22.0179  22.3119  22.6142  23.2043
[...]
    10.7543  10.7597  11.6023  11.7805  11.8293  11.8293  11.9642  12.4576
    12.4576  12.6568  12.7587  12.7587  12.7782  12.7880  12.8579  12.9102
    13.1465  13.1465  13.1544  13.1725  13.3809  13.3809  13.5472  13.5772
    13.8685  13.8685  13.9429  13.9587  14.5002  14.5003  15.4326  16.2983
    16.3952  16.7589  16.8463  16.8463  17.0643  17.0745  17.2507  17.2507
    17.2644  17.6170  22.8977  23.0411  23.3283  23.3283  23.8603  24.1309
    25.1501  25.1501  28.4994  28.5411  28.9609  28.9609  29.4941  30.7313
    30.9887  30.9887  31.5980  31.6758  32.8531  32.9072  33.1758  33.1758
    35.9333  35.9333  36.2457  36.2458  36.8984  37.3640  37.4389  37.8347

          k = 0.3366 0.0000 0.1202 (  4454 PWs)   bands (ev):

   -71.7459 -71.7399 -71.7367 -71.7277 -71.7227 -71.7168 -62.5347 -62.5327
   -34.0927 -34.0709 -33.9190 -33.7757 -33.7101 -33.7094 -33.6818 -33.6788
   -33.6773 -33.6672 -33.6651 -33.6524 -33.6486 -33.6458 -33.6415 -33.6366
   -33.6283 -33.6104 -26.7460 -26.7449 -26.7421 -26.7405 -26.7328 -26.7276
    10.7600  10.9242  11.6392  11.7976  11.8234  11.8944  11.9707  12.4175
    12.4747  12.5921  12.6715  12.7432  12.8100  12.8748  12.8771  12.9250
    13.1196  13.1428  13.1516  13.2208  13.3037  13.3848  13.5185  13.6064
    13.7617  13.8565  13.8710  13.9576  14.3296  14.5033  15.5586  16.3326
    16.4571  16.7553  16.8141  16.9124  17.0944  17.1044  17.2237  17.2591
    17.2678  17.7604  21.3385  22.6000  23.0292  23.5117  23.9832  25.2358
    25.2475  26.4530  27.3471  28.2901  28.6158  28.7264  29.8354  30.5988
    31.5614  31.6635  31.8791  32.3284  32.5168  33.0204  33.3435  33.5744
    35.5644  35.9958  36.0697  36.1493  36.6515  37.0916  37.1246  37.8185

          k = 0.3366 0.0000 0.2404 (  4458 PWs)   bands (ev):

   -71.7496 -71.7426 -71.7328 -71.7327 -71.7297 -71.7181 -62.5410 -62.5297
   -34.0960 -34.0075 -33.9275 -33.7792 -33.7055 -33.7020 -33.6979 -33.6874
   -33.6835 -33.6792 -33.6766 -33.6671 -33.6583 -33.6554 -33.6438 -33.6364
   -33.6337 -33.6010 -26.7500 -26.7445 -26.7413 -26.7399 -26.7362 -26.7301
    10.7671  11.3951  11.7018  11.7559  11.9090  12.0420  12.0703  12.3121
    12.4575  12.5501  12.6027  12.7076  12.8454  12.9262  12.9453  12.9807
    13.0842  13.0929  13.0971  13.1901  13.2897  13.3619  13.4227  13.5632
    13.6217  13.6844  13.8581  13.8774  13.9557  14.5041  15.8544  16.2898
    16.6919  16.7612  16.8575  17.0546  17.1348  17.1602  17.2295  17.2415
    17.3292  18.0981  19.7824  21.1224  23.1925  23.8989  24.0190  25.4955
    26.1553  26.9191  27.2689  27.7778  28.6189  28.6220  29.4119  31.1909
    31.9566  32.5577  32.5748  32.9327  33.1737  33.5393  33.6881  34.1175
    34.3760  35.2825  35.7025  35.7185  36.5288  37.0331  37.3379  38.0506

          k = 0.3366 0.0000 0.3607 (  4454 PWs)   bands (ev):

   -71.7464 -71.7403 -71.7377 -71.7296 -71.7245 -71.7192 -62.5348 -62.5343
   -34.0945 -33.9327 -33.9054 -33.8023 -33.7798 -33.6940 -33.6926 -33.6851
   -33.6848 -33.6767 -33.6729 -33.6676 -33.6661 -33.6633 -33.6468 -33.6339
   -33.6329 -33.5916 -26.7476 -26.7454 -26.7401 -26.7388 -26.7336 -26.7321
    10.7729  11.7244  11.7345  11.9215  12.0594  12.2257  12.2659  12.3065
    12.3885  12.5516  12.5852  12.6503  12.8827  12.8855  12.9108  12.9153
    12.9996  13.0255  13.0774  13.1511  13.2637  13.2915  13.3251  13.4104
    13.4188  13.4895  13.7503  13.8874  13.9278  14.5000  16.0819  16.1953
    16.7291  17.0038  17.1301  17.1525  17.1584  17.1853  17.2205  17.3793
    17.3998  18.1257  19.0934  19.8932  23.4321  23.7100  24.7349  25.4590
    25.9541  26.3154  26.8300  27.5899  29.3162  29.7913  30.5806  31.0018
    32.1110  32.5384  32.9308  32.9929  33.2268  33.3910  33.7039  34.1478
    34.7444  35.0225  35.5829  35.6840  36.7604  37.4859  37.8081  37.9158

          k = 0.3366 0.1403 0.0000 (  4456 PWs)   bands (ev):

   -71.7465 -71.7408 -71.7387 -71.7310 -71.7211 -71.7181 -62.5360 -62.5328
   -34.0939 -34.0585 -33.9222 -33.7781 -33.7108 -33.7094 -33.6851 -33.6797
   -33.6773 -33.6685 -33.6668 -33.6545 -33.6510 -33.6467 -33.6421 -33.6367
   -33.6305 -33.6119 -26.7462 -26.7433 -26.7430 -26.7421 -26.7335 -26.7294
    10.7610  10.9834  11.6500  11.7923  11.8352  11.9173  11.9742  12.4030
    12.4800  12.5731  12.6573  12.7551  12.7942  12.8883  12.8914  12.9339
    13.1139  13.1406  13.1480  13.2330  13.2824  13.3840  13.5047  13.6174
    13.7284  13.8248  13.8718  13.9588  14.2696  14.5039  15.6011  16.3333
    16.4851  16.7596  16.8051  16.9339  17.1017  17.1143  17.2209  17.2563
    17.2747  17.8057  21.0565  22.3455  23.0493  23.5763  23.9741  25.2819
    25.5444  26.7050  27.1908  28.1165  28.4848  28.7929  29.6285  30.8450
    31.7336  31.7997  31.9530  32.2654  32.6814  33.0779  33.4181  33.6204
    35.4289  35.9657  36.0087  36.1782  36.4640  37.0584  37.1040  37.9119

          k = 0.3366 0.1403 0.1202 (  4441 PWs)   bands (ev):

   -71.7430 -71.7356 -71.7327 -71.7297 -71.7144 -71.7021 -62.5307 -62.5290
   -34.0667 -34.0528 -33.9229 -33.7767 -33.7042 -33.7015 -33.6842 -33.6802
   -33.6725 -33.6688 -33.6558 -33.6542 -33.6487 -33.6467 -33.6348 -33.6321
   -33.6259 -33.6243 -26.7417 -26.7417 -26.7401 -26.7331 -26.7290 -26.7280
    10.9285  10.9868  11.7007  11.8448  11.8683  11.8983  11.9828  12.4235
    12.4465  12.5745  12.6188  12.7187  12.7814  12.8774  12.9277  12.9669
    13.0491  13.0777  13.1969  13.2351  13.3322  13.3736  13.5313  13.5608
    13.7266  13.7632  13.8289  13.8641  14.2739  14.3405  15.7447  16.4316
    16.4937  16.7400  16.8655  16.8972  17.1270  17.1328  17.2221  17.2606
    17.2895  17.9393  21.1620  21.5144  22.4210  22.7818  25.1708  25.3976
    25.8496  26.5905  27.3257  27.4809  28.9573  29.6133  30.0815  30.6482
    31.0929  31.9568  32.1221  32.3987  32.9679  33.3936  33.5258  33.9499
    35.5095  35.6427  35.8226  35.9918  36.3698  36.9829  37.0202  37.8724

          k = 0.3366 0.1403 0.2404 (  4451 PWs)   bands (ev):

   -71.7502 -71.7407 -71.7364 -71.7308 -71.7174 -71.7139 -62.5341 -62.5329
   -34.0579 -34.0052 -33.9286 -33.7801 -33.7021 -33.7000 -33.6957 -33.6870
   -33.6803 -33.6751 -33.6698 -33.6675 -33.6580 -33.6509 -33.6453 -33.6383
   -33.6343 -33.6317 -26.7462 -26.7455 -26.7418 -26.7380 -26.7301 -26.7300
    10.9944  11.4011  11.7898  11.8488  11.9190  12.0470  12.0582  12.3353
    12.4807  12.5093  12.5878  12.7033  12.7859  12.8571  12.9219  12.9793
    12.9923  13.0483  13.1813  13.2515  13.3168  13.3692  13.4561  13.5459
    13.5865  13.6396  13.7308  13.8222  13.8756  14.2865  16.0705  16.4417
    16.6795  16.8010  16.8365  16.9887  17.1610  17.1808  17.2353  17.2609
    17.3855  18.2911  19.9381  21.2762  21.5327  22.7503  24.2909  25.1081
    26.5122  27.4564  27.6251  28.6092  29.0897  29.5653  30.1327  31.0497
    31.6872  32.1042  32.4909  32.6387  33.5637  33.6442  33.9538  34.3199
    34.5600  35.2692  35.4287  35.6843  36.1263  36.6707  37.0668  37.6979

          k = 0.3366 0.1403 0.3607 (  4465 PWs)   bands (ev):

   -71.7515 -71.7420 -71.7401 -71.7361 -71.7329 -71.7260 -62.5384 -62.5380
   -34.0647 -33.9342 -33.9130 -33.8018 -33.7771 -33.7018 -33.6956 -33.6913
   -33.6861 -33.6791 -33.6750 -33.6703 -33.6649 -33.6616 -33.6476 -33.6436
   -33.6371 -33.6336 -26.7513 -26.7459 -26.7454 -26.7402 -26.7369 -26.7356
    11.0003  11.8228  11.8330  11.9310  12.0668  12.2351  12.2542  12.3242
    12.4461  12.5504  12.5867  12.5998  12.7653  12.8110  12.8408  12.8753
    12.9989  13.0358  13.1209  13.1436  13.2615  13.3049  13.3846  13.4122
    13.4735  13.4941  13.6420  13.7314  13.7873  14.2885  16.2854  16.3668
    16.7493  16.9884  17.0374  17.0770  17.1883  17.2075  17.2477  17.2692
    17.6475  18.3870  19.2124  20.0476  22.1062  22.8139  23.6726  24.2585
    27.0184  27.7512  28.0379  28.8454  29.5357  30.2050  30.7432  31.1565
    32.2263  32.4678  32.7867  32.9643  33.4020  33.4769  33.7973  33.8969
    34.4131  34.6019  35.3845  35.6528  36.6026  36.6831  36.9121  37.2456

          k = 0.3366 0.2805 0.0000 (  4458 PWs)   bands (ev):

   -71.7546 -71.7403 -71.7335 -71.7327 -71.7284 -71.7176 -62.5361 -62.5350
   -34.0958 -33.9813 -33.9298 -33.7794 -33.7297 -33.7008 -33.6985 -33.6892
   -33.6839 -33.6804 -33.6779 -33.6713 -33.6593 -33.6583 -33.6418 -33.6344
   -33.6317 -33.5970 -26.7499 -26.7454 -26.7414 -26.7367 -26.7350 -26.7343
    10.7694  11.5996  11.7200  11.7457  11.9221  12.1097  12.1416  12.2782
    12.4291  12.5766  12.5875  12.6710  12.8862  12.9282  12.9574  12.9836
    13.0388  13.0497  13.0927  13.1698  13.3015  13.3452  13.3925  13.5210
    13.5391  13.6635  13.7081  13.8801  13.9487  14.5029  15.9497  16.2592
    16.7473  16.8016  16.9402  17.0961  17.1451  17.1721  17.2237  17.2560
    17.3563  18.2190  19.3707  20.6791  23.2673  23.8486  24.2417  25.5637
    26.0365  26.7534  27.0047  28.2471  28.3421  28.9775  29.8570  30.9618
    32.1718  32.7039  32.8566  33.0775  33.2655  33.5728  33.8831  33.9584
    34.4647  34.8720  35.5891  35.6404  36.6655  37.1124  37.5062  37.9694

          k = 0.3366 0.2805 0.1202 (  4458 PWs)   bands (ev):

   -71.7462 -71.7427 -71.7376 -71.7331 -71.7270 -71.7219 -62.5372 -62.5342
   -34.0694 -33.9759 -33.9321 -33.7807 -33.7320 -33.7007 -33.6964 -33.6907
   -33.6820 -33.6752 -33.6711 -33.6679 -33.6629 -33.6603 -33.6473 -33.6401
   -33.6365 -33.6215 -26.7477 -26.7471 -26.7442 -26.7389 -26.7331 -26.7322
    10.9373  11.6075  11.7865  11.8153  11.9277  12.1174  12.1294  12.2933
    12.4691  12.5274  12.5809  12.6769  12.8306  12.8663  12.8970  12.9651
    13.0019  13.0429  13.1525  13.2090  13.3107  13.3449  13.4460  13.5042
    13.5600  13.6291  13.6704  13.7723  13.8465  14.3444  16.1127  16.3775
    16.7402  16.8398  16.8927  17.0416  17.1666  17.1843  17.2419  17.2566
    17.4164  18.3772  19.4780  20.7943  21.9640  23.0633  24.2080  24.9229
    26.4702  27.3780  27.8709  28.7288  28.8628  29.5880  30.0362  31.0534
    31.9438  32.3462  32.8555  32.9937  33.4942  33.5812  33.8929  33.9850
    34.5309  34.8579  35.4833  35.6527  36.4587  36.7324  37.1627  37.6901

          k = 0.3366 0.2805 0.2404 (  4460 PWs)   bands (ev):

   -71.7463 -71.7446 -71.7400 -71.7386 -71.7255 -71.7216 -62.5384 -62.5353
   -34.0003 -33.9731 -33.9301 -33.7803 -33.7319 -33.7060 -33.6958 -33.6954
   -33.6899 -33.6835 -33.6753 -33.6716 -33.6701 -33.6583 -33.6537 -33.6510
   -33.6492 -33.6422 -26.7472 -26.7442 -26.7419 -26.7388 -26.7377 -26.7369
    11.4117  11.6194  11.9318  11.9714  12.0179  12.1054  12.1600  12.3288
    12.3946  12.5433  12.5676  12.6936  12.7485  12.7770  12.8276  12.8454
    12.9957  13.0919  13.2008  13.2169  13.3088  13.3470  13.4179  13.4431
    13.4689  13.5715  13.5941  13.6447  13.6932  13.8911  16.5030  16.6544
    16.7450  16.7995  16.8872  16.9251  17.2069  17.2328  17.2443  17.2649
    17.6625  18.8012  19.7901  20.4867  21.1247  21.7659  22.7707  23.9182
    27.9959  28.5433  28.6275  29.7883  30.1298  30.4756  31.0177  31.1870
    31.7171  31.9156  32.3737  32.9236  33.3180  33.7311  34.1414  34.4125
    34.7015  34.8904  34.9693  35.2357  35.3308  35.8553  36.2420  36.4129

          k = 0.3366 0.2805 0.3607 (  4461 PWs)   bands (ev):

   -71.7508 -71.7459 -71.7388 -71.7356 -71.7298 -71.7196 -62.5399 -62.5349
   -33.9693 -33.9295 -33.9092 -33.8027 -33.7790 -33.7333 -33.6920 -33.6912
   -33.6904 -33.6835 -33.6780 -33.6709 -33.6699 -33.6627 -33.6591 -33.6514
   -33.6497 -33.6429 -26.7474 -26.7440 -26.7439 -26.7391 -26.7390 -26.7355
    11.6268  11.9418  12.0756  12.1016  12.1109  12.2381  12.2686  12.3530
    12.4248  12.5406  12.5557  12.6466  12.6765  12.6979  12.7312  12.7445
    12.9988  13.0347  13.1357  13.1593  13.2138  13.3046  13.3444  13.3753
    13.4063  13.4486  13.5233  13.5334  13.5697  13.7026  16.7092  16.7266
    16.8024  16.8923  16.9415  16.9489  17.2278  17.2411  17.2525  17.2605
    18.1755  19.0332  19.6003  20.4963  20.5261  21.3654  21.9754  22.7859
    28.9600  29.3324  29.5313  30.5112  30.7615  31.0789  31.4952  31.6538
    32.0856  32.2567  32.7164  32.9025  33.1480  33.3048  33.6709  34.1172
    34.2386  34.4450  34.6527  34.9107  34.9790  35.1267  35.5474  35.7486

          k = 0.3366-0.4208 0.0000 (  4466 PWs)   bands (ev):

   -71.7471 -71.7413 -71.7393 -71.7389 -71.7348 -71.7298 -62.5386 -62.5384
   -34.0971 -33.9313 -33.8592 -33.8581 -33.7814 -33.6946 -33.6937 -33.6909
   -33.6867 -33.6799 -33.6791 -33.6698 -33.6687 -33.6645 -33.6493 -33.6405
   -33.6394 -33.5983 -26.7477 -26.7475 -26.7441 -26.7437 -26.7374 -26.7372
    10.7737  11.7212  11.7399  11.9246  12.1682  12.3027  12.3447  12.3781
    12.4179  12.4486  12.5552  12.6942  12.7755  12.8314  12.8579  12.9064
    13.0032  13.0463  13.0695  13.1622  13.2264  13.2777  13.2826  13.3915
    13.4003  13.4866  13.7625  13.8920  13.9174  14.4990  16.1327  16.1561
    16.7249  17.0638  17.1387  17.1614  17.1686  17.1880  17.2314  17.4111
    17.6691  17.7724  19.3900  19.4336  23.5272  23.6188  25.0462  25.2098
    26.0370  26.1005  26.9340  27.3195  29.6321  29.9028  31.0285  31.3037
    31.7124  32.1052  32.9594  33.0167  33.2932  33.4353  33.4432  34.2749
    34.7373  35.1555  35.6047  35.8690  36.7571  37.6753  37.7668  37.7958

          k = 0.3366-0.4208 0.1202 (  4458 PWs)   bands (ev):

   -71.7491 -71.7402 -71.7362 -71.7338 -71.7281 -71.7219 -62.5360 -62.5360
   -34.0731 -33.9334 -33.8556 -33.8546 -33.7708 -33.7019 -33.6940 -33.6867
   -33.6830 -33.6828 -33.6732 -33.6664 -33.6660 -33.6567 -33.6421 -33.6410
   -33.6362 -33.6267 -26.7444 -26.7444 -26.7408 -26.7406 -26.7368 -26.7368
    10.9418  11.7945  11.8137  11.9306  12.1817  12.2915  12.3569  12.4162
    12.4415  12.4525  12.5456  12.6613  12.7359  12.7611  12.7695  12.9002
    12.9904  13.0337  13.0929  13.1341  13.2393  13.2656  13.3381  13.4073
    13.4716  13.4733  13.6860  13.7653  13.8107  14.3444  16.2743  16.2955
    16.7401  17.0450  17.0765  17.1307  17.1843  17.2029  17.2425  17.2981
    17.8314  18.0096  19.4802  19.5524  22.6305  22.7689  24.0724  24.1791
    27.0960  27.1108  28.0831  28.2579  29.7602  30.1795  31.1781  31.4106
    31.8033  32.2220  32.7419  33.0610  33.4042  33.4392  33.6219  34.1841
    34.2747  35.0164  35.2033  35.6999  36.7445  36.9764  37.1352  37.4909

          k = 0.3366-0.4208 0.2404 (  4470 PWs)   bands (ev):

   -71.7530 -71.7514 -71.7404 -71.7389 -71.7326 -71.7289 -62.5403 -62.5400
   -34.0010 -33.9305 -33.8599 -33.8595 -33.7789 -33.7079 -33.6961 -33.6956
   -33.6895 -33.6851 -33.6826 -33.6757 -33.6697 -33.6660 -33.6604 -33.6553
   -33.6482 -33.6470 -26.7494 -26.7494 -26.7432 -26.7432 -26.7391 -26.7391
    11.4164  11.9385  12.0092  12.0234  12.2157  12.2712  12.3851  12.4243
    12.4954  12.5119  12.5449  12.5833  12.5901  12.6674  12.7100  12.7753
    13.0244  13.0290  13.1180  13.1258  13.2084  13.2821  13.3434  13.3893
    13.4231  13.5044  13.5173  13.5498  13.6106  13.8958  16.5974  16.6157
    16.7818  16.9413  17.0041  17.0163  17.2192  17.2255  17.2584  17.2611
    18.3099  18.4401  19.7865  19.9108  21.2396  21.4439  22.7357  22.7451
    28.5907  28.8686  29.4999  29.8518  30.4092  31.0183  31.5318  31.7282
    31.9345  32.4903  32.6193  32.9638  33.1406  33.4945  33.6343  33.7678
    34.2761  34.4548  34.6780  35.2114  35.3288  35.4738  35.9726  36.1857

          k = 0.3366-0.4208 0.3607 (  4470 PWs)   bands (ev):

   -71.7486 -71.7457 -71.7410 -71.7370 -71.7349 -71.7334 -62.5393 -62.5393
   -33.9264 -33.9113 -33.8589 -33.8589 -33.7996 -33.7822 -33.6907 -33.6903
   -33.6828 -33.6818 -33.6761 -33.6726 -33.6698 -33.6681 -33.6658 -33.6590
   -33.6579 -33.6553 -26.7470 -26.7469 -26.7421 -26.7420 -26.7415 -26.7413
    11.9503  12.0882  12.2496  12.2567  12.3051  12.3175  12.4071  12.4140
    12.4704  12.4802  12.5269  12.5409  12.5966  12.6019  12.6414  12.6512
    12.9335  12.9337  13.1141  13.1289  13.1344  13.1617  13.2654  13.3215
    13.3746  13.4133  13.4504  13.4730  13.5050  13.5083  16.8281  16.8429
    16.8532  16.9043  16.9604  16.9737  17.2355  17.2361  17.2500  17.2504
    19.0311  19.0707  20.0092  20.0879  20.4852  20.5927  21.5515  21.5586
    29.9042  30.0990  30.6606  30.7193  31.4556  31.7870  32.1187  32.1836
    32.3190  32.3478  32.8277  32.8479  33.1720  33.2673  33.4477  33.5099
    33.8551  33.9707  34.2216  34.2277  34.3970  34.5415  34.8128  34.8758

     the Fermi energy is    30.5369 ev

!    total energy              =   -2561.18056760 Ry
     Harris-Foulkes estimate   =   -2561.18056773 Ry
     estimated scf accuracy    <       0.00000015 Ry

     The total energy is the sum of the following terms:

     one-electron contribution =    -609.34270595 Ry
     hartree contribution      =     420.08356032 Ry
     xc contribution           =    -220.52510665 Ry
     ewald contribution        =   -2151.15126691 Ry
     smearing contrib. (-TS)   =      -0.24504841 Ry

     convergence has been achieved in  11 iterations

     Forces acting on atoms (Ry/au):

     atom    1 type  1   force =     0.00000000    0.00000000    0.00000000
     atom    2 type  1   force =     0.00000000    0.00000000    0.00000000
     atom    3 type  1   force =     0.00000000    0.00000000    0.00000000
     atom    4 type  1   force =     0.00000000    0.00000000    0.00000000
     atom    5 type  1   force =     0.00000000    0.00000000    0.00000000
     atom    6 type  1   force =     0.00000000    0.00000000    0.00000000
     atom    7 type  2   force =     0.00000000    0.00000000    0.00000000
     atom    8 type  2   force =     0.00000000    0.00000000    0.00000000

     Total force =     0.000000     Total SCF correction =     0.000000


     entering subroutine stress ...

          total   stress  (Ry/bohr**3)                   (kbar)     P=  348.89
   0.00237168   0.00000000   0.00000000        348.89      0.00      0.00
   0.00000000   0.00237168   0.00000000          0.00    348.89      0.00
   0.00000000   0.00000000   0.00237168          0.00      0.00    348.89


     Writing output data file Prototype-La-cP8-Cr3Si.save
 
     init_run     :      9.21s CPU     11.81s WALL (       2 calls)
     electrons    :   1979.24s CPU   2290.23s WALL (       5 calls)
     update_pot   :      1.38s CPU      1.48s WALL (       3 calls)
     forces       :      6.70s CPU      7.29s WALL (       5 calls)
     stress       :     18.71s CPU     19.44s WALL (       5 calls)

     Called by init_run:
     wfcinit      :      8.66s CPU     11.16s WALL (       2 calls)
     potinit      :      0.24s CPU      0.32s WALL (       2 calls)

     Called by electrons:
     c_bands      :   1927.21s CPU   2224.93s WALL (      40 calls)
     sum_band     :     51.71s CPU     63.50s WALL (      40 calls)
     v_of_rho     :      0.06s CPU      0.07s WALL (      45 calls)
     mix_rho      :      0.06s CPU      0.07s WALL (      40 calls)

     Called by c_bands:
     init_us_2    :      2.89s CPU      3.67s WALL (    4416 calls)
     ccgdiagg     :   1753.32s CPU   2000.30s WALL (    2314 calls)
     wfcrot       :    179.04s CPU    229.70s WALL (    2362 calls)

     Called by *cgdiagg:
     h_psi        :   1290.39s CPU   1542.34s WALL ( 1243678 calls)
     cdiaghg      :     11.47s CPU     12.54s WALL (    2362 calls)

     Called by h_psi:
     add_vuspsi   :    155.62s CPU    183.75s WALL ( 1243678 calls)

     General routines
     calbec       :    464.28s CPU    488.38s WALL ( 2485474 calls)
     fft          :      0.14s CPU      0.19s WALL (     203 calls)
     fftw         :    803.08s CPU    972.40s WALL ( 3173608 calls)
     davcio       :      2.34s CPU      5.05s WALL (    6336 calls)
 
     Parallel routines
     fft_scatter  :    367.37s CPU    436.57s WALL ( 3173811 calls)
 
     PWSCF        : 33m35.95s CPU    38m51.55s WALL

 
   This run was terminated on:  23:23: 3  22Mar2018            

=------------------------------------------------------------------------------=
   JOB DONE.
=------------------------------------------------------------------------------=
