
     Program PWSCF v.5.0.2 starts on 22Mar2018 at 22:44:14 

     This program is part of the open-source Quantum ESPRESSO suite
     for quantum simulation of materials; please cite
         "P. Giannozzi et al., J. Phys.:Condens. Matter 21 395502 (2009);
          URL http://www.quantum-espresso.org", 
     in publications or presentations arising from this work. More details at
     http://www.quantum-espresso.org/quote.php

     Parallel version (MPI), running on     4 processors
     R & G space division:  proc/nbgrp/npool/nimage =       4

     Current dimensions of program PWSCF are:
     Max number of different atomic species (ntypx) = 10
     Max number of k-points (npk) =  40000
     Max angular momentum in pseudopotentials (lmaxx) =  3
     Waiting for input...
     Reading input from standard input

     Subspace diagonalization in iterative solution of the eigenvalue problem:
     a serial algorithm will be used

 
     Parallelization info
     --------------------
     sticks:   dense  smooth     PW     G-vecs:    dense   smooth      PW
     Min         396     396    112                10116    10116    1566
     Max         397     397    113                10119    10119    1567
     Sum        1585    1585    451                40467    40467    6267
 


     bravais-lattice index     =            0
     lattice parameter (alat)  =      12.0168  a.u.
     unit-cell volume          =    1187.3413 (a.u.)^3
     number of atoms/cell      =            8
     number of atomic types    =            2
     number of electrons       =       174.00
     number of Kohn-Sham states=          104
     kinetic-energy cutoff     =      40.0000  Ry
     charge density cutoff     =     160.0000  Ry
     convergence threshold     =      1.0E-04
     mixing beta               =       0.7000
     number of iterations used =            8  plain     mixing
     Exchange-correlation      = SLA-PZ-NOGX-NOGC ( 1 1 0 0 0)
     EXX-fraction              =        0.00
     nstep                     =           50


     celldm(1)=  12.016801  celldm(2)=   0.000000  celldm(3)=   0.000000
     celldm(4)=   0.000000  celldm(5)=   0.000000  celldm(6)=   0.000000

     crystal axes: (cart. coord. in units of alat)
               a(1) = (   1.000000   0.000000   0.000000 )  
               a(2) = (  -0.500000   0.866025   0.000000 )  
               a(3) = (   0.000000   0.000000   0.790093 )  

     reciprocal axes: (cart. coord. in units 2 pi/alat)
               b(1) = (  1.000000  0.577350  0.000000 )  
               b(2) = (  0.000000  1.154701  0.000000 )  
               b(3) = (  0.000000  0.000000  1.265674 )  


     PseudoPot. # 1 for Er read from file:
     /home/cwx6513/pp.La/Er.UPF
     MD5 check sum: e152ae21b84514339d8526f066caf99b
     Pseudo is Norm-conserving, Zval = 22.0
     Generated in analytical, separable form
     Using radial grid of 1267 points,  6 beta functions with: 
                l(1) =   0
                l(2) =   0
                l(3) =   1
                l(4) =   1
                l(5) =   2
                l(6) =   3

     PseudoPot. # 2 for Ho read from file:
     /home/cwx6513/pp.La/Ho.UPF
     MD5 check sum: f307ee11bce99f5b724fa279e3790763
     Pseudo is Norm-conserving, Zval = 21.0
     Generated in analytical, separable form
     Using radial grid of 1265 points,  6 beta functions with: 
                l(1) =   0
                l(2) =   0
                l(3) =   1
                l(4) =   1
                l(5) =   2
                l(6) =   3

     atomic species   valence    mass     pseudopotential
        Mg            22.00    24.30500     Er( 1.00)
        Cd            21.00   112.41100     Ho( 1.00)

     24 Sym. Ops., with inversion, found (12 have fractional translation)



   Cartesian axes

     site n.     atom                  positions (alat units)
         1           Mg  tau(   1) = (   0.2478935   0.7204716   0.1975233  )
         2           Mg  tau(   2) = (   0.7478935   0.1455538   0.5925699  )
         3           Mg  tau(   3) = (   0.2521065   0.1455538   0.5925699  )
         4           Mg  tau(   4) = (  -0.2478935   0.7204716   0.1975233  )
         5           Mg  tau(   5) = (   0.0000000   0.2911075   0.1975233  )
         6           Mg  tau(   6) = (   0.5000000   0.5749179   0.5925699  )
         7           Cd  tau(   7) = (   0.5000005   0.2886748   0.1975233  )
         8           Cd  tau(   8) = (  -0.0000005   0.5773506   0.5925699  )

     number of k points=    64  gaussian smearing, width (Ry)=  0.1000
                       cart. coord. in units 2pi/alat
        k(    1) = (   0.0000000   0.0000000   0.0000000), wk =   0.0095238
        k(    2) = (   0.0000000   0.0000000   0.1808105), wk =   0.0190476
        k(    3) = (   0.0000000   0.0000000   0.3616210), wk =   0.0190476
        k(    4) = (   0.0000000   0.0000000   0.5424315), wk =   0.0190476
        k(    5) = (   0.0000000   0.1924501   0.0000000), wk =   0.0190476
        k(    6) = (   0.0000000   0.1924501   0.1808105), wk =   0.0380952
        k(    7) = (   0.0000000   0.1924501   0.3616210), wk =   0.0380952
        k(    8) = (   0.0000000   0.1924501   0.5424315), wk =   0.0380952
        k(    9) = (   0.0000000   0.3849002   0.0000000), wk =   0.0190476
        k(   10) = (   0.0000000   0.3849002   0.1808105), wk =   0.0380952
        k(   11) = (   0.0000000   0.3849002   0.3616210), wk =   0.0380952
        k(   12) = (   0.0000000   0.3849002   0.5424315), wk =   0.0380952
        k(   13) = (   0.0000000  -0.5773503   0.0000000), wk =   0.0095238
        k(   14) = (   0.0000000  -0.5773503   0.1808105), wk =   0.0190476
        k(   15) = (   0.0000000  -0.5773503   0.3616210), wk =   0.0190476
        k(   16) = (   0.0000000  -0.5773503   0.5424315), wk =   0.0190476
        k(   17) = (   0.2000000   0.1154701   0.0000000), wk =   0.0190476
        k(   18) = (   0.2000000   0.1154701   0.1808105), wk =   0.0380952
        k(   19) = (   0.2000000   0.1154701   0.3616210), wk =   0.0380952
        k(   20) = (   0.2000000   0.1154701   0.5424315), wk =   0.0380952
        k(   21) = (   0.2000000   0.3079201   0.0000000), wk =   0.0190476
        k(   22) = (   0.2000000   0.3079201   0.1808105), wk =   0.0380952
        k(   23) = (   0.2000000   0.3079201   0.3616210), wk =   0.0380952
        k(   24) = (   0.2000000   0.3079201   0.5424315), wk =   0.0380952
        k(   25) = (   0.2000000   0.5003702   0.0000000), wk =   0.0190476
        k(   26) = (   0.2000000   0.5003702   0.1808105), wk =   0.0380952
        k(   27) = (   0.2000000   0.5003702   0.3616210), wk =   0.0380952
        k(   28) = (   0.2000000   0.5003702   0.5424315), wk =   0.0380952
        k(   29) = (   0.2000000  -0.4618802   0.0000000), wk =   0.0190476
        k(   30) = (   0.2000000  -0.4618802   0.1808105), wk =   0.0380952
        k(   31) = (   0.2000000  -0.4618802   0.3616210), wk =   0.0380952
        k(   32) = (   0.2000000  -0.4618802   0.5424315), wk =   0.0380952
        k(   33) = (   0.2000000  -0.2694301   0.0000000), wk =   0.0190476
        k(   34) = (   0.2000000  -0.2694301   0.1808105), wk =   0.0380952
        k(   35) = (   0.2000000  -0.2694301   0.3616210), wk =   0.0380952
        k(   36) = (   0.2000000  -0.2694301   0.5424315), wk =   0.0380952
        k(   37) = (   0.2000000  -0.0769800   0.0000000), wk =   0.0190476
        k(   38) = (   0.2000000  -0.0769800   0.1808105), wk =   0.0380952
        k(   39) = (   0.2000000  -0.0769800   0.3616210), wk =   0.0380952
        k(   40) = (   0.2000000  -0.0769800   0.5424315), wk =   0.0380952
        k(   41) = (   0.4000000   0.2309401   0.0000000), wk =   0.0190476
        k(   42) = (   0.4000000   0.2309401   0.1808105), wk =   0.0380952
        k(   43) = (   0.4000000   0.2309401   0.3616210), wk =   0.0380952
        k(   44) = (   0.4000000   0.2309401   0.5424315), wk =   0.0380952
        k(   45) = (   0.4000000   0.4233902   0.0000000), wk =   0.0190476
        k(   46) = (   0.4000000   0.4233902   0.1808105), wk =   0.0380952
        k(   47) = (   0.4000000   0.4233902   0.3616210), wk =   0.0380952
        k(   48) = (   0.4000000   0.4233902   0.5424315), wk =   0.0380952
        k(   49) = (   0.4000000   0.6158403   0.0000000), wk =   0.0190476
        k(   50) = (   0.4000000   0.6158403   0.1808105), wk =   0.0380952
        k(   51) = (   0.4000000   0.6158403   0.3616210), wk =   0.0380952
        k(   52) = (   0.4000000   0.6158403   0.5424315), wk =   0.0380952
        k(   53) = (   0.4000000  -0.3464102   0.0000000), wk =   0.0190476
        k(   54) = (   0.4000000  -0.3464102   0.1808105), wk =   0.0380952
        k(   55) = (   0.4000000  -0.3464102   0.3616210), wk =   0.0380952
        k(   56) = (   0.4000000  -0.3464102   0.5424315), wk =   0.0380952
        k(   57) = (   0.4000000  -0.1539601   0.0000000), wk =   0.0190476
        k(   58) = (   0.4000000  -0.1539601   0.1808105), wk =   0.0380952
        k(   59) = (   0.4000000  -0.1539601   0.3616210), wk =   0.0380952
        k(   60) = (   0.4000000  -0.1539601   0.5424315), wk =   0.0380952
        k(   61) = (   0.4000000   0.0384900   0.0000000), wk =   0.0190476
        k(   62) = (   0.4000000   0.0384900   0.1808105), wk =   0.0380952
        k(   63) = (   0.4000000   0.0384900   0.3616210), wk =   0.0380952
        k(   64) = (   0.4000000   0.0384900   0.5424315), wk =   0.0380952

     Dense  grid:    40467 G-vectors     FFT dimensions: (  50,  50,  40)

     Largest allocated arrays     est. size (Mb)     dimensions
        Kohn-Sham Wavefunctions         2.06 Mb     (   1298,  104)
        NL pseudopotentials             3.17 Mb     (   1298,  160)
        Each V/rho on FFT grid          0.38 Mb     (  25000)
        Each G-vector array             0.08 Mb     (  10119)
        G-vector shells                 0.08 Mb     (  10119)
     Largest temporary arrays     est. size (Mb)     dimensions
        Each subspace H/S matrix        0.17 Mb     ( 104, 104)
        Each <psi_i|beta_j> matrix      0.25 Mb     (    160,  104)
        Arrays for rho mixing           3.05 Mb     (  25000,   8)

     Initial potential from superposition of free atoms

     Starting from uniform charge
     Starting wfc are    0 randomized atomic wfcs

     total cpu time spent up to now is       10.6 secs

     Self-consistent Calculation

     iteration #  1     ecut=    40.00 Ry     beta=0.70
     CG style diagonalization
     c_bands:  1 eigenvalues not converged
     c_bands:  4 eigenvalues not converged
     c_bands:  1 eigenvalues not converged
     c_bands:  2 eigenvalues not converged
     c_bands:  2 eigenvalues not converged
     c_bands:  1 eigenvalues not converged
     c_bands:  1 eigenvalues not converged
     c_bands:  3 eigenvalues not converged
     c_bands:  3 eigenvalues not converged
     c_bands:  1 eigenvalues not converged
     c_bands:  1 eigenvalues not converged
     c_bands:  4 eigenvalues not converged
     c_bands:  3 eigenvalues not converged
     c_bands:  3 eigenvalues not converged
     c_bands:  1 eigenvalues not converged
     c_bands:  1 eigenvalues not converged
     c_bands:  1 eigenvalues not converged
     c_bands:  1 eigenvalues not converged
     c_bands:  1 eigenvalues not converged
     c_bands:  1 eigenvalues not converged
     c_bands:  1 eigenvalues not converged
     c_bands:  1 eigenvalues not converged
     c_bands:  2 eigenvalues not converged
     c_bands:  4 eigenvalues not converged
     c_bands:  2 eigenvalues not converged
     c_bands:  1 eigenvalues not converged
     c_bands:  2 eigenvalues not converged
     c_bands:  1 eigenvalues not converged
     c_bands:  2 eigenvalues not converged
     c_bands:  1 eigenvalues not converged
     c_bands:  3 eigenvalues not converged
     c_bands:  2 eigenvalues not converged
     c_bands:  1 eigenvalues not converged
     c_bands:  2 eigenvalues not converged
     c_bands:  1 eigenvalues not converged
     c_bands:  2 eigenvalues not converged
     c_bands:  2 eigenvalues not converged
     c_bands:  3 eigenvalues not converged
     c_bands:  1 eigenvalues not converged
     c_bands:  3 eigenvalues not converged
     c_bands:  1 eigenvalues not converged
     c_bands:  1 eigenvalues not converged
     c_bands:  1 eigenvalues not converged
     c_bands:  2 eigenvalues not converged
     c_bands:  1 eigenvalues not converged
     ethr =  1.00E-02,  avg # of iterations = 14.6

     total cpu time spent up to now is      217.5 secs

     total energy              =   -2261.92564515 Ry
     Harris-Foulkes estimate   =   -3252.44004995 Ry
     estimated scf accuracy    <    1248.76540375 Ry

     iteration #  2     ecut=    40.00 Ry     beta=0.70
     CG style diagonalization
     c_bands:  1 eigenvalues not converged
     c_bands:  1 eigenvalues not converged
     c_bands:  1 eigenvalues not converged
     c_bands:  1 eigenvalues not converged
     c_bands:  1 eigenvalues not converged
     c_bands:  1 eigenvalues not converged
     c_bands:  1 eigenvalues not converged
     ethr =  1.00E-02,  avg # of iterations =  9.1

     total cpu time spent up to now is      344.6 secs

     total energy              =   -2506.86840593 Ry
     Harris-Foulkes estimate   =   -2610.32981617 Ry
     estimated scf accuracy    <     144.47451238 Ry

     iteration #  3     ecut=    40.00 Ry     beta=0.70
     CG style diagonalization
     ethr =  1.00E-02,  avg # of iterations =  7.3

     total cpu time spent up to now is      448.0 secs

     total energy              =   -2526.91093199 Ry
     Harris-Foulkes estimate   =   -2583.51077364 Ry
     estimated scf accuracy    <     145.98359225 Ry

     iteration #  4     ecut=    40.00 Ry     beta=0.70
     CG style diagonalization
     ethr =  1.00E-02,  avg # of iterations =  4.9

     total cpu time spent up to now is      513.5 secs

     total energy              =   -2560.84174226 Ry
     Harris-Foulkes estimate   =   -2565.83224346 Ry
     estimated scf accuracy    <       9.81707928 Ry

     iteration #  5     ecut=    40.00 Ry     beta=0.70
     CG style diagonalization
     ethr =  5.64E-03,  avg # of iterations =  3.6

     total cpu time spent up to now is      561.5 secs

     total energy              =   -2562.21205964 Ry
     Harris-Foulkes estimate   =   -2562.83432720 Ry
     estimated scf accuracy    <       1.23907477 Ry

     iteration #  6     ecut=    40.00 Ry     beta=0.70
     CG style diagonalization
     ethr =  7.12E-04,  avg # of iterations =  3.9

     total cpu time spent up to now is      613.5 secs

     total energy              =   -2562.30793721 Ry
     Harris-Foulkes estimate   =   -2562.56618593 Ry
     estimated scf accuracy    <       0.37521749 Ry

     iteration #  7     ecut=    40.00 Ry     beta=0.70
     CG style diagonalization
     ethr =  2.16E-04,  avg # of iterations =  3.7

     total cpu time spent up to now is      664.6 secs

     total energy              =   -2562.39211617 Ry
     Harris-Foulkes estimate   =   -2562.42030504 Ry
     estimated scf accuracy    <       0.04983571 Ry

     iteration #  8     ecut=    40.00 Ry     beta=0.70
     CG style diagonalization
     c_bands:  1 eigenvalues not converged
     c_bands:  1 eigenvalues not converged
     c_bands:  1 eigenvalues not converged
     c_bands:  1 eigenvalues not converged
     c_bands:  1 eigenvalues not converged
     c_bands:  1 eigenvalues not converged
     c_bands:  1 eigenvalues not converged
     c_bands:  1 eigenvalues not converged
     c_bands:  1 eigenvalues not converged
     c_bands:  1 eigenvalues not converged
     c_bands:  1 eigenvalues not converged
     ethr =  2.86E-05,  avg # of iterations =  3.6

     total cpu time spent up to now is      712.6 secs

     total energy              =   -2562.40136529 Ry
     Harris-Foulkes estimate   =   -2562.40178809 Ry
     estimated scf accuracy    <       0.00108045 Ry

     iteration #  9     ecut=    40.00 Ry     beta=0.70
     CG style diagonalization
     c_bands:  1 eigenvalues not converged
     c_bands:  1 eigenvalues not converged
     c_bands:  1 eigenvalues not converged
     c_bands:  1 eigenvalues not converged
     c_bands:  2 eigenvalues not converged
     c_bands:  1 eigenvalues not converged
     c_bands:  1 eigenvalues not converged
     c_bands:  1 eigenvalues not converged
     c_bands:  1 eigenvalues not converged
     c_bands:  1 eigenvalues not converged
     c_bands:  1 eigenvalues not converged
     c_bands:  1 eigenvalues not converged
     c_bands:  1 eigenvalues not converged
     c_bands:  1 eigenvalues not converged
     c_bands:  1 eigenvalues not converged
     c_bands:  2 eigenvalues not converged
     ethr =  6.21E-07,  avg # of iterations =  4.8

     total cpu time spent up to now is      777.4 secs

     total energy              =   -2562.40188769 Ry
     Harris-Foulkes estimate   =   -2562.40206666 Ry
     estimated scf accuracy    <       0.00026237 Ry

     iteration # 10     ecut=    40.00 Ry     beta=0.70
     CG style diagonalization
     c_bands:  1 eigenvalues not converged
     ethr =  1.51E-07,  avg # of iterations =  3.7

     total cpu time spent up to now is      827.4 secs

     End of self-consistent calculation

          k = 0.0000 0.0000 0.0000 (  5047 PWs)   bands (ev):

   -75.4955 -75.4954 -75.4942 -75.4651 -75.4650 -75.4495 -66.2292 -66.2254
   -37.5395 -37.4957 -37.4859 -37.4830 -37.4830 -37.4610 -37.4610 -37.4547
   -37.4547 -37.4345 -37.4125 -37.4125 -37.3860 -37.3859 -37.3791 -37.3780
   -37.3780 -37.3674 -30.4162 -30.4100 -30.3833 -30.3833 -30.3743 -30.3743
     8.3708   8.4436   8.4436   8.5243   8.6685   8.7912   8.8361   8.8362
     8.9059   8.9064   8.9065   9.1321   9.1321   9.3514   9.4838   9.4839
     9.4895   9.5446   9.5446   9.6235   9.6236   9.7339   9.7340   9.9352
     9.9352  10.1433  10.1433  10.2070  10.3384  10.3591  11.6123  13.0051
    13.4278  13.4278  13.5461  13.5619  13.5619  13.6382  13.6382  13.7209
    13.7209  18.4187  18.4188  18.5849  18.5850  18.7994  19.0503  19.3901
    20.5843  24.4932  24.4933  24.5904  24.9583  24.9584  25.0322  25.0324
    25.6144  26.0845  27.2702  27.7181  27.7181  28.5820  28.6827  28.6828
    31.3986  31.3986  31.4868  31.5962  32.8473  32.8528  32.8535  32.9450

          k = 0.0000 0.0000 0.1808 (  5065 PWs)   bands (ev):

   -75.4930 -75.4885 -75.4884 -75.4871 -75.4870 -75.4696 -66.2354 -66.2304
   -37.5263 -37.5237 -37.4957 -37.4957 -37.4843 -37.4657 -37.4657 -37.4546
   -37.4546 -37.4199 -37.4099 -37.4099 -37.4010 -37.3912 -37.3911 -37.3846
   -37.3845 -37.3763 -30.4140 -30.4126 -30.3883 -30.3883 -30.3826 -30.3826
     8.3980   8.4639   8.4749   8.4749   8.7003   8.7550   8.7550   8.8716
     8.9174   8.9175   8.9670   9.1095   9.1095   9.2138   9.5224   9.5381
     9.5382   9.5625   9.5625   9.6159   9.6159   9.7809   9.7809   9.8095
     9.8095  10.1754  10.2371  10.2371  10.3146  10.3344  11.7603  13.0627
    13.4249  13.4249  13.5051  13.5051  13.5988  13.6239  13.6239  13.7640
    13.7640  17.7237  18.5146  18.5147  18.7767  18.7768  18.9180  19.2139
    22.3768  23.1918  23.1919  23.9398  23.9399  24.0417  24.0577  26.9769
    26.9770  27.5154  27.8491  27.9194  27.9194  29.1248  29.2552  29.2554
    31.2666  31.5542  31.5543  31.7781  32.6390  32.6396  32.6682  32.6349

          k = 0.0000 0.0000 0.3616 (  5047 PWs)   bands (ev):

   -75.4936 -75.4855 -75.4854 -75.4806 -75.4805 -75.4432 -66.2324 -66.2232
   -37.5281 -37.5041 -37.4945 -37.4945 -37.4795 -37.4795 -37.4500 -37.4297
   -37.4227 -37.4227 -37.4198 -37.4043 -37.4042 -37.3933 -37.3933 -37.3849
   -37.3734 -37.3734 -30.4061 -30.3938 -30.3891 -30.3891 -30.3816 -30.3816
     8.4334   8.4691   8.5594   8.5594   8.6835   8.6835   8.7030   8.8825
     8.8826   8.9616   9.0144   9.0144   9.0457   9.1416   9.4968   9.4969
     9.4990   9.5012   9.5013   9.7236   9.7237   9.7767   9.7768   9.9068
     9.9069  10.0001  10.2843  10.3019  10.3019  10.3234  12.2262  13.2116
    13.3971  13.3971  13.4224  13.4224  13.6309  13.6309  13.6968  13.7968
    13.7968  15.9436  18.8211  18.8212  19.2608  19.3209  19.3210  19.3973
    21.6835  21.6836  22.6114  22.7880  22.7881  22.9055  24.9788  28.2000
    28.5840  28.5840  28.9532  28.9533  29.7632  30.1372  30.2598  30.2599
    30.9434  31.7278  31.9611  31.9612  32.0150  32.0151  32.1030  32.3112

          k = 0.0000 0.0000 0.5424 (  5041 PWs)   bands (ev):

   -75.4901 -75.4900 -75.4746 -75.4745 -75.4649 -75.4609 -66.2303 -66.2222
   -37.5082 -37.5065 -37.4939 -37.4938 -37.4857 -37.4857 -37.4355 -37.4188
   -37.4173 -37.4173 -37.4103 -37.4054 -37.4053 -37.3936 -37.3859 -37.3859
   -37.3855 -37.3855 -30.4079 -30.3966 -30.3841 -30.3841 -30.3794 -30.3794
     8.5001   8.5501   8.6658   8.6658   8.6696   8.6967   8.6967   8.7208
     8.8205   8.8206   8.8661   8.8662   9.2301   9.3924   9.4044   9.4457
     9.4457   9.4479   9.4480   9.7117   9.7619   9.7620   9.8042   9.8043
    10.1161  10.1161  10.2609  10.2609  10.2919  10.3077  12.9760  13.3428
    13.3611  13.3611  13.3676  13.3676  13.6942  13.6942  13.7671  13.7671
    13.7908  14.4830  19.3655  19.3656  19.6657  19.6670  19.8867  19.8868
    20.7961  20.7961  21.5696  21.5697  21.7724  21.9704  27.5981  29.2535
    29.6210  29.6210  30.0218  30.4128  30.4128  30.5073  30.9183  30.9184
    30.9352  30.9664  30.9664  30.9881  31.5834  31.6315  32.5724  32.5725

          k = 0.0000 0.1925 0.0000 (  5083 PWs)   bands (ev):

   -75.5119 -75.5061 -75.4919 -75.4902 -75.4835 -75.4723 -66.2413 -66.2340
   -37.5284 -37.5105 -37.4934 -37.4870 -37.4851 -37.4733 -37.4712 -37.4584
   -37.4579 -37.4419 -37.4279 -37.4191 -37.4017 -37.3982 -37.3939 -37.3925
   -37.3870 -37.3810 -30.4231 -30.4162 -30.3947 -30.3912 -30.3849 -30.3834
     8.4311   8.4802   8.5219   8.5618   8.7186   8.7692   8.8451   8.8465
     8.9108   8.9729   8.9766   9.1270   9.1634   9.3766   9.4277   9.4642
     9.4882   9.5228   9.5756   9.6024   9.6391   9.7192   9.7240   9.9007
     9.9308  10.0299  10.0612  10.2072  10.2805  10.3402  11.7839  13.0023
    13.2747  13.4149  13.5056  13.5483  13.5788  13.6395  13.6435  13.6749
    13.7117  16.5911  17.4909  17.9522  19.6921  19.7630  19.9293  20.5344
    21.0996  23.2293  23.8929  24.2885  24.3770  24.9403  25.3827  25.7338
    25.9884  26.9704  27.0349  27.5738  27.8743  28.8838  28.8858  29.4075
    31.2136  31.2987  31.3990  31.6577  31.9836  32.2772  32.6496  32.6930

          k = 0.0000 0.1925 0.1808 (  5077 PWs)   bands (ev):

   -75.5087 -75.5028 -75.4873 -75.4864 -75.4838 -75.4738 -66.2411 -66.2313
   -37.5173 -37.5118 -37.4978 -37.4921 -37.4864 -37.4769 -37.4698 -37.4570
   -37.4479 -37.4343 -37.4210 -37.4119 -37.4053 -37.4012 -37.3958 -37.3901
   -37.3881 -37.3782 -30.4212 -30.4111 -30.3939 -30.3916 -30.3854 -30.3820
     8.4553   8.5043   8.5124   8.5514   8.7541   8.7541   8.7751   8.9154
     8.9228   8.9621   8.9964   9.0948   9.1338   9.2456   9.4932   9.5069
     9.5374   9.5483   9.5722   9.5743   9.6344   9.7485   9.7582   9.8077
     9.8108  10.0925  10.1536  10.2240  10.2718  10.2945  11.9365  13.0645
    13.3086  13.4134  13.4507  13.5010  13.6025  13.6064  13.6112  13.7211
    13.7510  16.7224  17.6433  17.8774  18.1781  19.9231  20.1168  21.1046
    21.9047  22.5636  22.7090  23.1872  24.7023  24.8656  25.2910  26.3930
    26.7321  27.0944  27.5368  27.8350  28.0954  29.5368  29.5644  30.1364
    31.0676  31.0712  31.2654  31.8072  31.9541  32.4112  32.7030  32.7470

          k = 0.0000 0.1925 0.3616 (  5061 PWs)   bands (ev):

   -75.4963 -75.4911 -75.4895 -75.4869 -75.4761 -75.4633 -66.2375 -66.2259
   -37.5136 -37.5085 -37.4939 -37.4938 -37.4769 -37.4763 -37.4616 -37.4390
   -37.4308 -37.4261 -37.4173 -37.4104 -37.4102 -37.4022 -37.3935 -37.3893
   -37.3849 -37.3823 -30.4112 -30.3982 -30.3956 -30.3916 -30.3843 -30.3806
     8.4791   8.5153   8.5879   8.6300   8.7123   8.7210   8.7538   8.8805
     8.9565   8.9980   9.0199   9.0423   9.0890   9.1136   9.4571   9.4797
     9.4884   9.5116   9.5219   9.6811   9.6968   9.7464   9.7725   9.8803
     9.9112   9.9806  10.2037  10.2130  10.2308  10.3145  12.3919  13.2147
    13.3599  13.3644  13.3909  13.4229  13.5883  13.5957  13.6653  13.7421
    13.7768  16.1488  17.1597  18.0940  18.4541  20.3004  20.3537  20.3722
    21.2432  21.6123  21.8375  23.5494  23.7374  24.5985  25.1034  27.3347
    27.6162  28.4451  28.6915  29.1337  29.3508  30.3844  30.4417  30.6328
    30.7817  31.0012  31.1102  31.8799  32.1533  32.2324  32.4822  32.8430

          k = 0.0000 0.1925 0.5424 (  5050 PWs)   bands (ev):

   -75.4952 -75.4901 -75.4868 -75.4793 -75.4708 -75.4566 -66.2327 -66.2252
   -37.5176 -37.5088 -37.5002 -37.4974 -37.4890 -37.4880 -37.4314 -37.4284
   -37.4196 -37.4165 -37.4140 -37.4041 -37.4028 -37.3966 -37.3964 -37.3871
   -37.3870 -37.3809 -30.4051 -30.3949 -30.3895 -30.3894 -30.3879 -30.3794
     8.5434   8.5833   8.6645   8.7199   8.7199   8.7256   8.7303   8.7594
     8.8632   8.8995   8.8995   8.9152   9.2633   9.3672   9.3945   9.4134
     9.4216   9.4618   9.4710   9.6717   9.7224   9.7629   9.7758   9.8014
    10.0445  10.1068  10.1747  10.2013  10.2216  10.2761  13.0025  13.2260
    13.3593  13.3675  13.4232  13.4436  13.6438  13.6572  13.7085  13.7185
    13.8152  14.6933  17.8743  18.8273  18.8396  19.1925  19.8297  19.9437
    21.2920  21.6622  22.1685  22.3309  22.8245  23.4926  27.6980  28.3380
    28.5934  29.4149  29.6158  29.7750  30.1141  30.1456  30.5415  30.7490
    31.0195  31.2109  31.2291  31.3170  31.5642  31.6467  32.6420  32.7494

          k = 0.0000 0.3849 0.0000 (  5079 PWs)   bands (ev):

   -75.5108 -75.5019 -75.4949 -75.4867 -75.4822 -75.4757 -66.2432 -66.2314
   -37.5154 -37.4973 -37.4835 -37.4801 -37.4755 -37.4749 -37.4710 -37.4496
   -37.4466 -37.4376 -37.4256 -37.4222 -37.4166 -37.4098 -37.4091 -37.3985
   -37.3954 -37.3842 -30.4160 -30.4072 -30.4008 -30.4001 -30.3838 -30.3822
     8.5109   8.6465   8.6549   8.7063   8.7348   8.7704   8.8853   8.9453
     8.9928   9.0388   9.0835   9.1210   9.2214   9.3030   9.4334   9.4353
     9.4587   9.5092   9.5585   9.6268   9.6694   9.6806   9.7308   9.8251
     9.8326   9.8444   9.8975  10.0192  10.2693  10.3036  12.2975  12.9968
    13.0744  13.4005  13.4112  13.5181  13.5256  13.5673  13.6305  13.6500
    13.7239  14.9195  16.8522  17.4991  20.5111  20.6296  21.0630  21.5258
    21.9780  23.0654  23.5020  23.6823  24.0046  24.9131  25.1041  25.1760
    25.2004  27.7798  28.0489  28.6689  29.0042  29.3946  29.5670  29.6786
    30.7921  30.8988  31.0228  31.1323  31.3070  31.4362  32.1498  32.2507

          k = 0.0000 0.3849 0.1808 (  5090 PWs)   bands (ev):

   -75.5105 -75.5068 -75.5008 -75.4975 -75.4841 -75.4774 -66.2448 -66.2354
   -37.5113 -37.4989 -37.4908 -37.4890 -37.4824 -37.4728 -37.4724 -37.4530
   -37.4467 -37.4372 -37.4267 -37.4215 -37.4199 -37.4150 -37.4111 -37.4037
   -37.3996 -37.3870 -30.4202 -30.4107 -30.4010 -30.3980 -30.3882 -30.3872
     8.5332   8.6053   8.6648   8.7486   8.7553   8.7972   8.8388   8.9795
     9.0160   9.0233   9.0289   9.1418   9.1943   9.3260   9.3634   9.4493
     9.4751   9.4993   9.5535   9.6111   9.6624   9.6726   9.7208   9.7960
     9.8025   9.9486   9.9488  10.0220  10.2174  10.2979  12.4441  13.0717
    13.1320  13.3610  13.4020  13.4946  13.5050  13.5492  13.6148  13.6390
    13.7505  15.0468  17.0250  17.5974  18.5995  20.5658  21.2193  21.5684
    22.4337  22.6676  22.9704  23.5316  24.8434  25.0528  25.2655  25.8064
    26.1395  27.5664  27.7077  28.7034  28.8441  29.0946  29.8528  30.1430
    30.4168  30.4883  31.3150  31.6221  31.9809  32.2813  32.3452  32.4174

          k = 0.0000 0.3849 0.3616 (  5078 PWs)   bands (ev):

   -75.5033 -75.5007 -75.4944 -75.4924 -75.4825 -75.4726 -66.2415 -66.2316
   -37.5120 -37.5023 -37.4973 -37.4893 -37.4757 -37.4684 -37.4665 -37.4499
   -37.4384 -37.4246 -37.4231 -37.4216 -37.4145 -37.4136 -37.4020 -37.4015
   -37.3956 -37.3896 -30.4202 -30.4041 -30.3945 -30.3937 -30.3880 -30.3871
     8.5820   8.5869   8.6681   8.7853   8.8031   8.8042   8.8568   8.9140
     9.0328   9.0353   9.1117   9.1157   9.1530   9.1882   9.3500   9.4078
     9.4548   9.5405   9.5666   9.5826   9.6158   9.6714   9.7624   9.8515
     9.8775   9.9578   9.9918  10.0065  10.0604  10.3263  12.8023  13.1952
    13.2678  13.3499  13.3922  13.4350  13.4926  13.5150  13.6138  13.6348
    13.7695  15.4508  16.7925  17.5360  18.0004  18.9370  20.7962  21.0613
    21.8458  22.1408  23.9205  24.7734  24.9892  25.4707  25.8916  26.0165
    26.6658  27.8508  28.4222  28.5940  29.2351  29.3186  29.5424  29.6558
    31.5224  31.5312  31.6596  31.7706  31.9234  32.0367  32.6478  32.9536

          k = 0.0000 0.3849 0.5424 (  5051 PWs)   bands (ev):

   -75.4943 -75.4863 -75.4842 -75.4822 -75.4690 -75.4644 -66.2328 -66.2254
   -37.5046 -37.5043 -37.4938 -37.4829 -37.4827 -37.4624 -37.4349 -37.4343
   -37.4332 -37.4233 -37.4222 -37.4174 -37.4090 -37.3999 -37.3981 -37.3934
   -37.3915 -37.3821 -30.4098 -30.3998 -30.3886 -30.3862 -30.3831 -30.3816
     8.6242   8.6345   8.6824   8.7541   8.7937   8.8220   8.8384   8.9021
     8.9774   9.0255   9.0777   9.1044   9.2873   9.2884   9.3027   9.3688
     9.4313   9.4882   9.5166   9.6059   9.6337   9.7299   9.7332   9.7865
     9.8723   9.9606   9.9608   9.9744  10.1724  10.2863  13.0243  13.1130
    13.3696  13.3814  13.4160  13.4645  13.5305  13.5733  13.6098  13.6904
    14.1308  15.2198  16.3345  17.4230  18.3601  18.7451  19.4670  19.7442
    22.6317  22.8871  23.6690  23.8242  24.8995  25.8528  26.6625  26.8485
    27.6410  27.8014  27.9376  29.4524  30.1104  30.3527  30.4023  30.7307
    30.7934  30.8446  31.2851  31.6223  31.8500  31.8825  32.3854  32.5514

          k = 0.0000-0.5774 0.0000 (  5068 PWs)   bands (ev):

   -75.4935 -75.4914 -75.4901 -75.4869 -75.4832 -75.4803 -66.2358 -66.2328
   -37.5207 -37.4841 -37.4787 -37.4746 -37.4696 -37.4542 -37.4473 -37.4452
   -37.4358 -37.4295 -37.4284 -37.4251 -37.4243 -37.4192 -37.4185 -37.4068
   -37.3922 -37.3906 -30.4174 -30.4127 -30.3902 -30.3897 -30.3835 -30.3815
     8.5518   8.6839   8.6927   8.7584   8.8768   8.9217   8.9545   8.9623
     9.0030   9.0304   9.0622   9.0660   9.2430   9.2640   9.4580   9.4606
     9.5452   9.5472   9.5790   9.6193   9.6212   9.6412   9.6438   9.7468
     9.7696   9.7843   9.8478   9.8625  10.2733  10.2865  12.8708  12.8761
    13.0320  13.3685  13.4136  13.4906  13.5155  13.6243  13.6438  13.6520
    13.6756  13.9119  16.6322  17.3588  20.8581  21.4993  21.6869  21.6942
    21.7585  22.6077  23.6990  23.8438  24.0650  24.1950  24.9005  25.1359
    26.3284  26.3350  29.0813  29.1781  29.5506  29.7744  29.8320  30.0638
    30.0957  30.1508  30.7012  30.7499  32.2344  32.2613  32.2967  32.4378

          k = 0.0000-0.5774 0.1808 (  5072 PWs)   bands (ev):

   -75.4992 -75.4983 -75.4917 -75.4867 -75.4791 -75.4785 -66.2357 -66.2347
   -37.5196 -37.4963 -37.4857 -37.4768 -37.4764 -37.4589 -37.4499 -37.4433
   -37.4398 -37.4395 -37.4288 -37.4260 -37.4194 -37.4112 -37.4059 -37.3989
   -37.3961 -37.3892 -30.4124 -30.4105 -30.3983 -30.3896 -30.3860 -30.3833
     8.5714   8.6611   8.7469   8.7660   8.8391   8.8968   8.9553   8.9582
     8.9587   9.0795   9.1016   9.1481   9.2416   9.2485   9.3754   9.4268
     9.4844   9.5323   9.5535   9.5822   9.6203   9.6860   9.6943   9.7165
     9.8018   9.8566   9.8566   9.8835  10.1945  10.3026  12.9275  12.9906
    13.1339  13.3148  13.4185  13.4842  13.4933  13.5046  13.6078  13.7192
    13.8135  13.9510  16.8179  17.4662  19.3272  19.5981  21.6600  22.5051
    22.8259  23.0490  23.4771  23.6219  23.8705  24.1798  26.3109  26.4344
    26.4860  26.6568  27.8811  28.0634  29.0290  29.2321  29.8823  30.1082
    30.8814  31.0382  31.1360  31.2938  31.7074  31.8169  32.4291  32.4330

          k = 0.0000-0.5774 0.3616 (  5090 PWs)   bands (ev):

   -75.5167 -75.5029 -75.4986 -75.4971 -75.4840 -75.4757 -66.2412 -66.2384
   -37.5150 -37.5008 -37.5006 -37.4869 -37.4740 -37.4696 -37.4631 -37.4508
   -37.4489 -37.4403 -37.4360 -37.4251 -37.4203 -37.4064 -37.4042 -37.4039
   -37.3990 -37.3921 -30.4164 -30.4122 -30.3976 -30.3967 -30.3932 -30.3884
     8.6177   8.6408   8.7130   8.8431   8.8681   8.8700   8.8914   8.9696
     8.9889   9.1524   9.1850   9.2042   9.2058   9.2320   9.2676   9.3643
     9.4627   9.4994   9.5349   9.5748   9.5963   9.6596   9.7279   9.7742
     9.8101   9.8614   9.8826   9.9545  10.0154  10.3314  13.0205  13.1038
    13.3444  13.3472  13.4173  13.4276  13.4427  13.4713  13.5141  13.7463
    14.2093  14.2162  17.3526  17.5464  17.6490  18.1165  20.6441  21.0100
    22.9832  23.2273  24.3166  24.4364  25.4412  26.0139  26.4914  26.5395
    27.0145  27.0478  27.2520  27.6096  29.1337  29.2707  29.6044  29.7183
    30.4669  30.7230  32.1548  32.1554  32.2995  32.3907  32.8176  32.8431

          k = 0.0000-0.5774 0.5424 (  5080 PWs)   bands (ev):

   -75.5139 -75.4978 -75.4935 -75.4927 -75.4806 -75.4729 -66.2402 -66.2341
   -37.5074 -37.4992 -37.4949 -37.4820 -37.4711 -37.4643 -37.4616 -37.4484
   -37.4474 -37.4459 -37.4434 -37.4257 -37.4129 -37.4119 -37.4030 -37.3972
   -37.3927 -37.3882 -30.4136 -30.4131 -30.3951 -30.3948 -30.3907 -30.3843
     8.6470   8.6544   8.7181   8.7598   8.8395   8.8672   8.9099   9.0017
     9.0953   9.1591   9.1936   9.1961   9.1991   9.2466   9.3025   9.4256
     9.4499   9.4833   9.5550   9.5576   9.6100   9.6224   9.6860   9.7307
     9.7427   9.8162   9.8633   9.8677  10.1739  10.2918  13.0423  13.0537
    13.3954  13.4096  13.4227  13.4229  13.4523  13.4567  13.5714  13.7000
    14.9243  14.9432  16.2518  16.2670  18.2033  18.6178  19.3281  19.6455
    23.7122  24.0087  24.5156  24.7901  25.7461  25.8004  26.3426  26.4206
    27.0860  27.3870  28.2571  28.3693  28.9704  29.0509  30.6312  30.8292
    30.8585  31.0743  31.3840  31.6836  32.0378  32.2225  32.5185  32.6530

          k = 0.2000 0.1155 0.0000 (  5087 PWs)   bands (ev):

   -75.5112 -75.5010 -75.4945 -75.4891 -75.4858 -75.4846 -66.2430 -66.2347
   -37.5271 -37.5090 -37.4905 -37.4895 -37.4817 -37.4749 -37.4721 -37.4567
   -37.4556 -37.4381 -37.4260 -37.4239 -37.4188 -37.4045 -37.3949 -37.3945
   -37.3884 -37.3796 -30.4210 -30.4150 -30.4008 -30.3954 -30.3855 -30.3820
     8.4501   8.5020   8.5552   8.5770   8.7350   8.7539   8.8515   8.8654
     8.9174   8.9883   9.0050   9.1230   9.1754   9.3822   9.4112   9.4571
     9.4894   9.5091   9.5861   9.5954   9.6452   9.7131   9.7221   9.8869
     9.9274   9.9916  10.0265  10.1857  10.2712  10.3332  11.8589  13.0015
    13.2311  13.4107  13.4863  13.5436  13.5718  13.6384  13.6450  13.6563
    13.7129  16.2274  17.3312  17.8331  19.8188  20.0300  20.1529  20.6567
    21.5114  22.9999  23.7780  24.1426  24.2196  24.9339  25.3355  25.7960
    25.9572  27.0258  27.1816  27.8178  27.9907  28.9697  28.9978  29.6665
    30.8781  31.2587  31.3690  31.7302  31.9299  32.0362  32.4546  32.4937

          k = 0.2000 0.1155 0.1808 (  5078 PWs)   bands (ev):

   -75.5034 -75.5024 -75.4905 -75.4865 -75.4822 -75.4803 -66.2414 -66.2316
   -37.5165 -37.5075 -37.4952 -37.4931 -37.4817 -37.4746 -37.4644 -37.4563
   -37.4505 -37.4322 -37.4237 -37.4113 -37.4085 -37.4042 -37.3993 -37.3950
   -37.3898 -37.3827 -30.4205 -30.4109 -30.3972 -30.3902 -30.3868 -30.3813
     8.4738   8.5216   8.5327   8.5838   8.7532   8.7705   8.7838   8.9297
     8.9344   8.9686   9.0210   9.0866   9.1432   9.2590   9.4758   9.4961
     9.5333   9.5391   9.5604   9.5807   9.6418   9.7353   9.7529   9.8068
     9.8073  10.0648  10.1190  10.1954  10.2597  10.2925  12.0126  13.0658
    13.2709  13.4097  13.4314  13.4996  13.5875  13.5986  13.6118  13.7046
    13.7494  16.3583  17.4889  17.8597  18.1702  20.1970  20.3949  21.5596
    21.6351  22.6106  22.6112  23.0890  24.9208  25.0660  25.3285  26.1698
    26.6291  27.1145  27.5299  27.8137  28.2023  29.6580  29.7240  30.4159
    30.8051  30.8848  31.1235  31.8185  31.9067  32.2522  32.6507  32.7112

          k = 0.2000 0.1155 0.3616 (  5067 PWs)   bands (ev):

   -75.4963 -75.4948 -75.4926 -75.4880 -75.4789 -75.4671 -66.2388 -66.2279
   -37.5137 -37.5080 -37.4948 -37.4947 -37.4785 -37.4771 -37.4659 -37.4446
   -37.4312 -37.4253 -37.4176 -37.4122 -37.4111 -37.4030 -37.3958 -37.3924
   -37.3872 -37.3841 -30.4130 -30.3993 -30.3966 -30.3912 -30.3885 -30.3818
     8.4977   8.5304   8.6017   8.6591   8.7244   8.7388   8.7692   8.8855
     8.9876   9.0012   9.0333   9.0538   9.1018   9.1061   9.4397   9.4703
     9.4824   9.5171   9.5300   9.6652   9.6857   9.7324   9.7707   9.8725
     9.9083   9.9764  10.1730  10.1761  10.1943  10.3169  12.4611  13.2163
    13.3364  13.3534  13.3894  13.4238  13.5755  13.5817  13.6488  13.7200
    13.7731  16.2223  16.8226  17.9521  18.3356  20.0305  20.5896  20.6498
    21.1383  21.7568  22.0512  23.7934  23.9882  25.0023  25.1792  27.0388
    27.3165  28.2598  28.7727  29.1389  29.2799  30.0795  30.1963  30.7785
    30.8560  30.9810  31.3199  31.7081  32.2321  32.2836  32.4170  32.7650

          k = 0.2000 0.1155 0.5424 (  5053 PWs)   bands (ev):

   -75.5028 -75.4909 -75.4890 -75.4803 -75.4667 -75.4564 -66.2336 -66.2260
   -37.5123 -37.5112 -37.4984 -37.4941 -37.4901 -37.4896 -37.4315 -37.4309
   -37.4228 -37.4191 -37.4132 -37.4077 -37.4075 -37.3956 -37.3955 -37.3905
   -37.3870 -37.3808 -30.4063 -30.3963 -30.3912 -30.3885 -30.3845 -30.3836
     8.5605   8.5932   8.6673   8.7279   8.7357   8.7418   8.7506   8.7795
     8.8816   8.9163   8.9328   8.9381   9.2764   9.3527   9.3813   9.4013
     9.4210   9.4678   9.4794   9.6580   9.7072   9.7605   9.7658   9.8005
    10.0151  10.0938  10.1390  10.1638  10.1999  10.2775  13.0099  13.2001
    13.3595  13.3682  13.4264  13.4681  13.6238  13.6505  13.6850  13.7007
    13.8387  14.7794  17.5371  18.5609  18.7104  19.0622  19.7486  19.9137
    21.5286  21.8540  22.5326  22.5782  23.1617  23.9417  27.7395  28.0123
    28.2551  29.0692  29.2657  29.8756  29.9882  30.1853  30.5675  30.7444
    31.1118  31.2259  31.3359  31.3967  31.4900  31.6216  32.5354  32.6681

          k = 0.2000 0.3079 0.0000 (  5075 PWs)   bands (ev):

   -75.5110 -75.5061 -75.4903 -75.4886 -75.4749 -75.4703 -66.2402 -66.2319
   -37.5194 -37.5047 -37.4895 -37.4833 -37.4809 -37.4775 -37.4662 -37.4497
   -37.4392 -37.4376 -37.4219 -37.4211 -37.4144 -37.4091 -37.3971 -37.3909
   -37.3906 -37.3825 -30.4125 -30.4115 -30.3991 -30.3935 -30.3847 -30.3826
     8.5464   8.5801   8.6216   8.7247   8.7371   8.8142   8.8819   8.8977
     8.9668   9.0160   9.1228   9.1348   9.1812   9.2858   9.4418   9.4438
     9.5037   9.5183   9.5303   9.6253   9.6386   9.7012   9.7144   9.8296
     9.8418   9.8663   9.8993  10.1386  10.1902  10.3060  12.2362  12.9986
    13.0781  13.4087  13.4163  13.5088  13.5340  13.6212  13.6480  13.6541
    13.6703  15.5293  15.7540  18.9565  19.4813  20.4199  20.6842  22.1643
    22.2034  23.0857  23.1556  23.6026  23.9015  24.1382  25.3256  25.9853
    26.5361  26.8643  27.3544  28.6616  28.8468  29.3439  29.7122  30.1509
    30.2012  30.4615  30.7396  30.8348  31.6835  31.8299  32.7961  33.0503

          k = 0.2000 0.3079 0.1808 (  5088 PWs)   bands (ev):

   -75.5167 -75.5060 -75.5022 -75.4880 -75.4816 -75.4768 -66.2426 -66.2363
   -37.5112 -37.5069 -37.4952 -37.4910 -37.4848 -37.4736 -37.4710 -37.4548
   -37.4471 -37.4383 -37.4235 -37.4232 -37.4178 -37.4145 -37.3995 -37.3958
   -37.3915 -37.3902 -30.4190 -30.4138 -30.3996 -30.3969 -30.3887 -30.3838
     8.5689   8.5910   8.6023   8.7386   8.7521   8.8327   8.8591   8.9188
     8.9722   9.0183   9.0606   9.1427   9.1769   9.3206   9.3701   9.4690
     9.4897   9.5201   9.5323   9.5997   9.6532   9.6930   9.7151   9.7786
     9.8127   9.9385   9.9618  10.1477  10.2183  10.2311  12.3865  13.0718
    13.1351  13.3607  13.4158  13.4983  13.5034  13.5624  13.6239  13.6818
    13.7018  15.6625  15.8923  18.4821  19.1290  19.6603  21.0209  21.3532
    22.5772  22.7185  23.1311  23.7636  24.7011  24.9818  25.1389  25.5731
    26.8950  27.3273  28.1479  28.2352  28.5424  29.0179  29.7332  30.0264
    30.2745  30.9969  31.2983  31.4693  31.7239  31.9764  32.4220  32.9229

          k = 0.2000 0.3079 0.3616 (  5068 PWs)   bands (ev):

   -75.5018 -75.4964 -75.4923 -75.4904 -75.4747 -75.4682 -66.2393 -66.2288
   -37.5035 -37.5003 -37.4907 -37.4904 -37.4719 -37.4718 -37.4643 -37.4449
   -37.4323 -37.4273 -37.4244 -37.4216 -37.4205 -37.4075 -37.3990 -37.3966
   -37.3892 -37.3863 -30.4177 -30.4013 -30.3950 -30.3933 -30.3864 -30.3797
     8.5799   8.6051   8.6450   8.7626   8.7739   8.8529   8.8599   8.8829
     8.9839   9.0464   9.0589   9.1388   9.1489   9.1977   9.3958   9.4143
     9.4251   9.5442   9.5541   9.5863   9.6394   9.6701   9.7491   9.8450
     9.9023   9.9538   9.9631  10.0481  10.1564  10.2707  12.7639  13.2251
    13.2694  13.2880  13.4047  13.4502  13.4896  13.5107  13.6346  13.6926
    13.7146  16.0647  16.2832  16.8173  19.3072  19.6215  19.6561  20.2596
    22.3899  23.1350  23.2245  23.6545  25.2965  25.3714  25.9587  26.2482
    27.3177  27.7103  28.1942  28.4389  28.6479  30.0180  30.2171  30.4934
    30.5874  30.8030  31.0155  31.9680  32.0331  32.0752  32.2105  33.0537

          k = 0.2000 0.3079 0.5424 (  5058 PWs)   bands (ev):

   -75.4994 -75.4982 -75.4810 -75.4788 -75.4720 -75.4687 -66.2327 -66.2296
   -37.5122 -37.5009 -37.4923 -37.4873 -37.4816 -37.4745 -37.4418 -37.4369
   -37.4343 -37.4207 -37.4166 -37.4147 -37.4099 -37.4047 -37.4010 -37.3950
   -37.3907 -37.3841 -30.4080 -30.4004 -30.3906 -30.3881 -30.3877 -30.3839
     8.6321   8.6341   8.6858   8.7574   8.7874   8.8102   8.8416   8.8908
     8.9358   8.9490   9.0796   9.1189   9.2791   9.3263   9.3404   9.3637
     9.3886   9.4926   9.5061   9.6039   9.6537   9.7378   9.7468   9.7709
     9.8621   9.9128  10.0516  10.0653  10.1626  10.2416  13.0330  13.1369
    13.3447  13.3472  13.4364  13.4709  13.5362  13.5633  13.6548  13.6684
    14.0882  15.1826  16.8841  17.1449  18.0211  18.2892  20.1666  20.8536
    21.4020  22.2187  23.8628  24.1775  24.9448  25.2717  26.1194  27.1299
    27.9239  28.5396  28.9355  29.5539  29.8542  30.0309  30.0830  30.3455
    30.8675  31.0911  31.3696  31.3747  31.4926  31.5594  31.6563  31.7726

          k = 0.2000 0.5004 0.0000 (  5072 PWs)   bands (ev):

   -75.5055 -75.5027 -75.4958 -75.4816 -75.4774 -75.4732 -66.2373 -66.2337
   -37.5110 -37.4887 -37.4814 -37.4807 -37.4754 -37.4686 -37.4597 -37.4503
   -37.4491 -37.4308 -37.4241 -37.4202 -37.4154 -37.4150 -37.4103 -37.4027
   -37.3891 -37.3890 -30.4112 -30.4098 -30.4007 -30.3896 -30.3879 -30.3811
     8.6150   8.6230   8.7646   8.8059   8.8519   8.9204   8.9408   8.9720
     9.0289   9.0417   9.0601   9.1317   9.1618   9.1688   9.4096   9.4508
     9.5120   9.5215   9.5961   9.6288   9.6600   9.6929   9.7187   9.7415
     9.7502   9.7600   9.8321   9.9588  10.1551  10.2834  12.7757  12.9420
    12.9898  13.3604  13.4582  13.5348  13.5608  13.5969  13.6162  13.6595
    13.6798  14.3431  15.2134  19.0186  20.4634  20.9414  21.4422  21.6994
    22.1699  22.4596  22.6506  23.3994  24.4123  25.3167  25.7215  26.0480
    26.5858  27.2916  27.4062  27.9283  28.5119  28.6101  28.9691  30.3819
    30.6209  31.1559  31.5240  31.6113  31.7106  32.1347  32.3604  32.6853

          k = 0.2000 0.5004 0.1808 (  5079 PWs)   bands (ev):

   -75.5076 -75.5043 -75.5008 -75.4899 -75.4768 -75.4734 -66.2410 -66.2338
   -37.5112 -37.4956 -37.4875 -37.4831 -37.4814 -37.4726 -37.4562 -37.4522
   -37.4466 -37.4360 -37.4316 -37.4253 -37.4147 -37.4130 -37.4071 -37.3988
   -37.3929 -37.3873 -30.4150 -30.4081 -30.4019 -30.3946 -30.3891 -30.3816
     8.6377   8.6519   8.7419   8.7985   8.8734   8.8907   8.9295   8.9674
     8.9916   9.0355   9.1066   9.1527   9.2055   9.2383   9.3701   9.4194
     9.4515   9.5143   9.5544   9.5918   9.6260   9.6793   9.6874   9.7559
     9.8057   9.8232   9.8643   9.9926  10.1903  10.1932  12.8674  13.0308
    13.0796  13.3176  13.4492  13.4586  13.5170  13.5611  13.6047  13.6731
    13.7685  14.4728  15.3608  19.0663  19.3308  20.0962  20.5274  21.0538
    22.6904  23.3800  23.9988  24.0805  24.5514  25.3814  25.5583  26.0642
    26.1715  27.2795  27.7539  28.0274  28.6607  28.9363  29.4787  29.9329
    30.2857  30.6936  31.1918  31.8080  31.8551  32.3291  32.3930  33.0421

          k = 0.2000 0.5004 0.3616 (  5085 PWs)   bands (ev):

   -75.5102 -75.5075 -75.5020 -75.4917 -75.4838 -75.4715 -66.2428 -66.2351
   -37.5024 -37.4981 -37.4950 -37.4857 -37.4782 -37.4765 -37.4595 -37.4518
   -37.4395 -37.4376 -37.4320 -37.4301 -37.4206 -37.4118 -37.4111 -37.4040
   -37.3942 -37.3901 -30.4193 -30.4110 -30.4019 -30.3940 -30.3903 -30.3823
     8.6670   8.6701   8.7238   8.8420   8.8667   8.8817   8.9049   8.9640
     8.9821   9.0667   9.1436   9.2005   9.2523   9.2766   9.3408   9.3732
     9.4003   9.4795   9.5284   9.5608   9.6137   9.6562   9.6721   9.7360
     9.8481   9.8846   9.9106   9.9591  10.0574  10.2373  13.0050  13.1849
    13.2692  13.2992  13.3576  13.4024  13.4725  13.4973  13.5803  13.6812
    14.0663  14.8887  15.8014  17.5184  18.3427  19.1923  19.6873  21.2617
    22.7041  23.4056  24.5439  24.6826  25.3045  25.8728  26.3720  26.4920
    26.8800  27.2656  28.1282  28.2514  28.4718  29.2228  29.3722  29.7098
    30.3490  30.7229  31.1570  31.4461  31.6463  32.6436  32.7253  32.9648

          k = 0.2000 0.5004 0.5424 (  5080 PWs)   bands (ev):

   -75.5087 -75.5033 -75.4905 -75.4878 -75.4853 -75.4748 -66.2385 -66.2356
   -37.5044 -37.4977 -37.4862 -37.4828 -37.4746 -37.4693 -37.4557 -37.4463
   -37.4440 -37.4381 -37.4292 -37.4263 -37.4191 -37.4148 -37.4082 -37.4045
   -37.3984 -37.3933 -30.4146 -30.4096 -30.3960 -30.3930 -30.3898 -30.3875
     8.6685   8.6826   8.7442   8.7878   8.8543   8.8684   8.8971   8.9795
     9.0563   9.0800   9.2099   9.2371   9.2640   9.3047   9.3452   9.3600
     9.3753   9.5182   9.5427   9.5766   9.5870   9.6524   9.6618   9.6764
     9.7052   9.7892   9.9266   9.9498  10.1442  10.2210  13.0685  13.1121
    13.2917  13.3026  13.4220  13.4335  13.4778  13.4919  13.5941  13.6558
    14.7867  15.5414  16.0842  16.5925  16.9928  17.7890  20.4262  21.4623
    22.0793  23.1076  24.3325  25.2938  25.4825  26.2240  26.5545  27.3490
    27.6841  27.9465  28.3146  28.9233  29.1950  29.3195  29.6697  29.8807
    30.1190  30.4020  30.7300  31.0323  31.3128  31.6647  31.9056  32.4471

          k = 0.2000-0.4619 0.0000 (  5078 PWs)   bands (ev):

   -75.5079 -75.5046 -75.4953 -75.4880 -75.4812 -75.4729 -66.2403 -66.2338
   -37.5172 -37.4900 -37.4826 -37.4812 -37.4797 -37.4719 -37.4599 -37.4516
   -37.4433 -37.4344 -37.4296 -37.4225 -37.4197 -37.4112 -37.4067 -37.4039
   -37.3913 -37.3903 -30.4135 -30.4117 -30.3997 -30.3947 -30.3868 -30.3820
     8.6125   8.6175   8.7274   8.7933   8.8507   8.9041   8.9265   8.9338
     9.0266   9.0472   9.0792   9.1531   9.1642   9.1696   9.4248   9.4729
     9.5030   9.5148   9.5806   9.6267   9.6391   9.6967   9.7279   9.7324
     9.7648   9.7694   9.8472  10.0018  10.1561  10.2861  12.6857  12.9616
    12.9929  13.3673  13.4431  13.5341  13.5581  13.5842  13.6007  13.6589
    13.6628  14.5860  15.2463  19.0519  20.2314  20.8861  21.2101  21.8018
    22.1687  22.7285  22.9167  23.4311  24.1565  24.8137  25.7217  26.2843
    26.5068  27.0157  27.6802  27.9492  28.5299  28.9107  29.2797  30.3315
    30.4379  31.0087  31.0316  31.4430  31.6775  32.2090  32.3831  32.9170

          k = 0.2000-0.4619 0.1808 (  5075 PWs)   bands (ev):

   -75.5092 -75.5012 -75.4979 -75.4855 -75.4757 -75.4728 -66.2392 -66.2331
   -37.5094 -37.4946 -37.4883 -37.4812 -37.4793 -37.4729 -37.4601 -37.4445
   -37.4428 -37.4386 -37.4310 -37.4238 -37.4146 -37.4109 -37.4044 -37.3970
   -37.3931 -37.3879 -30.4145 -30.4094 -30.3976 -30.3949 -30.3869 -30.3809
     8.6283   8.6479   8.7166   8.7852   8.8610   8.8801   8.9206   8.9643
     9.0022   9.0102   9.0978   9.1436   9.2309   9.2501   9.3689   9.4329
     9.4508   9.5168   9.5483   9.5928   9.6315   9.6732   9.6842   9.7620
     9.8118   9.8265   9.8790  10.0276  10.1928  10.1962  12.7996  13.0406
    13.0780  13.3227  13.4429  13.4531  13.5220  13.5585  13.6160  13.6678
    13.7019  14.7200  15.3930  18.9898  19.2869  20.2867  20.3705  20.9904
    22.9341  23.2568  23.8666  24.0980  24.5703  25.1965  25.3285  25.7334
    26.4174  27.6545  27.7888  28.2276  28.6384  29.1602  29.2549  29.8514
    29.8810  30.8828  31.3301  31.7053  32.1217  32.1698  32.4663  32.6983

          k = 0.2000-0.4619 0.3616 (  5078 PWs)   bands (ev):

   -75.5082 -75.5071 -75.4996 -75.4880 -75.4787 -75.4682 -66.2414 -66.2326
   -37.5024 -37.4995 -37.4938 -37.4844 -37.4796 -37.4737 -37.4623 -37.4468
   -37.4391 -37.4364 -37.4288 -37.4273 -37.4157 -37.4104 -37.4067 -37.4011
   -37.3944 -37.3866 -30.4181 -30.4092 -30.3982 -30.3947 -30.3886 -30.3802
     8.6570   8.6613   8.7076   8.8302   8.8530   8.8779   8.9158   8.9621
     8.9722   9.0375   9.1255   9.2065   9.2364   9.2948   9.3310   9.3733
     9.3972   9.4987   9.5424   9.5667   9.5941   9.6525   9.6933   9.7611
     9.8449   9.8979   9.9278   9.9622  10.0738  10.2396  12.9834  13.1970
    13.2612  13.2855  13.3771  13.4245  13.4533  13.4929  13.6082  13.6814
    13.9232  15.1428  15.8300  17.3481  18.5692  19.2221  19.7118  21.0134
    22.6721  23.6754  24.3161  24.4506  24.9963  25.7649  26.6182  26.7150
    26.8381  27.1999  27.8951  28.4307  28.6435  28.9956  29.5450  29.9252
    30.3341  31.0321  31.0989  31.2844  31.7360  32.6436  32.7972  32.8657

          k = 0.2000-0.4619 0.5424 (  5069 PWs)   bands (ev):

   -75.5053 -75.5006 -75.4853 -75.4825 -75.4800 -75.4700 -66.2359 -66.2321
   -37.5033 -37.4993 -37.4846 -37.4836 -37.4730 -37.4675 -37.4519 -37.4459
   -37.4401 -37.4303 -37.4243 -37.4207 -37.4166 -37.4112 -37.4032 -37.4029
   -37.3958 -37.3907 -30.4092 -30.4061 -30.3931 -30.3921 -30.3887 -30.3853
     8.6638   8.6802   8.7287   8.7854   8.8440   8.8640   8.8931   8.9724
     9.0260   9.0423   9.2199   9.2530   9.2694   9.2862   9.3189   9.3558
     9.3693   9.5206   9.5367   9.5781   9.5946   9.6749   9.6786   9.7068
     9.7242   9.7893   9.9469   9.9706  10.1455  10.2223  13.0615  13.1151
    13.3016  13.3109  13.4269  13.4401  13.4790  13.4974  13.6077  13.6560
    14.6153  15.6083  16.1036  16.6525  17.1920  17.8201  20.4342  21.4622
    21.8228  22.8840  24.6209  25.2245  25.6085  25.8365  26.2811  26.9274
    27.8299  28.0260  28.6101  28.9279  29.4798  29.6391  29.7149  29.8981
    30.1017  30.4654  30.7792  31.0521  31.3540  31.6426  31.8631  32.2938

          k = 0.2000-0.2694 0.0000 (  5077 PWs)   bands (ev):

   -75.5091 -75.5069 -75.4895 -75.4874 -75.4811 -75.4726 -66.2396 -66.2338
   -37.5199 -37.5072 -37.4905 -37.4838 -37.4799 -37.4796 -37.4704 -37.4555
   -37.4436 -37.4366 -37.4209 -37.4192 -37.4142 -37.4091 -37.3936 -37.3909
   -37.3883 -37.3826 -30.4129 -30.4113 -30.3979 -30.3924 -30.3894 -30.3830
     8.5222   8.5586   8.6158   8.6813   8.7327   8.7931   8.8736   8.9024
     8.9438   9.0126   9.1077   9.1232   9.1851   9.3168   9.4303   9.4395
     9.5054   9.5074   9.5423   9.6257   9.6415   9.7019   9.7159   9.8440
     9.8772   9.9023   9.9082  10.1482  10.2144  10.3122  12.1373  12.9995
    13.1119  13.4064  13.4316  13.5222  13.5352  13.6262  13.6457  13.6523
    13.6860  15.6379  16.0823  18.7047  19.5538  20.2616  20.6419  21.9168
    22.1872  22.9362  23.0886  23.7013  24.1595  24.3959  25.1697  25.8258
    26.5766  26.7256  27.5390  28.4396  28.7115  29.0150  29.9472  30.0026
    30.2773  30.5431  30.9353  31.1070  31.5872  31.8290  32.6246  32.9302

          k = 0.2000-0.2694 0.1808 (  5087 PWs)   bands (ev):

   -75.5148 -75.5067 -75.5008 -75.4875 -75.4824 -75.4771 -66.2439 -66.2346
   -37.5118 -37.5066 -37.4960 -37.4919 -37.4870 -37.4778 -37.4702 -37.4565
   -37.4502 -37.4366 -37.4245 -37.4183 -37.4152 -37.4143 -37.3997 -37.3942
   -37.3898 -37.3868 -30.4218 -30.4136 -30.4014 -30.3935 -30.3882 -30.3822
     8.5447   8.5725   8.5864   8.7013   8.7503   8.8185   8.8342   8.9246
     8.9716   8.9982   9.0665   9.1353   9.1505   9.3056   9.4002   9.4730
     9.5014   9.5228   9.5385   9.5962   9.6534   9.7000   9.7284   9.7852
     9.8110   9.9794   9.9852  10.1595  10.2277  10.2488  12.2874  13.0703
    13.1652  13.3738  13.4143  13.4970  13.5214  13.5717  13.6206  13.6839
    13.7179  15.7696  16.2217  18.3637  18.8804  19.7308  21.1306  21.5882
    22.1523  22.5194  22.9590  23.6959  24.6668  25.1216  25.2429  25.7121
    26.6869  27.4052  27.9799  28.0565  28.3708  29.2487  29.8724  30.2267
    30.6861  30.7838  31.1263  31.3095  31.7938  32.1254  32.3686  32.9954

          k = 0.2000-0.2694 0.3616 (  5068 PWs)   bands (ev):

   -75.5001 -75.4977 -75.4938 -75.4906 -75.4757 -75.4652 -66.2399 -66.2281
   -37.5058 -37.5025 -37.4929 -37.4908 -37.4750 -37.4715 -37.4673 -37.4471
   -37.4309 -37.4244 -37.4213 -37.4202 -37.4183 -37.4085 -37.3980 -37.3935
   -37.3902 -37.3845 -30.4160 -30.3988 -30.3959 -30.3931 -30.3875 -30.3817
     8.5593   8.5861   8.6344   8.7414   8.7614   8.8204   8.8338   8.8847
     8.9915   9.0503   9.0595   9.1138   9.1188   9.1698   9.4052   9.4325
     9.4379   9.5383   9.5498   9.6061   9.6530   9.6845   9.7562   9.8484
     9.9104   9.9599  10.0044  10.0777  10.1684  10.2846  12.6915  13.2228
    13.2801  13.3061  13.3990  13.4384  13.5172  13.5294  13.6227  13.6943
    13.7333  16.1490  16.5124  16.8188  19.1980  19.5950  19.9011  20.3187
    22.1696  22.7317  23.0027  23.5727  25.2785  25.5850  25.6657  25.9985
    27.3454  27.8263  28.4828  28.5737  28.7512  29.8724  30.3075  30.5751
    30.7786  30.8751  31.2421  31.8246  31.9646  32.0510  32.2449  33.1783

          k = 0.2000-0.2694 0.5424 (  5058 PWs)   bands (ev):

   -75.4969 -75.4909 -75.4828 -75.4813 -75.4773 -75.4690 -66.2339 -66.2284
   -37.5062 -37.5012 -37.4944 -37.4895 -37.4867 -37.4789 -37.4401 -37.4348
   -37.4279 -37.4202 -37.4153 -37.4134 -37.4108 -37.4056 -37.4014 -37.3946
   -37.3906 -37.3873 -30.4078 -30.4016 -30.3901 -30.3886 -30.3872 -30.3831
     8.6150   8.6245   8.6804   8.7495   8.7742   8.7946   8.8196   8.8621
     8.9233   8.9412   9.0399   9.0727   9.2966   9.3156   9.3499   9.3702
     9.4030   9.4877   9.4975   9.6163   9.6658   9.7464   9.7498   9.7805
     9.8997   9.9662  10.0649  10.0914  10.1690  10.2513  13.0270  13.1470
    13.3505  13.3551  13.4336  13.4806  13.5570  13.5883  13.6533  13.6794
    14.0018  15.0757  16.9911  17.4448  18.1265  18.5786  19.9376  20.7051
    21.3597  22.2299  23.4189  23.8652  24.5203  24.9717  26.5207  27.5343
    27.8779  28.4460  29.1864  29.4809  29.9309  30.1581  30.3012  30.3559
    31.0002  31.2302  31.2862  31.4499  31.5033  31.5768  31.7529  31.9949

          k = 0.2000-0.0770 0.0000 (  5083 PWs)   bands (ev):

   -75.5106 -75.5031 -75.4924 -75.4875 -75.4826 -75.4806 -66.2414 -66.2342
   -37.5274 -37.5075 -37.4910 -37.4887 -37.4831 -37.4718 -37.4695 -37.4595
   -37.4574 -37.4396 -37.4260 -37.4166 -37.4138 -37.3997 -37.3943 -37.3940
   -37.3859 -37.3833 -30.4205 -30.4157 -30.3978 -30.3920 -30.3868 -30.3812
     8.4432   8.4896   8.5410   8.5701   8.7285   8.7605   8.8495   8.8569
     8.9120   8.9813   8.9935   9.1259   9.1692   9.3807   9.4173   9.4593
     9.4889   9.5188   9.5762   9.6023   9.6416   9.7161   9.7225   9.8931
     9.9290  10.0086  10.0412  10.2002  10.2717  10.3363  11.8249  13.0019
    13.2498  13.4126  13.4947  13.5459  13.5749  13.6385  13.6448  13.6674
    13.7101  16.4121  17.2489  18.0600  19.6717  19.7615  20.2489  20.6259
    21.3068  23.1111  23.7309  24.2667  24.3682  24.8734  25.4036  25.5939
    26.1818  26.9326  27.1506  27.6691  27.9339  28.8203  29.0695  29.5382
    31.0654  31.2600  31.4121  31.6862  31.8167  32.2374  32.4421  32.7385

          k = 0.2000-0.0770 0.1808 (  5080 PWs)   bands (ev):

   -75.5058 -75.5048 -75.4914 -75.4849 -75.4823 -75.4812 -66.2412 -66.2329
   -37.5166 -37.5110 -37.4967 -37.4947 -37.4833 -37.4746 -37.4678 -37.4572
   -37.4517 -37.4344 -37.4215 -37.4125 -37.4069 -37.4033 -37.4009 -37.3924
   -37.3883 -37.3820 -30.4213 -30.4123 -30.3943 -30.3918 -30.3877 -30.3822
     8.4670   8.5130   8.5221   8.5699   8.7532   8.7648   8.7800   8.9234
     8.9264   8.9663   9.0106   9.0913   9.1379   9.2531   9.4840   9.5013
     9.5341   9.5453   9.5641   9.5782   9.6381   9.7408   9.7559   9.8055
     9.8105  10.0770  10.1322  10.2148  10.2644  10.2901  11.9782  13.0652
    13.2871  13.4108  13.4408  13.4996  13.5940  13.6021  13.6122  13.7137
    13.7482  16.5428  17.3894  17.9657  18.2617  19.8357  20.4868  21.3418
    21.7672  22.5043  22.6339  23.2487  24.6690  25.0863  25.3409  26.2680
    26.6936  27.0602  27.5599  27.8397  28.1215  29.4797  29.7744  30.2836
    30.8621  31.0252  31.2480  31.7782  31.8647  32.3533  32.6174  32.7952

          k = 0.2000-0.0770 0.3616 (  5063 PWs)   bands (ev):

   -75.4967 -75.4937 -75.4931 -75.4844 -75.4747 -75.4656 -66.2386 -66.2259
   -37.5115 -37.5082 -37.4949 -37.4932 -37.4778 -37.4770 -37.4646 -37.4407
   -37.4302 -37.4284 -37.4176 -37.4116 -37.4096 -37.4014 -37.3954 -37.3905
   -37.3857 -37.3812 -30.4138 -30.3988 -30.3962 -30.3897 -30.3861 -30.3800
     8.4894   8.5245   8.5944   8.6463   8.7187   8.7308   8.7638   8.8813
     8.9744   9.0013   9.0239   9.0505   9.0980   9.1076   9.4491   9.4742
     9.4833   9.5158   9.5260   9.6716   9.6916   9.7388   9.7712   9.8749
     9.9114   9.9775  10.1840  10.1867  10.2222  10.3130  12.4297  13.2156
    13.3471  13.3572  13.3910  13.4229  13.5812  13.5877  13.6556  13.7326
    13.7726  16.1929  16.9923  17.8413  18.5784  20.1745  20.2283  20.6860
    21.1756  21.8207  21.8972  23.4982  24.0496  24.8136  25.1375  27.0940
    27.5587  28.3307  28.7205  29.0515  29.4022  30.0891  30.4559  30.6494
    30.8901  31.0092  31.2200  31.7744  31.9788  32.4013  32.4777  32.7458

          k = 0.2000-0.0770 0.5424 (  5055 PWs)   bands (ev):

   -75.5014 -75.4905 -75.4883 -75.4842 -75.4685 -75.4578 -66.2331 -66.2276
   -37.5165 -37.5106 -37.4992 -37.4965 -37.4919 -37.4885 -37.4318 -37.4281
   -37.4232 -37.4186 -37.4147 -37.4094 -37.4057 -37.3972 -37.3948 -37.3911
   -37.3872 -37.3817 -30.4042 -30.3977 -30.3906 -30.3898 -30.3881 -30.3828
     8.5529   8.5893   8.6661   8.7230   8.7307   8.7330   8.7427   8.7702
     8.8723   8.9044   8.9217   8.9281   9.2706   9.3586   9.3894   9.4070
     9.4200   9.4653   9.4750   9.6639   9.7141   9.7613   9.7712   9.8001
    10.0272  10.1023  10.1500  10.1859  10.2105  10.2741  13.0070  13.2115
    13.3589  13.3670  13.4257  13.4585  13.6325  13.6531  13.6913  13.7129
    13.8265  14.7407  17.7098  18.5380  18.7853  19.2761  19.5975  20.0917
    21.3120  21.8932  22.1968  22.5578  23.0627  23.7217  27.7209  28.0575
    28.5501  29.1072  29.5755  29.7538  30.0796  30.1656  30.5043  30.7779
    31.0084  31.2264  31.2507  31.3695  31.5375  31.6373  32.6034  32.7307

          k = 0.4000 0.2309 0.0000 (  5085 PWs)   bands (ev):

   -75.5088 -75.5071 -75.5005 -75.4926 -75.4797 -75.4767 -66.2427 -66.2349
   -37.5217 -37.4877 -37.4848 -37.4827 -37.4779 -37.4738 -37.4671 -37.4489
   -37.4469 -37.4321 -37.4272 -37.4233 -37.4226 -37.4225 -37.4162 -37.4033
   -37.3933 -37.3857 -30.4202 -30.4108 -30.3984 -30.3967 -30.3878 -30.3848
     8.5350   8.6750   8.6921   8.7499   8.7679   8.8412   8.9135   8.9847
     9.0036   9.0488   9.0557   9.1267   9.2356   9.2765   9.4154   9.4634
     9.4926   9.5279   9.5355   9.6386   9.6606   9.6699   9.7403   9.7478
     9.7726   9.7999   9.8733   9.9292  10.2717  10.2928  12.5671  12.9747
    13.0364  13.3846  13.4042  13.5169  13.5193  13.5245  13.6268  13.6513
    13.7255  14.3811  16.7112  17.4080  20.7491  20.9480  21.4773  21.6981
    22.0862  22.5037  23.5181  23.9166  24.5363  24.6867  24.7398  24.9050
    25.1592  27.9462  28.3544  28.5913  29.1277  29.6073  29.8675  30.2922
    30.6565  30.8135  30.8414  30.8761  30.9102  31.4043  32.4223  32.4290

          k = 0.4000 0.2309 0.1808 (  5088 PWs)   bands (ev):

   -75.5086 -75.5034 -75.4996 -75.4950 -75.4841 -75.4812 -66.2427 -66.2364
   -37.5142 -37.4974 -37.4859 -37.4847 -37.4776 -37.4697 -37.4601 -37.4505
   -37.4395 -37.4386 -37.4332 -37.4288 -37.4245 -37.4149 -37.4144 -37.4045
   -37.4005 -37.3889 -30.4187 -30.4118 -30.3977 -30.3970 -30.3889 -30.3879
     8.5558   8.6397   8.7356   8.7476   8.7976   8.8509   8.8795   8.9799
     8.9852   9.0619   9.0696   9.1598   9.2335   9.2906   9.3650   9.4389
     9.4505   9.4972   9.5619   9.6166   9.6223   9.6811   9.7011   9.7774
     9.8110   9.8808   9.8830   9.9440  10.2029  10.3008  12.6964  13.0489
    13.1121  13.3373  13.4072  13.4840  13.4931  13.5160  13.6187  13.6315
    13.7533  14.4981  16.8917  17.5125  18.9056  20.1065  21.5375  22.1494
    22.6160  22.6316  23.1949  23.8970  24.4731  24.6846  25.1328  26.1215
    26.3868  27.6892  27.8336  28.0874  29.2543  29.4342  29.6093  29.6561
    30.7021  30.8339  30.8797  31.9923  32.0200  32.1031  32.1501  32.3924

          k = 0.4000 0.2309 0.3616 (  5084 PWs)   bands (ev):

   -75.5090 -75.5026 -75.5015 -75.4905 -75.4873 -75.4701 -66.2425 -66.2341
   -37.5134 -37.5038 -37.4982 -37.4878 -37.4727 -37.4721 -37.4651 -37.4529
   -37.4409 -37.4335 -37.4331 -37.4270 -37.4128 -37.4114 -37.4038 -37.3977
   -37.3970 -37.3897 -30.4196 -30.4077 -30.3978 -30.3930 -30.3902 -30.3882
     8.6033   8.6214   8.6949   8.8155   8.8249   8.8646   8.9010   8.9319
     8.9968   9.0789   9.1522   9.1580   9.2195   9.2278   9.2987   9.3698
     9.4541   9.5368   9.5532   9.5672   9.5852   9.6558   9.7547   9.8323
     9.8658   9.8806   9.9107   9.9723  10.0265  10.3295  12.9397  13.1493
    13.2869  13.3838  13.4031  13.4340  13.4481  13.4813  13.5617  13.7144
    13.8011  14.9018  17.0982  17.4172  17.8890  18.4720  20.7006  21.0397
    22.4331  22.6708  24.6941  24.7671  25.0865  25.6606  25.8767  26.0234
    26.8410  27.8062  27.9157  28.3676  28.6632  29.1626  29.3228  29.9204
    30.9532  31.3140  31.9265  31.9433  32.0447  32.1933  32.7586  32.8948

          k = 0.4000 0.2309 0.5424 (  5068 PWs)   bands (ev):

   -75.5034 -75.4942 -75.4933 -75.4883 -75.4809 -75.4615 -66.2365 -66.2309
   -37.5074 -37.5001 -37.4957 -37.4795 -37.4776 -37.4619 -37.4506 -37.4469
   -37.4411 -37.4387 -37.4364 -37.4192 -37.4144 -37.4015 -37.3997 -37.3945
   -37.3895 -37.3882 -30.4102 -30.4060 -30.3946 -30.3899 -30.3888 -30.3840
     8.6369   8.6520   8.6990   8.7598   8.8205   8.8503   8.8782   8.9611
     9.0419   9.0848   9.1606   9.1863   9.2366   9.2633   9.2708   9.3965
     9.4383   9.4906   9.5341   9.5923   9.5927   9.6900   9.7276   9.7531
     9.8036   9.8744   9.8958   9.9002  10.1729  10.2897  13.0305  13.0814
    13.3836  13.3978  13.4043  13.4399  13.4855  13.5179  13.5853  13.6972
    14.4075  15.3706  15.9570  16.9120  18.2590  18.6624  19.3781  19.6815
    23.1940  23.4549  24.1855  24.3975  25.8529  26.0742  26.1869  26.8537
    26.9640  27.1069  27.9545  29.2016  29.3823  29.7782  30.5725  30.7312
    30.8274  30.9606  31.1904  31.8653  32.0074  32.0827  32.4392  32.4581

          k = 0.4000 0.4234 0.0000 (  5078 PWs)   bands (ev):

   -75.5101 -75.5030 -75.4964 -75.4862 -75.4793 -75.4763 -66.2384 -66.2361
   -37.5112 -37.4903 -37.4852 -37.4812 -37.4761 -37.4664 -37.4569 -37.4534
   -37.4478 -37.4320 -37.4227 -37.4211 -37.4196 -37.4193 -37.4150 -37.4057
   -37.3927 -37.3922 -30.4142 -30.4108 -30.3990 -30.3915 -30.3891 -30.3849
     8.6088   8.6208   8.7938   8.7964   8.8661   8.9005   8.9565   9.0150
     9.0258   9.0284   9.0434   9.0883   9.1810   9.2074   9.4038   9.4319
     9.5242   9.5378   9.5946   9.6188   9.6747   9.6902   9.7188   9.7227
     9.7513   9.7692   9.8245   9.8951  10.1888  10.2825  12.8568  12.9091
    12.9948  13.3584  13.4649  13.5232  13.5300  13.6014  13.6578  13.6587
    13.7664  13.9969  15.4532  18.6750  20.8047  21.0499  21.5740  21.7333
    21.9924  22.3893  22.5296  23.6428  24.3898  25.3197  25.4984  26.1041
    26.3884  26.6316  27.9343  28.4311  28.5973  28.7307  28.9099  30.3817
    30.6128  31.1653  31.2973  31.5229  32.0943  32.2202  32.3554  32.6262

          k = 0.4000 0.4234 0.1808 (  5071 PWs)   bands (ev):

   -75.5029 -75.5003 -75.4934 -75.4883 -75.4753 -75.4738 -66.2374 -66.2331
   -37.5081 -37.4950 -37.4887 -37.4799 -37.4766 -37.4634 -37.4496 -37.4486
   -37.4461 -37.4340 -37.4288 -37.4220 -37.4185 -37.4149 -37.4020 -37.4004
   -37.3929 -37.3896 -30.4117 -30.4065 -30.4016 -30.3906 -30.3870 -30.3820
     8.6251   8.6550   8.7604   8.8045   8.8592   8.9135   8.9372   8.9597
     8.9711   9.0759   9.1073   9.1603   9.2091   9.2181   9.3702   9.4154
     9.4621   9.4961   9.5727   9.5939   9.6247   9.6787   9.6873   9.7458
     9.8114   9.8332   9.8472   9.9369  10.1897  10.2233  12.9156  13.0192
    13.0911  13.3132  13.4540  13.4675  13.5152  13.5298  13.6030  13.6914
    13.9036  14.0978  15.6049  18.7961  19.4198  19.7914  20.8272  21.4324
    22.6447  23.4719  23.8612  23.9209  24.3231  25.4702  25.6283  26.2294
    26.6542  26.7824  27.1748  28.6041  28.6769  28.9812  29.4239  30.1935
    30.2539  30.8514  31.1506  31.2874  32.1774  32.2844  32.3858  32.6903

          k = 0.4000 0.4234 0.3616 (  5075 PWs)   bands (ev):

   -75.5040 -75.5012 -75.4955 -75.4870 -75.4787 -75.4749 -66.2383 -66.2338
   -37.5009 -37.4938 -37.4923 -37.4811 -37.4756 -37.4724 -37.4548 -37.4487
   -37.4364 -37.4337 -37.4315 -37.4272 -37.4216 -37.4104 -37.4061 -37.4051
   -37.3939 -37.3886 -30.4146 -30.4099 -30.3987 -30.3928 -30.3887 -30.3796
     8.6594   8.6675   8.7349   8.8498   8.8649   8.8769   8.9098   8.9595
     8.9896   9.1231   9.1546   9.1730   9.2502   9.2740   9.3258   9.3779
     9.4184   9.4616   9.5181   9.5656   9.6432   9.6588   9.6670   9.7088
     9.8585   9.8688   9.8954   9.9562  10.0303  10.2624  13.0193  13.1553
    13.2913  13.3171  13.3695  13.3879  13.4855  13.5001  13.5323  13.7011
    14.2703  14.4739  16.0507  17.7274  17.9703  19.3425  19.4188  21.7015
    22.5385  23.2055  24.5957  25.1055  25.5061  25.7532  26.2175  26.2289
    27.0753  27.3389  27.5914  28.1655  28.9807  29.2799  29.3367  29.8198
    30.1330  30.1729  31.5932  31.7043  31.8330  32.5812  32.7264  32.9362

          k = 0.4000 0.4234 0.5424 (  5077 PWs)   bands (ev):

   -75.5089 -75.5082 -75.4878 -75.4846 -75.4826 -75.4719 -66.2377 -66.2349
   -37.5036 -37.5005 -37.4883 -37.4823 -37.4720 -37.4700 -37.4559 -37.4489
   -37.4426 -37.4409 -37.4317 -37.4240 -37.4155 -37.4116 -37.4039 -37.4017
   -37.3956 -37.3928 -30.4131 -30.4127 -30.3945 -30.3923 -30.3882 -30.3860
     8.6663   8.6773   8.7495   8.7803   8.8543   8.8697   8.9026   8.9904
     9.0841   9.1364   9.1770   9.2137   9.2310   9.3192   9.3588   9.3812
     9.3983   9.5068   9.5335   9.5660   9.6078   9.6382   9.6460   9.6831
     9.6924   9.7887   9.9034   9.9257  10.1482  10.2390  13.0663  13.0933
    13.3070  13.3192  13.4248  13.4298  13.4726  13.4827  13.5780  13.6685
    15.0017  15.1987  16.2584  16.4469  16.9859  18.0239  20.0823  21.1364
    22.5569  23.4792  24.3572  25.1960  25.4090  26.1439  27.0148  27.2599
    27.5193  27.7405  28.1752  28.6273  28.9825  28.9981  29.9359  30.0959
    30.3430  30.7602  30.8426  31.1368  31.2635  31.7385  31.7745  32.5423

          k = 0.4000 0.6158 0.0000 (  5071 PWs)   bands (ev):

   -75.5163 -75.5052 -75.4957 -75.4783 -75.4718 -75.4667 -66.2363 -66.2342
   -37.5099 -37.4883 -37.4836 -37.4793 -37.4760 -37.4743 -37.4579 -37.4536
   -37.4502 -37.4269 -37.4249 -37.4184 -37.4162 -37.4093 -37.4074 -37.4008
   -37.3892 -37.3882 -30.4142 -30.4104 -30.3976 -30.3899 -30.3869 -30.3789
     8.6035   8.6788   8.7655   8.8509   8.8980   8.9331   8.9616   9.0152
     9.0244   9.0546   9.0591   9.1054   9.1141   9.1194   9.4000   9.4096
     9.5083   9.5180   9.6136   9.6398   9.7079   9.7150   9.7162   9.7249
     9.7492   9.7574   9.7981   9.9675  10.0788  10.2792  12.8549  12.9336
    12.9731  13.3502  13.4996  13.5470  13.5601  13.5797  13.6166  13.6614
    13.8792  14.2682  14.6918  19.5862  20.2978  21.0000  21.7019  21.8691
    21.9054  22.1333  22.3709  22.8624  25.2841  25.8422  26.3571  26.5417
    26.8448  27.1015  27.1592  27.4844  27.7899  28.0805  28.0859  30.2780
    31.5266  31.6137  31.9136  31.9533  32.0875  32.3301  32.3771  32.5408

          k = 0.4000 0.6158 0.1808 (  5066 PWs)   bands (ev):

   -75.5019 -75.5002 -75.4963 -75.4825 -75.4713 -75.4697 -66.2356 -66.2321
   -37.5092 -37.4858 -37.4827 -37.4809 -37.4768 -37.4692 -37.4541 -37.4478
   -37.4447 -37.4307 -37.4242 -37.4234 -37.4168 -37.4112 -37.4026 -37.3963
   -37.3912 -37.3885 -30.4081 -30.4061 -30.3994 -30.3912 -30.3871 -30.3799
     8.6517   8.6885   8.7470   8.8322   8.9008   8.9238   8.9303   8.9734
     8.9840   9.0472   9.1235   9.1348   9.1802   9.2181   9.3583   9.3949
     9.4656   9.5074   9.5327   9.5973   9.6162   9.7000   9.7262   9.7493
     9.7839   9.8022   9.8585  10.0126  10.1239  10.1858  12.9097  13.0419
    13.0687  13.3147  13.4519  13.4643  13.5351  13.5754  13.6023  13.6309
    14.0100  14.4029  14.8356  19.4680  19.6957  20.1505  20.2151  20.7630
    22.1483  23.5829  24.0852  24.2900  25.0458  25.7453  25.8091  26.2766
    26.5854  26.7085  27.2654  27.5295  28.0035  28.9570  29.6578  30.2929
    30.7466  30.9208  30.9952  31.5071  31.5834  31.8908  32.9986  33.3952

          k = 0.4000 0.6158 0.3616 (  5090 PWs)   bands (ev):

   -75.5136 -75.5115 -75.5013 -75.4892 -75.4877 -75.4769 -66.2420 -66.2390
   -37.5019 -37.4987 -37.4971 -37.4864 -37.4816 -37.4789 -37.4568 -37.4496
   -37.4419 -37.4374 -37.4358 -37.4329 -37.4232 -37.4139 -37.4106 -37.4056
   -37.3959 -37.3926 -30.4180 -30.4159 -30.4032 -30.3948 -30.3911 -30.3835
     8.6948   8.6967   8.7417   8.8647   8.8785   8.8844   8.8951   8.9555
     9.0023   9.1037   9.1555   9.1695   9.2498   9.3058   9.3358   9.3813
     9.4150   9.4567   9.5004   9.5517   9.5927   9.6635   9.6728   9.7133
     9.8497   9.8692   9.8821   9.9586  10.0849  10.1812  13.0194  13.2179
    13.2700  13.2813  13.3252  13.3530  13.5036  13.5211  13.5781  13.6329
    14.3921  14.8200  15.2695  17.8419  18.2790  18.7124  20.2777  21.0634
    22.7088  23.5075  24.3330  25.3145  25.6113  25.8131  26.0242  26.9358
    27.1192  27.2515  27.7595  27.9415  28.4233  29.0561  29.5651  29.9821
    30.3458  30.6527  30.8163  30.9798  31.3762  32.3045  32.8791  33.1514

          k = 0.4000 0.6158 0.5424 (  5076 PWs)   bands (ev):

   -75.5110 -75.5020 -75.4869 -75.4852 -75.4824 -75.4736 -66.2377 -66.2342
   -37.5061 -37.4950 -37.4827 -37.4786 -37.4739 -37.4696 -37.4503 -37.4445
   -37.4439 -37.4330 -37.4297 -37.4282 -37.4234 -37.4122 -37.4096 -37.4074
   -37.3965 -37.3912 -30.4113 -30.4081 -30.3991 -30.3914 -30.3894 -30.3859
     8.6829   8.6910   8.7786   8.7987   8.8562   8.8857   8.9002   8.9742
     9.0955   9.1302   9.1919   9.2164   9.2679   9.3145   9.3480   9.3835
     9.4009   9.5141   9.5468   9.5750   9.6011   9.6117   9.6276   9.6308
     9.6691   9.7950   9.9208   9.9338  10.1441  10.1858  13.0942  13.1415
    13.2442  13.2541  13.4139  13.4186  13.4800  13.5063  13.5946  13.6281
    15.1339  15.5390  15.9584  16.4890  16.8874  17.2951  21.0270  21.7730
    22.1989  22.9549  23.7023  24.6933  26.3558  26.8062  27.2045  27.6496
    27.8567  28.1436  28.4892  28.5974  28.8305  29.0583  29.3146  29.5918
    29.7380  29.9060  30.1392  31.0563  31.3352  31.5217  32.2996  32.5869

          k = 0.4000-0.3464 0.0000 (  5079 PWs)   bands (ev):

   -75.5110 -75.5030 -75.4997 -75.4869 -75.4772 -75.4752 -66.2392 -66.2355
   -37.5094 -37.4978 -37.4861 -37.4839 -37.4774 -37.4648 -37.4581 -37.4531
   -37.4400 -37.4348 -37.4279 -37.4234 -37.4209 -37.4192 -37.4135 -37.4050
   -37.3910 -37.3872 -30.4148 -30.4111 -30.4023 -30.3921 -30.3860 -30.3844
     8.5689   8.6422   8.7459   8.7785   8.8207   8.9204   8.9412   8.9685
     9.0209   9.0253   9.0568   9.1043   9.2169   9.2450   9.4108   9.4740
     9.5163   9.5512   9.5600   9.6250   9.6386   9.6588   9.7161   9.7402
     9.7577   9.7807   9.8476   9.8931  10.2415  10.2863  12.7688  12.9360
    13.0153  13.3681  13.4300  13.5152  13.5218  13.5846  13.6154  13.6554
    13.7093  14.0989  16.0182  18.0541  20.8265  21.2676  21.3744  21.5812
    22.1518  22.5316  23.1387  23.8105  24.1900  24.7720  24.9954  25.5455
    25.8458  27.1517  28.1245  28.9767  29.1690  29.2307  29.7319  29.8736
    30.5100  30.6350  31.0842  31.1083  31.6542  31.8310  32.5765  32.6531

          k = 0.4000-0.3464 0.1808 (  5074 PWs)   bands (ev):

   -75.5015 -75.4998 -75.4952 -75.4873 -75.4798 -75.4759 -66.2374 -66.2344
   -37.5106 -37.4931 -37.4873 -37.4793 -37.4747 -37.4669 -37.4570 -37.4437
   -37.4424 -37.4385 -37.4316 -37.4262 -37.4208 -37.4080 -37.4056 -37.4005
   -37.3954 -37.3884 -30.4109 -30.4080 -30.3961 -30.3948 -30.3873 -30.3858
     8.5879   8.6544   8.7513   8.7756   8.8299   8.8996   8.9194   8.9690
     8.9725   9.0770   9.0864   9.1608   9.2347   9.2441   9.3741   9.4296
     9.4546   9.5179   9.5572   9.5982   9.6393   9.6565   9.6858   9.7521
     9.8236   9.8435   9.8527   9.9230  10.1945  10.2726  12.8668  13.0195
    13.1076  13.3187  13.4320  13.4774  13.5045  13.5135  13.6064  13.6914
    13.7587  14.2063  16.1761  18.1833  19.2009  19.8471  21.2091  21.8247
    23.0647  23.2654  23.4374  23.7336  23.9511  25.0232  25.7616  25.8630
    26.6402  27.2276  27.5035  28.6984  28.7230  29.1132  29.8187  29.9482
    30.3884  30.5033  31.4462  31.6112  31.7133  32.2663  32.3856  32.5348

          k = 0.4000-0.3464 0.3616 (  5081 PWs)   bands (ev):

   -75.5091 -75.5061 -75.4960 -75.4882 -75.4819 -75.4731 -66.2408 -66.2342
   -37.5062 -37.4996 -37.4933 -37.4828 -37.4750 -37.4735 -37.4629 -37.4488
   -37.4464 -37.4379 -37.4318 -37.4286 -37.4177 -37.4085 -37.4043 -37.3988
   -37.3953 -37.3881 -30.4178 -30.4084 -30.3993 -30.3911 -30.3902 -30.3855
     8.6306   8.6466   8.7169   8.8332   8.8590   8.8751   8.9032   8.9657
     8.9801   9.1074   9.1584   9.1956   9.2269   9.2572   9.2993   9.3674
     9.4429   9.4854   9.5369   9.5770   9.6020   9.6564   9.7215   9.7428
     9.8578   9.8710   9.8985   9.9583  10.0195  10.3050  13.0036  13.1342
    13.2978  13.3508  13.3899  13.4324  13.4499  13.4803  13.5382  13.7294
    14.0038  14.5948  16.6251  17.4626  18.0604  18.7230  19.9529  21.7466
    22.1612  23.7963  23.8377  25.2540  25.4018  25.4905  25.9841  26.7639
    26.8179  27.2068  27.7235  28.0440  28.9146  29.1436  29.7097  29.8260
    30.1858  30.5594  31.8724  32.0209  32.1671  32.5334  32.7800  32.8722

          k = 0.4000-0.3464 0.5424 (  5079 PWs)   bands (ev):

   -75.5121 -75.5019 -75.4918 -75.4865 -75.4846 -75.4722 -66.2370 -66.2368
   -37.5073 -37.5027 -37.4886 -37.4820 -37.4742 -37.4674 -37.4594 -37.4478
   -37.4464 -37.4432 -37.4361 -37.4221 -37.4144 -37.4104 -37.4020 -37.3996
   -37.3965 -37.3903 -30.4119 -30.4113 -30.3951 -30.3937 -30.3892 -30.3883
     8.6521   8.6643   8.7239   8.7689   8.8387   8.8643   8.9018   8.9898
     9.0715   9.1105   9.1966   9.2182   9.2305   9.2586   9.3090   9.4054
     9.4227   9.4985   9.5380   9.5739   9.5939   9.6513   9.6928   9.7148
     9.7369   9.7985   9.8937   9.9118  10.1620  10.2708  13.0465  13.0758
    13.3530  13.3626  13.4288  13.4432  13.4556  13.4832  13.5781  13.6880
    14.7138  15.2775  16.0536  16.6048  17.4966  18.5824  19.4286  20.4813
    22.8700  23.8088  24.6126  24.9968  25.4555  25.8378  26.5730  26.7066
    27.4019  27.5690  27.8364  28.9227  29.0791  29.2136  30.2287  30.5919
    30.8124  31.0446  31.1376  31.3444  31.5426  31.7231  32.0089  32.3675

          k = 0.4000-0.1540 0.0000 (  5078 PWs)   bands (ev):

   -75.5110 -75.5022 -75.4942 -75.4899 -75.4763 -75.4757 -66.2404 -66.2336
   -37.5137 -37.4991 -37.4815 -37.4810 -37.4798 -37.4738 -37.4695 -37.4492
   -37.4457 -37.4325 -37.4252 -37.4194 -37.4173 -37.4137 -37.4097 -37.3999
   -37.3896 -37.3881 -30.4134 -30.4096 -30.3981 -30.3966 -30.3866 -30.3844
     8.5336   8.6492   8.6974   8.7162   8.7798   8.7990   8.9004   8.9611
     9.0039   9.0412   9.0745   9.1395   9.2205   9.2711   9.4234   9.4526
     9.4813   9.5248   9.5413   9.6288   9.6633   9.6741   9.7366   9.7865
     9.7988   9.8081   9.8829   9.9836  10.2567  10.2966  12.4503  12.9892
    13.0417  13.3938  13.4058  13.5074  13.5239  13.5567  13.6245  13.6526
    13.7176  14.6623  16.3978  17.8449  20.6616  20.7550  20.9894  21.8394
    22.1114  22.8090  23.3521  23.9048  24.2125  24.5037  24.7705  25.3526
    25.5664  27.6522  28.4717  28.6248  28.8353  29.1957  30.0380  30.2424
    30.2901  30.7432  30.7923  31.0926  31.2313  31.4860  32.2579  32.5722

          k = 0.4000-0.1540 0.1808 (  5082 PWs)   bands (ev):

   -75.5069 -75.5030 -75.4957 -75.4920 -75.4829 -75.4774 -66.2424 -66.2335
   -37.5119 -37.4955 -37.4885 -37.4860 -37.4786 -37.4718 -37.4646 -37.4507
   -37.4399 -37.4330 -37.4283 -37.4246 -37.4151 -37.4128 -37.4116 -37.4013
   -37.3993 -37.3893 -30.4178 -30.4104 -30.3983 -30.3948 -30.3878 -30.3844
     8.5548   8.6259   8.6988   8.7500   8.8055   8.8116   8.8631   8.9782
     9.0103   9.0300   9.0494   9.1602   9.2173   9.3154   9.3526   9.4432
     9.4608   9.4969   9.5557   9.6095   9.6493   9.6715   9.7053   9.7850
     9.8088   9.8928   9.9183   9.9967  10.2080  10.2865  12.5879  13.0651
    13.1079  13.3447  13.4096  13.4832  13.4981  13.5365  13.6179  13.6321
    13.7434  14.7882  16.5553  17.9638  18.7744  20.3510  21.0574  21.8730
    22.4316  22.9873  23.1934  23.8245  24.4128  24.9102  25.3778  25.8805
    26.1292  27.6651  28.0195  28.5806  28.7502  29.2806  29.3326  30.1669
    30.3230  30.7473  31.0278  31.8722  31.9324  32.1694  32.4977  32.5484

          k = 0.4000-0.1540 0.3616 (  5080 PWs)   bands (ev):

   -75.5033 -75.5007 -75.4954 -75.4917 -75.4839 -75.4763 -66.2410 -66.2333
   -37.5060 -37.5035 -37.4948 -37.4853 -37.4762 -37.4699 -37.4652 -37.4503
   -37.4408 -37.4316 -37.4270 -37.4230 -37.4145 -37.4124 -37.4050 -37.3996
   -37.3971 -37.3920 -30.4192 -30.4066 -30.3952 -30.3926 -30.3906 -30.3863
     8.6014   8.6105   8.6838   8.8010   8.8229   8.8331   8.9028   8.9136
     9.0062   9.0497   9.1148   9.1576   9.1890   9.2287   9.3269   9.3863
     9.4445   9.5437   9.5579   9.5709   9.5963   9.6586   9.7535   9.8379
     9.8719   9.9029   9.9602   9.9872  10.0448  10.3166  12.8880  13.1766
    13.2704  13.3461  13.4073  13.4482  13.4541  13.4924  13.5945  13.6784
    13.7685  15.1963  16.8832  17.1275  18.3505  18.7560  20.2968  21.5265
    21.6928  22.8968  24.2723  24.6065  25.3356  25.4468  25.6709  26.2852
    26.8534  27.8494  27.9994  28.3429  29.0281  29.3671  29.5023  29.6049
    31.1150  31.3164  31.5333  31.9436  32.0915  32.1218  32.6031  32.9626

          k = 0.4000-0.1540 0.5424 (  5062 PWs)   bands (ev):

   -75.5019 -75.4957 -75.4868 -75.4814 -75.4795 -75.4614 -66.2353 -66.2289
   -37.5056 -37.5046 -37.4925 -37.4834 -37.4765 -37.4621 -37.4426 -37.4423
   -37.4382 -37.4326 -37.4271 -37.4194 -37.4123 -37.4019 -37.3983 -37.3944
   -37.3927 -37.3894 -30.4088 -30.4028 -30.3911 -30.3906 -30.3878 -30.3835
     8.6351   8.6503   8.6929   8.7613   8.8099   8.8382   8.8645   8.9381
     9.0017   9.0419   9.1353   9.1678   9.2577   9.2780   9.2902   9.3804
     9.4236   9.4939   9.5255   9.5933   9.6146   9.7101   9.7298   9.7692
     9.8198   9.8725   9.9393   9.9659  10.1669  10.2789  13.0310  13.0993
    13.3661  13.3725  13.4223  13.4501  13.5030  13.5370  13.6014  13.6905
    14.2830  15.3506  16.1250  17.1750  17.8611  18.9417  19.1769  20.2125
    22.4723  23.4874  23.6620  24.6094  25.4020  25.8970  26.3548  26.8617
    26.9908  27.8947  27.9769  29.3168  29.7599  30.1397  30.2988  30.5452
    30.7358  31.0438  31.2761  31.4100  31.7479  31.9236  32.0329  32.2693

          k = 0.4000 0.0385 0.0000 (  5079 PWs)   bands (ev):

   -75.5131 -75.5082 -75.4955 -75.4876 -75.4805 -75.4661 -66.2445 -66.2298
   -37.5140 -37.4976 -37.4880 -37.4831 -37.4793 -37.4783 -37.4692 -37.4484
   -37.4452 -37.4353 -37.4260 -37.4224 -37.4208 -37.4108 -37.3992 -37.3968
[...]
    10.6907  10.7604  10.8671  10.9911  11.0083  11.0562  11.1398  11.1685
    11.2122  11.2262  11.2618  11.2771  11.2887  11.3374  11.6301  11.6501
    11.7619  11.7758  11.8875  11.9493  12.0079  12.0169  12.0432  12.0481
    12.0548  12.0837  12.1063  12.3459  12.4953  12.7330  14.7284  14.9164
    15.0093  15.5170  15.7079  15.7869  15.8016  15.8409  15.8510  15.9335
    15.9567  16.3146  16.7548  22.1083  22.8416  23.4241  24.1481  24.1509
    24.3469  24.5924  24.7055  25.2446  28.0106  28.6045  29.0546  29.2154
    29.6841  29.7717  29.9059  30.2464  30.5706  30.8095  30.8508  32.7633
    33.9716  34.3077  34.4479  34.5467  34.7196  34.9017  35.0111  35.2203

          k = 0.4128 0.6356 0.1843 (  4685 PWs)   bands (ev):

   -73.1306 -73.1282 -73.1222 -73.1066 -73.1032 -73.0878 -63.9225 -63.9214
   -35.1496 -35.1386 -35.1361 -35.1294 -35.1158 -35.1108 -35.1016 -35.1010
   -35.0947 -35.0884 -35.0756 -35.0707 -35.0531 -35.0465 -35.0412 -35.0384
   -35.0334 -35.0310 -28.1170 -28.1164 -28.1049 -28.1031 -28.1002 -28.0987
    10.7404  10.7747  10.8511  10.9669  11.0405  11.0477  11.0835  11.1181
    11.1565  11.2093  11.3002  11.3237  11.3914  11.4358  11.5729  11.6136
    11.7216  11.7781  11.8093  11.8798  11.9033  12.0106  12.0255  12.0732
    12.1195  12.1231  12.2065  12.4065  12.5533  12.6167  14.8110  15.0571
    15.1370  15.4690  15.6518  15.6624  15.7664  15.8176  15.8572  15.8932
    16.0920  16.4533  16.9036  21.7962  22.1415  22.5031  22.6622  23.2007
    24.5772  26.0229  26.5726  26.8386  27.6817  28.4360  28.5114  29.0411
    29.3260  29.3976  30.0676  30.3162  30.8183  31.6683  32.3759  33.0990
    33.4317  33.5635  33.5662  34.1220  34.1671  34.4919  35.7213  36.1191

          k = 0.4128 0.6356 0.3686 (  4661 PWs)   bands (ev):

   -73.1171 -73.1112 -73.1070 -73.1008 -73.0948 -73.0867 -63.9163 -63.9138
   -35.1433 -35.1346 -35.1322 -35.1272 -35.1192 -35.1108 -35.0946 -35.0894
   -35.0817 -35.0799 -35.0682 -35.0594 -35.0457 -35.0379 -35.0350 -35.0320
   -35.0284 -35.0262 -28.1091 -28.1046 -28.1022 -28.0976 -28.0972 -28.0933
    10.7889  10.7942  10.8383  10.9915  11.0125  11.0212  11.0309  11.1255
    11.1371  11.2681  11.3125  11.3549  11.4524  11.5367  11.5677  11.6074
    11.6724  11.7219  11.7813  11.8173  11.8709  11.9546  11.9678  12.0360
    12.1962  12.2213  12.2378  12.3416  12.5034  12.6288  14.9941  15.3159
    15.3937  15.4222  15.4967  15.5121  15.7406  15.7492  15.8276  15.9065
    16.4341  16.8621  17.3444  20.0342  20.5048  20.9779  22.7951  23.6231
    25.2028  26.1092  26.9958  27.9774  28.3081  28.4123  28.6508  29.6648
    29.8215  29.9194  30.5807  30.7478  31.2504  31.9266  32.4245  32.6683
    33.1664  33.3382  33.5002  33.6674  34.0700  34.8552  35.3515  35.6672

          k = 0.4128 0.6356 0.5528 (  4661 PWs)   bands (ev):

   -73.1166 -73.1136 -73.1077 -73.1062 -73.0914 -73.0880 -63.9166 -63.9151
   -35.1479 -35.1426 -35.1302 -35.1271 -35.1242 -35.1173 -35.0911 -35.0899
   -35.0749 -35.0711 -35.0613 -35.0583 -35.0493 -35.0492 -35.0340 -35.0321
   -35.0279 -35.0232 -28.1097 -28.1064 -28.1018 -28.0978 -28.0966 -28.0936
    10.7813  10.7913  10.8846  10.9141  10.9712  11.0073  11.0250  11.1027
    11.2468  11.3001  11.3960  11.4282  11.4772  11.5325  11.5819  11.6191
    11.6433  11.8068  11.8123  11.8631  11.8816  11.8908  11.9195  11.9235
    11.9842  12.1310  12.2885  12.3054  12.5832  12.6368  15.1383  15.2256
    15.3734  15.3922  15.5885  15.5948  15.7129  15.7397  15.8607  15.9074
    17.1755  17.6051  18.0628  18.5890  19.0066  19.4520  23.5917  24.4639
    24.6911  25.5664  26.2428  27.2769  29.1870  29.6406  30.0314  30.4734
    30.6766  30.9392  31.2871  31.3911  31.6468  31.7872  32.0932  32.2849
    32.3622  32.6181  32.8507  33.5239  33.8506  34.0295  34.9166  35.2017

          k = 0.4128-0.3575 0.0000 (  4680 PWs)   bands (ev):

   -73.1307 -73.1228 -73.1157 -73.1125 -73.0979 -73.0860 -63.9229 -63.9180
   -35.1441 -35.1418 -35.1353 -35.1246 -35.1157 -35.1156 -35.1040 -35.0918
   -35.0867 -35.0841 -35.0739 -35.0652 -35.0635 -35.0603 -35.0575 -35.0307
   -35.0250 -35.0135 -28.1153 -28.1145 -28.1092 -28.0999 -28.0985 -28.0953
    10.6204  10.7326  10.8653  10.8659  10.9203  11.0427  11.1105  11.1133
    11.1738  11.2212  11.2634  11.2713  11.4338  11.4572  11.6418  11.7177
    11.7784  11.8310  11.8510  11.9146  11.9336  11.9380  12.0441  12.0732
    12.0841  12.1042  12.1708  12.2395  12.7080  12.7429  14.5881  14.9097
    15.0735  15.5344  15.6187  15.7023  15.7239  15.7779  15.8833  15.9298
    15.9501  16.1814  18.1881  20.4196  23.2833  23.6036  23.8582  24.0536
    24.4621  25.1176  25.6707  26.2976  26.6809  27.3117  27.5865  28.3244
    28.4442  30.0058  30.8820  31.7803  31.9366  32.0509  32.5689  32.7278
    32.9615  33.2598  33.5826  33.9832  34.2535  34.6158  34.9734  35.0400

          k = 0.4128-0.3575 0.1843 (  4683 PWs)   bands (ev):

   -73.1240 -73.1185 -73.1169 -73.1115 -73.1017 -73.1006 -63.9242 -63.9186
   -35.1514 -35.1462 -35.1370 -35.1292 -35.1241 -35.1045 -35.1005 -35.0938
   -35.0880 -35.0854 -35.0811 -35.0733 -35.0596 -35.0500 -35.0467 -35.0291
   -35.0274 -35.0194 -28.1181 -28.1124 -28.1061 -28.1030 -28.1014 -28.0959
    10.6441  10.7310  10.8748  10.8822  10.9429  11.0167  11.0503  11.1271
    11.1420  11.2502  11.2606  11.3655  11.4363  11.4706  11.5861  11.6512
    11.7118  11.7980  11.8471  11.8838  11.9364  11.9576  12.0024  12.0651
    12.1642  12.1819  12.1969  12.2870  12.6282  12.7480  14.7137  15.0201
    15.1970  15.4750  15.6212  15.6646  15.7096  15.7372  15.8628  15.8980
    16.0274  16.2478  18.3511  20.5531  21.4534  22.1418  23.7785  24.3175
    25.5935  25.7357  25.9537  26.2798  26.4347  27.6584  28.3705  28.5416
    29.2676  30.0265  30.2810  31.4574  31.5286  31.9325  32.5753  32.7359
    33.1619  33.2369  33.9965  34.2907  34.3981  34.6022  34.8545  35.0246

          k = 0.4128-0.3575 0.3686 (  4672 PWs)   bands (ev):

   -73.1211 -73.1156 -73.1092 -73.1034 -73.1025 -73.0962 -63.9197 -63.9174
   -35.1524 -35.1437 -35.1322 -35.1287 -35.1215 -35.1077 -35.0986 -35.0935
   -35.0863 -35.0762 -35.0716 -35.0647 -35.0534 -35.0430 -35.0368 -35.0342
   -35.0305 -35.0251 -28.1099 -28.1093 -28.1057 -28.1015 -28.0998 -28.0956
    10.6996  10.7227  10.8156  10.9461  10.9869  11.0000  11.0281  11.1012
    11.1491  11.2796  11.3276  11.3880  11.4325  11.4634  11.5320  11.5780
    11.6843  11.7413  11.8378  11.8692  11.9013  11.9582  12.0396  12.0624
    12.2019  12.2211  12.2632  12.3366  12.4207  12.7906  14.9595  15.1886
    15.4614  15.5000  15.5595  15.6296  15.6605  15.7014  15.7764  16.0143
    16.0930  16.5960  18.8188  19.6224  20.2827  21.0584  22.3197  24.3032
    24.6790  26.3787  26.5324  27.9022  28.0641  28.1568  28.6030  29.4264
    29.5082  29.8827  30.5159  30.8238  31.7604  31.8373  32.3392  32.6467
    33.0529  33.3344  34.4337  34.5058  34.5881  35.1045  35.3911  35.5157

          k = 0.4128-0.3575 0.5528 (  4665 PWs)   bands (ev):

   -73.1157 -73.1110 -73.1061 -73.1022 -73.1010 -73.0972 -63.9201 -63.9138
   -35.1506 -35.1486 -35.1328 -35.1298 -35.1233 -35.1142 -35.0946 -35.0877
   -35.0843 -35.0759 -35.0650 -35.0545 -35.0424 -35.0416 -35.0351 -35.0319
   -35.0289 -35.0277 -28.1124 -28.1064 -28.1016 -28.1005 -28.0968 -28.0936
    10.7372  10.7500  10.8166  10.8722  10.9518  10.9810  11.0146  11.1170
    11.2230  11.2778  11.3838  11.4239  11.4383  11.4675  11.5477  11.6249
    11.6610  11.7882  11.8148  11.8581  11.9016  11.9623  11.9964  12.0258
    12.0612  12.1385  12.2538  12.2822  12.6052  12.7465  15.0833  15.1378
    15.5093  15.5464  15.6195  15.6258  15.6778  15.7025  15.8385  15.9878
    16.7251  17.2991  18.1398  18.7226  19.6985  20.8530  21.8125  22.9121
    25.5135  26.4818  27.3563  27.6506  28.2174  28.5165  29.3742  29.4579
    30.1540  30.3846  30.5595  31.6430  31.6906  32.0061  32.7784  33.2545
    33.3883  33.6420  33.8777  34.0235  34.2333  34.3543  34.6381  34.8933

          k = 0.4128-0.1589 0.0000 (  4675 PWs)   bands (ev):

   -73.1291 -73.1236 -73.1107 -73.1049 -73.0994 -73.0875 -63.9231 -63.9156
   -35.1480 -35.1475 -35.1336 -35.1237 -35.1191 -35.1190 -35.1037 -35.0937
   -35.0844 -35.0823 -35.0718 -35.0634 -35.0530 -35.0529 -35.0473 -35.0307
   -35.0248 -35.0134 -28.1170 -28.1117 -28.1088 -28.1003 -28.0950 -28.0926
    10.5734  10.7276  10.7721  10.8405  10.8599  10.8964  11.0579  11.0877
    11.1427  11.2456  11.2788  11.3033  11.4607  11.4691  11.6566  11.7080
    11.7423  11.8007  11.8056  11.9258  11.9596  11.9824  12.0586  12.1169
    12.1390  12.1418  12.2199  12.3679  12.7284  12.7558  14.1802  15.0488
    15.1019  15.5689  15.5949  15.6934  15.7796  15.7803  15.8972  15.9298
    16.0105  16.6979  18.5922  20.1842  22.9100  23.1541  23.5333  24.3175
    24.7464  25.1752  25.7871  26.4566  26.8843  27.0128  27.2723  27.9672
    28.1375  30.4108  31.3255  31.4031  31.6398  31.9537  32.7031  33.0951
    33.2017  33.2254  33.6069  33.6140  33.6465  34.3222  34.6860  35.1212

          k = 0.4128-0.1589 0.1843 (  4680 PWs)   bands (ev):

   -73.1257 -73.1209 -73.1134 -73.1090 -73.1056 -73.0946 -63.9253 -63.9166
   -35.1546 -35.1513 -35.1378 -35.1318 -35.1262 -35.1063 -35.0985 -35.0966
   -35.0905 -35.0782 -35.0732 -35.0669 -35.0584 -35.0450 -35.0423 -35.0314
   -35.0289 -35.0190 -28.1201 -28.1143 -28.1053 -28.1028 -28.0971 -28.0939
    10.5997  10.6920  10.7819  10.8724  10.9037  10.9125  10.9748  11.1475
    11.1822  11.1901  11.2039  11.3613  11.4382  11.5222  11.5716  11.6754
    11.7147  11.7873  11.8310  11.9038  11.9430  11.9862  12.0148  12.1104
    12.1481  12.2499  12.2848  12.3854  12.6450  12.7665  14.3332  15.1385
    15.2025  15.5050  15.6015  15.6812  15.7271  15.7800  15.8681  15.8943
    16.0490  16.8118  18.7563  20.3072  20.9735  22.6800  23.6359  24.3773
    24.9282  25.4132  25.7174  26.4281  27.0001  27.4759  28.0130  28.4232
    28.7047  30.3974  30.8168  31.4518  31.5366  32.0665  32.1278  32.7922
    32.9669  33.6033  33.7133  34.2218  34.5148  34.6131  35.0451  35.1444

          k = 0.4128-0.1589 0.3686 (  4669 PWs)   bands (ev):

   -73.1261 -73.1116 -73.1062 -73.1023 -73.0990 -73.0963 -63.9215 -63.9141
   -35.1521 -35.1498 -35.1441 -35.1329 -35.1254 -35.1075 -35.0999 -35.0848
   -35.0840 -35.0704 -35.0671 -35.0603 -35.0521 -35.0419 -35.0380 -35.0352
   -35.0230 -35.0194 -28.1134 -28.1091 -28.1046 -28.1003 -28.0992 -28.0905
    10.6590  10.6727  10.7755  10.9028  10.9263  10.9416  11.0090  11.0486
    11.1879  11.2230  11.2789  11.3430  11.3762  11.4279  11.5434  11.6034
    11.6826  11.8199  11.8415  11.8691  11.9056  11.9633  12.1021  12.1805
    12.2221  12.2677  12.3469  12.3667  12.4504  12.8059  14.7281  15.2736
    15.4278  15.4769  15.6107  15.6483  15.6708  15.7253  15.8402  15.8778
    16.0742  17.2128  19.0535  19.2951  20.6821  20.9769  22.6763  23.8880
    24.3424  25.5451  26.9560  27.2842  27.9593  28.0349  28.3261  28.9218
    29.4541  30.5945  30.8113  31.0604  31.8220  32.0836  32.1492  32.3523
    33.8247  34.0295  34.1059  34.3699  34.5559  34.6348  35.2202  35.6960

          k = 0.4128-0.1589 0.5528 (  4666 PWs)   bands (ev):

   -73.1177 -73.1112 -73.1075 -73.1037 -73.1000 -73.0973 -63.9183 -63.9165
   -35.1546 -35.1494 -35.1401 -35.1322 -35.1252 -35.1180 -35.0991 -35.0833
   -35.0756 -35.0722 -35.0664 -35.0560 -35.0430 -35.0415 -35.0352 -35.0342
   -35.0271 -35.0241 -28.1109 -28.1083 -28.1036 -28.1035 -28.0970 -28.0905
    10.7101  10.7225  10.7838  10.8570  10.9147  10.9514  10.9641  11.0527
    11.1341  11.1917  11.3072  11.3472  11.4639  11.4923  11.5252  11.5875
    11.6528  11.7748  11.8115  11.9021  11.9178  12.0389  12.0491  12.1212
    12.1637  12.2278  12.3112  12.3486  12.6117  12.7573  15.0355  15.1732
    15.5544  15.5761  15.6165  15.6392  15.7234  15.7624  15.8660  15.9801
    16.3222  17.3903  18.1881  19.3198  20.0867  21.2294  21.5146  22.5889
    25.1019  26.1427  26.3529  27.3332  28.1632  28.5969  29.1433  29.5987
    29.7406  30.5381  30.6843  31.8659  32.4950  32.8513  32.9082  33.2425
    33.3063  33.5961  33.7222  34.1594  34.3498  34.4786  34.7138  34.8647

          k = 0.4128 0.0397 0.0000 (  4678 PWs)   bands (ev):

   -73.1342 -73.1269 -73.1090 -73.1052 -73.0988 -73.0918 -63.9249 -63.9162
   -35.1570 -35.1498 -35.1373 -35.1225 -35.1203 -35.1171 -35.1120 -35.1004
   -35.0807 -35.0771 -35.0677 -35.0629 -35.0568 -35.0417 -35.0390 -35.0318
   -35.0315 -35.0228 -28.1154 -28.1135 -28.1097 -28.1047 -28.0978 -28.0895
    10.6071  10.6748  10.7014  10.8635  10.8732  10.9159  11.0183  11.0421
    11.1193  11.2234  11.3183  11.3245  11.4126  11.4569  11.6887  11.7028
    11.7540  11.8030  11.8133  11.9044  11.9435  11.9967  12.0270  12.1499
    12.1520  12.1716  12.2261  12.5210  12.6410  12.7598  14.0680  15.0831
    15.0950  15.5826  15.6036  15.6937  15.7844  15.8854  15.8930  15.9320
    15.9520  17.2950  17.7849  21.3364  22.1908  22.7413  23.1943  24.6097
    24.8550  25.7368  25.7557  26.1608  26.2722  26.4086  27.8885  28.6818
    29.2680  29.4477  30.2444  31.4265  32.0328  32.1580  32.6412  32.7006
    32.9412  33.1453  33.2087  33.3385  34.0650  34.3462  35.3391  35.4369

          k = 0.4128 0.0397 0.1843 (  4676 PWs)   bands (ev):

   -73.1290 -73.1241 -73.1091 -73.1036 -73.0987 -73.0949 -63.9239 -63.9158
   -35.1534 -35.1481 -35.1412 -35.1289 -35.1205 -35.1107 -35.1052 -35.0933
   -35.0910 -35.0822 -35.0707 -35.0647 -35.0548 -35.0434 -35.0370 -35.0300
   -35.0228 -35.0215 -28.1196 -28.1121 -28.1052 -28.1009 -28.0977 -28.0920
    10.6337  10.6763  10.6955  10.8754  10.8790  10.9501  10.9721  11.0762
    11.1429  11.1890  11.2341  11.3523  11.4109  11.5353  11.5729  11.7070
    11.7360  11.7947  11.8150  11.8878  11.9567  11.9781  12.0086  12.1020
    12.1543  12.2619  12.3095  12.5380  12.6496  12.6877  14.2258  15.1742
    15.1887  15.5146  15.6101  15.6887  15.7397  15.8070  15.8884  15.9347
    15.9894  17.4276  17.9288  20.8276  21.4949  22.3631  23.1561  23.6691
    25.3048  25.5423  26.0763  26.2955  27.1493  27.4938  27.6958  28.0250
    29.4205  30.3244  30.8724  31.2227  31.5771  31.7006  32.3236  32.4192
    32.8948  33.4920  33.8307  34.2812  34.3832  34.6816  34.8204  35.2073

          k = 0.4128 0.0397 0.3686 (  4674 PWs)   bands (ev):

   -73.1224 -73.1201 -73.1089 -73.1080 -73.1029 -73.0945 -63.9238 -63.9154
   -35.1548 -35.1499 -35.1420 -35.1326 -35.1254 -35.1154 -35.1029 -35.0875
   -35.0831 -35.0710 -35.0688 -35.0655 -35.0520 -35.0478 -35.0353 -35.0321
   -35.0254 -35.0212 -28.1163 -28.1111 -28.1044 -28.1027 -28.0974 -28.0935
    10.6589  10.6852  10.7401  10.8861  10.8926  10.9709  10.9903  11.0312
    11.1345  11.2255  11.2287  11.3444  11.3601  11.4284  11.6017  11.6302
    11.6495  11.8329  11.8433  11.8508  11.9174  11.9672  12.0850  12.1931
    12.2239  12.3064  12.3476  12.4016  12.5585  12.7407  14.6468  15.3492
    15.3981  15.4208  15.6165  15.6645  15.6863  15.7132  15.8764  15.9431
    16.0103  17.8471  18.3499  19.0240  21.3944  21.9008  21.9514  22.8942
    25.0414  26.0838  26.1464  26.6632  27.5669  27.9656  28.8664  29.2171
    29.8655  30.3499  30.5617  31.1204  31.4707  32.6032  32.7071  33.0143
    33.1406  33.4650  33.7202  34.3348  34.4903  34.7307  34.9272  35.7327

          k = 0.4128 0.0397 0.5528 (  4661 PWs)   bands (ev):

   -73.1143 -73.1082 -73.1068 -73.1037 -73.0979 -73.0935 -63.9179 -63.9140
   -35.1507 -35.1492 -35.1379 -35.1347 -35.1221 -35.1168 -35.0989 -35.0878
   -35.0738 -35.0693 -35.0633 -35.0534 -35.0405 -35.0391 -35.0345 -35.0325
   -35.0291 -35.0219 -28.1087 -28.1064 -28.1040 -28.0985 -28.0955 -28.0935
    10.7162  10.7207  10.7858  10.8613  10.9019  10.9389  10.9634  11.0335
    11.0716  11.0987  11.2867  11.3399  11.4907  11.5355  11.5448  11.5862
    11.6158  11.7681  11.7834  11.9145  11.9427  12.0480  12.0702  12.1168
    12.1709  12.2101  12.4151  12.4452  12.5981  12.7066  15.0314  15.2097
    15.5203  15.5363  15.6344  15.6543  15.7396  15.7659  15.9208  15.9509
    16.2597  17.3503  18.7136  19.2099  19.9207  20.4164  22.6112  23.3359
    24.1825  24.9953  26.8875  27.3948  27.9829  28.4159  28.5023  29.4660
    30.5257  31.0270  31.7625  32.0518  32.4151  32.5489  32.7884  32.9749
    33.3245  33.5904  33.8028  33.9163  34.0436  34.0865  34.2425  34.3731

     the Fermi energy is    28.8195 ev

!    total energy              =   -2561.82612507 Ry
     Harris-Foulkes estimate   =   -2561.82614128 Ry
     estimated scf accuracy    <       0.00001872 Ry

     The total energy is the sum of the following terms:

     one-electron contribution =    -651.95182472 Ry
     hartree contribution      =     432.25763650 Ry
     xc contribution           =    -219.89146174 Ry
     ewald contribution        =   -2122.01892740 Ry
     smearing contrib. (-TS)   =      -0.22154770 Ry

     convergence has been achieved in  10 iterations

     Forces acting on atoms (Ry/au):

     atom    1 type  1   force =     0.00213317    0.00123159    0.00000000
     atom    2 type  1   force =     0.00213317   -0.00123159    0.00000000
     atom    3 type  1   force =    -0.00213317   -0.00123159    0.00000000
     atom    4 type  1   force =    -0.00213317    0.00123159    0.00000000
     atom    5 type  1   force =     0.00000000   -0.00246317    0.00000000
     atom    6 type  1   force =     0.00000000    0.00246317    0.00000000
     atom    7 type  2   force =     0.00000000    0.00000000    0.00000000
     atom    8 type  2   force =     0.00000000    0.00000000    0.00000000

     Total force =     0.006034     Total SCF correction =     0.000000


     entering subroutine stress ...

          total   stress  (Ry/bohr**3)                   (kbar)     P=   90.88
   0.00047529   0.00000000   0.00000000         69.92      0.00      0.00
   0.00000000   0.00047529   0.00000000          0.00     69.92      0.00
   0.00000000   0.00000000   0.00090287          0.00      0.00    132.82


     Writing output data file Prototype-La-hP8-Mg3Cd.save
 
     init_run     :     14.67s CPU     19.01s WALL (       2 calls)
     electrons    :   2436.66s CPU   2935.99s WALL (       5 calls)
     update_pot   :      2.57s CPU      2.59s WALL (       3 calls)
     forces       :     13.69s CPU     14.65s WALL (       5 calls)
     stress       :     40.12s CPU     41.97s WALL (       5 calls)

     Called by init_run:
     wfcinit      :     13.78s CPU     18.09s WALL (       2 calls)
     potinit      :      0.41s CPU      0.41s WALL (       2 calls)

     Called by electrons:
     c_bands      :   2362.60s CPU   2822.16s WALL (      32 calls)
     sum_band     :     73.74s CPU     99.94s WALL (      32 calls)
     v_of_rho     :      0.07s CPU      0.08s WALL (      36 calls)
     mix_rho      :      0.06s CPU      0.07s WALL (      32 calls)

     Called by c_bands:
     init_us_2    :      5.25s CPU      6.57s WALL (    4864 calls)
     ccgdiagg     :   2118.72s CPU   2506.55s WALL (    2426 calls)
     wfcrot       :    252.24s CPU    324.15s WALL (    2490 calls)

     Called by *cgdiagg:
     h_psi        :   1555.34s CPU   1947.29s WALL ( 1264373 calls)
     cdiaghg      :     12.05s CPU     12.93s WALL (    2490 calls)

     Called by h_psi:
     add_vuspsi   :    188.43s CPU    223.61s WALL ( 1264373 calls)

     General routines
     calbec       :    481.21s CPU    516.24s WALL ( 2526896 calls)
     fft          :      0.08s CPU      0.10s WALL (     169 calls)
     fftw         :   1082.58s CPU   1349.17s WALL ( 3254678 calls)
     davcio       :      3.04s CPU      7.82s WALL (    6912 calls)
 
     Parallel routines
     fft_scatter  :    419.76s CPU    537.74s WALL ( 3254847 calls)
 
     PWSCF        : 41m48.53s CPU    50m18.56s WALL

 
   This run was terminated on:  23:34:32  22Mar2018            

=------------------------------------------------------------------------------=
   JOB DONE.
=------------------------------------------------------------------------------=
