
     Program PWSCF v.5.0.2 starts on 22Mar2018 at 17:34:57 

     This program is part of the open-source Quantum ESPRESSO suite
     for quantum simulation of materials; please cite
         "P. Giannozzi et al., J. Phys.:Condens. Matter 21 395502 (2009);
          URL http://www.quantum-espresso.org", 
     in publications or presentations arising from this work. More details at
     http://www.quantum-espresso.org/quote.php

     Parallel version (MPI), running on     4 processors
     R & G space division:  proc/nbgrp/npool/nimage =       4

     Current dimensions of program PWSCF are:
     Max number of different atomic species (ntypx) = 10
     Max number of k-points (npk) =  40000
     Max angular momentum in pseudopotentials (lmaxx) =  3
     Waiting for input...
     Reading input from standard input

     Subspace diagonalization in iterative solution of the eigenvalue problem:
     a serial algorithm will be used

 
     Parallelization info
     --------------------
     sticks:   dense  smooth     PW     G-vecs:    dense   smooth      PW
     Min          93      93     30                 1717     1717     310
     Max          94      94     31                 1720     1720     313
     Sum         373     373    121                 6871     6871    1247
 


     bravais-lattice index     =            0
     lattice parameter (alat)  =       5.4125  a.u.
     unit-cell volume          =     202.7222 (a.u.)^3
     number of atoms/cell      =            2
     number of atomic types    =            2
     number of electrons       =        44.00
     number of Kohn-Sham states=           26
     kinetic-energy cutoff     =      40.0000  Ry
     charge density cutoff     =     160.0000  Ry
     convergence threshold     =      1.0E-04
     mixing beta               =       0.7000
     number of iterations used =            8  plain     mixing
     Exchange-correlation      = SLA-PZ-NOGX-NOGC ( 1 1 0 0 0)
     EXX-fraction              =        0.00
     nstep                     =           50


     celldm(1)=   5.412493  celldm(2)=   0.000000  celldm(3)=   0.000000
     celldm(4)=   0.000000  celldm(5)=   0.000000  celldm(6)=   0.000000

     crystal axes: (cart. coord. in units of alat)
               a(1) = (   1.000000   0.000000   0.000000 )  
               a(2) = (   0.000000   1.000000   0.000000 )  
               a(3) = (   0.000000   0.000000   1.278525 )  

     reciprocal axes: (cart. coord. in units 2 pi/alat)
               b(1) = (  1.000000  0.000000  0.000000 )  
               b(2) = (  0.000000  1.000000  0.000000 )  
               b(3) = (  0.000000  0.000000  0.782151 )  


     PseudoPot. # 1 for Tb read from file:
     /home/cwx6513/pp.La/Tb.UPF
     MD5 check sum: 3d6088a3f0cf7fd2e110c43f7f8e95c2
     Pseudo is Norm-conserving, Zval = 19.0
     Generated in analytical, separable form
     Using radial grid of 1263 points,  6 beta functions with: 
                l(1) =   0
                l(2) =   0
                l(3) =   1
                l(4) =   1
                l(5) =   2
                l(6) =   3

     PseudoPot. # 2 for Lu read from file:
     /home/cwx6513/pp.La/La.UPF
     MD5 check sum: 4fc038260c66a0bf25fb4835376efb80
     Pseudo is Norm-conserving, Zval = 25.0
     Generated in analytical, separable form
     Using radial grid of 1271 points,  6 beta functions with: 
                l(1) =   0
                l(2) =   0
                l(3) =   1
                l(4) =   1
                l(5) =   2
                l(6) =   3

     atomic species   valence    mass     pseudopotential
        Cu            19.00    63.54600     Tb( 1.00)
        Au            25.00   196.96600     Lu( 1.00)

     16 Sym. Ops., with inversion, found



   Cartesian axes

     site n.     atom                  positions (alat units)
         1           Cu  tau(   1) = (   0.5000000   0.5000000   0.6392626  )
         2           Au  tau(   2) = (   0.0000000   0.0000000   0.0000000  )

     number of k points=   100  gaussian smearing, width (Ry)=  0.1000

     Number of k-points >= 100: set verbosity='high' to print them.

     Dense  grid:     6871 G-vectors     FFT dimensions: (  24,  24,  27)

     Largest allocated arrays     est. size (Mb)     dimensions
        Kohn-Sham Wavefunctions         0.09 Mb     (    228,   26)
        NL pseudopotentials             0.14 Mb     (    228,   40)
        Each V/rho on FFT grid          0.06 Mb     (   4032)
        Each G-vector array             0.01 Mb     (   1720)
        G-vector shells                 0.01 Mb     (   1720)
     Largest temporary arrays     est. size (Mb)     dimensions
        Each subspace H/S matrix        0.01 Mb     (  26,  26)
        Each <psi_i|beta_j> matrix      0.02 Mb     (     40,   26)
        Arrays for rho mixing           0.49 Mb     (   4032,   8)

     Initial potential from superposition of free atoms

     Starting from uniform charge
     Starting wfc are    0 randomized atomic wfcs

     total cpu time spent up to now is        2.3 secs

     Self-consistent Calculation

     iteration #  1     ecut=    40.00 Ry     beta=0.70
     CG style diagonalization
     c_bands:  1 eigenvalues not converged
     c_bands:  1 eigenvalues not converged
     c_bands:  2 eigenvalues not converged
     c_bands:  1 eigenvalues not converged
     c_bands:  2 eigenvalues not converged
     c_bands:  2 eigenvalues not converged
     c_bands:  2 eigenvalues not converged
     c_bands:  1 eigenvalues not converged
     c_bands:  1 eigenvalues not converged
     c_bands:  1 eigenvalues not converged
     c_bands:  2 eigenvalues not converged
     c_bands:  1 eigenvalues not converged
     c_bands:  2 eigenvalues not converged
     c_bands:  1 eigenvalues not converged
     c_bands:  1 eigenvalues not converged
     c_bands:  1 eigenvalues not converged
     c_bands:  1 eigenvalues not converged
     c_bands:  2 eigenvalues not converged
     c_bands:  1 eigenvalues not converged
     c_bands:  1 eigenvalues not converged
     c_bands:  1 eigenvalues not converged
     c_bands:  1 eigenvalues not converged
     c_bands:  1 eigenvalues not converged
     c_bands:  1 eigenvalues not converged
     c_bands:  2 eigenvalues not converged
     c_bands:  3 eigenvalues not converged
     c_bands:  1 eigenvalues not converged
     c_bands:  1 eigenvalues not converged
     c_bands:  2 eigenvalues not converged
     c_bands:  2 eigenvalues not converged
     c_bands:  2 eigenvalues not converged
     c_bands:  2 eigenvalues not converged
     c_bands:  1 eigenvalues not converged
     c_bands:  1 eigenvalues not converged
     c_bands:  2 eigenvalues not converged
     c_bands:  1 eigenvalues not converged
     c_bands:  1 eigenvalues not converged
     c_bands:  2 eigenvalues not converged
     c_bands:  2 eigenvalues not converged
     c_bands:  1 eigenvalues not converged
     c_bands:  1 eigenvalues not converged
     c_bands:  1 eigenvalues not converged
     c_bands:  1 eigenvalues not converged
     c_bands:  1 eigenvalues not converged
     c_bands:  1 eigenvalues not converged
     c_bands:  1 eigenvalues not converged
     c_bands:  3 eigenvalues not converged
     c_bands:  1 eigenvalues not converged
     c_bands:  2 eigenvalues not converged
     c_bands:  1 eigenvalues not converged
     c_bands:  1 eigenvalues not converged
     c_bands:  1 eigenvalues not converged
     ethr =  1.00E-02,  avg # of iterations = 14.2

     total cpu time spent up to now is       26.6 secs

     total energy              =    -478.79363272 Ry
     Harris-Foulkes estimate   =    -863.07130636 Ry
     estimated scf accuracy    <     464.72362782 Ry

     iteration #  2     ecut=    40.00 Ry     beta=0.70
     CG style diagonalization
     c_bands:  3 eigenvalues not converged
     c_bands:  2 eigenvalues not converged
     c_bands:  2 eigenvalues not converged
     c_bands:  2 eigenvalues not converged
     c_bands:  2 eigenvalues not converged
     c_bands:  1 eigenvalues not converged
     c_bands:  1 eigenvalues not converged
     c_bands:  1 eigenvalues not converged
     c_bands:  1 eigenvalues not converged
     c_bands:  2 eigenvalues not converged
     c_bands:  1 eigenvalues not converged
     c_bands:  1 eigenvalues not converged
     c_bands:  2 eigenvalues not converged
     c_bands:  2 eigenvalues not converged
     c_bands:  2 eigenvalues not converged
     c_bands:  2 eigenvalues not converged
     c_bands:  1 eigenvalues not converged
     c_bands:  1 eigenvalues not converged
     c_bands:  2 eigenvalues not converged
     c_bands:  1 eigenvalues not converged
     c_bands:  1 eigenvalues not converged
     c_bands:  1 eigenvalues not converged
     c_bands:  1 eigenvalues not converged
     c_bands:  1 eigenvalues not converged
     c_bands:  1 eigenvalues not converged
     c_bands:  3 eigenvalues not converged
     c_bands:  2 eigenvalues not converged
     c_bands:  1 eigenvalues not converged
     c_bands:  2 eigenvalues not converged
     c_bands:  3 eigenvalues not converged
     c_bands:  2 eigenvalues not converged
     c_bands:  3 eigenvalues not converged
     c_bands:  2 eigenvalues not converged
     c_bands:  1 eigenvalues not converged
     c_bands:  2 eigenvalues not converged
     c_bands:  1 eigenvalues not converged
     c_bands:  1 eigenvalues not converged
     c_bands:  1 eigenvalues not converged
     c_bands:  1 eigenvalues not converged
     c_bands:  1 eigenvalues not converged
     c_bands:  1 eigenvalues not converged
     c_bands:  1 eigenvalues not converged
     c_bands:  1 eigenvalues not converged
     c_bands:  1 eigenvalues not converged
     c_bands:  2 eigenvalues not converged
     c_bands:  1 eigenvalues not converged
     c_bands:  1 eigenvalues not converged
     c_bands:  1 eigenvalues not converged
     c_bands:  1 eigenvalues not converged
     ethr =  1.00E-02,  avg # of iterations = 11.8

     total cpu time spent up to now is       46.3 secs

     total energy              =    -540.62948614 Ry
     Harris-Foulkes estimate   =    -853.25414718 Ry
     estimated scf accuracy    <     602.58052112 Ry

     iteration #  3     ecut=    40.00 Ry     beta=0.70
     CG style diagonalization
     c_bands:  1 eigenvalues not converged
     c_bands:  1 eigenvalues not converged
     ethr =  1.00E-02,  avg # of iterations = 11.1

     total cpu time spent up to now is       64.3 secs

     total energy              =    -674.45162666 Ry
     Harris-Foulkes estimate   =    -690.43706215 Ry
     estimated scf accuracy    <      29.02774039 Ry

     iteration #  4     ecut=    40.00 Ry     beta=0.70
     CG style diagonalization
     ethr =  1.00E-02,  avg # of iterations =  5.1

     total cpu time spent up to now is       73.2 secs

     total energy              =    -681.73245713 Ry
     Harris-Foulkes estimate   =    -682.29960454 Ry
     estimated scf accuracy    <       1.43027207 Ry

     iteration #  5     ecut=    40.00 Ry     beta=0.70
     CG style diagonalization
     ethr =  3.25E-03,  avg # of iterations =  3.4

     total cpu time spent up to now is       78.5 secs

     total energy              =    -681.80529133 Ry
     Harris-Foulkes estimate   =    -681.93048205 Ry
     estimated scf accuracy    <       0.21502576 Ry

     iteration #  6     ecut=    40.00 Ry     beta=0.70
     CG style diagonalization
     ethr =  4.89E-04,  avg # of iterations =  4.2

     total cpu time spent up to now is       85.1 secs

     total energy              =    -681.87176978 Ry
     Harris-Foulkes estimate   =    -681.88510015 Ry
     estimated scf accuracy    <       0.02172650 Ry

     iteration #  7     ecut=    40.00 Ry     beta=0.70
     CG style diagonalization
     c_bands:  1 eigenvalues not converged
     c_bands:  1 eigenvalues not converged
     ethr =  4.94E-05,  avg # of iterations =  4.0

     total cpu time spent up to now is       91.5 secs

     total energy              =    -681.87831034 Ry
     Harris-Foulkes estimate   =    -681.87882556 Ry
     estimated scf accuracy    <       0.00103981 Ry

     iteration #  8     ecut=    40.00 Ry     beta=0.70
     CG style diagonalization
     c_bands:  1 eigenvalues not converged
     c_bands:  1 eigenvalues not converged
     c_bands:  1 eigenvalues not converged
     c_bands:  1 eigenvalues not converged
     c_bands:  1 eigenvalues not converged
     c_bands:  1 eigenvalues not converged
     ethr =  2.36E-06,  avg # of iterations =  4.5

     total cpu time spent up to now is       99.5 secs

     total energy              =    -681.87875597 Ry
     Harris-Foulkes estimate   =    -681.87882027 Ry
     estimated scf accuracy    <       0.00013156 Ry

     iteration #  9     ecut=    40.00 Ry     beta=0.70
     CG style diagonalization
     ethr =  2.99E-07,  avg # of iterations =  3.6

     total cpu time spent up to now is      105.1 secs

     End of self-consistent calculation

     Number of k-points >= 100: set verbosity='high' to print the bands.

     the Fermi energy is    40.7156 ev

!    total energy              =    -681.87878175 Ry
     Harris-Foulkes estimate   =    -681.87878414 Ry
     estimated scf accuracy    <       0.00000316 Ry

     The total energy is the sum of the following terms:

     one-electron contribution =    -114.05422385 Ry
     hartree contribution      =      94.92922311 Ry
     xc contribution           =     -57.21700417 Ry
     ewald contribution        =    -605.46566137 Ry
     smearing contrib. (-TS)   =      -0.07111547 Ry

     convergence has been achieved in   9 iterations

     Forces acting on atoms (Ry/au):

     atom    1 type  1   force =     0.00000000    0.00000000    0.00000000
     atom    2 type  2   force =     0.00000000    0.00000000    0.00000000

     Total force =     0.000000     Total SCF correction =     0.000000


     entering subroutine stress ...

          total   stress  (Ry/bohr**3)                   (kbar)     P= 1515.77
   0.01027257   0.00000000   0.00000000       1511.15      0.00      0.00
   0.00000000   0.01027257   0.00000000          0.00   1511.15      0.00
   0.00000000   0.00000000   0.01036681          0.00      0.00   1525.01


     BFGS Geometry Optimization

     number of scf cycles    =   1
     number of bfgs steps    =   0

     enthalpy new            =    -681.8787817550 Ry

     new trust radius        =       0.5000000000 bohr
     new conv_thr            =       0.0001000000 Ry

     new unit-cell volume =    328.46121 a.u.^3 (    48.67293 Ang^3 )

CELL_PARAMETERS (alat=  5.41249258)
   1.173989662   0.000000000   0.000000000
   0.000000000   1.173989662   0.000000000
   0.000000000   0.000000000   1.503015978

ATOMIC_POSITIONS (crystal)
Cu       0.500000000   0.500000000   0.500000000
Au       0.000000000   0.000000000   0.000000000



     Writing output data file Prototype-La-tP2-AuCu.save
     NEW-OLD atomic charge density approx. for the potential
     NEW k-points: (use verbosity='high' to print them)

     total cpu time spent up to now is      108.5 secs

     Self-consistent Calculation

     iteration #  1     ecut=    40.00 Ry     beta=0.70
     CG style diagonalization
     c_bands:  1 eigenvalues not converged
     c_bands:  1 eigenvalues not converged
     c_bands:  2 eigenvalues not converged
     c_bands:  1 eigenvalues not converged
     c_bands:  3 eigenvalues not converged
     c_bands:  2 eigenvalues not converged
     c_bands:  1 eigenvalues not converged
     c_bands:  1 eigenvalues not converged
     c_bands:  3 eigenvalues not converged
     c_bands:  4 eigenvalues not converged
     c_bands:  5 eigenvalues not converged
     c_bands:  5 eigenvalues not converged
     c_bands:  5 eigenvalues not converged
     c_bands:  2 eigenvalues not converged
     c_bands:  1 eigenvalues not converged
     c_bands:  5 eigenvalues not converged
     c_bands:  3 eigenvalues not converged
     c_bands:  1 eigenvalues not converged
     c_bands:  4 eigenvalues not converged
     c_bands:  1 eigenvalues not converged
     c_bands:  3 eigenvalues not converged
     c_bands:  1 eigenvalues not converged
     c_bands:  2 eigenvalues not converged
     c_bands:  5 eigenvalues not converged
     c_bands:  2 eigenvalues not converged
     c_bands:  1 eigenvalues not converged
     c_bands:  1 eigenvalues not converged
     c_bands:  4 eigenvalues not converged
     c_bands:  4 eigenvalues not converged
     c_bands:  4 eigenvalues not converged
     c_bands:  4 eigenvalues not converged
     c_bands:  5 eigenvalues not converged
     c_bands:  5 eigenvalues not converged
     c_bands:  4 eigenvalues not converged
     c_bands:  5 eigenvalues not converged
     c_bands:  4 eigenvalues not converged
     c_bands:  5 eigenvalues not converged
     c_bands:  5 eigenvalues not converged
     c_bands:  3 eigenvalues not converged
     c_bands:  3 eigenvalues not converged
     c_bands:  4 eigenvalues not converged
     c_bands:  3 eigenvalues not converged
     c_bands:  1 eigenvalues not converged
     c_bands:  3 eigenvalues not converged
     c_bands:  1 eigenvalues not converged
     c_bands:  1 eigenvalues not converged
     c_bands:  4 eigenvalues not converged
     c_bands:  2 eigenvalues not converged
     c_bands:  2 eigenvalues not converged
     c_bands:  4 eigenvalues not converged
     c_bands:  4 eigenvalues not converged
     c_bands:  5 eigenvalues not converged
     c_bands:  3 eigenvalues not converged
     ethr =  1.00E-06,  avg # of iterations = 18.4

     total cpu time spent up to now is      137.0 secs

     total energy              =    -670.73722218 Ry
     Harris-Foulkes estimate   =    -697.04407743 Ry
     estimated scf accuracy    <      32.84182838 Ry

     iteration #  2     ecut=    40.00 Ry     beta=0.70
     CG style diagonalization
     ethr =  1.00E-02,  avg # of iterations =  4.6

     total cpu time spent up to now is      144.5 secs

     total energy              =    -680.24214658 Ry
     Harris-Foulkes estimate   =    -682.96410471 Ry
     estimated scf accuracy    <       4.06820470 Ry

     iteration #  3     ecut=    40.00 Ry     beta=0.70
     CG style diagonalization
     ethr =  9.25E-03,  avg # of iterations =  3.7

     total cpu time spent up to now is      151.9 secs

     total energy              =    -681.24129826 Ry
     Harris-Foulkes estimate   =    -681.26568534 Ry
     estimated scf accuracy    <       0.03927281 Ry

     iteration #  4     ecut=    40.00 Ry     beta=0.70
     CG style diagonalization
     ethr =  8.93E-05,  avg # of iterations =  4.7

     total cpu time spent up to now is      160.4 secs

     total energy              =    -681.27165529 Ry
     Harris-Foulkes estimate   =    -681.28099573 Ry
     estimated scf accuracy    <       0.01696819 Ry

     iteration #  5     ecut=    40.00 Ry     beta=0.70
     CG style diagonalization
     c_bands:  1 eigenvalues not converged
     c_bands:  1 eigenvalues not converged
     ethr =  3.86E-05,  avg # of iterations =  3.5

     total cpu time spent up to now is      165.9 secs

     total energy              =    -681.27463213 Ry
     Harris-Foulkes estimate   =    -681.27549130 Ry
     estimated scf accuracy    <       0.00153203 Ry

     iteration #  6     ecut=    40.00 Ry     beta=0.70
     CG style diagonalization
     c_bands:  1 eigenvalues not converged
     c_bands:  1 eigenvalues not converged
     c_bands:  1 eigenvalues not converged
     ethr =  3.48E-06,  avg # of iterations =  4.0

     total cpu time spent up to now is      172.2 secs

     total energy              =    -681.27512291 Ry
     Harris-Foulkes estimate   =    -681.27520464 Ry
     estimated scf accuracy    <       0.00014686 Ry

     iteration #  7     ecut=    40.00 Ry     beta=0.70
     CG style diagonalization
     ethr =  3.34E-07,  avg # of iterations =  3.5

     total cpu time spent up to now is      177.7 secs

     End of self-consistent calculation

     Number of k-points >= 100: set verbosity='high' to print the bands.

     the Fermi energy is    22.8758 ev

!    total energy              =    -681.27515737 Ry
     Harris-Foulkes estimate   =    -681.27516386 Ry
     estimated scf accuracy    <       0.00000831 Ry

     The total energy is the sum of the following terms:

     one-electron contribution =    -245.69638985 Ry
     hartree contribution      =     135.50514204 Ry
     xc contribution           =     -55.52060427 Ry
     ewald contribution        =    -515.49685058 Ry
     smearing contrib. (-TS)   =      -0.06645472 Ry

     convergence has been achieved in   7 iterations

     Forces acting on atoms (Ry/au):

     atom    1 type  1   force =     0.00000000    0.00000000    0.00000000
     atom    2 type  2   force =     0.00000000    0.00000000    0.00000000

     Total force =     0.000000     Total SCF correction =     0.000000


     entering subroutine stress ...

          total   stress  (Ry/bohr**3)                   (kbar)     P=-2000.16
  -0.01341515   0.00000000   0.00000000      -1973.44      0.00      0.00
   0.00000000  -0.01341515   0.00000000          0.00  -1973.44      0.00
   0.00000000   0.00000000  -0.01396019          0.00      0.00  -2053.61


     number of scf cycles    =   2
     number of bfgs steps    =   1

     enthalpy old            =    -681.8787817550 Ry
     enthalpy new            =    -681.2751573706 Ry

     CASE: enthalpy_new > enthalpy_old

     new trust radius        =       0.1744238591 bohr

     trust_radius < trust_radius_min

     resetting bfgs history

     new conv_thr            =       0.0001000000 Ry

     new unit-cell volume =    317.15659 a.u.^3 (    46.99776 Ang^3 )

CELL_PARAMETERS (alat=  5.41249258)
   1.160253018   0.000000000   0.000000000
   0.000000000   1.160253018   0.000000000
   0.000000000   0.000000000   1.485854836

ATOMIC_POSITIONS (crystal)
Cu       0.500000000   0.500000000   0.500000000
Au       0.000000000   0.000000000   0.000000000



     Writing output data file Prototype-La-tP2-AuCu.save
     NEW-OLD atomic charge density approx. for the potential
     NEW k-points: (use verbosity='high' to print them)

     total cpu time spent up to now is      180.0 secs

     Self-consistent Calculation

     iteration #  1     ecut=    40.00 Ry     beta=0.70
     CG style diagonalization
     ethr =  1.00E-06,  avg # of iterations =  7.4

     total cpu time spent up to now is      193.1 secs

     total energy              =    -681.34338739 Ry
     Harris-Foulkes estimate   =    -681.51608625 Ry
     estimated scf accuracy    <       0.21367490 Ry

     iteration #  2     ecut=    40.00 Ry     beta=0.70
     CG style diagonalization
     ethr =  4.86E-04,  avg # of iterations =  3.8

     total cpu time spent up to now is      199.8 secs

     total energy              =    -681.40791081 Ry
     Harris-Foulkes estimate   =    -681.44253435 Ry
     estimated scf accuracy    <       0.05403953 Ry

     iteration #  3     ecut=    40.00 Ry     beta=0.70
     CG style diagonalization
     ethr =  1.23E-04,  avg # of iterations =  3.5

     total cpu time spent up to now is      205.1 secs

     total energy              =    -681.42120780 Ry
     Harris-Foulkes estimate   =    -681.42425193 Ry
     estimated scf accuracy    <       0.00531838 Ry

     iteration #  4     ecut=    40.00 Ry     beta=0.70
     CG style diagonalization
     ethr =  1.21E-05,  avg # of iterations =  3.6

     total cpu time spent up to now is      210.9 secs

     End of self-consistent calculation

     Number of k-points >= 100: set verbosity='high' to print the bands.

     the Fermi energy is    23.9240 ev

!    total energy              =    -681.42266418 Ry
     Harris-Foulkes estimate   =    -681.42270756 Ry
     estimated scf accuracy    <       0.00005915 Ry

     The total energy is the sum of the following terms:

     one-electron contribution =    -236.69344267 Ry
     hartree contribution      =     132.50992538 Ry
     xc contribution           =     -55.62312646 Ry
     ewald contribution        =    -521.54956265 Ry
     smearing contrib. (-TS)   =      -0.06645778 Ry

     convergence has been achieved in   4 iterations

     Forces acting on atoms (Ry/au):

     atom    1 type  1   force =     0.00000000    0.00000000    0.00000000
     atom    2 type  2   force =     0.00000000    0.00000000    0.00000000

     Total force =     0.000000     Total SCF correction =     0.000000


     entering subroutine stress ...

          total   stress  (Ry/bohr**3)                   (kbar)     P=-1851.62
  -0.01237625   0.00000000   0.00000000      -1820.61      0.00      0.00
   0.00000000  -0.01237625   0.00000000          0.00  -1820.61      0.00
   0.00000000   0.00000000  -0.01300875          0.00      0.00  -1913.65


     number of scf cycles    =   3
     number of bfgs steps    =   1

     enthalpy old            =    -681.8787817550 Ry
     enthalpy new            =    -681.4226641750 Ry

     CASE: enthalpy_new > enthalpy_old

     new trust radius        =       0.1710959292 bohr

     trust_radius < trust_radius_min

     resetting bfgs history

     Message from routine bfgs:
     history already reset at previous step: stopping
     new conv_thr            =       0.0001000000 Ry

     new unit-cell volume =    317.90401 a.u.^3 (    47.10851 Ang^3 )

CELL_PARAMETERS (alat=  5.41249258)
   1.161129653   0.000000000   0.000000000
   0.000000000   1.161129653   0.000000000
   0.000000000   0.000000000   1.487108409

ATOMIC_POSITIONS (crystal)
Cu       0.500000000   0.500000000   0.500000000
Au       0.000000000   0.000000000   0.000000000



     Writing output data file Prototype-La-tP2-AuCu.save
     NEW-OLD atomic charge density approx. for the potential
     NEW k-points: (use verbosity='high' to print them)

     total cpu time spent up to now is      213.3 secs

     Self-consistent Calculation

     iteration #  1     ecut=    40.00 Ry     beta=0.70
     CG style diagonalization
     c_bands:  1 eigenvalues not converged
     ethr =  1.00E-06,  avg # of iterations =  4.6

     total cpu time spent up to now is      220.4 secs

     total energy              =    -681.41297682 Ry
     Harris-Foulkes estimate   =    -681.41370519 Ry
     estimated scf accuracy    <       0.00090239 Ry

     iteration #  2     ecut=    40.00 Ry     beta=0.70
     CG style diagonalization
     ethr =  2.05E-06,  avg # of iterations =  3.9

     total cpu time spent up to now is      226.3 secs

     total energy              =    -681.41325789 Ry
     Harris-Foulkes estimate   =    -681.41335439 Ry
     estimated scf accuracy    <       0.00014607 Ry

     iteration #  3     ecut=    40.00 Ry     beta=0.70
     CG style diagonalization
     ethr =  3.32E-07,  avg # of iterations =  3.6

     total cpu time spent up to now is      231.6 secs

     End of self-consistent calculation

     Number of k-points >= 100: set verbosity='high' to print the bands.

     the Fermi energy is    23.8555 ev

!    total energy              =    -681.41329041 Ry
     Harris-Foulkes estimate   =    -681.41329342 Ry
     estimated scf accuracy    <       0.00000336 Ry

     The total energy is the sum of the following terms:

     one-electron contribution =    -237.29032187 Ry
     hartree contribution      =     132.69560702 Ry
     xc contribution           =     -55.61182687 Ry
     ewald contribution        =    -521.14030631 Ry
     smearing contrib. (-TS)   =      -0.06644237 Ry

     convergence has been achieved in   3 iterations

     Forces acting on atoms (Ry/au):

     atom    1 type  1   force =     0.00000000    0.00000000    0.00000000
     atom    2 type  2   force =     0.00000000    0.00000000    0.00000000

     Total force =     0.000000     Total SCF correction =     0.000000


     entering subroutine stress ...

          total   stress  (Ry/bohr**3)                   (kbar)     P=-1862.31
  -0.01246983   0.00000000   0.00000000      -1834.37      0.00      0.00
   0.00000000  -0.01246983   0.00000000          0.00  -1834.37      0.00
   0.00000000   0.00000000  -0.01303946          0.00      0.00  -1918.17


     The maximum number of steps has been reached.

     End of BFGS Geometry Optimization
Begin final coordinates
     new unit-cell volume =    317.90401 a.u.^3 (    47.10851 Ang^3 )

CELL_PARAMETERS (alat=  5.41249258)
   1.161129653   0.000000000   0.000000000
   0.000000000   1.161129653   0.000000000
   0.000000000   0.000000000   1.487108409

ATOMIC_POSITIONS (crystal)
Cu       0.500000000   0.500000000   0.500000000
Au       0.000000000   0.000000000   0.000000000
End final coordinates



     A final scf calculation at the relaxed structure.
     The G-vectors are recalculated for the final unit cell
     Results may differ from those at the preceding step.
 
     Parallelization info
     --------------------
     sticks:   dense  smooth     PW     G-vecs:    dense   smooth      PW
     Min         125     125     37                 2718     2718     469
     Max         128     128     38                 2719     2719     472
     Sum         505     505    149                10873    10873    1879
 


     bravais-lattice index     =            0
     lattice parameter (alat)  =       5.4125  a.u.
     unit-cell volume          =     317.9040 (a.u.)^3
     number of atoms/cell      =            2
     number of atomic types    =            2
     number of electrons       =        44.00
     number of Kohn-Sham states=           26
     kinetic-energy cutoff     =      40.0000  Ry
     charge density cutoff     =     160.0000  Ry
     convergence threshold     =      1.0E-04
     mixing beta               =       0.7000
     number of iterations used =            8  plain     mixing
     Exchange-correlation      = SLA-PZ-NOGX-NOGC ( 1 1 0 0 0)
     EXX-fraction              =        0.00

     celldm(1)=   5.412493  celldm(2)=   0.000000  celldm(3)=   0.000000
     celldm(4)=   0.000000  celldm(5)=   0.000000  celldm(6)=   0.000000

     crystal axes: (cart. coord. in units of alat)
               a(1) = (   1.161130   0.000000   0.000000 )  
               a(2) = (   0.000000   1.161130   0.000000 )  
               a(3) = (   0.000000   0.000000   1.487108 )  

     reciprocal axes: (cart. coord. in units 2 pi/alat)
               b(1) = (  0.861230  0.000000  0.000000 )  
               b(2) = (  0.000000  0.861230  0.000000 )  
               b(3) = (  0.000000  0.000000  0.672446 )  


     PseudoPot. # 1 for Tb read from file:
     /home/cwx6513/pp.La/Tb.UPF
     MD5 check sum: 3d6088a3f0cf7fd2e110c43f7f8e95c2
     Pseudo is Norm-conserving, Zval = 19.0
     Generated in analytical, separable form
     Using radial grid of 1263 points,  6 beta functions with: 
                l(1) =   0
                l(2) =   0
                l(3) =   1
                l(4) =   1
                l(5) =   2
                l(6) =   3

     PseudoPot. # 2 for Lu read from file:
     /home/cwx6513/pp.La/La.UPF
     MD5 check sum: 4fc038260c66a0bf25fb4835376efb80
     Pseudo is Norm-conserving, Zval = 25.0
     Generated in analytical, separable form
     Using radial grid of 1271 points,  6 beta functions with: 
                l(1) =   0
                l(2) =   0
                l(3) =   1
                l(4) =   1
                l(5) =   2
                l(6) =   3

     atomic species   valence    mass     pseudopotential
        Cu            19.00    63.54600     Tb( 1.00)
        Au            25.00   196.96600     Lu( 1.00)

     16 Sym. Ops., with inversion, found



   Cartesian axes

     site n.     atom                  positions (alat units)
         1           Cu  tau(   1) = (   0.5805648   0.5805648   0.7435542  )
         2           Au  tau(   2) = (   0.0000000   0.0000000   0.0000000  )

     number of k points=   100  gaussian smearing, width (Ry)=  0.1000

     Number of k-points >= 100: set verbosity='high' to print them.

     Dense  grid:    10873 G-vectors     FFT dimensions: (  25,  25,  36)

     Largest allocated arrays     est. size (Mb)     dimensions
        Kohn-Sham Wavefunctions         0.14 Mb     (    348,   26)
        NL pseudopotentials             0.21 Mb     (    348,   40)
        Each V/rho on FFT grid          0.09 Mb     (   5625)
        Each G-vector array             0.02 Mb     (   2718)
        G-vector shells                 0.01 Mb     (    742)
     Largest temporary arrays     est. size (Mb)     dimensions
        Each subspace H/S matrix        0.01 Mb     (  26,  26)
        Each <psi_i|beta_j> matrix      0.02 Mb     (     40,   26)
        Arrays for rho mixing           0.69 Mb     (   5625,   8)

     Initial potential from superposition of free atoms

     Starting from uniform charge
     Starting wfc are    0 randomized atomic wfcs

     Writing output data file Prototype-La-tP2-AuCu.save

     total cpu time spent up to now is      235.8 secs

     Self-consistent Calculation

     iteration #  1     ecut=    40.00 Ry     beta=0.70
     CG style diagonalization
     c_bands:  1 eigenvalues not converged
     c_bands:  1 eigenvalues not converged
     c_bands:  1 eigenvalues not converged
     c_bands:  1 eigenvalues not converged
     c_bands:  1 eigenvalues not converged
     c_bands:  1 eigenvalues not converged
     c_bands:  1 eigenvalues not converged
     c_bands:  1 eigenvalues not converged
     c_bands:  1 eigenvalues not converged
     c_bands:  1 eigenvalues not converged
     c_bands:  1 eigenvalues not converged
     c_bands:  1 eigenvalues not converged
     c_bands:  1 eigenvalues not converged
     c_bands:  1 eigenvalues not converged
     c_bands:  1 eigenvalues not converged
     c_bands:  1 eigenvalues not converged
     c_bands:  1 eigenvalues not converged
     c_bands:  1 eigenvalues not converged
     c_bands:  1 eigenvalues not converged
     c_bands:  1 eigenvalues not converged
     c_bands:  1 eigenvalues not converged
     c_bands:  1 eigenvalues not converged
     c_bands:  1 eigenvalues not converged
     c_bands:  1 eigenvalues not converged
     c_bands:  1 eigenvalues not converged
     c_bands:  1 eigenvalues not converged
     c_bands:  1 eigenvalues not converged
     c_bands:  1 eigenvalues not converged
     c_bands:  1 eigenvalues not converged
     c_bands:  1 eigenvalues not converged
     c_bands:  1 eigenvalues not converged
     c_bands:  1 eigenvalues not converged
     c_bands:  1 eigenvalues not converged
     c_bands:  1 eigenvalues not converged
     c_bands:  1 eigenvalues not converged
     c_bands:  4 eigenvalues not converged
     c_bands:  1 eigenvalues not converged
     c_bands:  1 eigenvalues not converged
     c_bands:  1 eigenvalues not converged
     c_bands:  1 eigenvalues not converged
     c_bands:  1 eigenvalues not converged
     c_bands:  1 eigenvalues not converged
     c_bands:  1 eigenvalues not converged
     c_bands:  1 eigenvalues not converged
     c_bands:  1 eigenvalues not converged
     c_bands:  1 eigenvalues not converged
     c_bands:  1 eigenvalues not converged
     c_bands:  1 eigenvalues not converged
     c_bands:  1 eigenvalues not converged
     c_bands:  1 eigenvalues not converged
     c_bands:  2 eigenvalues not converged
     c_bands:  1 eigenvalues not converged
     c_bands:  1 eigenvalues not converged
     c_bands:  1 eigenvalues not converged
     c_bands:  1 eigenvalues not converged
     c_bands:  1 eigenvalues not converged
     c_bands:  1 eigenvalues not converged
     c_bands:  1 eigenvalues not converged
     c_bands:  1 eigenvalues not converged
     c_bands:  1 eigenvalues not converged
     c_bands:  1 eigenvalues not converged
     c_bands:  1 eigenvalues not converged
     c_bands:  1 eigenvalues not converged
     c_bands:  1 eigenvalues not converged
     c_bands:  1 eigenvalues not converged
     c_bands:  1 eigenvalues not converged
     c_bands:  1 eigenvalues not converged
     c_bands:  1 eigenvalues not converged
     c_bands:  1 eigenvalues not converged
     c_bands:  1 eigenvalues not converged
     c_bands:  1 eigenvalues not converged
     c_bands:  1 eigenvalues not converged
     c_bands:  1 eigenvalues not converged
     c_bands:  1 eigenvalues not converged
     c_bands:  1 eigenvalues not converged
     c_bands:  1 eigenvalues not converged
     c_bands:  1 eigenvalues not converged
     c_bands:  1 eigenvalues not converged
     c_bands:  1 eigenvalues not converged
     c_bands:  1 eigenvalues not converged
     c_bands:  1 eigenvalues not converged
     c_bands:  1 eigenvalues not converged
     c_bands:  1 eigenvalues not converged
     c_bands:  1 eigenvalues not converged
     c_bands:  1 eigenvalues not converged
     c_bands:  1 eigenvalues not converged
     c_bands:  1 eigenvalues not converged
     c_bands:  1 eigenvalues not converged
     c_bands:  1 eigenvalues not converged
     c_bands:  1 eigenvalues not converged
     c_bands:  1 eigenvalues not converged
     c_bands:  1 eigenvalues not converged
     c_bands:  1 eigenvalues not converged
     c_bands:  1 eigenvalues not converged
     c_bands:  1 eigenvalues not converged
     c_bands:  1 eigenvalues not converged
     c_bands:  1 eigenvalues not converged
     c_bands:  1 eigenvalues not converged
     c_bands:  1 eigenvalues not converged
     c_bands:  1 eigenvalues not converged
     ethr =  1.00E-06,  avg # of iterations = 46.3

     total cpu time spent up to now is      338.4 secs

     total energy              =    -464.21049003 Ry
     Harris-Foulkes estimate   =    -929.66689791 Ry
     estimated scf accuracy    <     560.63756941 Ry

     iteration #  2     ecut=    40.00 Ry     beta=0.70
     CG style diagonalization
     c_bands:  2 eigenvalues not converged
     c_bands:  1 eigenvalues not converged
     c_bands:  1 eigenvalues not converged
     c_bands:  1 eigenvalues not converged
     c_bands:  2 eigenvalues not converged
     c_bands:  1 eigenvalues not converged
     c_bands:  1 eigenvalues not converged
     c_bands:  1 eigenvalues not converged
     c_bands:  2 eigenvalues not converged
     c_bands:  2 eigenvalues not converged
     c_bands:  1 eigenvalues not converged
     c_bands:  1 eigenvalues not converged
     c_bands:  1 eigenvalues not converged
     c_bands:  2 eigenvalues not converged
     c_bands:  1 eigenvalues not converged
     c_bands:  1 eigenvalues not converged
     c_bands:  1 eigenvalues not converged
     c_bands:  1 eigenvalues not converged
     c_bands:  2 eigenvalues not converged
     c_bands:  1 eigenvalues not converged
     c_bands:  2 eigenvalues not converged
     c_bands:  2 eigenvalues not converged
     c_bands:  2 eigenvalues not converged
     c_bands:  2 eigenvalues not converged
     c_bands:  4 eigenvalues not converged
     c_bands:  5 eigenvalues not converged
     c_bands:  2 eigenvalues not converged
     c_bands:  4 eigenvalues not converged
     c_bands:  3 eigenvalues not converged
     c_bands:  1 eigenvalues not converged
     c_bands:  2 eigenvalues not converged
     c_bands:  1 eigenvalues not converged
     c_bands:  1 eigenvalues not converged
     c_bands:  1 eigenvalues not converged
     c_bands:  3 eigenvalues not converged
     c_bands:  3 eigenvalues not converged
     c_bands:  1 eigenvalues not converged
     c_bands:  2 eigenvalues not converged
     c_bands:  1 eigenvalues not converged
     c_bands:  2 eigenvalues not converged
     c_bands:  1 eigenvalues not converged
     c_bands:  1 eigenvalues not converged
     c_bands:  1 eigenvalues not converged
     c_bands:  1 eigenvalues not converged
     c_bands:  1 eigenvalues not converged
     c_bands:  1 eigenvalues not converged
     c_bands:  1 eigenvalues not converged
     c_bands:  1 eigenvalues not converged
     c_bands:  1 eigenvalues not converged
     c_bands:  2 eigenvalues not converged
     c_bands:  3 eigenvalues not converged
     c_bands:  2 eigenvalues not converged
     c_bands:  1 eigenvalues not converged
     c_bands:  1 eigenvalues not converged
     c_bands:  2 eigenvalues not converged
     c_bands:  2 eigenvalues not converged
     c_bands:  1 eigenvalues not converged
     c_bands:  2 eigenvalues not converged
     c_bands:  1 eigenvalues not converged
     c_bands:  2 eigenvalues not converged
     c_bands:  1 eigenvalues not converged
     c_bands:  1 eigenvalues not converged
     c_bands:  1 eigenvalues not converged
     ethr =  1.00E-02,  avg # of iterations = 12.4

     total cpu time spent up to now is      366.8 secs

     total energy              =    -514.53233478 Ry
     Harris-Foulkes estimate   =    -889.14568259 Ry
     estimated scf accuracy    <     719.67752747 Ry

     iteration #  3     ecut=    40.00 Ry     beta=0.70
     CG style diagonalization
     ethr =  1.00E-02,  avg # of iterations = 10.8

     total cpu time spent up to now is      391.7 secs

     total energy              =    -668.90418642 Ry
     Harris-Foulkes estimate   =    -695.87664003 Ry
     estimated scf accuracy    <      53.83975336 Ry

     iteration #  4     ecut=    40.00 Ry     beta=0.70
     CG style diagonalization
     ethr =  1.00E-02,  avg # of iterations =  6.3

     total cpu time spent up to now is      406.6 secs

     total energy              =    -682.79223460 Ry
     Harris-Foulkes estimate   =    -684.13989686 Ry
     estimated scf accuracy    <       3.41683138 Ry

     iteration #  5     ecut=    40.00 Ry     beta=0.70
     CG style diagonalization
     ethr =  7.77E-03,  avg # of iterations =  3.2

     total cpu time spent up to now is      414.3 secs

     total energy              =    -682.78720134 Ry
     Harris-Foulkes estimate   =    -683.13189229 Ry
     estimated scf accuracy    <       0.59686092 Ry

     iteration #  6     ecut=    40.00 Ry     beta=0.70
     CG style diagonalization
     ethr =  1.36E-03,  avg # of iterations =  3.7

     total cpu time spent up to now is      423.1 secs

     total energy              =    -682.94369118 Ry
     Harris-Foulkes estimate   =    -682.96425956 Ry
     estimated scf accuracy    <       0.03238483 Ry

     iteration #  7     ecut=    40.00 Ry     beta=0.70
     CG style diagonalization
     c_bands:  1 eigenvalues not converged
     c_bands:  1 eigenvalues not converged
     c_bands:  1 eigenvalues not converged
     c_bands:  1 eigenvalues not converged
     ethr =  7.36E-05,  avg # of iterations =  4.4

     total cpu time spent up to now is      434.5 secs

     total energy              =    -682.95728911 Ry
     Harris-Foulkes estimate   =    -682.96099137 Ry
     estimated scf accuracy    <       0.00568438 Ry

     iteration #  8     ecut=    40.00 Ry     beta=0.70
     CG style diagonalization
     c_bands:  1 eigenvalues not converged
     c_bands:  1 eigenvalues not converged
     c_bands:  1 eigenvalues not converged
     ethr =  1.29E-05,  avg # of iterations =  3.8

     total cpu time spent up to now is      444.9 secs

     total energy              =    -682.95895914 Ry
     Harris-Foulkes estimate   =    -682.96000853 Ry
     estimated scf accuracy    <       0.00188648 Ry

     iteration #  9     ecut=    40.00 Ry     beta=0.70
     CG style diagonalization
     ethr =  4.29E-06,  avg # of iterations =  3.5

     total cpu time spent up to now is      453.2 secs

     End of self-consistent calculation

     Number of k-points >= 100: set verbosity='high' to print the bands.

     the Fermi energy is    23.7989 ev

!    total energy              =    -682.95943212 Ry
     Harris-Foulkes estimate   =    -682.95945805 Ry
     estimated scf accuracy    <       0.00003367 Ry

     The total energy is the sum of the following terms:

     one-electron contribution =    -239.79193597 Ry
     hartree contribution      =     133.83941961 Ry
     xc contribution           =     -55.79796516 Ry
     ewald contribution        =    -521.14029171 Ry
     smearing contrib. (-TS)   =      -0.06865889 Ry

     convergence has been achieved in   9 iterations

     Forces acting on atoms (Ry/au):

     atom    1 type  1   force =     0.00000000    0.00000000    0.00000000
     atom    2 type  2   force =     0.00000000    0.00000000    0.00000000

     Total force =     0.000000     Total SCF correction =     0.000000


     entering subroutine stress ...

          total   stress  (Ry/bohr**3)                   (kbar)     P= -545.87
  -0.00355801   0.00000000   0.00000000       -523.40      0.00      0.00
   0.00000000  -0.00355801   0.00000000          0.00   -523.40      0.00
   0.00000000   0.00000000  -0.00401624          0.00      0.00   -590.81


     Writing output data file Prototype-La-tP2-AuCu.save
 
     init_run     :      3.63s CPU      4.18s WALL (       2 calls)
     electrons    :    399.31s CPU    438.59s WALL (       5 calls)
     update_pot   :      1.26s CPU      1.31s WALL (       3 calls)
     forces       :      1.88s CPU      2.00s WALL (       5 calls)
     stress       :      4.61s CPU      4.78s WALL (       5 calls)

     Called by init_run:
     wfcinit      :      3.05s CPU      3.55s WALL (       2 calls)
     potinit      :      0.23s CPU      0.23s WALL (       2 calls)

     Called by electrons:
     c_bands      :    382.49s CPU    408.02s WALL (      32 calls)
     sum_band     :     16.58s CPU     17.70s WALL (      32 calls)
     v_of_rho     :      0.04s CPU      0.04s WALL (      37 calls)
     mix_rho      :      0.03s CPU      0.04s WALL (      32 calls)

     Called by c_bands:
     init_us_2    :      2.10s CPU      2.50s WALL (    7600 calls)
     ccgdiagg     :    337.00s CPU    356.25s WALL (    3454 calls)
     wfcrot       :     46.47s CPU     51.63s WALL (    3554 calls)

     Called by *cgdiagg:
     h_psi        :    266.96s CPU    288.48s WALL (  506999 calls)
     cdiaghg      :      2.15s CPU      2.45s WALL (    3554 calls)

     Called by h_psi:
     add_vuspsi   :     10.52s CPU     15.48s WALL (  506999 calls)

     General routines
     calbec       :     54.67s CPU     56.13s WALL ( 1011444 calls)
     fft          :      0.10s CPU      0.12s WALL (     171 calls)
     fftw         :    222.30s CPU    227.16s WALL ( 1274898 calls)
     davcio       :      1.35s CPU      2.71s WALL (   10800 calls)
 
     Parallel routines
     fft_scatter  :     90.07s CPU     90.84s WALL ( 1275069 calls)
 
     PWSCF        :  6m52.68s CPU     7m35.81s WALL

 
   This run was terminated on:  17:42:33  22Mar2018            

=------------------------------------------------------------------------------=
   JOB DONE.
=------------------------------------------------------------------------------=
