
     Program PWSCF v.5.0.2 starts on 22Mar2018 at 17:34:55 

     This program is part of the open-source Quantum ESPRESSO suite
     for quantum simulation of materials; please cite
         "P. Giannozzi et al., J. Phys.:Condens. Matter 21 395502 (2009);
          URL http://www.quantum-espresso.org", 
     in publications or presentations arising from this work. More details at
     http://www.quantum-espresso.org/quote.php

     Parallel version (MPI), running on     4 processors
     R & G space division:  proc/nbgrp/npool/nimage =       4

     Current dimensions of program PWSCF are:
     Max number of different atomic species (ntypx) = 10
     Max number of k-points (npk) =  40000
     Max angular momentum in pseudopotentials (lmaxx) =  3
     Waiting for input...
     Reading input from standard input

     Subspace diagonalization in iterative solution of the eigenvalue problem:
     a serial algorithm will be used

 
     Parallelization info
     --------------------
     sticks:   dense  smooth     PW     G-vecs:    dense   smooth      PW
     Min         396     396    112                10116    10116    1566
     Max         397     397    113                10119    10119    1567
     Sum        1585    1585    451                40467    40467    6267
 


     bravais-lattice index     =            0
     lattice parameter (alat)  =      12.0168  a.u.
     unit-cell volume          =    1187.3413 (a.u.)^3
     number of atoms/cell      =            8
     number of atomic types    =            2
     number of electrons       =       164.00
     number of Kohn-Sham states=           98
     kinetic-energy cutoff     =      40.0000  Ry
     charge density cutoff     =     160.0000  Ry
     convergence threshold     =      1.0E-04
     mixing beta               =       0.7000
     number of iterations used =            8  plain     mixing
     Exchange-correlation      = SLA-PZ-NOGX-NOGC ( 1 1 0 0 0)
     EXX-fraction              =        0.00
     nstep                     =           50


     celldm(1)=  12.016801  celldm(2)=   0.000000  celldm(3)=   0.000000
     celldm(4)=   0.000000  celldm(5)=   0.000000  celldm(6)=   0.000000

     crystal axes: (cart. coord. in units of alat)
               a(1) = (   1.000000   0.000000   0.000000 )  
               a(2) = (  -0.500000   0.866025   0.000000 )  
               a(3) = (   0.000000   0.000000   0.790093 )  

     reciprocal axes: (cart. coord. in units 2 pi/alat)
               b(1) = (  1.000000  0.577350  0.000000 )  
               b(2) = (  0.000000  1.154701  0.000000 )  
               b(3) = (  0.000000  0.000000  1.265674 )  


     PseudoPot. # 1 for Tb read from file:
     /home/cwx6513/pp.La/Tb.UPF
     MD5 check sum: 3d6088a3f0cf7fd2e110c43f7f8e95c2
     Pseudo is Norm-conserving, Zval = 19.0
     Generated in analytical, separable form
     Using radial grid of 1263 points,  6 beta functions with: 
                l(1) =   0
                l(2) =   0
                l(3) =   1
                l(4) =   1
                l(5) =   2
                l(6) =   3

     PseudoPot. # 2 for Lu read from file:
     /home/cwx6513/pp.La/La.UPF
     MD5 check sum: 4fc038260c66a0bf25fb4835376efb80
     Pseudo is Norm-conserving, Zval = 25.0
     Generated in analytical, separable form
     Using radial grid of 1271 points,  6 beta functions with: 
                l(1) =   0
                l(2) =   0
                l(3) =   1
                l(4) =   1
                l(5) =   2
                l(6) =   3

     atomic species   valence    mass     pseudopotential
        Mg            19.00    24.30500     Tb( 1.00)
        Cd            25.00   112.41100     Lu( 1.00)

     24 Sym. Ops., with inversion, found (12 have fractional translation)



   Cartesian axes

     site n.     atom                  positions (alat units)
         1           Mg  tau(   1) = (   0.2478935   0.7204716   0.1975233  )
         2           Mg  tau(   2) = (   0.7478935   0.1455538   0.5925699  )
         3           Mg  tau(   3) = (   0.2521065   0.1455538   0.5925699  )
         4           Mg  tau(   4) = (  -0.2478935   0.7204716   0.1975233  )
         5           Mg  tau(   5) = (   0.0000000   0.2911075   0.1975233  )
         6           Mg  tau(   6) = (   0.5000000   0.5749179   0.5925699  )
         7           Cd  tau(   7) = (   0.5000005   0.2886748   0.1975233  )
         8           Cd  tau(   8) = (  -0.0000005   0.5773506   0.5925699  )

     number of k points=    64  gaussian smearing, width (Ry)=  0.1000
                       cart. coord. in units 2pi/alat
        k(    1) = (   0.0000000   0.0000000   0.0000000), wk =   0.0095238
        k(    2) = (   0.0000000   0.0000000   0.1808105), wk =   0.0190476
        k(    3) = (   0.0000000   0.0000000   0.3616210), wk =   0.0190476
        k(    4) = (   0.0000000   0.0000000   0.5424315), wk =   0.0190476
        k(    5) = (   0.0000000   0.1924501   0.0000000), wk =   0.0190476
        k(    6) = (   0.0000000   0.1924501   0.1808105), wk =   0.0380952
        k(    7) = (   0.0000000   0.1924501   0.3616210), wk =   0.0380952
        k(    8) = (   0.0000000   0.1924501   0.5424315), wk =   0.0380952
        k(    9) = (   0.0000000   0.3849002   0.0000000), wk =   0.0190476
        k(   10) = (   0.0000000   0.3849002   0.1808105), wk =   0.0380952
        k(   11) = (   0.0000000   0.3849002   0.3616210), wk =   0.0380952
        k(   12) = (   0.0000000   0.3849002   0.5424315), wk =   0.0380952
        k(   13) = (   0.0000000  -0.5773503   0.0000000), wk =   0.0095238
        k(   14) = (   0.0000000  -0.5773503   0.1808105), wk =   0.0190476
        k(   15) = (   0.0000000  -0.5773503   0.3616210), wk =   0.0190476
        k(   16) = (   0.0000000  -0.5773503   0.5424315), wk =   0.0190476
        k(   17) = (   0.2000000   0.1154701   0.0000000), wk =   0.0190476
        k(   18) = (   0.2000000   0.1154701   0.1808105), wk =   0.0380952
        k(   19) = (   0.2000000   0.1154701   0.3616210), wk =   0.0380952
        k(   20) = (   0.2000000   0.1154701   0.5424315), wk =   0.0380952
        k(   21) = (   0.2000000   0.3079201   0.0000000), wk =   0.0190476
        k(   22) = (   0.2000000   0.3079201   0.1808105), wk =   0.0380952
        k(   23) = (   0.2000000   0.3079201   0.3616210), wk =   0.0380952
        k(   24) = (   0.2000000   0.3079201   0.5424315), wk =   0.0380952
        k(   25) = (   0.2000000   0.5003702   0.0000000), wk =   0.0190476
        k(   26) = (   0.2000000   0.5003702   0.1808105), wk =   0.0380952
        k(   27) = (   0.2000000   0.5003702   0.3616210), wk =   0.0380952
        k(   28) = (   0.2000000   0.5003702   0.5424315), wk =   0.0380952
        k(   29) = (   0.2000000  -0.4618802   0.0000000), wk =   0.0190476
        k(   30) = (   0.2000000  -0.4618802   0.1808105), wk =   0.0380952
        k(   31) = (   0.2000000  -0.4618802   0.3616210), wk =   0.0380952
        k(   32) = (   0.2000000  -0.4618802   0.5424315), wk =   0.0380952
        k(   33) = (   0.2000000  -0.2694301   0.0000000), wk =   0.0190476
        k(   34) = (   0.2000000  -0.2694301   0.1808105), wk =   0.0380952
        k(   35) = (   0.2000000  -0.2694301   0.3616210), wk =   0.0380952
        k(   36) = (   0.2000000  -0.2694301   0.5424315), wk =   0.0380952
        k(   37) = (   0.2000000  -0.0769800   0.0000000), wk =   0.0190476
        k(   38) = (   0.2000000  -0.0769800   0.1808105), wk =   0.0380952
        k(   39) = (   0.2000000  -0.0769800   0.3616210), wk =   0.0380952
        k(   40) = (   0.2000000  -0.0769800   0.5424315), wk =   0.0380952
        k(   41) = (   0.4000000   0.2309401   0.0000000), wk =   0.0190476
        k(   42) = (   0.4000000   0.2309401   0.1808105), wk =   0.0380952
        k(   43) = (   0.4000000   0.2309401   0.3616210), wk =   0.0380952
        k(   44) = (   0.4000000   0.2309401   0.5424315), wk =   0.0380952
        k(   45) = (   0.4000000   0.4233902   0.0000000), wk =   0.0190476
        k(   46) = (   0.4000000   0.4233902   0.1808105), wk =   0.0380952
        k(   47) = (   0.4000000   0.4233902   0.3616210), wk =   0.0380952
        k(   48) = (   0.4000000   0.4233902   0.5424315), wk =   0.0380952
        k(   49) = (   0.4000000   0.6158403   0.0000000), wk =   0.0190476
        k(   50) = (   0.4000000   0.6158403   0.1808105), wk =   0.0380952
        k(   51) = (   0.4000000   0.6158403   0.3616210), wk =   0.0380952
        k(   52) = (   0.4000000   0.6158403   0.5424315), wk =   0.0380952
        k(   53) = (   0.4000000  -0.3464102   0.0000000), wk =   0.0190476
        k(   54) = (   0.4000000  -0.3464102   0.1808105), wk =   0.0380952
        k(   55) = (   0.4000000  -0.3464102   0.3616210), wk =   0.0380952
        k(   56) = (   0.4000000  -0.3464102   0.5424315), wk =   0.0380952
        k(   57) = (   0.4000000  -0.1539601   0.0000000), wk =   0.0190476
        k(   58) = (   0.4000000  -0.1539601   0.1808105), wk =   0.0380952
        k(   59) = (   0.4000000  -0.1539601   0.3616210), wk =   0.0380952
        k(   60) = (   0.4000000  -0.1539601   0.5424315), wk =   0.0380952
        k(   61) = (   0.4000000   0.0384900   0.0000000), wk =   0.0190476
        k(   62) = (   0.4000000   0.0384900   0.1808105), wk =   0.0380952
        k(   63) = (   0.4000000   0.0384900   0.3616210), wk =   0.0380952
        k(   64) = (   0.4000000   0.0384900   0.5424315), wk =   0.0380952

     Dense  grid:    40467 G-vectors     FFT dimensions: (  50,  50,  40)

     Largest allocated arrays     est. size (Mb)     dimensions
        Kohn-Sham Wavefunctions         1.94 Mb     (   1298,   98)
        NL pseudopotentials             3.17 Mb     (   1298,  160)
        Each V/rho on FFT grid          0.38 Mb     (  25000)
        Each G-vector array             0.08 Mb     (  10119)
        G-vector shells                 0.08 Mb     (  10119)
     Largest temporary arrays     est. size (Mb)     dimensions
        Each subspace H/S matrix        0.15 Mb     (  98,  98)
        Each <psi_i|beta_j> matrix      0.24 Mb     (    160,   98)
        Arrays for rho mixing           3.05 Mb     (  25000,   8)

     Initial potential from superposition of free atoms

     Starting from uniform charge
     Starting wfc are    0 randomized atomic wfcs

     total cpu time spent up to now is       11.8 secs

     Self-consistent Calculation

     iteration #  1     ecut=    40.00 Ry     beta=0.70
     CG style diagonalization
     ethr =  1.00E-02,  avg # of iterations = 17.8

     total cpu time spent up to now is      258.9 secs

     total energy              =   -1698.41583150 Ry
     Harris-Foulkes estimate   =   -3007.21071501 Ry
     estimated scf accuracy    <    1587.42183149 Ry

     iteration #  2     ecut=    40.00 Ry     beta=0.70
     CG style diagonalization
     c_bands:  2 eigenvalues not converged
     c_bands:  5 eigenvalues not converged
     c_bands:  3 eigenvalues not converged
     c_bands:  4 eigenvalues not converged
     c_bands:  3 eigenvalues not converged
     c_bands:  1 eigenvalues not converged
     c_bands:  2 eigenvalues not converged
     c_bands:  2 eigenvalues not converged
     c_bands:  1 eigenvalues not converged
     c_bands:  2 eigenvalues not converged
     c_bands:  3 eigenvalues not converged
     c_bands:  2 eigenvalues not converged
     c_bands:  3 eigenvalues not converged
     c_bands:  2 eigenvalues not converged
     c_bands:  2 eigenvalues not converged
     c_bands:  1 eigenvalues not converged
     c_bands:  3 eigenvalues not converged
     c_bands:  3 eigenvalues not converged
     c_bands:  2 eigenvalues not converged
     c_bands:  2 eigenvalues not converged
     c_bands:  4 eigenvalues not converged
     c_bands:  1 eigenvalues not converged
     c_bands:  1 eigenvalues not converged
     c_bands:  3 eigenvalues not converged
     c_bands:  4 eigenvalues not converged
     c_bands:  3 eigenvalues not converged
     c_bands:  2 eigenvalues not converged
     c_bands:  1 eigenvalues not converged
     c_bands:  1 eigenvalues not converged
     c_bands:  3 eigenvalues not converged
     c_bands:  2 eigenvalues not converged
     c_bands:  2 eigenvalues not converged
     c_bands:  1 eigenvalues not converged
     c_bands:  2 eigenvalues not converged
     c_bands:  1 eigenvalues not converged
     c_bands:  1 eigenvalues not converged
     c_bands:  2 eigenvalues not converged
     c_bands:  1 eigenvalues not converged
     c_bands:  1 eigenvalues not converged
     c_bands:  3 eigenvalues not converged
     c_bands:  1 eigenvalues not converged
     c_bands:  1 eigenvalues not converged
     c_bands:  3 eigenvalues not converged
     c_bands:  2 eigenvalues not converged
     c_bands:  1 eigenvalues not converged
     c_bands:  2 eigenvalues not converged
     c_bands:  4 eigenvalues not converged
     c_bands:  4 eigenvalues not converged
     c_bands:  1 eigenvalues not converged
     c_bands:  3 eigenvalues not converged
     ethr =  1.00E-02,  avg # of iterations = 11.0

     total cpu time spent up to now is      416.5 secs

     total energy              =   -1937.00504477 Ry
     Harris-Foulkes estimate   =   -2764.16007079 Ry
     estimated scf accuracy    <    1449.12009654 Ry

     iteration #  3     ecut=    40.00 Ry     beta=0.70
     CG style diagonalization
     c_bands:  1 eigenvalues not converged
     c_bands:  1 eigenvalues not converged
     c_bands:  1 eigenvalues not converged
     c_bands:  1 eigenvalues not converged
     c_bands:  1 eigenvalues not converged
     c_bands:  1 eigenvalues not converged
     c_bands:  1 eigenvalues not converged
     c_bands:  3 eigenvalues not converged
     c_bands:  1 eigenvalues not converged
     c_bands:  1 eigenvalues not converged
     c_bands:  2 eigenvalues not converged
     c_bands:  3 eigenvalues not converged
     c_bands:  1 eigenvalues not converged
     c_bands:  1 eigenvalues not converged
     c_bands:  1 eigenvalues not converged
     c_bands:  2 eigenvalues not converged
     c_bands:  2 eigenvalues not converged
     c_bands:  2 eigenvalues not converged
     c_bands:  1 eigenvalues not converged
     c_bands:  1 eigenvalues not converged
     c_bands:  2 eigenvalues not converged
     c_bands:  1 eigenvalues not converged
     c_bands:  1 eigenvalues not converged
     c_bands:  2 eigenvalues not converged
     ethr =  1.00E-02,  avg # of iterations = 12.5

     total cpu time spent up to now is      589.8 secs

     total energy              =   -2229.69333288 Ry
     Harris-Foulkes estimate   =   -2339.03665217 Ry
     estimated scf accuracy    <     225.52025614 Ry

     iteration #  4     ecut=    40.00 Ry     beta=0.70
     CG style diagonalization
     ethr =  1.00E-02,  avg # of iterations =  6.4

     total cpu time spent up to now is      679.5 secs

     total energy              =   -2280.64800888 Ry
     Harris-Foulkes estimate   =   -2289.47724913 Ry
     estimated scf accuracy    <      17.56075925 Ry

     iteration #  5     ecut=    40.00 Ry     beta=0.70
     CG style diagonalization
     ethr =  1.00E-02,  avg # of iterations =  3.4

     total cpu time spent up to now is      724.6 secs

     total energy              =   -2283.45660163 Ry
     Harris-Foulkes estimate   =   -2283.69574661 Ry
     estimated scf accuracy    <       0.52310062 Ry

     iteration #  6     ecut=    40.00 Ry     beta=0.70
     CG style diagonalization
     c_bands:  1 eigenvalues not converged
     c_bands:  2 eigenvalues not converged
     c_bands:  1 eigenvalues not converged
     c_bands:  1 eigenvalues not converged
     c_bands:  1 eigenvalues not converged
     c_bands:  1 eigenvalues not converged
     c_bands:  1 eigenvalues not converged
     ethr =  3.19E-04,  avg # of iterations =  4.8

     total cpu time spent up to now is      790.3 secs

     total energy              =   -2283.57637315 Ry
     Harris-Foulkes estimate   =   -2283.75824238 Ry
     estimated scf accuracy    <       0.25303746 Ry

     iteration #  7     ecut=    40.00 Ry     beta=0.70
     CG style diagonalization
     ethr =  1.54E-04,  avg # of iterations =  3.9

     total cpu time spent up to now is      841.6 secs

     total energy              =   -2283.60542785 Ry
     Harris-Foulkes estimate   =   -2283.76713274 Ry
     estimated scf accuracy    <       0.26810869 Ry

     iteration #  8     ecut=    40.00 Ry     beta=0.70
     CG style diagonalization
     ethr =  1.54E-04,  avg # of iterations =  3.4

     total cpu time spent up to now is      887.2 secs

     total energy              =   -2283.67394434 Ry
     Harris-Foulkes estimate   =   -2283.67698397 Ry
     estimated scf accuracy    <       0.00538554 Ry

     iteration #  9     ecut=    40.00 Ry     beta=0.70
     CG style diagonalization
     c_bands:  1 eigenvalues not converged
     c_bands:  1 eigenvalues not converged
     c_bands:  1 eigenvalues not converged
     c_bands:  1 eigenvalues not converged
     c_bands:  1 eigenvalues not converged
     c_bands:  1 eigenvalues not converged
     c_bands:  1 eigenvalues not converged
     c_bands:  1 eigenvalues not converged
     c_bands:  2 eigenvalues not converged
     c_bands:  1 eigenvalues not converged
     c_bands:  1 eigenvalues not converged
     c_bands:  1 eigenvalues not converged
     c_bands:  2 eigenvalues not converged
     c_bands:  1 eigenvalues not converged
     c_bands:  1 eigenvalues not converged
     c_bands:  1 eigenvalues not converged
     c_bands:  2 eigenvalues not converged
     c_bands:  2 eigenvalues not converged
     c_bands:  1 eigenvalues not converged
     c_bands:  1 eigenvalues not converged
     ethr =  3.28E-06,  avg # of iterations =  4.5

     total cpu time spent up to now is      947.5 secs

     total energy              =   -2283.67575441 Ry
     Harris-Foulkes estimate   =   -2283.67599427 Ry
     estimated scf accuracy    <       0.00042991 Ry

     iteration # 10     ecut=    40.00 Ry     beta=0.70
     CG style diagonalization
     c_bands:  1 eigenvalues not converged
     c_bands:  1 eigenvalues not converged
     c_bands:  1 eigenvalues not converged
     ethr =  2.62E-07,  avg # of iterations =  4.0

     total cpu time spent up to now is      998.8 secs

     total energy              =   -2283.67586039 Ry
     Harris-Foulkes estimate   =   -2283.67600395 Ry
     estimated scf accuracy    <       0.00025237 Ry

     iteration # 11     ecut=    40.00 Ry     beta=0.70
     CG style diagonalization
     ethr =  1.54E-07,  avg # of iterations =  3.4

     total cpu time spent up to now is     1043.9 secs

     End of self-consistent calculation

          k = 0.0000 0.0000 0.0000 (  5047 PWs)   bands (ev):

  -112.7450-112.7294 -68.2485 -68.2443 -68.2219 -68.2219 -68.2146 -68.2146
   -51.5130 -51.4960 -51.4933 -51.4932 -51.4869 -51.4868 -20.0682 -20.0073
   -19.9490 -19.9399 -19.9397 -19.9297 -19.9296 -19.9116 -19.9115 -19.8498
   -19.7678 -19.7677 -19.7013 -19.6988 -19.6883 -19.6882 -19.6829 -19.6829
    -7.4348  -7.4276  -7.4231  -7.4231  -7.4120  -7.4120  -7.4025  -7.4025
    -7.3983  -7.3983   8.7450   9.4226  14.9466  15.7739  15.9054  15.9055
    15.9772  15.9772  16.0482  16.2598  16.4543  16.4544  16.5911  16.5912
    17.0782  17.5274  17.5275  17.6114  17.6115  17.7409  18.4792  18.4792
    18.6678  18.6678  18.7104  18.9795  18.9796  19.0229  19.1309  19.1309
    19.2756  19.9917  20.2693  20.2814  20.8199  20.8200  20.8433  20.8433
    22.8907  23.3527  23.9989  24.8468  24.8469  27.6670  27.7821  27.7822
    27.8947  27.8948  28.4656  28.4656  29.2652  29.2856  29.6032  29.6034
    30.8713  31.1799

          k = 0.0000 0.0000 0.1808 (  5065 PWs)   bands (ev):

  -112.7653-112.7490 -68.2471 -68.2454 -68.2253 -68.2253 -68.2213 -68.2213
   -51.5170 -51.4988 -51.4987 -51.4973 -51.4858 -51.4857 -20.0491 -20.0376
   -19.9892 -19.9892 -19.9436 -19.9275 -19.9275 -19.8864 -19.8864 -19.8311
   -19.7607 -19.7607 -19.7303 -19.7148 -19.6940 -19.6939 -19.6889 -19.6888
    -7.4335  -7.4293  -7.4231  -7.4231  -7.4147  -7.4147  -7.4019  -7.4019
    -7.4003  -7.4003   8.8044   9.4004  15.1394  15.4561  15.9749  15.9749
    16.0226  16.0398  16.0398  16.2828  16.2829  16.3050  16.6048  16.6049
    17.1935  17.5502  17.5502  17.8620  17.8620  18.0941  18.1439  18.4955
    18.4956  18.5480  18.5481  18.8766  18.8767  19.0537  19.1196  19.1196
    19.4714  19.9055  20.1520  20.2593  20.6738  20.6738  20.8783  20.8783
    21.6465  24.0458  24.9429  24.9429  25.2520  26.7389  26.7390  26.8846
    28.1284  28.1284  29.0030  29.0031  29.5855  29.9213  29.9978  29.9979
    30.5933  31.2462

          k = 0.0000 0.0000 0.3616 (  5047 PWs)   bands (ev):

  -112.7566-112.7198 -68.2410 -68.2308 -68.2261 -68.2261 -68.2203 -68.2203
   -51.5199 -51.4964 -51.4963 -51.4877 -51.4855 -51.4854 -20.0378 -20.0142
   -20.0037 -20.0036 -19.9625 -19.9625 -19.9031 -19.8199 -19.8179 -19.8179
   -19.7847 -19.7460 -19.7459 -19.7347 -19.7023 -19.7023 -19.6781 -19.6780
    -7.4302  -7.4289  -7.4233  -7.4233  -7.4160  -7.4160  -7.4021  -7.4021
    -7.3993  -7.3993   8.9573   9.3581  15.0547  15.4871  16.0649  16.0649
    16.0749  16.0750  16.0813  16.2156  16.2156  16.4153  16.6974  16.6975
    17.3234  17.4468  17.4468  17.5292  18.2446  18.2447  18.2878  18.3853
    18.3854  18.6063  18.6063  18.9182  18.9182  18.9188  18.9189  18.9699
    19.4053  20.0545  20.1142  20.2322  20.3061  20.3062  20.4722  20.8175
    20.8175  24.7192  25.1468  25.1468  25.9836  25.9836  26.3938  26.7911
    27.9341  27.9342  29.5114  29.5114  30.3312  30.3401  30.3800  30.6724
    30.6725  31.5060

          k = 0.0000 0.0000 0.5424 (  5041 PWs)   bands (ev):

  -112.7471-112.7174 -68.2418 -68.2334 -68.2221 -68.2221 -68.2185 -68.2185
   -51.5063 -51.4987 -51.4913 -51.4912 -51.4901 -51.4901 -20.0165 -20.0145
   -20.0049 -20.0049 -19.9877 -19.9876 -19.8593 -19.8074 -19.7945 -19.7856
   -19.7855 -19.7596 -19.7537 -19.7536 -19.6926 -19.6925 -19.6917 -19.6917
    -7.4296  -7.4288  -7.4227  -7.4227  -7.4192  -7.4192  -7.4005  -7.4005
    -7.3992  -7.3992   9.1376   9.2750  14.9777  15.2456  16.0033  16.0034
    16.0392  16.0393  16.4605  16.4605  16.5802  16.6846  16.6847  16.7833
    16.8939  17.6676  17.6676  17.8255  18.0560  18.0565  18.0567  18.2424
    18.2424  18.4427  18.4427  18.7165  18.9286  19.1537  19.1674  19.1675
    19.1788  19.1789  20.1026  20.1026  20.1478  20.1918  20.4477  20.4478
    21.8397  23.4128  25.3216  25.3216  25.5480  25.5480  27.7268  27.9256
    28.3774  28.3775  29.1103  29.1104  30.0962  30.2055  31.2548  31.3923
    31.3927  31.4976

          k = 0.0000 0.1925 0.0000 (  5083 PWs)   bands (ev):

  -112.7894-112.7609 -68.2538 -68.2485 -68.2308 -68.2276 -68.2222 -68.2212
   -51.5184 -51.5019 -51.4996 -51.4950 -51.4905 -51.4895 -20.0550 -20.0120
   -19.9503 -19.9450 -19.9445 -19.9443 -19.9383 -19.9120 -19.9006 -19.8599
   -19.7861 -19.7745 -19.7232 -19.7178 -19.7117 -19.7102 -19.7034 -19.6887
    -7.4335  -7.4294  -7.4244  -7.4229  -7.4145  -7.4141  -7.4030  -7.4029
    -7.4002  -7.3983   8.8229   9.4339  15.0372  15.4657  15.6878  15.8435
    15.9030  16.0148  16.1014  16.1593  16.4865  16.5267  16.5703  16.7493
    17.1520  17.3599  17.4477  17.5858  17.6504  17.8191  18.2313  18.3550
    18.5681  18.5689  18.7238  18.8979  18.9438  18.9919  19.1608  19.1985
    19.8957  20.0487  20.1307  20.2247  20.5675  20.6905  21.2038  21.7425
    22.8127  22.8986  23.5126  24.9492  26.3467  26.9018  26.9103  27.5825
    27.6695  28.0220  28.6173  29.0539  29.1963  29.5183  29.9413  30.1446
    31.0209  31.4228

          k = 0.0000 0.1925 0.1808 (  5077 PWs)   bands (ev):

  -112.7884-112.7505 -68.2525 -68.2443 -68.2297 -68.2281 -68.2225 -68.2204
   -51.5196 -51.4987 -51.4977 -51.4946 -51.4914 -51.4896 -20.0388 -20.0132
   -19.9849 -19.9837 -19.9414 -19.9324 -19.9212 -19.8979 -19.8841 -19.8443
   -19.7720 -19.7628 -19.7369 -19.7267 -19.7195 -19.7037 -19.7008 -19.6876
    -7.4327  -7.4312  -7.4236  -7.4231  -7.4147  -7.4138  -7.4032  -7.4026
    -7.4003  -7.3977   8.8806   9.4239  15.1905  15.5283  15.5611  15.7558
    15.8875  16.0246  16.1394  16.2007  16.3805  16.4963  16.6051  16.7729
    17.2041  17.4167  17.6045  17.6543  17.7743  17.7905  18.0007  18.3913
    18.5153  18.5256  18.6288  18.9188  18.9199  19.1392  19.1670  19.3238
    19.6593  19.8408  19.9979  20.0886  20.6603  20.6769  21.1411  21.4869
    21.8156  23.9169  24.0438  25.0487  25.7332  26.6236  26.7303  27.5979
    28.3166  28.3589  28.7042  28.7889  29.3379  29.8727  30.1082  30.2179
    30.8008  31.4509

          k = 0.0000 0.1925 0.3616 (  5061 PWs)   bands (ev):

  -112.7750-112.7306 -68.2449 -68.2342 -68.2309 -68.2277 -68.2221 -68.2196
   -51.5181 -51.4967 -51.4948 -51.4935 -51.4896 -51.4880 -20.0175 -20.0146
   -19.9993 -19.9980 -19.9583 -19.9521 -19.9069 -19.8526 -19.8278 -19.8032
   -19.7847 -19.7678 -19.7452 -19.7306 -19.7280 -19.7041 -19.6990 -19.6882
    -7.4303  -7.4296  -7.4235  -7.4228  -7.4163  -7.4161  -7.4021  -7.4018
    -7.3995  -7.3986   9.0268   9.3883  15.1182  15.4208  15.7926  15.8474
    16.0082  16.1518  16.1881  16.2301  16.3508  16.4526  16.7884  16.7980
    17.0308  17.2150  17.2879  17.6503  17.9163  17.9758  18.3071  18.3226
    18.4324  18.5606  18.6916  18.8754  18.9036  18.9957  19.0907  19.3513
    19.4882  19.8077  19.9451  20.1300  20.2532  20.4434  20.4933  20.9806
    21.7724  23.9175  24.8140  25.2483  25.9915  26.2885  26.7951  27.5025
    28.1279  28.2139  29.1441  29.5079  29.9117  30.1701  30.5054  30.6264
    30.6318  31.6961

          k = 0.0000 0.1925 0.5424 (  5050 PWs)   bands (ev):

  -112.7563-112.7282 -68.2398 -68.2318 -68.2263 -68.2262 -68.2248 -68.2186
   -51.5067 -51.4970 -51.4949 -51.4930 -51.4913 -51.4911 -20.0202 -20.0093
   -20.0053 -20.0041 -19.9889 -19.9860 -19.8536 -19.8215 -19.8065 -19.7900
   -19.7831 -19.7673 -19.7523 -19.7387 -19.7145 -19.7033 -19.6987 -19.6888
    -7.4294  -7.4288  -7.4224  -7.4216  -7.4193  -7.4187  -7.4007  -7.4006
    -7.3994  -7.3994   9.1946   9.3186  15.0323  15.2707  15.8080  15.9506
    15.9508  16.1317  16.3779  16.5334  16.6162  16.7608  16.7902  16.8195
    16.8801  17.1079  17.2985  17.6626  17.6866  17.9278  18.0263  18.3909
    18.4335  18.5173  18.6240  18.8338  18.8845  19.0019  19.0035  19.1488
    19.5497  19.9063  19.9303  20.0163  20.0459  20.1888  20.3705  20.6893
    22.1268  23.0264  25.4162  25.5032  25.6383  26.1721  27.5602  27.7806
    28.4781  28.6963  28.9026  29.1611  30.3551  30.4007  30.7174  31.0935
    31.1239  31.5567

          k = 0.0000 0.3849 0.0000 (  5079 PWs)   bands (ev):

  -112.7961-112.7505 -68.2483 -68.2413 -68.2348 -68.2342 -68.2211 -68.2198
   -51.5200 -51.5042 -51.4997 -51.4931 -51.4912 -51.4864 -20.0366 -19.9784
   -19.9448 -19.9394 -19.9376 -19.9360 -19.9215 -19.8802 -19.8646 -19.8644
   -19.7842 -19.7821 -19.7646 -19.7612 -19.7481 -19.7293 -19.7094 -19.6865
    -7.4321  -7.4298  -7.4237  -7.4201  -7.4137  -7.4124  -7.4030  -7.4028
    -7.3989  -7.3970   9.0272   9.4452  14.8375  15.2856  15.3950  15.4475
    15.8699  15.8898  16.1737  16.4346  16.4947  16.6144  16.9046  16.9387
    17.1371  17.2547  17.2618  17.7116  17.8115  17.8312  17.8492  18.1640
    18.3831  18.5996  18.7300  18.8341  18.8679  18.9711  19.0535  19.1104
    19.4283  19.9222  20.1202  20.3784  20.6891  21.2531  21.7525  21.9229
    22.8057  23.4223  24.0709  25.2443  25.7690  26.1831  26.8666  27.2118
    27.5268  28.2507  28.4829  28.8758  29.6310  29.9809  30.6345  30.8427
    31.3330  31.4151

          k = 0.0000 0.3849 0.1808 (  5090 PWs)   bands (ev):

  -112.8021-112.7653 -68.2517 -68.2438 -68.2345 -68.2331 -68.2244 -68.2238
   -51.5190 -51.5032 -51.5020 -51.4960 -51.4917 -51.4896 -20.0250 -19.9937
   -19.9676 -19.9651 -19.9362 -19.9173 -19.9100 -19.8919 -19.8739 -19.8456
   -19.7853 -19.7848 -19.7734 -19.7542 -19.7531 -19.7279 -19.7200 -19.6906
    -7.4318  -7.4307  -7.4237  -7.4214  -7.4156  -7.4136  -7.4026  -7.4025
    -7.3994  -7.3972   9.0735   9.4421  14.9167  15.2281  15.5110  15.5168
    15.7155  15.9200  16.2251  16.4528  16.5236  16.5396  16.8831  16.9666
    17.2440  17.3121  17.5022  17.5317  17.7090  17.7455  17.8147  18.1739
    18.3542  18.4835  18.5723  18.9229  18.9651  18.9763  19.0402  19.0773
    19.4215  19.8079  20.0478  20.2381  20.7792  20.9771  21.6249  21.6545
    23.2238  23.3350  24.1242  25.3198  25.3538  26.4578  26.9048  27.6597
    27.8249  28.3988  28.4631  28.8350  30.0175  30.0346  30.3160  30.6557
    31.0867  31.6672

          k = 0.0000 0.3849 0.3616 (  5078 PWs)   bands (ev):

  -112.7898-112.7515 -68.2516 -68.2389 -68.2297 -68.2297 -68.2242 -68.2240
   -51.5149 -51.4994 -51.4983 -51.4968 -51.4916 -51.4914 -20.0131 -20.0091
   -19.9890 -19.9724 -19.9430 -19.9261 -19.8910 -19.8827 -19.8454 -19.8059
   -19.7886 -19.7875 -19.7738 -19.7512 -19.7393 -19.7321 -19.7150 -19.6952
    -7.4302  -7.4295  -7.4235  -7.4221  -7.4171  -7.4168  -7.4014  -7.4006
    -7.3986  -7.3971   9.1911   9.4367  15.0118  15.1328  15.5913  15.6955
    15.7946  16.0708  16.2202  16.3972  16.6084  16.6300  16.8552  16.9415
    16.9837  17.3207  17.3213  17.6300  17.6662  17.7241  18.0020  18.2106
    18.3419  18.4840  18.5159  18.7813  18.8565  18.8792  19.1200  19.2260
    19.2582  19.4343  19.8438  20.2076  20.3771  20.8115  21.2869  21.6800
    22.2716  24.0695  24.3708  25.5385  26.1525  26.3394  26.6664  27.7711
    27.9439  28.8543  29.0523  29.3592  29.8451  29.8899  30.6640  30.7816
    31.1050  31.6586

          k = 0.0000 0.3849 0.5424 (  5051 PWs)   bands (ev):

  -112.7569-112.7292 -68.2436 -68.2357 -68.2255 -68.2233 -68.2212 -68.2197
   -51.5070 -51.4975 -51.4945 -51.4940 -51.4907 -51.4906 -20.0149 -20.0050
   -19.9854 -19.9639 -19.9611 -19.9397 -19.8483 -19.8479 -19.8185 -19.8159
   -19.7929 -19.7775 -19.7528 -19.7525 -19.7382 -19.7285 -19.7049 -19.6934
    -7.4286  -7.4278  -7.4219  -7.4213  -7.4190  -7.4187  -7.3995  -7.3983
    -7.3980  -7.3968   9.3224   9.4077  14.9912  15.1092  15.6973  15.7307
    15.9422  16.1853  16.2538  16.4230  16.6238  16.8102  16.9236  16.9520
    17.0010  17.0166  17.2701  17.4304  17.6165  17.8904  17.9199  18.2564
    18.3378  18.4389  18.6296  18.6649  18.7244  18.8154  18.9505  19.0743
    19.5746  19.6305  19.6667  20.0125  20.0654  20.8037  20.8122  20.9979
    22.7018  23.5367  25.4570  25.7199  25.9751  26.3302  27.4274  27.7194
    28.1861  28.7077  28.8466  29.5666  30.4119  30.5681  30.6787  31.0220
    31.1285  31.5130

          k = 0.0000-0.5774 0.0000 (  5068 PWs)   bands (ev):

  -112.7666-112.7573 -68.2490 -68.2458 -68.2271 -68.2254 -68.2207 -68.2190
   -51.5139 -51.5075 -51.5011 -51.4937 -51.4865 -51.4845 -20.0394 -19.9534
   -19.9518 -19.9365 -19.9299 -19.9046 -19.8887 -19.8786 -19.8270 -19.8253
   -19.8068 -19.7985 -19.7939 -19.7881 -19.7741 -19.7291 -19.7039 -19.6943
    -7.4325  -7.4290  -7.4231  -7.4185  -7.4154  -7.4130  -7.4015  -7.3995
    -7.3978  -7.3951   9.1852   9.4050  14.5792  15.1577  15.3472  15.6029
    15.6032  15.8243  16.3322  16.3976  16.5873  16.8725  16.8740  17.0576
    17.1110  17.2129  17.3084  17.7589  17.7726  17.8379  18.1071  18.2196
    18.2970  18.4669  18.4921  18.6464  18.8275  18.8763  18.9842  19.0046
    19.0833  19.9785  20.0742  20.3630  20.7012  21.7365  22.0606  22.1607
    22.3633  24.5356  24.7277  25.2662  25.4738  25.5633  26.2537  27.2029
    27.4765  27.6069  28.1936  29.6692  29.9331  30.2373  31.0493  31.1065
    31.3219  31.4546

          k = 0.0000-0.5774 0.1808 (  5072 PWs)   bands (ev):

  -112.7682-112.7626 -68.2455 -68.2442 -68.2333 -68.2254 -68.2227 -68.2205
   -51.5127 -51.5057 -51.4989 -51.4960 -51.4896 -51.4865 -20.0313 -19.9935
   -19.9514 -19.9491 -19.9270 -19.9025 -19.8860 -19.8601 -19.8508 -19.8341
   -19.8068 -19.8060 -19.7976 -19.7620 -19.7452 -19.7284 -19.7144 -19.6929
    -7.4308  -7.4293  -7.4237  -7.4184  -7.4151  -7.4149  -7.4014  -7.4005
    -7.3983  -7.3950   9.2192   9.4180  14.6783  15.0235  15.4205  15.6154
    15.6869  15.8646  16.3442  16.4944  16.5193  16.7302  17.0034  17.0582
    17.2436  17.3641  17.3947  17.4267  17.7218  17.9480  18.0164  18.1028
    18.2033  18.3919  18.4242  18.4624  18.9167  18.9318  19.0070  19.0092
    19.0740  19.7943  20.0889  20.3548  20.8425  21.1800  21.8993  22.1309
    22.8860  23.5432  24.9582  25.5716  25.7416  26.0646  26.3010  26.8471
    27.7530  28.0852  28.2439  29.2087  30.2082  30.6947  30.8021  30.8951
    31.2581  31.7469

          k = 0.0000-0.5774 0.3616 (  5090 PWs)   bands (ev):

  -112.7888-112.7770 -68.2489 -68.2453 -68.2321 -68.2317 -68.2282 -68.2247
   -51.5072 -51.5053 -51.4995 -51.4987 -51.4954 -51.4945 -20.0147 -20.0113
   -19.9846 -19.9648 -19.9183 -19.9108 -19.8970 -19.8694 -19.8497 -19.8356
   -19.8157 -19.8059 -19.7944 -19.7503 -19.7373 -19.7330 -19.7228 -19.6991
    -7.4298  -7.4296  -7.4239  -7.4209  -7.4185  -7.4172  -7.4014  -7.4001
    -7.3988  -7.3959   9.3038   9.4383  14.8654  14.8957  15.6325  15.6379
    15.6957  15.9938  16.3363  16.4622  16.7703  16.7857  16.9470  16.9664
    17.0823  17.2112  17.5227  17.6046  17.8008  17.8045  17.8759  18.0709
    18.1647  18.2685  18.3226  18.3408  18.7937  18.8153  19.0842  19.1541
    19.2311  19.2969  19.9412  20.2404  20.5513  21.0005  21.4763  21.9521
    22.5127  23.9013  25.5695  25.8936  26.0761  26.1304  26.3684  26.7733
    27.7991  28.2074  29.4237  29.6288  29.9855  30.7578  30.8470  31.3811
    31.3933  31.4778

          k = 0.0000-0.5774 0.5424 (  5080 PWs)   bands (ev):

  -112.7847-112.7612 -68.2462 -68.2451 -68.2304 -68.2302 -68.2272 -68.2219
   -51.5031 -51.5026 -51.4979 -51.4977 -51.4973 -51.4954 -20.0131 -20.0086
   -19.9784 -19.9457 -19.9364 -19.9114 -19.8798 -19.8618 -19.8563 -19.8558
   -19.8120 -19.7894 -19.7724 -19.7610 -19.7531 -19.7270 -19.7125 -19.6993
    -7.4286  -7.4280  -7.4217  -7.4213  -7.4209  -7.4188  -7.4006  -7.4002
    -7.3988  -7.3963   9.3933   9.4428  14.8507  14.9522  15.6732  15.6764
    15.9628  16.1387  16.3024  16.4100  16.7512  16.7700  16.9153  16.9580
    17.0566  17.1003  17.5226  17.6276  17.7205  17.7502  17.8729  18.1765
    18.2208  18.2492  18.3244  18.4323  18.5321  18.6465  19.0324  19.0593
    19.5014  19.5671  19.5814  20.0866  20.1156  20.8069  21.0611  21.1269
    23.3424  24.4667  24.9736  25.7786  26.0218  26.2670  27.4915  27.5018
    27.7587  28.1218  29.8308  30.1427  30.2059  30.4964  30.5705  31.2057
    31.2139  31.4733

          k = 0.2000 0.1155 0.0000 (  5087 PWs)   bands (ev):

  -112.7958-112.7631 -68.2521 -68.2476 -68.2348 -68.2313 -68.2225 -68.2201
   -51.5223 -51.5024 -51.4992 -51.4955 -51.4911 -51.4874 -20.0528 -20.0065
   -19.9466 -19.9446 -19.9444 -19.9423 -19.9417 -19.9069 -19.8974 -19.8567
   -19.7850 -19.7740 -19.7491 -19.7258 -19.7142 -19.7116 -19.7096 -19.6877
    -7.4333  -7.4297  -7.4239  -7.4228  -7.4142  -7.4141  -7.4038  -7.4031
    -7.4002  -7.3980   8.8557   9.4393  15.0759  15.3300  15.6347  15.7645
    15.9531  15.9949  16.0555  16.2104  16.5061  16.5125  16.6278  16.7935
    17.1758  17.3089  17.4047  17.6093  17.6734  17.8282  18.1089  18.3082
    18.5378  18.5840  18.7429  18.8772  18.9297  19.0216  19.1610  19.2087
    19.8447  19.9802  20.2040  20.3529  20.4988  20.6843  21.3071  22.0386
    22.5915  22.8967  23.5868  24.9942  26.6630  26.6920  26.7736  27.4766
    27.6346  27.9403  28.5316  29.2077  29.3313  29.5459  30.0689  30.3167
    31.0257  31.5038

          k = 0.2000 0.1155 0.1808 (  5078 PWs)   bands (ev):

  -112.7895-112.7516 -68.2519 -68.2441 -68.2321 -68.2268 -68.2235 -68.2199
   -51.5208 -51.4996 -51.4980 -51.4951 -51.4895 -51.4894 -20.0372 -20.0041
   -19.9859 -19.9798 -19.9362 -19.9279 -19.9150 -19.8974 -19.8857 -19.8420
   -19.7738 -19.7616 -19.7432 -19.7326 -19.7264 -19.7093 -19.7091 -19.6903
    -7.4326  -7.4311  -7.4232  -7.4227  -7.4149  -7.4137  -7.4034  -7.4024
    -7.4000  -7.3976   8.9135   9.4304  15.1988  15.4454  15.5450  15.7023
    15.8201  16.0063  16.1588  16.2201  16.4086  16.5428  16.6239  16.8197
    17.2168  17.3888  17.6029  17.6287  17.7001  17.7582  17.9590  18.3479
    18.5038  18.5159  18.6308  18.9295  18.9381  19.1327  19.1407  19.3245
    19.7943  19.8138  19.9103  20.0662  20.6930  20.7071  21.2315  21.4768
    22.0957  23.7851  24.0149  25.0954  25.5857  26.5954  27.0684  27.5250
    28.2560  28.3282  28.7173  28.8625  29.3805  29.8073  30.1440  30.2794
    30.8795  31.4761

          k = 0.2000 0.1155 0.3616 (  5067 PWs)   bands (ev):

  -112.7800-112.7378 -68.2463 -68.2352 -68.2316 -68.2274 -68.2251 -68.2205
   -51.5178 -51.4980 -51.4958 -51.4946 -51.4900 -51.4884 -20.0188 -20.0117
   -19.9972 -19.9971 -19.9575 -19.9513 -19.9076 -19.8618 -19.8297 -19.8014
   -19.7839 -19.7734 -19.7455 -19.7329 -19.7307 -19.7115 -19.7038 -19.6901
    -7.4306  -7.4298  -7.4232  -7.4227  -7.4166  -7.4163  -7.4021  -7.4018
    -7.3994  -7.3983   9.0550   9.3992  15.1338  15.3656  15.7603  15.8109
    15.9320  16.1615  16.1715  16.2536  16.4096  16.4750  16.8289  16.8352
    16.9622  17.1927  17.2755  17.6585  17.8387  17.8981  18.2708  18.3028
    18.4644  18.5469  18.6728  18.8753  18.9139  19.0072  19.1138  19.3308
    19.4335  19.7871  19.8457  20.1432  20.2639  20.5054  20.6817  21.0369
    21.9966  23.7741  24.7202  25.2920  26.0088  26.2978  26.8216  27.8093
    28.1559  28.3471  28.9883  29.4340  29.8392  30.0861  30.5525  30.6182
    30.6935  31.7333

          k = 0.2000 0.1155 0.5424 (  5053 PWs)   bands (ev):

  -112.7596-112.7310 -68.2408 -68.2328 -68.2274 -68.2255 -68.2224 -68.2217
   -51.5053 -51.4968 -51.4959 -51.4934 -51.4931 -51.4918 -20.0173 -20.0106
   -20.0017 -19.9940 -19.9871 -19.9837 -19.8531 -19.8291 -19.8044 -19.8004
   -19.7841 -19.7687 -19.7575 -19.7373 -19.7191 -19.7108 -19.6975 -19.6889
    -7.4294  -7.4289  -7.4220  -7.4220  -7.4190  -7.4187  -7.4004  -7.4003
    -7.3993  -7.3990   9.2173   9.3361  15.0455  15.2618  15.7679  15.9047
    15.9442  16.1516  16.3394  16.5570  16.5847  16.7777  16.8068  16.8724
    16.8824  17.0491  17.2277  17.6003  17.6194  17.9319  18.0065  18.3843
    18.4197  18.5234  18.6919  18.8506  18.8675  18.9479  18.9697  19.1261
    19.6238  19.8341  19.8886  20.0440  20.0452  20.2777  20.4496  20.7545
    22.2378  22.9889  25.4604  25.5500  25.6842  26.3034  27.5037  27.8110
    28.4807  28.5855  29.0422  29.1402  30.4252  30.4804  30.5810  31.0262
    31.0569  31.5477

          k = 0.2000 0.3079 0.0000 (  5075 PWs)   bands (ev):

  -112.7850-112.7523 -68.2458 -68.2446 -68.2333 -68.2295 -68.2218 -68.2201
   -51.5191 -51.5015 -51.4988 -51.4933 -51.4896 -51.4890 -20.0413 -19.9854
   -19.9483 -19.9429 -19.9409 -19.9395 -19.9217 -19.8923 -19.8624 -19.8567
   -19.7819 -19.7710 -19.7650 -19.7646 -19.7258 -19.7095 -19.7044 -19.6967
    -7.4316  -7.4293  -7.4227  -7.4208  -7.4142  -7.4137  -7.4032  -7.4022
    -7.3991  -7.3961   9.0102   9.4489  15.0253  15.1713  15.2586  15.6595
    15.7427  15.9082  16.2060  16.4195  16.4439  16.7100  16.7668  16.9428
    17.1369  17.2290  17.2607  17.7170  17.7882  17.8291  17.9011  18.1518
    18.3820  18.6662  18.6851  18.8011  18.8949  19.0202  19.1009  19.1844
    19.6580  19.7751  20.1252  20.2700  20.6758  21.1576  21.8172  22.0861
    22.8605  23.1880  23.6821  25.4591  25.7457  26.1238  26.5284  27.7026
    27.8626  28.5545  28.7238  28.9701  29.1117  29.4384  30.6578  30.7486
    30.8908  31.6309

          k = 0.2000 0.3079 0.1808 (  5088 PWs)   bands (ev):

  -112.7942-112.7685 -68.2509 -68.2462 -68.2338 -68.2319 -68.2249 -68.2212
   -51.5163 -51.5036 -51.5027 -51.4965 -51.4907 -51.4898 -20.0248 -19.9921
   -19.9866 -19.9695 -19.9269 -19.9246 -19.9074 -19.8993 -19.8749 -19.8481
   -19.7884 -19.7804 -19.7612 -19.7598 -19.7362 -19.7178 -19.7066 -19.7004
    -7.4318  -7.4304  -7.4232  -7.4219  -7.4158  -7.4144  -7.4024  -7.4020
    -7.3996  -7.3971   9.0582   9.4430  15.1019  15.1717  15.4519  15.5136
    15.7496  15.8289  16.2532  16.4056  16.5363  16.6113  16.7502  16.9666
    17.2310  17.3388  17.4909  17.5879  17.6581  17.7680  17.7930  18.1362
    18.3452  18.5536  18.6800  18.8613  18.8969  19.0019  19.0215  19.3056
    19.6707  19.7581  19.9226  20.1665  20.6635  20.9486  21.5591  21.8170
    23.1356  23.3967  23.8107  25.1546  25.5932  26.0893  27.3651  27.6620
    28.2010  28.4970  28.7655  28.8549  29.1332  30.0277  30.3714  30.4906
    31.1828  31.4001

          k = 0.2000 0.3079 0.3616 (  5068 PWs)   bands (ev):

  -112.7815-112.7409 -68.2497 -68.2367 -68.2302 -68.2290 -68.2231 -68.2182
   -51.5149 -51.4975 -51.4967 -51.4960 -51.4915 -51.4900 -20.0042 -20.0002
   -19.9937 -19.9746 -19.9364 -19.9330 -19.8905 -19.8788 -19.8323 -19.8073
   -19.8031 -19.7873 -19.7584 -19.7440 -19.7389 -19.7251 -19.7109 -19.6976
    -7.4302  -7.4300  -7.4234  -7.4217  -7.4169  -7.4153  -7.4010  -7.4007
    -7.3989  -7.3970   9.1777   9.4373  15.1317  15.1568  15.5135  15.7605
    15.8123  15.8997  16.2923  16.4003  16.5261  16.6703  16.8009  16.9444
    16.9951  17.2797  17.3578  17.5214  17.6013  17.7935  18.0904  18.2421
    18.3317  18.4688  18.6890  18.7293  18.8284  18.9477  18.9738  19.2878
    19.5018  19.5687  19.9109  19.9784  20.3027  20.9743  21.1481  21.2895
    22.8937  23.4342  24.2922  25.5690  26.0347  26.3629  27.3165  27.5258
    28.2285  28.3275  29.4542  29.6395  29.7130  29.8777  30.4714  30.6394
    31.0419  31.3544

          k = 0.2000 0.3079 0.5424 (  5058 PWs)   bands (ev):

  -112.7566-112.7444 -68.2421 -68.2362 -68.2270 -68.2248 -68.2245 -68.2217
   -51.5071 -51.4991 -51.4957 -51.4937 -51.4931 -51.4906 -20.0085 -20.0036
   -19.9902 -19.9874 -19.9536 -19.9519 -19.8530 -19.8510 -19.8264 -19.8060
   -19.7855 -19.7657 -19.7598 -19.7503 -19.7458 -19.7280 -19.7080 -19.6961
    -7.4284  -7.4282  -7.4221  -7.4209  -7.4193  -7.4190  -7.3998  -7.3997
    -7.3983  -7.3977   9.3119   9.3998  15.0481  15.1429  15.7257  15.7626
    15.8737  16.0399  16.3917  16.4322  16.5878  16.7506  16.8609  16.9521
    17.0023  17.0624  17.2778  17.3211  17.6817  17.8455  17.9199  18.3368
    18.3742  18.4525  18.6700  18.7249  18.7480  18.8220  18.9664  19.0408
    19.5622  19.6950  19.8359  19.8956  20.0166  20.4306  21.1040  21.1674
    22.7388  23.0042  25.2155  25.6091  26.2882  26.8093  27.3347  27.6830
    27.9525  28.6637  29.2205  29.7213  30.2430  30.4247  30.7743  30.9228
    31.0639  31.5169

          k = 0.2000 0.5004 0.0000 (  5072 PWs)   bands (ev):

  -112.7734-112.7593 -68.2444 -68.2436 -68.2347 -68.2256 -68.2240 -68.2190
   -51.5128 -51.5042 -51.5026 -51.4938 -51.4904 -51.4864 -20.0289 -19.9563
   -19.9413 -19.9409 -19.9343 -19.9199 -19.9032 -19.8876 -19.8450 -19.8360
   -19.8092 -19.7912 -19.7809 -19.7721 -19.7553 -19.7344 -19.7031 -19.7007
    -7.4310  -7.4300  -7.4220  -7.4180  -7.4156  -7.4128  -7.4020  -7.4010
    -7.3983  -7.3956   9.2081   9.4023  14.6895  15.0929  15.3082  15.5418
    15.5869  15.7415  16.3143  16.4835  16.6783  16.7792  16.8285  17.0092
    17.0565  17.2113  17.4007  17.5363  17.8635  17.9001  18.0253  18.1437
    18.2293  18.6505  18.7345  18.7803  18.7974  18.8242  18.9703  19.0974
    19.2826  19.6883  20.0618  20.2780  20.4291  22.0862  22.1217  22.4798
    22.6481  23.7992  24.1250  24.9103  25.2956  25.9507  26.4767  27.7285
    27.9314  28.1389  28.4061  29.1486  29.4993  30.0191  30.7371  30.9385
    31.2256  31.3505

          k = 0.2000 0.5004 0.1808 (  5079 PWs)   bands (ev):

  -112.7874-112.7593 -68.2475 -68.2421 -68.2357 -68.2295 -68.2250 -68.2194
   -51.5130 -51.5044 -51.5015 -51.4955 -51.4914 -51.4890 -20.0220 -19.9840
   -19.9617 -19.9492 -19.9351 -19.9110 -19.8888 -19.8698 -19.8508 -19.8387
   -19.8341 -19.8076 -19.7677 -19.7603 -19.7441 -19.7346 -19.7121 -19.7006
    -7.4302  -7.4298  -7.4235  -7.4186  -7.4169  -7.4138  -7.4016  -7.4009
    -7.3987  -7.3960   9.2395   9.4148  14.8073  15.0723  15.2602  15.5704
    15.6349  15.7263  16.4350  16.4636  16.6378  16.7216  16.9337  17.0635
    17.1916  17.3328  17.3531  17.5750  17.6817  17.7512  17.9518  18.0034
    18.1159  18.5724  18.6020  18.7006  18.8201  18.9854  19.0025  19.1509
    19.2861  19.7320  19.8062  20.3597  20.4979  21.5387  21.8866  22.3810
    22.9461  23.6486  24.3095  24.9807  25.3944  25.9437  27.1385  27.7132
    27.7239  28.4284  28.5086  29.2865  29.7879  30.1064  30.2225  30.8577
    31.3477  31.5805

          k = 0.2000 0.5004 0.3616 (  5085 PWs)   bands (ev):

  -112.7937-112.7646 -68.2508 -68.2443 -68.2352 -68.2293 -68.2260 -68.2200
   -51.5108 -51.5028 -51.4994 -51.4985 -51.4945 -51.4926 -20.0007 -19.9941
   -19.9864 -19.9598 -19.9348 -19.9279 -19.8687 -19.8638 -19.8470 -19.8435
   -19.8181 -19.8149 -19.7778 -19.7541 -19.7389 -19.7353 -19.7273 -19.7044
    -7.4303  -7.4299  -7.4238  -7.4207  -7.4186  -7.4158  -7.4006  -7.3999
    -7.3986  -7.3965   9.3209   9.4401  14.9753  15.0186  15.3398  15.6078
    15.7382  15.8123  16.4242  16.5611  16.7287  16.8107  16.9631  16.9855
    17.1010  17.2255  17.3462  17.4053  17.6547  17.7625  17.8973  18.0408
    18.0789  18.4706  18.5342  18.6025  18.7271  18.8813  19.0909  19.1909
    19.3524  19.3837  19.7877  20.2120  20.3502  21.0096  21.3974  22.0114
    23.1755  23.7252  24.3782  25.5388  25.9172  26.0781  27.2429  27.7354
    28.0644  28.4300  29.5143  29.6729  29.7880  30.3822  30.4314  30.6734
    31.0274  31.4218

          k = 0.2000 0.5004 0.5424 (  5080 PWs)   bands (ev):

  -112.7783-112.7670 -68.2471 -68.2433 -68.2310 -68.2285 -68.2260 -68.2242
   -51.5055 -51.5019 -51.4984 -51.4974 -51.4967 -51.4938 -19.9990 -19.9924
   -19.9823 -19.9647 -19.9377 -19.9254 -19.8693 -19.8613 -19.8492 -19.8349
   -19.7991 -19.7927 -19.7771 -19.7677 -19.7484 -19.7353 -19.7204 -19.7131
    -7.4282  -7.4280  -7.4225  -7.4210  -7.4203  -7.4195  -7.3997  -7.3991
    -7.3985  -7.3973   9.4070   9.4473  14.9474  15.0051  15.5923  15.6258
    15.9130  15.9573  16.4335  16.5279  16.6774  16.8089  16.8247  16.9259
    16.9862  17.0261  17.4556  17.5643  17.6727  17.7736  17.8446  18.1845
    18.2682  18.3411  18.5194  18.5395  18.5837  18.6468  19.0703  19.0982
    19.5253  19.5599  19.6154  19.9365  19.9790  20.1996  21.5796  21.9475
    23.0984  23.7451  24.5433  25.1010  26.9973  27.1407  27.3970  27.5568
    28.0711  28.3506  29.6524  29.9701  30.1634  30.3828  30.6674  30.7666
    31.2464  31.3660

          k = 0.2000-0.4619 0.0000 (  5078 PWs)   bands (ev):

  -112.7846-112.7597 -68.2463 -68.2450 -68.2340 -68.2296 -68.2232 -68.2197
   -51.5141 -51.5050 -51.5022 -51.4941 -51.4912 -51.4874 -20.0358 -19.9590
   -19.9455 -19.9423 -19.9351 -19.9206 -19.9089 -19.8892 -19.8514 -19.8293
   -19.8161 -19.7915 -19.7835 -19.7678 -19.7561 -19.7249 -19.7051 -19.7033
    -7.4313  -7.4302  -7.4222  -7.4188  -7.4154  -7.4132  -7.4019  -7.4018
    -7.3985  -7.3955   9.1725   9.4153  14.7362  15.0727  15.3867  15.4837
    15.5963  15.7784  16.3319  16.4588  16.6201  16.7617  16.8695  16.9873
    17.0421  17.2154  17.4175  17.5299  17.8396  17.8974  18.0859  18.1234
    18.1735  18.6884  18.7345  18.7645  18.7915  18.8345  18.9956  19.1248
    19.3681  19.6931  20.0694  20.2653  20.4707  21.9145  22.0971  22.3779
    22.7181  23.7585  24.0485  25.0238  25.3347  25.9649  26.4034  27.8912
    27.9213  28.1170  28.5003  29.1983  29.4356  29.7548  30.6987  30.9182
    31.2301  31.4037

          k = 0.2000-0.4619 0.1808 (  5075 PWs)   bands (ev):

  -112.7810-112.7570 -68.2471 -68.2430 -68.2324 -68.2299 -68.2233 -68.2189
   -51.5124 -51.5033 -51.5017 -51.4955 -51.4902 -51.4887 -20.0206 -19.9827
   -19.9649 -19.9501 -19.9296 -19.9140 -19.8897 -19.8736 -19.8503 -19.8400
   -19.8270 -19.8001 -19.7648 -19.7610 -19.7438 -19.7270 -19.7122 -19.7011
    -7.4304  -7.4297  -7.4231  -7.4193  -7.4163  -7.4138  -7.4014  -7.4009
    -7.3986  -7.3957   9.2096   9.4258  14.8531  15.0596  15.3162  15.5501
    15.6399  15.7478  16.4322  16.4484  16.5819  16.7184  16.9096  17.0806
    17.1692  17.3358  17.3872  17.5941  17.6678  17.7474  17.9266  18.0051
    18.1367  18.5897  18.6186  18.7084  18.8176  18.9759  18.9989  19.1935
    19.3691  19.7246  19.8231  20.3431  20.5185  21.4229  21.8507  22.2951
    23.0394  23.6446  24.1419  24.9612  25.4828  26.0034  27.1345  27.5965
    27.8730  28.5269  28.5578  29.2130  29.6967  30.0030  30.2464  30.8756
    31.3679  31.4911

          k = 0.2000-0.4619 0.3616 (  5078 PWs)   bands (ev):

  -112.7888-112.7552 -68.2498 -68.2429 -68.2326 -68.2298 -68.2247 -68.2185
   -51.5104 -51.5013 -51.4987 -51.4976 -51.4939 -51.4921 -19.9981 -19.9944
   -19.9887 -19.9626 -19.9335 -19.9282 -19.8734 -19.8706 -19.8427 -19.8368
   -19.8138 -19.8070 -19.7699 -19.7527 -19.7360 -19.7331 -19.7245 -19.7009
    -7.4300  -7.4298  -7.4235  -7.4208  -7.4183  -7.4157  -7.4007  -7.3998
    -7.3984  -7.3963   9.2980   9.4454  14.9932  15.0496  15.3465  15.6523
    15.7422  15.8136  16.3993  16.5277  16.7057  16.7577  16.9354  16.9976
    17.0852  17.2877  17.3510  17.4158  17.6425  17.7852  17.8779  18.0474
    18.1153  18.4955  18.5430  18.6203  18.7319  18.8918  19.0755  19.2374
    19.3773  19.3988  19.8016  20.1782  20.3256  21.0186  21.3990  21.8641
    23.1897  23.8237  24.0789  25.6597  26.0245  26.1216  27.1585  27.6431
    28.0984  28.4592  29.5306  29.7304  29.7552  30.3438  30.4542  30.7163
    30.8650  31.3720

          k = 0.2000-0.4619 0.5424 (  5069 PWs)   bands (ev):

  -112.7687-112.7542 -68.2432 -68.2408 -68.2285 -68.2279 -68.2250 -68.2225
   -51.5053 -51.5010 -51.4963 -51.4955 -51.4954 -51.4928 -20.0016 -19.9916
   -19.9817 -19.9691 -19.9372 -19.9248 -19.8706 -19.8584 -19.8437 -19.8244
   -19.7941 -19.7859 -19.7680 -19.7640 -19.7467 -19.7327 -19.7170 -19.7090
    -7.4280  -7.4278  -7.4220  -7.4208  -7.4198  -7.4192  -7.3995  -7.3986
    -7.3985  -7.3972   9.3939   9.4448  14.9689  15.0210  15.6094  15.6494
    15.9114  15.9598  16.4236  16.5017  16.6555  16.7990  16.8427  16.8978
    17.0004  17.0311  17.4679  17.5913  17.6676  17.7464  17.8125  18.1897
    18.2768  18.3474  18.5602  18.5705  18.6218  18.6630  19.0598  19.0984
    19.5321  19.5784  19.6493  19.9070  19.9816  20.2475  21.5318  21.8329
    23.0452  23.5491  24.6717  25.2696  26.9314  27.0798  27.3580  27.5051
    28.0629  28.4073  29.6476  30.0109  30.0727  30.3391  30.7072  30.8169
    31.2815  31.3763

          k = 0.2000-0.2694 0.0000 (  5077 PWs)   bands (ev):

  -112.7824-112.7594 -68.2459 -68.2447 -68.2325 -68.2286 -68.2253 -68.2207
   -51.5180 -51.5031 -51.4990 -51.4933 -51.4899 -51.4895 -20.0425 -19.9910
   -19.9505 -19.9430 -19.9420 -19.9413 -19.9315 -19.8983 -19.8709 -19.8558
   -19.7814 -19.7643 -19.7627 -19.7576 -19.7249 -19.7048 -19.7027 -19.6943
    -7.4323  -7.4295  -7.4228  -7.4206  -7.4143  -7.4133  -7.4030  -7.4027
    -7.3994  -7.3973   8.9729   9.4487  15.0853  15.2107  15.2631  15.6794
    15.8224  15.9397  16.1389  16.3999  16.4406  16.6580  16.7366  16.9114
    17.1963  17.2381  17.2483  17.6881  17.7771  17.8196  17.9201  18.1878
    18.4246  18.6414  18.6887  18.8136  18.9070  19.0840  19.1211  19.1792
    19.6877  19.8219  20.1428  20.2995  20.7081  20.9715  21.6775  22.1370
    22.8743  22.9418  23.6740  25.3182  25.9534  26.3591  26.6068  27.6665
    27.6944  28.4573  28.5549  29.1121  29.1976  29.4859  30.5142  30.6794
    30.9831  31.4963

          k = 0.2000-0.2694 0.1808 (  5087 PWs)   bands (ev):

  -112.7988-112.7621 -68.2529 -68.2459 -68.2352 -68.2294 -68.2247 -68.2201
   -51.5181 -51.5031 -51.5012 -51.4963 -51.4905 -51.4899 -20.0277 -19.9944
   -19.9859 -19.9719 -19.9328 -19.9275 -19.9111 -19.9004 -19.8817 -19.8457
   -19.7788 -19.7772 -19.7613 -19.7557 -19.7297 -19.7213 -19.7039 -19.6951
    -7.4320  -7.4304  -7.4233  -7.4227  -7.4156  -7.4140  -7.4028  -7.4023
    -7.3996  -7.3971   9.0209   9.4428  15.1306  15.2593  15.4507  15.5383
    15.7768  15.8590  16.2244  16.3666  16.5467  16.5665  16.7119  16.9342
    17.2439  17.3595  17.4687  17.5881  17.6808  17.7574  17.8082  18.2124
    18.3806  18.5436  18.6583  18.8965  18.9068  18.9969  19.1110  19.3025
    19.7011  19.7869  19.9599  20.0980  20.6958  20.8616  21.5069  21.6736
    22.8943  23.4797  23.8629  25.2324  25.4606  26.2350  27.3853  27.7711
    28.1207  28.3108  28.7171  28.9697  29.2065  29.9774  30.3441  30.3730
    31.1070  31.4579

          k = 0.2000-0.2694 0.3616 (  5068 PWs)   bands (ev):

  -112.7838-112.7382 -68.2484 -68.2348 -68.2309 -68.2290 -68.2240 -68.2199
   -51.5154 -51.4980 -51.4966 -51.4953 -51.4907 -51.4903 -20.0091 -20.0023
   -19.9959 -19.9782 -19.9438 -19.9365 -19.8974 -19.8769 -19.8306 -19.8047
   -19.7960 -19.7833 -19.7534 -19.7430 -19.7345 -19.7265 -19.7090 -19.6944
    -7.4302  -7.4298  -7.4233  -7.4219  -7.4164  -7.4155  -7.4017  -7.4009
    -7.3992  -7.3973   9.1473   9.4307  15.1448  15.1985  15.5820  15.7613
    15.8236  15.9620  16.2710  16.3653  16.4864  16.6677  16.7620  16.9241
    16.9867  17.2400  17.3262  17.5671  17.6300  17.8047  18.1658  18.2867
    18.3710  18.4736  18.6861  18.7845  18.8559  18.9505  18.9846  19.2864
    19.5176  19.6063  19.8733  20.0205  20.3029  20.8761  21.0469  21.2230
    22.6686  23.4913  24.4030  25.5052  26.0044  26.3406  27.2490  27.6418
    28.2598  28.3904  29.1915  29.5410  29.7450  29.9364  30.4851  30.6435
    30.9522  31.5145

          k = 0.2000-0.2694 0.5424 (  5058 PWs)   bands (ev):

  -112.7609-112.7401 -68.2420 -68.2371 -68.2265 -68.2255 -68.2241 -68.2211
   -51.5076 -51.4991 -51.4947 -51.4940 -51.4926 -51.4914 -20.0086 -20.0010
   -19.9931 -19.9897 -19.9647 -19.9602 -19.8516 -19.8478 -19.8168 -19.8045
   -19.7856 -19.7675 -19.7587 -19.7455 -19.7417 -19.7284 -19.7061 -19.6985
    -7.4287  -7.4284  -7.4221  -7.4212  -7.4196  -7.4192  -7.4001  -7.3995
    -7.3987  -7.3975   9.2890   9.3852  15.0547  15.1790  15.7326  15.7968
    15.8837  16.0752  16.3692  16.4533  16.5828  16.7411  16.8706  16.9280
    17.0096  17.0843  17.2180  17.2909  17.6744  17.8804  17.9465  18.3586
    18.4024  18.4811  18.7155  18.7548  18.7866  18.8451  18.9448  19.0304
    19.5937  19.7113  19.8460  19.9414  20.0291  20.4495  20.9296  21.0379
    22.6090  22.9877  25.3234  25.5966  26.1161  26.7054  27.3680  27.7665
    27.9972  28.7463  29.0504  29.6169  30.2912  30.4760  30.7242  30.9289
    31.0322  31.5163

          k = 0.2000-0.0770 0.0000 (  5083 PWs)   bands (ev):

  -112.7901-112.7610 -68.2518 -68.2482 -68.2327 -68.2285 -68.2236 -68.2195
   -51.5203 -51.5030 -51.4986 -51.4940 -51.4907 -51.4888 -20.0534 -20.0066
   -19.9486 -19.9452 -19.9423 -19.9423 -19.9377 -19.9096 -19.9004 -19.8582
   -19.7847 -19.7718 -19.7354 -19.7264 -19.7122 -19.7117 -19.7050 -19.6877
    -7.4334  -7.4296  -7.4239  -7.4228  -7.4143  -7.4137  -7.4036  -7.4030
    -7.3998  -7.3982   8.8410   9.4379  15.0584  15.3988  15.6341  15.8120
    15.9311  16.0016  16.0757  16.1935  16.5047  16.5144  16.5950  16.7750
    17.1649  17.3300  17.4248  17.5988  17.6616  17.8252  18.1601  18.3335
    18.5468  18.5812  18.7239  18.8829  18.9394  19.0264  19.1604  19.2007
    19.8726  20.0036  20.2130  20.2567  20.5107  20.7077  21.2590  21.9074
    22.6871  22.8987  23.5435  24.9809  26.5464  26.7664  26.8317  27.4638
    27.6559  28.0634  28.5688  29.1306  29.2463  29.5286  30.0172  30.2451
    31.0332  31.4638

          k = 0.2000-0.0770 0.1808 (  5080 PWs)   bands (ev):

  -112.7890-112.7563 -68.2525 -68.2451 -68.2300 -68.2283 -68.2243 -68.2204
   -51.5197 -51.5001 -51.4988 -51.4947 -51.4906 -51.4897 -20.0376 -20.0101
   -19.9864 -19.9822 -19.9371 -19.9299 -19.9188 -19.8975 -19.8877 -19.8446
   -19.7743 -19.7628 -19.7379 -19.7342 -19.7210 -19.7138 -19.7026 -19.6872
    -7.4327  -7.4309  -7.4238  -7.4229  -7.4149  -7.4140  -7.4031  -7.4024
    -7.4003  -7.3979   8.8985   9.4268  15.1974  15.5017  15.5400  15.7037
    15.8625  16.0052  16.1600  16.2080  16.4031  16.5224  16.6075  16.8000
    17.2101  17.4047  17.5984  17.6360  17.7445  17.7608  17.9772  18.3741
    18.4997  18.5310  18.6272  18.9131  18.9410  19.0902  19.2043  19.3267
    19.7311  19.8279  19.9535  20.0703  20.6650  20.6989  21.1989  21.4830
    21.9666  23.8464  24.0138  25.0816  25.6463  26.5825  26.9309  27.6025
    28.2215  28.3923  28.7527  28.7966  29.3314  29.8398  30.1284  30.2472
    30.8442  31.4629

          k = 0.2000-0.0770 0.3616 (  5063 PWs)   bands (ev):

  -112.7792-112.7304 -68.2468 -68.2346 -68.2315 -68.2264 -68.2233 -68.2190
   -51.5183 -51.4972 -51.4954 -51.4940 -51.4891 -51.4880 -20.0169 -20.0118
   -19.9992 -19.9960 -19.9581 -19.9514 -19.9078 -19.8568 -19.8280 -19.8022
   -19.7858 -19.7707 -19.7457 -19.7308 -19.7271 -19.7123 -19.7006 -19.6864
    -7.4303  -7.4296  -7.4236  -7.4232  -7.4164  -7.4158  -7.4022  -7.4015
    -7.3998  -7.3979   9.0419   9.3953  15.1284  15.3926  15.7746  15.8215
    15.9717  16.1413  16.1883  16.2459  16.3711  16.4815  16.8045  16.8173
    16.9947  17.2003  17.2772  17.6549  17.8689  17.9276  18.3020  18.3130
    18.4437  18.5656  18.6803  18.8731  18.9105  19.0012  19.0755  19.3369
    19.5047  19.7836  19.8994  20.1241  20.2621  20.4799  20.5843  21.0100
    21.9092  23.8239  24.7592  25.2767  25.9848  26.2940  26.8629  27.6248
    28.1449  28.3066  29.0549  29.4832  29.8637  30.1278  30.5296  30.6228
    30.6591  31.7393

          k = 0.2000-0.0770 0.5424 (  5055 PWs)   bands (ev):

  -112.7576-112.7369 -68.2392 -68.2340 -68.2271 -68.2263 -68.2250 -68.2212
   -51.5060 -51.4973 -51.4968 -51.4940 -51.4921 -51.4913 -20.0191 -20.0101
   -20.0051 -19.9999 -19.9905 -19.9839 -19.8536 -19.8236 -19.8054 -19.7992
   -19.7842 -19.7695 -19.7574 -19.7386 -19.7173 -19.7088 -19.6982 -19.6895
    -7.4295  -7.4291  -7.4222  -7.4215  -7.4194  -7.4190  -7.4006  -7.4004
    -7.3998  -7.3993   9.2074   9.3272  15.0407  15.2675  15.7870  15.9099
    15.9621  16.1357  16.3650  16.5348  16.6096  16.7696  16.7898  16.8386
    16.9016  17.0742  17.2514  17.5988  17.6659  17.9340  18.0111  18.3981
    18.4347  18.5210  18.6607  18.8417  18.8761  18.9670  18.9884  19.1209
    19.6112  19.8478  19.9265  20.0352  20.0761  20.1932  20.4231  20.7234
    22.1918  22.9910  25.4405  25.5196  25.6712  26.2643  27.5232  27.7886
    28.4672  28.6578  28.9436  29.1890  30.3950  30.4397  30.6386  31.0457
    31.0974  31.5507

          k = 0.4000 0.2309 0.0000 (  5085 PWs)   bands (ev):

  -112.7943-112.7633 -68.2516 -68.2441 -68.2321 -68.2320 -68.2241 -68.2218
   -51.5172 -51.5051 -51.5015 -51.4959 -51.4898 -51.4886 -20.0412 -19.9657
   -19.9514 -19.9404 -19.9395 -19.9308 -19.9052 -19.8797 -19.8568 -19.8460
   -19.7979 -19.7862 -19.7796 -19.7768 -19.7710 -19.7324 -19.7062 -19.6893
    -7.4324  -7.4305  -7.4237  -7.4185  -7.4155  -7.4129  -7.4024  -7.4021
    -7.3989  -7.3959   9.1130   9.4281  14.6746  15.2485  15.3843  15.4119
    15.7715  15.8490  16.2652  16.4112  16.6081  16.6842  16.9387  17.0275
    17.0521  17.2751  17.2909  17.7497  17.7819  17.7895  17.9768  18.1812
    18.2988  18.5681  18.6768  18.7570  18.8431  18.8457  18.9988  19.0595
    19.2232  19.9514  20.0909  20.3690  20.6960  21.6819  21.7915  21.9371
    22.6647  24.0341  24.4052  25.4012  25.4559  25.8370  26.5286  27.1468
    27.4939  28.1561  28.2070  29.3205  29.6558  30.1787  30.8747  31.0032
    31.3369  31.5188

          k = 0.4000 0.2309 0.1808 (  5088 PWs)   bands (ev):

  -112.7941-112.7691 -68.2505 -68.2447 -68.2323 -68.2318 -68.2249 -68.2242
   -51.5176 -51.5052 -51.5011 -51.4970 -51.4904 -51.4887 -20.0264 -19.9948
   -19.9588 -19.9536 -19.9312 -19.9094 -19.8992 -19.8778 -19.8577 -19.8474
   -19.8014 -19.7944 -19.7896 -19.7664 -19.7533 -19.7314 -19.7198 -19.6930
    -7.4311  -7.4304  -7.4240  -7.4200  -7.4161  -7.4143  -7.4021  -7.4013
    -7.3991  -7.3963   9.1532   9.4328  14.7670  15.1086  15.4560  15.5587
    15.7064  15.8858  16.2886  16.5036  16.5272  16.6304  16.9678  16.9923
    17.2431  17.3738  17.4420  17.4731  17.7179  17.7795  17.9167  18.1120
    18.2715  18.4498  18.5229  18.6842  18.9345  18.9530  19.0084  19.0249
    19.2212  19.7991  20.0699  20.3278  20.8174  21.0897  21.7905  21.8968
    23.1004  23.4783  24.5047  25.3987  25.5251  26.3013  26.5509  27.3213
    27.7118  28.2818  28.3732  28.9890  30.2518  30.2901  30.4360  30.9717
    31.2513  31.5915

          k = 0.4000 0.2309 0.3616 (  5084 PWs)   bands (ev):

  -112.7925-112.7614 -68.2510 -68.2416 -68.2321 -68.2292 -68.2263 -68.2244
   -51.5119 -51.5016 -51.5013 -51.4976 -51.4931 -51.4914 -20.0175 -20.0075
   -19.9841 -19.9655 -19.9312 -19.9218 -19.8940 -19.8800 -19.8479 -19.8219
   -19.8034 -19.7924 -19.7885 -19.7502 -19.7360 -19.7353 -19.7158 -19.6966
    -7.4303  -7.4295  -7.4228  -7.4219  -7.4176  -7.4171  -7.4018  -7.4000
    -7.3985  -7.3968   9.2563   9.4415  14.9101  15.0076  15.5910  15.6589
    15.7524  16.0238  16.2806  16.4459  16.6970  16.7192  16.8896  16.9535
    17.0348  17.3086  17.4669  17.5665  17.7186  17.7569  17.8852  18.1353
    18.2191  18.4126  18.4219  18.5433  18.8254  18.8336  19.0959  19.2230
    19.2307  19.3094  19.9033  20.2286  20.4677  20.9305  21.3995  22.0625
    22.1899  24.0886  24.7601  25.7009  26.1947  26.3592  26.5209  27.1938
    27.7985  28.5239  29.2484  29.7652  29.9459  30.0790  30.7084  31.0316
    31.2492  31.6535

          k = 0.4000 0.2309 0.5424 (  5068 PWs)   bands (ev):

  -112.7708-112.7500 -68.2436 -68.2402 -68.2299 -68.2264 -68.2255 -68.2218
   -51.5048 -51.5009 -51.4960 -51.4956 -51.4948 -51.4937 -20.0129 -20.0076
   -19.9823 -19.9524 -19.9481 -19.9240 -19.8685 -19.8591 -19.8418 -19.8340
   -19.8016 -19.7905 -19.7647 -19.7518 -19.7458 -19.7271 -19.7061 -19.6988
    -7.4282  -7.4279  -7.4217  -7.4213  -7.4197  -7.4189  -7.4005  -7.3990
    -7.3986  -7.3970   9.3655   9.4303  14.9108  15.0180  15.6665  15.7092
    15.9515  16.1650  16.2733  16.4053  16.6627  16.8642  16.8825  16.9464
    17.0340  17.0660  17.4300  17.4839  17.6666  17.8210  17.8893  18.2009
    18.2839  18.3651  18.4789  18.4987  18.6104  18.7245  19.0055  19.0654
    19.5243  19.5929  19.5939  20.0734  20.0783  20.8326  20.9616  21.0815
    23.0314  24.0199  25.2174  25.8790  26.0996  26.1423  27.4231  27.6060
    27.9372  28.3841  29.3441  29.7683  30.4882  30.5279  30.6353  31.1112
    31.3063  31.4399

          k = 0.4000 0.4234 0.0000 (  5078 PWs)   bands (ev):

  -112.7775-112.7677 -68.2467 -68.2443 -68.2336 -68.2269 -68.2248 -68.2218
   -51.5124 -51.5064 -51.5040 -51.4942 -51.4907 -51.4868 -20.0291 -19.9587
   -19.9436 -19.9416 -19.9398 -19.9173 -19.8936 -19.8919 -19.8409 -19.8349
   -19.8099 -19.7957 -19.7849 -19.7754 -19.7736 -19.7310 -19.7044 -19.7027
    -7.4314  -7.4301  -7.4218  -7.4182  -7.4161  -7.4134  -7.4020  -7.4010
    -7.3984  -7.3961   9.2222   9.3916  14.6367  15.1703  15.2163  15.6078
    15.6397  15.6679  16.3260  16.4523  16.7005  16.8178  16.8452  16.9737
    17.0587  17.2299  17.3973  17.5980  17.8605  17.8691  18.0100  18.1467
    18.2902  18.5790  18.6927  18.7748  18.8084  18.8331  18.9611  19.0505
    19.1685  19.7622  20.0602  20.3123  20.4599  22.0383  22.2414  22.4332
    22.4968  23.9851  24.2765  24.9268  25.3224  25.8608  26.5469  27.4311
    27.8395  28.1515  28.1731  29.2482  29.6573  30.3507  30.7234  30.9578
    31.2615  31.3823

          k = 0.4000 0.4234 0.1808 (  5071 PWs)   bands (ev):

  -112.7741-112.7567 -68.2449 -68.2408 -68.2357 -68.2262 -68.2234 -68.2196
   -51.5121 -51.5045 -51.5014 -51.4949 -51.4886 -51.4881 -20.0182 -19.9856
   -19.9572 -19.9431 -19.9375 -19.8974 -19.8892 -19.8624 -19.8469 -19.8355
   -19.8313 -19.8072 -19.7774 -19.7552 -19.7452 -19.7368 -19.7109 -19.7008
    -7.4299  -7.4297  -7.4234  -7.4180  -7.4160  -7.4136  -7.4014  -7.4003
    -7.3986  -7.3960   9.2551   9.4085  14.7483  15.0819  15.2451  15.6356
    15.6482  15.7075  16.4360  16.4409  16.6714  16.7218  16.9585  17.0304
    17.2431  17.3125  17.3606  17.5345  17.7408  17.7546  17.9767  18.0132
    18.1173  18.5142  18.5739  18.6571  18.8385  18.9860  19.0215  19.0838
    19.1672  19.7857  19.8317  20.3768  20.5509  21.5507  21.8460  22.4752
    22.8587  23.5661  24.5186  25.1675  25.4610  25.8365  27.1248  27.3191
    27.8255  28.2408  28.4156  29.3612  30.0183  30.1952  30.3323  30.9652
    31.1973  31.6691

          k = 0.4000 0.4234 0.3616 (  5075 PWs)   bands (ev):

  -112.7772-112.7601 -68.2473 -68.2435 -68.2327 -68.2282 -68.2251 -68.2180
   -51.5075 -51.5033 -51.4994 -51.4965 -51.4928 -51.4919 -20.0007 -19.9933
   -19.9817 -19.9516 -19.9298 -19.9221 -19.8668 -19.8561 -19.8462 -19.8420
   -19.8131 -19.8122 -19.7868 -19.7495 -19.7395 -19.7316 -19.7274 -19.7015
    -7.4300  -7.4294  -7.4232  -7.4203  -7.4188  -7.4151  -7.4002  -7.3994
    -7.3985  -7.3961   9.3336   9.4371  14.9383  14.9642  15.3964  15.6156
    15.7298  15.8404  16.4061  16.5655  16.7496  16.8637  16.9378  17.0256
    17.0809  17.1547  17.4094  17.4319  17.6990  17.7602  17.8814  18.0354
    18.1057  18.3912  18.4967  18.5402  18.7401  18.8734  19.1043  19.1434
    19.2917  19.3695  19.8372  20.2193  20.4162  21.0592  21.2865  22.2229
    22.9029  23.6969  24.9824  25.3160  25.8968  26.1080  27.1520  27.5239
    28.1113  28.2441  29.5305  29.5654  29.9540  30.4808  30.5561  30.8202
    31.1544  31.4535

          k = 0.4000 0.4234 0.5424 (  5077 PWs)   bands (ev):

  -112.7749-112.7650 -68.2457 -68.2454 -68.2300 -68.2279 -68.2249 -68.2233
   -51.5028 -51.5011 -51.4995 -51.4976 -51.4969 -51.4941 -20.0038 -19.9930
   -19.9799 -19.9573 -19.9360 -19.9237 -19.8702 -19.8602 -19.8487 -19.8455
   -19.7998 -19.7987 -19.7698 -19.7652 -19.7495 -19.7321 -19.7153 -19.7101
    -7.4283  -7.4279  -7.4222  -7.4207  -7.4202  -7.4195  -7.4000  -7.3990
    -7.3981  -7.3972   9.4144   9.4479  14.9098  14.9851  15.6096  15.6272
    15.9198  15.9898  16.4010  16.5161  16.7091  16.7798  16.8912  16.9431
    16.9938  17.0276  17.4682  17.5537  17.6718  17.7865  17.8722  18.2113
    18.2730  18.3166  18.4433  18.4583  18.5519  18.6472  19.0678  19.0838
    19.5220  19.5507  19.5817  20.0019  20.0086  20.2524  21.4647  21.8862
    23.1730  24.0858  24.5232  25.0404  26.9377  27.0866  27.3201  27.5318
    28.0422  28.2209  29.8292  29.9319  30.2767  30.4975  30.6402  30.6822
    31.2245  31.3124

          k = 0.4000 0.6158 0.0000 (  5071 PWs)   bands (ev):

  -112.7694-112.7614 -68.2467 -68.2440 -68.2320 -68.2259 -68.2234 -68.2174
   -51.5095 -51.5050 -51.5030 -51.4942 -51.4919 -51.4860 -20.0271 -19.9544
   -19.9457 -19.9406 -19.9236 -19.9103 -19.9082 -19.8968 -19.8491 -19.8361
   -19.7958 -19.7889 -19.7836 -19.7781 -19.7564 -19.7290 -19.7085 -19.7008
    -7.4305  -7.4297  -7.4219  -7.4179  -7.4168  -7.4131  -7.4012  -7.3995
    -7.3981  -7.3961   9.2709   9.3692  14.6793  15.0932  15.2330  15.4806
    15.6297  15.7142  16.2534  16.5910  16.6773  16.7669  16.8847  17.0460
    17.0904  17.1688  17.2382  17.5872  17.8616  17.9245  17.9402  18.2106
    18.2843  18.6804  18.7908  18.7998  18.8014  18.8248  18.9244  19.0937
    19.2968  19.5235  20.0496  20.2547  20.3002  22.3302  22.3390  22.5945
    22.7849  23.6559  23.8671  24.6602  25.3970  25.8388  26.6257  27.8421
    28.1442  28.2096  28.4715  28.8412  29.4469  30.1203  30.6314  30.9478
    31.0559  31.5862

          k = 0.4000 0.6158 0.1808 (  5066 PWs)   bands (ev):

  -112.7673-112.7533 -68.2424 -68.2406 -68.2334 -68.2268 -68.2236 -68.2181
   -51.5092 -51.5028 -51.5020 -51.4933 -51.4901 -51.4889 -20.0191 -19.9724
   -19.9622 -19.9411 -19.9245 -19.9118 -19.8781 -19.8689 -19.8463 -19.8397
   -19.8217 -19.8134 -19.7684 -19.7522 -19.7437 -19.7339 -19.7113 -19.7058
    -7.4298  -7.4295  -7.4220  -7.4179  -7.4168  -7.4134  -7.4010  -7.3997
    -7.3983  -7.3961   9.2990   9.3885  14.8167  15.0850  15.1850  15.4671
    15.6518  15.6984  16.4139  16.5765  16.6703  16.7862  16.9476  17.0319
    17.1152  17.3432  17.3605  17.5199  17.6866  17.7452  17.8638  18.0285
    18.1339  18.6192  18.6551  18.7261  18.8119  18.9941  19.0107  19.1252
    19.3187  19.5757  19.7898  20.3571  20.3939  21.8233  22.0354  22.3395
    22.8217  23.9518  24.2846  24.7357  25.3084  25.6769  27.4769  27.7675
    27.9775  28.3876  28.6737  29.1032  29.4575  30.2384  30.3064  30.6091
    31.5330  31.5956

          k = 0.4000 0.6158 0.3616 (  5090 PWs)   bands (ev):

  -112.7904-112.7793 -68.2498 -68.2481 -68.2363 -68.2296 -68.2266 -68.2209
   -51.5078 -51.5042 -51.5028 -51.4981 -51.4961 -51.4935 -19.9970 -19.9922
   -19.9894 -19.9552 -19.9402 -19.9346 -19.8564 -19.8560 -19.8485 -19.8432
   -19.8296 -19.8283 -19.7800 -19.7543 -19.7417 -19.7382 -19.7248 -19.7121
    -7.4300  -7.4299  -7.4246  -7.4203  -7.4197  -7.4160  -7.4002  -7.3997
    -7.3985  -7.3968   9.3639   9.4245  15.0237  15.0347  15.2447  15.4814
    15.7432  15.7756  16.5356  16.6122  16.7826  16.9014  16.9489  16.9863
    17.0202  17.2340  17.3006  17.3109  17.6478  17.6924  17.8324  18.0574
    18.1196  18.4948  18.5856  18.6611  18.7057  18.8695  19.0909  19.1333
    19.3929  19.4174  19.6495  20.2713  20.3225  20.9254  21.6171  21.9484
    23.5467  23.7395  24.3602  25.0118  25.8566  25.9576  27.6997  28.1133
    28.2043  28.4666  29.4173  29.6146  29.7069  29.9283  30.3719  30.4672
    31.3933  31.6087

          k = 0.4000 0.6158 0.5424 (  5076 PWs)   bands (ev):

  -112.7753-112.7622 -68.2447 -68.2421 -68.2332 -68.2273 -68.2256 -68.2229
   -51.5031 -51.5014 -51.4984 -51.4973 -51.4959 -51.4950 -19.9918 -19.9876
   -19.9770 -19.9614 -19.9381 -19.9291 -19.8601 -19.8565 -19.8483 -19.8391
   -19.8036 -19.7970 -19.7836 -19.7614 -19.7457 -19.7401 -19.7170 -19.7158
    -7.4279  -7.4277  -7.4228  -7.4206  -7.4200  -7.4185  -7.3991  -7.3989
    -7.3985  -7.3978   9.4314   9.4528  14.9701  14.9989  15.5470  15.5520
    15.9035  15.9173  16.5418  16.6012  16.7016  16.7679  16.8463  16.8873
    16.9367  16.9888  17.3986  17.4906  17.6661  17.8468  17.8788  18.2288
    18.2610  18.3457  18.4997  18.5603  18.5802  18.6210  19.0947  19.1063
    19.4771  19.5716  19.6219  19.9043  19.9359  20.0192  21.8994  22.1632
    23.2609  23.6628  24.2909  24.7253  27.1123  27.1510  27.8104  27.8933
    28.1804  28.3872  29.3731  29.6191  30.2446  30.4950  30.6327  30.7757
    31.2329  31.3758

          k = 0.4000-0.3464 0.0000 (  5079 PWs)   bands (ev):

  -112.7811-112.7657 -68.2473 -68.2443 -68.2363 -68.2273 -68.2227 -68.2213
   -51.5130 -51.5072 -51.5036 -51.4946 -51.4906 -51.4858 -20.0279 -19.9670
   -19.9494 -19.9454 -19.9413 -19.9163 -19.8953 -19.8903 -19.8433 -19.8263
   -19.8122 -19.7949 -19.7864 -19.7764 -19.7749 -19.7293 -19.7029 -19.6932
    -7.4316  -7.4297  -7.4234  -7.4183  -7.4157  -7.4132  -7.4020  -7.4014
    -7.3986  -7.3958   9.1787   9.4090  14.6252  15.1764  15.3048  15.5258
    15.7004  15.7543  16.3635  16.3746  16.6475  16.7899  16.8738  17.0326
    17.0467  17.2716  17.3325  17.7091  17.7962  17.8175  18.0932  18.1601
    18.2378  18.5700  18.6142  18.7154  18.8218  18.8516  19.0033  19.0216
    19.1542  19.8875  20.0723  20.3420  20.6037  21.8616  22.0261  22.1734
    22.5385  24.1877  24.4651  25.1722  25.4131  25.7351  26.4136  27.3604
    27.6214  27.9015  28.1838  29.4983  29.8819  30.0086  30.9626  31.0461
    31.1861  31.5916

          k = 0.4000-0.3464 0.1808 (  5074 PWs)   bands (ev):

  -112.7740-112.7617 -68.2444 -68.2420 -68.2314 -68.2296 -68.2236 -68.2226
   -51.5124 -51.5048 -51.5004 -51.4957 -51.4894 -51.4885 -20.0221 -19.9884
   -19.9560 -19.9445 -19.9326 -19.9037 -19.8955 -19.8640 -19.8501 -19.8390
   -19.8208 -19.8054 -19.7842 -19.7600 -19.7460 -19.7266 -19.7138 -19.6955
    -7.4305  -7.4295  -7.4230  -7.4187  -7.4161  -7.4138  -7.4020  -7.4010
    -7.3982  -7.3960   9.2159   9.4208  14.7269  15.0626  15.3542  15.6086
    15.6945  15.7939  16.3654  16.4661  16.5894  16.6991  16.9676  17.0441
    17.2693  17.3356  17.3648  17.5011  17.7349  17.8269  17.9786  18.0529
    18.1577  18.4802  18.5225  18.5785  18.8762  18.9725  19.0019  19.0583
    19.1515  19.7901  19.9771  20.3705  20.6941  21.3173  21.8002  22.2757
    22.9425  23.5114  24.6329  25.3412  25.6942  25.8602  26.9379  27.0257
    27.7185  28.2302  28.3469  29.2555  30.1548  30.3506  30.4800  31.0421
    31.2052  31.6444

          k = 0.4000-0.3464 0.3616 (  5081 PWs)   bands (ev):

  -112.7866-112.7618 -68.2496 -68.2424 -68.2331 -68.2271 -68.2264 -68.2227
   -51.5086 -51.5027 -51.5000 -51.4983 -51.4933 -51.4921 -20.0102 -20.0009
   -19.9793 -19.9577 -19.9278 -19.9202 -19.8867 -19.8694 -19.8481 -19.8371
   -19.8121 -19.8077 -19.7845 -19.7488 -19.7372 -19.7311 -19.7211 -19.6968
    -7.4299  -7.4294  -7.4228  -7.4213  -7.4186  -7.4160  -7.4014  -7.3999
    -7.3980  -7.3961   9.3027   9.4407  14.8986  14.9525  15.5014  15.6821
    15.7148  15.9239  16.3487  16.4985  16.7350  16.7884  16.9349  17.0073
    17.0539  17.2313  17.4681  17.5232  17.7138  17.8306  17.8570  18.0496
    18.1359  18.3567  18.4461  18.4552  18.7691  18.8613  19.0970  19.1642
    19.2566  19.3337  19.9086  20.2135  20.4672  21.0924  21.2393  22.2480
    22.4747  23.8695  24.9874  25.7234  26.0242  26.2351  26.7313  27.1375
    27.9035  28.3082  29.4362  29.6417  29.9767  30.5620  30.7790  31.0074
    31.1930  31.3680

          k = 0.4000-0.3464 0.5424 (  5079 PWs)   bands (ev):

  -112.7723-112.7717 -68.2446 -68.2443 -68.2304 -68.2292 -68.2257 -68.2251
   -51.5053 -51.5026 -51.4988 -51.4976 -51.4952 -51.4941 -20.0126 -20.0033
   -19.9771 -19.9556 -19.9389 -19.9190 -19.8758 -19.8601 -19.8531 -19.8456
   -19.8045 -19.7911 -19.7688 -19.7603 -19.7502 -19.7281 -19.7133 -19.7096
    -7.4284  -7.4281  -7.4220  -7.4209  -7.4201  -7.4194  -7.4007  -7.3998
    -7.3985  -7.3972   9.3942   9.4414  14.8878  14.9812  15.6450  15.6763
    15.9382  16.0707  16.3353  16.4518  16.6989  16.7975  16.8977  16.9611
    17.0212  17.0660  17.4954  17.5829  17.7021  17.7444  17.8608  18.1810
    18.2701  18.3125  18.4170  18.4477  18.5607  18.6655  19.0407  19.0714
    19.5195  19.5561  19.5901  20.0429  20.0662  20.5021  21.1997  21.5090
    23.1848  24.1834  24.8097  25.4273  26.5365  26.6235  27.3628  27.4991
    27.9313  28.2272  29.7409  29.9782  30.3161  30.4665  30.6428  31.0221
    31.2062  31.3512

          k = 0.4000-0.1540 0.0000 (  5078 PWs)   bands (ev):

  -112.7854-112.7586 -68.2464 -68.2431 -68.2322 -68.2321 -68.2231 -68.2214
   -51.5160 -51.5039 -51.5011 -51.4945 -51.4909 -51.4873 -20.0339 -19.9770
   -19.9454 -19.9425 -19.9395 -19.9323 -19.9129 -19.8808 -19.8625 -19.8504
   -19.7874 -19.7815 -19.7750 -19.7689 -19.7550 -19.7257 -19.7024 -19.6925
    -7.4316  -7.4298  -7.4231  -7.4194  -7.4143  -7.4133  -7.4029  -7.4018
    -7.3990  -7.3962   9.0808   9.4369  14.7567  15.2705  15.3568  15.4235
    15.8217  15.8311  16.2488  16.4118  16.5842  16.6410  16.9580  16.9601
    17.0605  17.2682  17.2858  17.7421  17.7669  17.8204  17.9292  18.1529
    18.3218  18.6070  18.7062  18.8240  18.8596  18.8659  19.0438  19.0773
    19.3418  19.9062  20.1005  20.3504  20.6714  21.5035  21.8634  21.9229
    22.7522  23.7450  24.1399  25.4310  25.5329  25.9235  26.5552  27.4531
    27.5624  28.1562  28.4489  29.0848  29.5815  29.9891  30.7983  30.9324
    31.0980  31.5774

          k = 0.4000-0.1540 0.1808 (  5082 PWs)   bands (ev):

  -112.7929-112.7584 -68.2497 -68.2436 -68.2326 -68.2304 -68.2241 -68.2216
   -51.5175 -51.5033 -51.5001 -51.4958 -51.4900 -51.4894 -20.0251 -19.9902
   -19.9634 -19.9576 -19.9301 -19.9148 -19.9019 -19.8855 -19.8627 -19.8427
   -19.7951 -19.7887 -19.7731 -19.7580 -19.7499 -19.7269 -19.7194 -19.6947
    -7.4309  -7.4305  -7.4234  -7.4204  -7.4162  -7.4138  -7.4022  -7.4017
    -7.3986  -7.3964   9.1229   9.4401  14.8451  15.1624  15.4496  15.5340
    15.7180  15.8686  16.2757  16.4834  16.5455  16.5810  16.9229  16.9949
    17.2209  17.3363  17.4892  17.5234  17.6944  17.7486  17.8683  18.1000
    18.2947  18.4890  18.5807  18.7962  18.9183  18.9616  18.9978  19.1113
    19.3399  19.7973  20.0184  20.3029  20.7438  21.0855  21.6576  21.9068
    23.2046  23.4087  24.2153  25.2546  25.5757  26.1322  27.0281  27.4556
    27.7221  28.4260  28.4949  28.9013  29.9592  30.2499  30.2964  30.9000
    31.1436  31.5683

          k = 0.4000-0.1540 0.3616 (  5080 PWs)   bands (ev):

  -112.7876-112.7581 -68.2507 -68.2409 -68.2305 -68.2284 -68.2265 -68.2231
   -51.5140 -51.5011 -51.4981 -51.4980 -51.4922 -51.4906 -20.0129 -20.0029
   -19.9843 -19.9654 -19.9386 -19.9243 -19.8880 -19.8841 -19.8479 -19.8144
   -19.7958 -19.7917 -19.7760 -19.7538 -19.7374 -19.7299 -19.7219 -19.7008
    -7.4301  -7.4298  -7.4232  -7.4213  -7.4177  -7.4166  -7.4016  -7.4002
    -7.3984  -7.3969   9.2306   9.4417  14.9648  15.0747  15.5395  15.6962
    15.7722  15.9963  16.2739  16.4376  16.6439  16.6839  16.8758  16.9686
    17.0082  17.3087  17.4172  17.5474  17.6863  17.7407  17.9276  18.1633
    18.2651  18.4490  18.4947  18.6580  18.8098  18.8810  19.0930  19.2300
    19.2902  19.3706  19.8783  20.1918  20.3985  20.9350  21.2820  21.8861
    22.3560  24.1315  24.3561  25.6458  26.1219  26.4021  26.7123  27.4141
    27.9428  28.5903  29.2847  29.6956  29.7979  30.0030  30.7015  30.7819
    31.1886  31.5303

          k = 0.4000-0.1540 0.5424 (  5062 PWs)   bands (ev):

  -112.7661-112.7425 -68.2427 -68.2379 -68.2272 -68.2268 -68.2249 -68.2212
   -51.5062 -51.5002 -51.4959 -51.4945 -51.4937 -51.4911 -20.0147 -20.0035
   -19.9836 -19.9644 -19.9479 -19.9298 -19.8610 -19.8528 -19.8359 -19.8199
   -19.7917 -19.7885 -19.7612 -19.7538 -19.7431 -19.7285 -19.7081 -19.7005
    -7.4284  -7.4279  -7.4217  -7.4210  -7.4194  -7.4188  -7.4003  -7.3987
    -7.3985  -7.3970   9.3495   9.4221  14.9574  15.0618  15.6749  15.7174
    15.9315  16.1306  16.2900  16.4273  16.6353  16.8106  16.9276  16.9467
    16.9964  17.0464  17.3637  17.4530  17.6612  17.8463  17.8698  18.2517
    18.2972  18.4007  18.5581  18.5718  18.6744  18.7592  18.9918  19.0709
    19.5423  19.6138  19.6271  20.0161  20.0682  20.6462  20.9964  21.2278
    22.8566  23.7128  25.2152  25.7213  26.2290  26.3869  27.3990  27.6167
    28.0505  28.5296  29.1684  29.7230  30.3816  30.5747  30.6732  31.0970
    31.1341  31.4998

          k = 0.4000 0.0385 0.0000 (  5079 PWs)   bands (ev):

  -112.8007-112.7448 -68.2486 -68.2427 -68.2367 -68.2317 -68.2201 -68.2194
   -51.5195 -51.5034 -51.4981 -51.4936 -51.4916 -51.4878 -20.0348 -19.9740
   -19.9452 -19.9438 -19.9415 -19.9341 -19.9235 -19.8869 -19.8652 -19.8547
   -19.7834 -19.7812 -19.7780 -19.7662 -19.7376 -19.7133 -19.7088 -19.6955
    -7.4315  -7.4300  -7.4230  -7.4206  -7.4137  -7.4135  -7.4033  -7.4020
    -7.3992  -7.3956   9.0502   9.4458  14.9245  15.1372  15.3139  15.5861
    15.7062  15.8728  16.2741  16.3988  16.4900  16.7248  16.8350  16.9711
    17.0637  17.2304  17.2910  17.7366  17.7475  17.8867  17.8949  18.1295
    18.3294  18.6703  18.7061  18.7948  18.8787  18.9333  19.0779  19.1703
    19.5757  19.7676  20.1079  20.2641  20.6328  21.3593  21.9536  22.0486
    22.8344  23.4546  23.7323  25.5427  25.5939  25.8858  26.4754  27.7285
    27.9729  28.4393  28.7062  28.9747  29.2833  29.3998  30.7871  30.8136
    30.8296  31.6703

          k = 0.4000 0.0385 0.1808 (  5082 PWs)   bands (ev):

  -112.7868-112.7642 -68.2488 -68.2446 -68.2324 -68.2320 -68.2241 -68.2206
   -51.5154 -51.5040 -51.5021 -51.4955 -51.4902 -51.4886 -20.0220 -19.9881
   -19.9802 -19.9629 -19.9265 -19.9192 -19.9003 -19.8941 -19.8652 -19.8486
   -19.7979 -19.7835 -19.7655 -19.7585 -19.7386 -19.7168 -19.7135 -19.6982
    -7.4311  -7.4302  -7.4231  -7.4211  -7.4160  -7.4139  -7.4022  -7.4017
    -7.3991  -7.3965   9.0990   9.4429  15.0178  15.1319  15.4530  15.4932
    15.7178  15.8116  16.2903  16.4431  16.5233  16.6411  16.8076  17.0038
    17.2044  17.3292  17.5149  17.5830  17.6392  17.7453  17.8396  18.0586
    18.3038  18.5582  18.6854  18.8435  18.8535  18.9656  19.0024  19.2786
    19.5823  19.7541  19.9022  20.2354  20.6332  21.0596  21.6229  21.9559
    23.3038  23.3747  23.8083  25.0930  25.7232  25.9451  27.3707  27.5146
    28.1131  28.6098  28.7218  28.9175  29.2086  30.0522  30.3508  30.6799
    31.2407  31.3698

          k = 0.4000 0.0385 0.3616 (  5063 PWs)   bands (ev):

  -112.7756-112.7369 -68.2489 -68.2370 -68.2287 -68.2271 -68.2222 -68.2176
   -51.5136 -51.4977 -51.4960 -51.4955 -51.4905 -51.4902 -20.0001 -19.9972
[...]
     c_bands:  2 eigenvalues not converged
     c_bands:  4 eigenvalues not converged
     c_bands:  3 eigenvalues not converged
     c_bands:  2 eigenvalues not converged
     c_bands:  2 eigenvalues not converged
     c_bands:  2 eigenvalues not converged
     c_bands:  2 eigenvalues not converged
     c_bands:  2 eigenvalues not converged
     ethr =  1.15E-07,  avg # of iterations = 12.3

     total cpu time spent up to now is    12262.5 secs

     total energy              =   -2283.78236171 Ry
     Harris-Foulkes estimate   =   -2283.77716516 Ry
     estimated scf accuracy    <       0.10995524 Ry

     iteration # 87     ecut=    40.00 Ry     beta=0.70
     CG style diagonalization
     c_bands:  2 eigenvalues not converged
     c_bands:  2 eigenvalues not converged
     c_bands:  1 eigenvalues not converged
     c_bands:  3 eigenvalues not converged
     c_bands:  1 eigenvalues not converged
     c_bands:  5 eigenvalues not converged
     c_bands:  1 eigenvalues not converged
     c_bands:  1 eigenvalues not converged
     c_bands:  2 eigenvalues not converged
     c_bands:  1 eigenvalues not converged
     c_bands:  2 eigenvalues not converged
     c_bands:  2 eigenvalues not converged
     c_bands:  2 eigenvalues not converged
     c_bands:  4 eigenvalues not converged
     c_bands:  2 eigenvalues not converged
     c_bands:  1 eigenvalues not converged
     c_bands:  1 eigenvalues not converged
     c_bands:  1 eigenvalues not converged
     c_bands:  4 eigenvalues not converged
     c_bands:  2 eigenvalues not converged
     c_bands:  3 eigenvalues not converged
     c_bands:  1 eigenvalues not converged
     c_bands:  3 eigenvalues not converged
     c_bands:  2 eigenvalues not converged
     c_bands:  2 eigenvalues not converged
     c_bands:  3 eigenvalues not converged
     c_bands:  3 eigenvalues not converged
     c_bands:  1 eigenvalues not converged
     c_bands:  2 eigenvalues not converged
     c_bands:  2 eigenvalues not converged
     c_bands:  1 eigenvalues not converged
     c_bands:  1 eigenvalues not converged
     c_bands:  1 eigenvalues not converged
     c_bands:  2 eigenvalues not converged
     c_bands:  3 eigenvalues not converged
     c_bands:  3 eigenvalues not converged
     c_bands:  3 eigenvalues not converged
     c_bands:  2 eigenvalues not converged
     c_bands:  2 eigenvalues not converged
     c_bands:  2 eigenvalues not converged
     c_bands:  4 eigenvalues not converged
     c_bands:  2 eigenvalues not converged
     c_bands:  1 eigenvalues not converged
     c_bands:  2 eigenvalues not converged
     c_bands:  2 eigenvalues not converged
     c_bands:  2 eigenvalues not converged
     c_bands:  1 eigenvalues not converged
     c_bands:  2 eigenvalues not converged
     c_bands:  4 eigenvalues not converged
     c_bands:  1 eigenvalues not converged
     ethr =  1.15E-07,  avg # of iterations = 11.5

     total cpu time spent up to now is    12381.6 secs

     total energy              =   -2283.82024603 Ry
     Harris-Foulkes estimate   =   -2283.77544618 Ry
     estimated scf accuracy    <       0.26894361 Ry

     iteration # 88     ecut=    40.00 Ry     beta=0.70
     CG style diagonalization
     c_bands:  2 eigenvalues not converged
     c_bands:  4 eigenvalues not converged
     c_bands:  1 eigenvalues not converged
     c_bands:  1 eigenvalues not converged
     c_bands:  1 eigenvalues not converged
     c_bands:  1 eigenvalues not converged
     c_bands:  2 eigenvalues not converged
     c_bands:  1 eigenvalues not converged
     c_bands:  3 eigenvalues not converged
     c_bands:  2 eigenvalues not converged
     c_bands:  2 eigenvalues not converged
     c_bands:  1 eigenvalues not converged
     c_bands:  1 eigenvalues not converged
     c_bands:  2 eigenvalues not converged
     c_bands:  2 eigenvalues not converged
     c_bands:  2 eigenvalues not converged
     c_bands:  3 eigenvalues not converged
     c_bands:  1 eigenvalues not converged
     c_bands:  2 eigenvalues not converged
     c_bands:  1 eigenvalues not converged
     c_bands:  2 eigenvalues not converged
     c_bands:  2 eigenvalues not converged
     c_bands:  1 eigenvalues not converged
     c_bands:  2 eigenvalues not converged
     c_bands:  1 eigenvalues not converged
     c_bands:  1 eigenvalues not converged
     c_bands:  2 eigenvalues not converged
     c_bands:  1 eigenvalues not converged
     c_bands:  2 eigenvalues not converged
     c_bands:  4 eigenvalues not converged
     c_bands:  1 eigenvalues not converged
     c_bands:  1 eigenvalues not converged
     c_bands:  1 eigenvalues not converged
     c_bands:  1 eigenvalues not converged
     c_bands:  1 eigenvalues not converged
     ethr =  1.15E-07,  avg # of iterations = 10.9

     total cpu time spent up to now is    12494.9 secs

     total energy              =   -2283.76626429 Ry
     Harris-Foulkes estimate   =   -2283.77104248 Ry
     estimated scf accuracy    <       0.44232785 Ry

     iteration # 89     ecut=    40.00 Ry     beta=0.70
     CG style diagonalization
     c_bands:  1 eigenvalues not converged
     c_bands:  4 eigenvalues not converged
     c_bands:  1 eigenvalues not converged
     c_bands:  1 eigenvalues not converged
     c_bands:  1 eigenvalues not converged
     c_bands:  1 eigenvalues not converged
     c_bands:  1 eigenvalues not converged
     c_bands:  2 eigenvalues not converged
     c_bands:  2 eigenvalues not converged
     c_bands:  2 eigenvalues not converged
     c_bands:  1 eigenvalues not converged
     c_bands:  2 eigenvalues not converged
     c_bands:  2 eigenvalues not converged
     c_bands:  2 eigenvalues not converged
     c_bands:  1 eigenvalues not converged
     c_bands:  3 eigenvalues not converged
     c_bands:  1 eigenvalues not converged
     c_bands:  2 eigenvalues not converged
     c_bands:  1 eigenvalues not converged
     c_bands:  1 eigenvalues not converged
     c_bands:  2 eigenvalues not converged
     c_bands:  1 eigenvalues not converged
     c_bands:  2 eigenvalues not converged
     c_bands:  1 eigenvalues not converged
     c_bands:  2 eigenvalues not converged
     c_bands:  1 eigenvalues not converged
     c_bands:  1 eigenvalues not converged
     c_bands:  1 eigenvalues not converged
     c_bands:  2 eigenvalues not converged
     ethr =  1.15E-07,  avg # of iterations = 10.6

     total cpu time spent up to now is    12604.4 secs

     total energy              =   -2283.77171653 Ry
     Harris-Foulkes estimate   =   -2283.77111230 Ry
     estimated scf accuracy    <       0.23731084 Ry

     iteration # 90     ecut=    40.00 Ry     beta=0.70
     CG style diagonalization
     c_bands:  1 eigenvalues not converged
     c_bands:  2 eigenvalues not converged
     c_bands:  1 eigenvalues not converged
     c_bands:  1 eigenvalues not converged
     c_bands:  1 eigenvalues not converged
     c_bands:  1 eigenvalues not converged
     c_bands:  1 eigenvalues not converged
     c_bands:  1 eigenvalues not converged
     c_bands:  1 eigenvalues not converged
     c_bands:  2 eigenvalues not converged
     c_bands:  1 eigenvalues not converged
     c_bands:  2 eigenvalues not converged
     c_bands:  2 eigenvalues not converged
     c_bands:  2 eigenvalues not converged
     c_bands:  1 eigenvalues not converged
     c_bands:  2 eigenvalues not converged
     c_bands:  1 eigenvalues not converged
     c_bands:  2 eigenvalues not converged
     c_bands:  1 eigenvalues not converged
     c_bands:  1 eigenvalues not converged
     c_bands:  2 eigenvalues not converged
     c_bands:  2 eigenvalues not converged
     c_bands:  2 eigenvalues not converged
     c_bands:  2 eigenvalues not converged
     c_bands:  2 eigenvalues not converged
     c_bands:  1 eigenvalues not converged
     c_bands:  1 eigenvalues not converged
     c_bands:  1 eigenvalues not converged
     c_bands:  2 eigenvalues not converged
     ethr =  1.15E-07,  avg # of iterations = 10.5

     total cpu time spent up to now is    12713.4 secs

     total energy              =   -2283.72217019 Ry
     Harris-Foulkes estimate   =   -2283.77109689 Ry
     estimated scf accuracy    <       0.36408274 Ry

     iteration # 91     ecut=    40.00 Ry     beta=0.70
     CG style diagonalization
     c_bands:  2 eigenvalues not converged
     c_bands:  4 eigenvalues not converged
     c_bands:  1 eigenvalues not converged
     c_bands:  1 eigenvalues not converged
     c_bands:  1 eigenvalues not converged
     c_bands:  1 eigenvalues not converged
     c_bands:  1 eigenvalues not converged
     c_bands:  2 eigenvalues not converged
     c_bands:  1 eigenvalues not converged
     c_bands:  3 eigenvalues not converged
     c_bands:  2 eigenvalues not converged
     c_bands:  2 eigenvalues not converged
     c_bands:  1 eigenvalues not converged
     c_bands:  2 eigenvalues not converged
     c_bands:  1 eigenvalues not converged
     c_bands:  2 eigenvalues not converged
     c_bands:  1 eigenvalues not converged
     c_bands:  2 eigenvalues not converged
     c_bands:  1 eigenvalues not converged
     c_bands:  1 eigenvalues not converged
     c_bands:  2 eigenvalues not converged
     c_bands:  1 eigenvalues not converged
     c_bands:  2 eigenvalues not converged
     c_bands:  2 eigenvalues not converged
     c_bands:  1 eigenvalues not converged
     c_bands:  2 eigenvalues not converged
     c_bands:  1 eigenvalues not converged
     c_bands:  1 eigenvalues not converged
     c_bands:  2 eigenvalues not converged
     c_bands:  2 eigenvalues not converged
     c_bands:  2 eigenvalues not converged
     c_bands:  4 eigenvalues not converged
     c_bands:  1 eigenvalues not converged
     c_bands:  1 eigenvalues not converged
     c_bands:  1 eigenvalues not converged
     c_bands:  1 eigenvalues not converged
     c_bands:  1 eigenvalues not converged
     ethr =  1.15E-07,  avg # of iterations = 10.9

     total cpu time spent up to now is    12826.5 secs

     total energy              =   -2283.74145418 Ry
     Harris-Foulkes estimate   =   -2283.77629356 Ry
     estimated scf accuracy    <       0.31888471 Ry

     iteration # 92     ecut=    40.00 Ry     beta=0.70
     CG style diagonalization
     c_bands:  2 eigenvalues not converged
     c_bands:  2 eigenvalues not converged
     c_bands:  3 eigenvalues not converged
     c_bands:  1 eigenvalues not converged
     c_bands:  1 eigenvalues not converged
     c_bands:  1 eigenvalues not converged
     c_bands:  1 eigenvalues not converged
     c_bands:  1 eigenvalues not converged
     c_bands:  1 eigenvalues not converged
     c_bands:  2 eigenvalues not converged
     c_bands:  1 eigenvalues not converged
     c_bands:  1 eigenvalues not converged
     c_bands:  2 eigenvalues not converged
     c_bands:  2 eigenvalues not converged
     c_bands:  3 eigenvalues not converged
     c_bands:  1 eigenvalues not converged
     c_bands:  2 eigenvalues not converged
     c_bands:  1 eigenvalues not converged
     c_bands:  2 eigenvalues not converged
     c_bands:  3 eigenvalues not converged
     c_bands:  2 eigenvalues not converged
     c_bands:  1 eigenvalues not converged
     c_bands:  1 eigenvalues not converged
     c_bands:  2 eigenvalues not converged
     c_bands:  1 eigenvalues not converged
     c_bands:  1 eigenvalues not converged
     c_bands:  1 eigenvalues not converged
     c_bands:  2 eigenvalues not converged
     c_bands:  2 eigenvalues not converged
     c_bands:  1 eigenvalues not converged
     c_bands:  2 eigenvalues not converged
     c_bands:  1 eigenvalues not converged
     c_bands:  1 eigenvalues not converged
     c_bands:  3 eigenvalues not converged
     c_bands:  3 eigenvalues not converged
     c_bands:  2 eigenvalues not converged
     c_bands:  4 eigenvalues not converged
     c_bands:  2 eigenvalues not converged
     c_bands:  1 eigenvalues not converged
     c_bands:  2 eigenvalues not converged
     c_bands:  1 eigenvalues not converged
     c_bands:  1 eigenvalues not converged
     c_bands:  1 eigenvalues not converged
     c_bands:  1 eigenvalues not converged
     ethr =  1.15E-07,  avg # of iterations = 11.2

     total cpu time spent up to now is    12942.4 secs

     total energy              =   -2283.73621966 Ry
     Harris-Foulkes estimate   =   -2283.78570301 Ry
     estimated scf accuracy    <       0.19566519 Ry

     iteration # 93     ecut=    40.00 Ry     beta=0.70
     CG style diagonalization
     c_bands:  2 eigenvalues not converged
     c_bands:  2 eigenvalues not converged
     c_bands:  2 eigenvalues not converged
     c_bands:  3 eigenvalues not converged
     c_bands:  4 eigenvalues not converged
     c_bands:  1 eigenvalues not converged
     c_bands:  1 eigenvalues not converged
     c_bands:  1 eigenvalues not converged
     c_bands:  1 eigenvalues not converged
     c_bands:  2 eigenvalues not converged
     c_bands:  2 eigenvalues not converged
     c_bands:  2 eigenvalues not converged
     c_bands:  1 eigenvalues not converged
     c_bands:  2 eigenvalues not converged
     c_bands:  1 eigenvalues not converged
     c_bands:  2 eigenvalues not converged
     c_bands:  1 eigenvalues not converged
     c_bands:  2 eigenvalues not converged
     c_bands:  3 eigenvalues not converged
     c_bands:  2 eigenvalues not converged
     c_bands:  3 eigenvalues not converged
     c_bands:  1 eigenvalues not converged
     c_bands:  2 eigenvalues not converged
     c_bands:  2 eigenvalues not converged
     c_bands:  2 eigenvalues not converged
     c_bands:  3 eigenvalues not converged
     c_bands:  2 eigenvalues not converged
     c_bands:  2 eigenvalues not converged
     c_bands:  1 eigenvalues not converged
     c_bands:  2 eigenvalues not converged
     c_bands:  2 eigenvalues not converged
     c_bands:  1 eigenvalues not converged
     c_bands:  2 eigenvalues not converged
     c_bands:  2 eigenvalues not converged
     c_bands:  3 eigenvalues not converged
     c_bands:  2 eigenvalues not converged
     c_bands:  3 eigenvalues not converged
     c_bands:  2 eigenvalues not converged
     c_bands:  2 eigenvalues not converged
     c_bands:  3 eigenvalues not converged
     c_bands:  5 eigenvalues not converged
     c_bands:  3 eigenvalues not converged
     c_bands:  1 eigenvalues not converged
     c_bands:  2 eigenvalues not converged
     c_bands:  3 eigenvalues not converged
     c_bands:  2 eigenvalues not converged
     c_bands:  1 eigenvalues not converged
     c_bands:  2 eigenvalues not converged
     c_bands:  1 eigenvalues not converged
     c_bands:  1 eigenvalues not converged
     c_bands:  1 eigenvalues not converged
     c_bands:  3 eigenvalues not converged
     ethr =  1.15E-07,  avg # of iterations = 11.6

     total cpu time spent up to now is    13062.5 secs

     total energy              =   -2283.75226344 Ry
     Harris-Foulkes estimate   =   -2283.81672008 Ry
     estimated scf accuracy    <       0.17341953 Ry

     iteration # 94     ecut=    40.00 Ry     beta=0.70
     CG style diagonalization
     c_bands:  2 eigenvalues not converged
     c_bands:  3 eigenvalues not converged
     c_bands:  3 eigenvalues not converged
     c_bands:  4 eigenvalues not converged
     c_bands:  1 eigenvalues not converged
     c_bands:  5 eigenvalues not converged
     c_bands:  1 eigenvalues not converged
     c_bands:  2 eigenvalues not converged
     c_bands:  3 eigenvalues not converged
     c_bands:  2 eigenvalues not converged
     c_bands:  2 eigenvalues not converged
     c_bands:  4 eigenvalues not converged
     c_bands:  2 eigenvalues not converged
     c_bands:  1 eigenvalues not converged
     c_bands:  4 eigenvalues not converged
     c_bands:  2 eigenvalues not converged
     c_bands:  5 eigenvalues not converged
     c_bands:  2 eigenvalues not converged
     c_bands:  4 eigenvalues not converged
     c_bands:  1 eigenvalues not converged
     c_bands:  4 eigenvalues not converged
     c_bands:  4 eigenvalues not converged
     c_bands:  4 eigenvalues not converged
     c_bands:  3 eigenvalues not converged
     c_bands:  3 eigenvalues not converged
     c_bands:  5 eigenvalues not converged
     c_bands:  4 eigenvalues not converged
     c_bands:  4 eigenvalues not converged
     c_bands:  4 eigenvalues not converged
     c_bands:  4 eigenvalues not converged
     c_bands:  2 eigenvalues not converged
     c_bands:  4 eigenvalues not converged
     c_bands:  3 eigenvalues not converged
     c_bands:  1 eigenvalues not converged
     c_bands:  4 eigenvalues not converged
     c_bands:  5 eigenvalues not converged
     c_bands:  4 eigenvalues not converged
     c_bands:  2 eigenvalues not converged
     c_bands:  5 eigenvalues not converged
     c_bands:  4 eigenvalues not converged
     c_bands:  4 eigenvalues not converged
     c_bands:  5 eigenvalues not converged
     c_bands:  4 eigenvalues not converged
     c_bands:  5 eigenvalues not converged
     c_bands:  5 eigenvalues not converged
     c_bands:  3 eigenvalues not converged
     c_bands:  5 eigenvalues not converged
     c_bands:  5 eigenvalues not converged
     ethr =  1.15E-07,  avg # of iterations = 12.9

     total cpu time spent up to now is    13195.6 secs

     total energy              =   -2283.88950276 Ry
     Harris-Foulkes estimate   =   -2283.89217838 Ry
     estimated scf accuracy    <       0.16583036 Ry

     iteration # 95     ecut=    40.00 Ry     beta=0.70
     CG style diagonalization
     c_bands:  2 eigenvalues not converged
     c_bands:  3 eigenvalues not converged
     c_bands:  3 eigenvalues not converged
     c_bands:  3 eigenvalues not converged
     c_bands:  1 eigenvalues not converged
     c_bands:  5 eigenvalues not converged
     c_bands:  2 eigenvalues not converged
     c_bands:  2 eigenvalues not converged
     c_bands:  3 eigenvalues not converged
     c_bands:  2 eigenvalues not converged
     c_bands:  2 eigenvalues not converged
     c_bands:  4 eigenvalues not converged
     c_bands:  2 eigenvalues not converged
     c_bands:  1 eigenvalues not converged
     c_bands:  4 eigenvalues not converged
     c_bands:  2 eigenvalues not converged
     c_bands:  5 eigenvalues not converged
     c_bands:  2 eigenvalues not converged
     c_bands:  5 eigenvalues not converged
     c_bands:  1 eigenvalues not converged
     c_bands:  4 eigenvalues not converged
     c_bands:  5 eigenvalues not converged
     c_bands:  4 eigenvalues not converged
     c_bands:  3 eigenvalues not converged
     c_bands:  3 eigenvalues not converged
     c_bands:  3 eigenvalues not converged
     c_bands:  4 eigenvalues not converged
     c_bands:  4 eigenvalues not converged
     c_bands:  4 eigenvalues not converged
     c_bands:  2 eigenvalues not converged
     c_bands:  5 eigenvalues not converged
     c_bands:  3 eigenvalues not converged
     c_bands:  1 eigenvalues not converged
     c_bands:  5 eigenvalues not converged
     c_bands:  4 eigenvalues not converged
     c_bands:  3 eigenvalues not converged
     c_bands:  2 eigenvalues not converged
     c_bands:  5 eigenvalues not converged
     c_bands:  4 eigenvalues not converged
     c_bands:  4 eigenvalues not converged
     c_bands:  4 eigenvalues not converged
     c_bands:  5 eigenvalues not converged
     c_bands:  3 eigenvalues not converged
     c_bands:  5 eigenvalues not converged
     c_bands:  2 eigenvalues not converged
     c_bands:  4 eigenvalues not converged
     c_bands:  4 eigenvalues not converged
     ethr =  1.15E-07,  avg # of iterations = 12.9

     total cpu time spent up to now is    13329.7 secs

     total energy              =   -2283.88594922 Ry
     Harris-Foulkes estimate   =   -2283.89573212 Ry
     estimated scf accuracy    <       0.16576089 Ry

     iteration # 96     ecut=    40.00 Ry     beta=0.70
     CG style diagonalization
     c_bands:  2 eigenvalues not converged
     c_bands:  3 eigenvalues not converged
     c_bands:  3 eigenvalues not converged
