
     Program PWSCF v.5.0.2 starts on 22Mar2018 at 17:34:59 

     This program is part of the open-source Quantum ESPRESSO suite
     for quantum simulation of materials; please cite
         "P. Giannozzi et al., J. Phys.:Condens. Matter 21 395502 (2009);
          URL http://www.quantum-espresso.org", 
     in publications or presentations arising from this work. More details at
     http://www.quantum-espresso.org/quote.php

     Parallel version (MPI), running on     4 processors
     R & G space division:  proc/nbgrp/npool/nimage =       4

     Current dimensions of program PWSCF are:
     Max number of different atomic species (ntypx) = 10
     Max number of k-points (npk) =  40000
     Max angular momentum in pseudopotentials (lmaxx) =  3
     Waiting for input...
     Reading input from standard input

     Subspace diagonalization in iterative solution of the eigenvalue problem:
     a serial algorithm will be used

 
     Parallelization info
     --------------------
     sticks:   dense  smooth     PW     G-vecs:    dense   smooth      PW
     Min         356     356    106                 9670     9670    1578
     Max         358     358    108                 9671     9671    1579
     Sum        1429    1429    427                38681    38681    6313
 


     bravais-lattice index     =            0
     lattice parameter (alat)  =      13.3930  a.u.
     unit-cell volume          =    1134.0956 (a.u.)^3
     number of atoms/cell      =            4
     number of atomic types    =            2
     number of electrons       =        88.00
     number of Kohn-Sham states=           53
     kinetic-energy cutoff     =      40.0000  Ry
     charge density cutoff     =     160.0000  Ry
     convergence threshold     =      1.0E-04
     mixing beta               =       0.7000
     number of iterations used =            8  plain     mixing
     Exchange-correlation      = SLA-PZ-NOGX-NOGC ( 1 1 0 0 0)
     EXX-fraction              =        0.00
     nstep                     =           50


     celldm(1)=  13.392972  celldm(2)=   0.000000  celldm(3)=   0.000000
     celldm(4)=   0.000000  celldm(5)=   0.000000  celldm(6)=   0.000000

     crystal axes: (cart. coord. in units of alat)
               a(1) = (   1.000000   0.000000   0.000000 )  
               a(2) = (  -0.776311   0.630350   0.000000 )  
               a(3) = (   0.000000   0.000000   0.748922 )  

     reciprocal axes: (cart. coord. in units 2 pi/alat)
               b(1) = (  1.000000  1.231554  0.000000 )  
               b(2) = (  0.000000  1.586419  0.000000 )  
               b(3) = (  0.000000  0.000000  1.335252 )  


     PseudoPot. # 1 for Tb read from file:
     /home/jld5415/pp.La/Tb.UPF
     MD5 check sum: 3d6088a3f0cf7fd2e110c43f7f8e95c2
     Pseudo is Norm-conserving, Zval = 19.0
     Generated in analytical, separable form
     Using radial grid of 1263 points,  6 beta functions with: 
                l(1) =   0
                l(2) =   0
                l(3) =   1
                l(4) =   1
                l(5) =   2
                l(6) =   3

     PseudoPot. # 2 for Lu read from file:
     /home/jld5415/pp.La/La.UPF
     MD5 check sum: 4fc038260c66a0bf25fb4835376efb80
     Pseudo is Norm-conserving, Zval = 25.0
     Generated in analytical, separable form
     Using radial grid of 1271 points,  6 beta functions with: 
                l(1) =   0
                l(2) =   0
                l(3) =   1
                l(4) =   1
                l(5) =   2
                l(6) =   3

     atomic species   valence    mass     pseudopotential
        Tl            19.00   204.38300     Tb( 1.00)
        I             25.00   126.90400     Lu( 1.00)

      2 Sym. Ops., with inversion, found
          (note:  2 additional sym.ops. were found but ignored
           their fractional translations are incommensurate with FFT grid)


   Cartesian axes

     site n.     atom                  positions (alat units)
         1           Tl  tau(   1) = (  -0.0906317   0.3870269   0.5616917  )
         2           Tl  tau(   2) = (   0.3143210   0.2433234   0.1872306  )
         3           I   tau(   3) = (  -0.5408004   0.5467760   0.5616917  )
         4           I   tau(   4) = (   0.7644896   0.0835744   0.1872306  )

     number of k points=   106  gaussian smearing, width (Ry)=  0.1000

     Number of k-points >= 100: set verbosity='high' to print them.

     Dense  grid:    38681 G-vectors     FFT dimensions: (  54,  54,  45)

     Largest allocated arrays     est. size (Mb)     dimensions
        Kohn-Sham Wavefunctions         0.99 Mb     (   1230,   53)
        NL pseudopotentials             1.50 Mb     (   1230,   80)
        Each V/rho on FFT grid          0.53 Mb     (  34992)
        Each G-vector array             0.07 Mb     (   9671)
        G-vector shells                 0.07 Mb     (   9671)
     Largest temporary arrays     est. size (Mb)     dimensions
        Each subspace H/S matrix        0.04 Mb     (  53,  53)
        Each <psi_i|beta_j> matrix      0.06 Mb     (     80,   53)
        Arrays for rho mixing           4.27 Mb     (  34992,   8)

     Initial potential from superposition of free atoms

     Starting from uniform charge
     Starting wfc are    0 randomized atomic wfcs

     total cpu time spent up to now is       10.0 secs

     Self-consistent Calculation

     iteration #  1     ecut=    40.00 Ry     beta=0.70
     CG style diagonalization
     ethr =  1.00E-02,  avg # of iterations = 21.9

     total cpu time spent up to now is      212.5 secs

     total energy              =    -923.56852116 Ry
     Harris-Foulkes estimate   =   -2011.45140797 Ry
     estimated scf accuracy    <    1309.94646257 Ry

     iteration #  2     ecut=    40.00 Ry     beta=0.70
     CG style diagonalization
     c_bands:  2 eigenvalues not converged
     c_bands:  2 eigenvalues not converged
     c_bands:  1 eigenvalues not converged
     c_bands:  1 eigenvalues not converged
     c_bands:  2 eigenvalues not converged
     c_bands:  1 eigenvalues not converged
     c_bands:  4 eigenvalues not converged
     c_bands:  3 eigenvalues not converged
     c_bands:  2 eigenvalues not converged
     c_bands:  2 eigenvalues not converged
     c_bands:  2 eigenvalues not converged
     c_bands:  2 eigenvalues not converged
     c_bands:  2 eigenvalues not converged
     c_bands:  1 eigenvalues not converged
     c_bands:  3 eigenvalues not converged
     c_bands:  4 eigenvalues not converged
     c_bands:  3 eigenvalues not converged
     c_bands:  3 eigenvalues not converged
     c_bands:  5 eigenvalues not converged
     c_bands:  4 eigenvalues not converged
     c_bands:  1 eigenvalues not converged
     c_bands:  1 eigenvalues not converged
     c_bands:  1 eigenvalues not converged
     c_bands:  2 eigenvalues not converged
     c_bands:  1 eigenvalues not converged
     c_bands:  4 eigenvalues not converged
     c_bands:  3 eigenvalues not converged
     c_bands:  4 eigenvalues not converged
     c_bands:  2 eigenvalues not converged
     c_bands:  1 eigenvalues not converged
     c_bands:  2 eigenvalues not converged
     c_bands:  1 eigenvalues not converged
     c_bands:  1 eigenvalues not converged
     c_bands:  2 eigenvalues not converged
     c_bands:  3 eigenvalues not converged
     c_bands:  1 eigenvalues not converged
     c_bands:  2 eigenvalues not converged
     c_bands:  4 eigenvalues not converged
     c_bands:  1 eigenvalues not converged
     c_bands:  1 eigenvalues not converged
     c_bands:  2 eigenvalues not converged
     c_bands:  1 eigenvalues not converged
     c_bands:  1 eigenvalues not converged
     c_bands:  3 eigenvalues not converged
     c_bands:  2 eigenvalues not converged
     c_bands:  5 eigenvalues not converged
     c_bands:  1 eigenvalues not converged
     c_bands:  3 eigenvalues not converged
     c_bands:  2 eigenvalues not converged
     c_bands:  3 eigenvalues not converged
     c_bands:  1 eigenvalues not converged
     c_bands:  2 eigenvalues not converged
     c_bands:  3 eigenvalues not converged
     c_bands:  3 eigenvalues not converged
     c_bands:  1 eigenvalues not converged
     c_bands:  2 eigenvalues not converged
     c_bands:  2 eigenvalues not converged
     c_bands:  2 eigenvalues not converged
     c_bands:  3 eigenvalues not converged
     c_bands:  2 eigenvalues not converged
     c_bands:  3 eigenvalues not converged
     c_bands:  5 eigenvalues not converged
     c_bands:  2 eigenvalues not converged
     c_bands:  3 eigenvalues not converged
     c_bands:  4 eigenvalues not converged
     c_bands:  1 eigenvalues not converged
     c_bands:  1 eigenvalues not converged
     c_bands:  2 eigenvalues not converged
     c_bands:  5 eigenvalues not converged
     c_bands:  4 eigenvalues not converged
     c_bands:  1 eigenvalues not converged
     c_bands:  5 eigenvalues not converged
     c_bands:  1 eigenvalues not converged
     c_bands:  3 eigenvalues not converged
     c_bands:  2 eigenvalues not converged
     c_bands:  4 eigenvalues not converged
     c_bands:  1 eigenvalues not converged
     c_bands:  2 eigenvalues not converged
     c_bands:  1 eigenvalues not converged
     c_bands:  2 eigenvalues not converged
     c_bands:  4 eigenvalues not converged
     c_bands:  4 eigenvalues not converged
     c_bands:  1 eigenvalues not converged
     c_bands:  4 eigenvalues not converged
     c_bands:  2 eigenvalues not converged
     c_bands:  5 eigenvalues not converged
     c_bands:  2 eigenvalues not converged
     c_bands:  3 eigenvalues not converged
     c_bands:  1 eigenvalues not converged
     c_bands:  4 eigenvalues not converged
     c_bands:  1 eigenvalues not converged
     ethr =  1.00E-02,  avg # of iterations = 12.8

     total cpu time spent up to now is      335.9 secs

     total energy              =    -954.86366628 Ry
     Harris-Foulkes estimate   =   -1820.92254292 Ry
     estimated scf accuracy    <    1662.95050489 Ry

     iteration #  3     ecut=    40.00 Ry     beta=0.70
     CG style diagonalization
     c_bands:  1 eigenvalues not converged
     c_bands:  1 eigenvalues not converged
     c_bands:  1 eigenvalues not converged
     c_bands:  1 eigenvalues not converged
     c_bands:  1 eigenvalues not converged
     c_bands:  1 eigenvalues not converged
     c_bands:  1 eigenvalues not converged
     c_bands:  1 eigenvalues not converged
     c_bands:  2 eigenvalues not converged
     c_bands:  1 eigenvalues not converged
     c_bands:  1 eigenvalues not converged
     c_bands:  1 eigenvalues not converged
     c_bands:  1 eigenvalues not converged
     c_bands:  1 eigenvalues not converged
     c_bands:  2 eigenvalues not converged
     c_bands:  2 eigenvalues not converged
     ethr =  1.00E-02,  avg # of iterations = 12.4

     total cpu time spent up to now is      459.1 secs

     total energy              =   -1329.10284489 Ry
     Harris-Foulkes estimate   =   -1403.91246044 Ry
     estimated scf accuracy    <     165.47575234 Ry

     iteration #  4     ecut=    40.00 Ry     beta=0.70
     CG style diagonalization
     ethr =  1.00E-02,  avg # of iterations =  7.2

     total cpu time spent up to now is      533.6 secs

     total energy              =   -1364.40169896 Ry
     Harris-Foulkes estimate   =   -1369.16682461 Ry
     estimated scf accuracy    <      10.23165440 Ry

     iteration #  5     ecut=    40.00 Ry     beta=0.70
     CG style diagonalization
     ethr =  1.00E-02,  avg # of iterations =  3.7

     total cpu time spent up to now is      568.1 secs

     total energy              =   -1365.53037216 Ry
     Harris-Foulkes estimate   =   -1367.21562316 Ry
     estimated scf accuracy    <       3.53111929 Ry

     iteration #  6     ecut=    40.00 Ry     beta=0.70
     CG style diagonalization
     ethr =  4.01E-03,  avg # of iterations =  3.5

     total cpu time spent up to now is      601.0 secs

     total energy              =   -1366.17772863 Ry
     Harris-Foulkes estimate   =   -1366.28950674 Ry
     estimated scf accuracy    <       0.22536892 Ry

     iteration #  7     ecut=    40.00 Ry     beta=0.70
     CG style diagonalization
     ethr =  2.56E-04,  avg # of iterations =  4.1

     total cpu time spent up to now is      639.7 secs

     total energy              =   -1366.24346256 Ry
     Harris-Foulkes estimate   =   -1366.25604431 Ry
     estimated scf accuracy    <       0.02144336 Ry

     iteration #  8     ecut=    40.00 Ry     beta=0.70
     CG style diagonalization
     c_bands:  1 eigenvalues not converged
     c_bands:  1 eigenvalues not converged
     ethr =  2.44E-05,  avg # of iterations =  4.1

     total cpu time spent up to now is      678.3 secs

     total energy              =   -1366.24822226 Ry
     Harris-Foulkes estimate   =   -1366.24936373 Ry
     estimated scf accuracy    <       0.00186245 Ry

     iteration #  9     ecut=    40.00 Ry     beta=0.70
     CG style diagonalization
     c_bands:  1 eigenvalues not converged
     c_bands:  1 eigenvalues not converged
     c_bands:  1 eigenvalues not converged
     c_bands:  1 eigenvalues not converged
     ethr =  2.12E-06,  avg # of iterations =  4.7

     total cpu time spent up to now is      721.5 secs

     total energy              =   -1366.24889727 Ry
     Harris-Foulkes estimate   =   -1366.24931738 Ry
     estimated scf accuracy    <       0.00086455 Ry

     iteration # 10     ecut=    40.00 Ry     beta=0.70
     CG style diagonalization
     ethr =  9.82E-07,  avg # of iterations =  3.4

     total cpu time spent up to now is      753.1 secs

     End of self-consistent calculation

     Number of k-points >= 100: set verbosity='high' to print the bands.

     the Fermi energy is    10.4535 ev

!    total energy              =   -1366.24897495 Ry
     Harris-Foulkes estimate   =   -1366.24904579 Ry
     estimated scf accuracy    <       0.00008051 Ry

     The total energy is the sum of the following terms:

     one-electron contribution =    -787.19105866 Ry
     hartree contribution      =     383.20661589 Ry
     xc contribution           =    -110.09079938 Ry
     ewald contribution        =    -852.05011928 Ry
     smearing contrib. (-TS)   =      -0.12361352 Ry

     convergence has been achieved in  10 iterations

     Forces acting on atoms (Ry/au):

     atom    1 type  1   force =    -0.01699709    0.00603606   -0.00129215
     atom    2 type  1   force =     0.01699709   -0.00603606    0.00129215
     atom    3 type  2   force =     0.06615637   -0.02358626   -0.00085882
     atom    4 type  2   force =    -0.06615637    0.02358626    0.00085882

     Total force =     0.102574     Total SCF correction =     0.000000


     entering subroutine stress ...

          total   stress  (Ry/bohr**3)                   (kbar)     P= -605.47
  -0.00405906  -0.00002019  -0.00000006       -597.11     -2.97     -0.01
  -0.00002019  -0.00410852   0.00000002         -2.97   -604.38      0.00
  -0.00000006   0.00000002  -0.00418021         -0.01      0.00   -614.93


     BFGS Geometry Optimization

     number of scf cycles    =   1
     number of bfgs steps    =   0

     enthalpy new            =   -1366.2489749454 Ry

     new trust radius        =       0.5000000000 bohr
     new conv_thr            =       0.0001000000 Ry

     new unit-cell volume =    903.14039 a.u.^3 (   133.83160 Ang^3 )

CELL_PARAMETERS (alat= 13.39297219)
   0.927915363  -0.000358546  -0.000001100
  -0.720576681   0.584636498   0.000001111
  -0.000000824   0.000000305   0.693325154

ATOMIC_POSITIONS (crystal)
Tl       0.385505764   0.614494892   0.749908488
Tl       0.614494236   0.385505108   0.250091512
I        0.134552224   0.865431382   0.749939177
I        0.865447776   0.134568618   0.250060823



     Writing output data file Prototype-La-oS8-TlI.save
     NEW-OLD atomic charge density approx. for the potential
     NEW k-points: (use verbosity='high' to print them)

     total cpu time spent up to now is      761.6 secs

     Self-consistent Calculation

     iteration #  1     ecut=    40.00 Ry     beta=0.70
     CG style diagonalization
     c_bands:  2 eigenvalues not converged
     c_bands:  5 eigenvalues not converged
     c_bands:  2 eigenvalues not converged
     c_bands:  1 eigenvalues not converged
     c_bands:  1 eigenvalues not converged
     c_bands:  3 eigenvalues not converged
     c_bands:  3 eigenvalues not converged
     c_bands:  1 eigenvalues not converged
     c_bands:  1 eigenvalues not converged
     c_bands:  1 eigenvalues not converged
     c_bands:  1 eigenvalues not converged
     c_bands:  1 eigenvalues not converged
     c_bands:  1 eigenvalues not converged
     c_bands:  1 eigenvalues not converged
     c_bands:  1 eigenvalues not converged
     ethr =  1.00E-06,  avg # of iterations = 20.8

     total cpu time spent up to now is      942.0 secs

     total energy              =   -1353.04263513 Ry
     Harris-Foulkes estimate   =   -1377.96234726 Ry
     estimated scf accuracy    <      30.24034219 Ry

     iteration #  2     ecut=    40.00 Ry     beta=0.70
     CG style diagonalization
     ethr =  1.00E-02,  avg # of iterations =  5.6

     total cpu time spent up to now is      993.4 secs

     total energy              =   -1360.36154700 Ry
     Harris-Foulkes estimate   =   -1375.58928633 Ry
     estimated scf accuracy    <      27.88522373 Ry

     iteration #  3     ecut=    40.00 Ry     beta=0.70
     CG style diagonalization
     ethr =  1.00E-02,  avg # of iterations =  4.2

     total cpu time spent up to now is     1033.7 secs

     total energy              =   -1366.24433928 Ry
     Harris-Foulkes estimate   =   -1367.98726920 Ry
     estimated scf accuracy    <       3.64758110 Ry

     iteration #  4     ecut=    40.00 Ry     beta=0.70
     CG style diagonalization
     ethr =  4.14E-03,  avg # of iterations =  3.4

     total cpu time spent up to now is     1065.9 secs

     total energy              =   -1366.96267271 Ry
     Harris-Foulkes estimate   =   -1367.04138058 Ry
     estimated scf accuracy    <       0.14739843 Ry

     iteration #  5     ecut=    40.00 Ry     beta=0.70
     CG style diagonalization
     c_bands:  1 eigenvalues not converged
     ethr =  1.67E-04,  avg # of iterations =  4.6

     total cpu time spent up to now is     1109.5 secs

     total energy              =   -1367.03215061 Ry
     Harris-Foulkes estimate   =   -1367.04721159 Ry
     estimated scf accuracy    <       0.02813472 Ry

     iteration #  6     ecut=    40.00 Ry     beta=0.70
     CG style diagonalization
     c_bands:  1 eigenvalues not converged
     c_bands:  1 eigenvalues not converged
     c_bands:  1 eigenvalues not converged
     ethr =  3.20E-05,  avg # of iterations =  3.7

     total cpu time spent up to now is     1144.5 secs

     total energy              =   -1367.03599320 Ry
     Harris-Foulkes estimate   =   -1367.04196137 Ry
     estimated scf accuracy    <       0.01024635 Ry

     iteration #  7     ecut=    40.00 Ry     beta=0.70
     CG style diagonalization
     c_bands:  1 eigenvalues not converged
     ethr =  1.16E-05,  avg # of iterations =  3.8

     total cpu time spent up to now is     1180.4 secs

     total energy              =   -1367.03835812 Ry
     Harris-Foulkes estimate   =   -1367.03867617 Ry
     estimated scf accuracy    <       0.00061254 Ry

     iteration #  8     ecut=    40.00 Ry     beta=0.70
     CG style diagonalization
     c_bands:  1 eigenvalues not converged
     c_bands:  1 eigenvalues not converged
     c_bands:  1 eigenvalues not converged
     c_bands:  1 eigenvalues not converged
     c_bands:  1 eigenvalues not converged
     ethr =  6.96E-07,  avg # of iterations =  4.9

     total cpu time spent up to now is     1224.7 secs

     End of self-consistent calculation

     Number of k-points >= 100: set verbosity='high' to print the bands.

     the Fermi energy is    14.8656 ev

!    total energy              =   -1367.03866779 Ry
     Harris-Foulkes estimate   =   -1367.03873317 Ry
     estimated scf accuracy    <       0.00008177 Ry

     The total energy is the sum of the following terms:

     one-electron contribution =    -678.64971441 Ry
     hartree contribution      =     341.32603741 Ry
     xc contribution           =    -110.66332065 Ry
     ewald contribution        =    -918.94399750 Ry
     smearing contrib. (-TS)   =      -0.10767263 Ry

     convergence has been achieved in   8 iterations

     Forces acting on atoms (Ry/au):

     atom    1 type  1   force =    -0.01131829    0.00397963   -0.00265931
     atom    2 type  1   force =     0.01131829   -0.00397963    0.00265931
     atom    3 type  2   force =    -0.01935672    0.00695247   -0.00307506
     atom    4 type  2   force =     0.01935672   -0.00695247    0.00307506

     Total force =     0.034161     Total SCF correction =     0.000000


     entering subroutine stress ...

          total   stress  (Ry/bohr**3)                   (kbar)     P= -370.58
  -0.00243379  -0.00004084   0.00000011       -358.02     -6.01      0.02
  -0.00004084  -0.00253425  -0.00000004         -6.01   -372.80     -0.01
   0.00000011  -0.00000004  -0.00258935          0.02     -0.01   -380.91


     number of scf cycles    =   2
     number of bfgs steps    =   1

     enthalpy old            =   -1366.2489749454 Ry
     enthalpy new            =   -1367.0386677896 Ry

     CASE: enthalpy_new < enthalpy_old

     small trust_radius: resetting bfgs history

     new trust radius        =       0.3890790147 bohr
     new conv_thr            =       0.0000193567 Ry

     new unit-cell volume =    743.02242 a.u.^3 (   110.10456 Ang^3 )

CELL_PARAMETERS (alat= 13.39297219)
   0.871457063  -0.001283306   0.000001603
  -0.677330421   0.548331857  -0.000001556
   0.000001192  -0.000000367   0.648443677

ATOMIC_POSITIONS (crystal)
Tl       0.384989461   0.615002828   0.749622098
Tl       0.615010539   0.384997172   0.250377902
I        0.133683766   0.866318774   0.749608013
I        0.866316234   0.133681226   0.250391987



     Writing output data file Prototype-La-oS8-TlI.save
     NEW-OLD atomic charge density approx. for the potential
     NEW k-points: (use verbosity='high' to print them)

     total cpu time spent up to now is     1232.1 secs

     Self-consistent Calculation

     iteration #  1     ecut=    40.00 Ry     beta=0.70
     CG style diagonalization
     c_bands:  3 eigenvalues not converged
     c_bands:  5 eigenvalues not converged
     c_bands:  3 eigenvalues not converged
     c_bands:  1 eigenvalues not converged
     c_bands:  1 eigenvalues not converged
     c_bands:  1 eigenvalues not converged
     c_bands:  1 eigenvalues not converged
     c_bands:  1 eigenvalues not converged
     c_bands:  1 eigenvalues not converged
     c_bands:  1 eigenvalues not converged
     c_bands:  1 eigenvalues not converged
     c_bands:  1 eigenvalues not converged
     c_bands:  1 eigenvalues not converged
     c_bands:  1 eigenvalues not converged
     c_bands:  1 eigenvalues not converged
     c_bands:  1 eigenvalues not converged
     c_bands:  1 eigenvalues not converged
     c_bands:  1 eigenvalues not converged
     c_bands:  1 eigenvalues not converged
     c_bands:  1 eigenvalues not converged
     ethr =  1.00E-06,  avg # of iterations = 21.3

     total cpu time spent up to now is     1494.4 secs

     total energy              =   -1360.56314120 Ry
     Harris-Foulkes estimate   =   -1374.23866648 Ry
     estimated scf accuracy    <      16.77435627 Ry

     iteration #  2     ecut=    40.00 Ry     beta=0.70
     CG style diagonalization
     ethr =  1.00E-02,  avg # of iterations =  4.5

     total cpu time spent up to now is     1564.3 secs

     total energy              =   -1365.90623632 Ry
     Harris-Foulkes estimate   =   -1369.61588908 Ry
     estimated scf accuracy    <       5.96722676 Ry

     iteration #  3     ecut=    40.00 Ry     beta=0.70
     CG style diagonalization
     ethr =  6.78E-03,  avg # of iterations =  3.5

     total cpu time spent up to now is     1621.8 secs

     total energy              =   -1367.12973663 Ry
     Harris-Foulkes estimate   =   -1367.41723184 Ry
     estimated scf accuracy    <       0.51871842 Ry

     iteration #  4     ecut=    40.00 Ry     beta=0.70
     CG style diagonalization
     ethr =  5.89E-04,  avg # of iterations =  3.7

     total cpu time spent up to now is     1681.3 secs

     total energy              =   -1367.28198161 Ry
     Harris-Foulkes estimate   =   -1367.31687640 Ry
     estimated scf accuracy    <       0.07036326 Ry

     iteration #  5     ecut=    40.00 Ry     beta=0.70
     CG style diagonalization
     ethr =  8.00E-05,  avg # of iterations =  3.8

     total cpu time spent up to now is     1745.7 secs

     total energy              =   -1367.29967486 Ry
     Harris-Foulkes estimate   =   -1367.30716281 Ry
     estimated scf accuracy    <       0.01381908 Ry

     iteration #  6     ecut=    40.00 Ry     beta=0.70
     CG style diagonalization
     c_bands:  1 eigenvalues not converged
     c_bands:  1 eigenvalues not converged
     c_bands:  1 eigenvalues not converged
     ethr =  1.57E-05,  avg # of iterations =  4.0

     total cpu time spent up to now is     1811.4 secs

     total energy              =   -1367.30251407 Ry
     Harris-Foulkes estimate   =   -1367.30314555 Ry
     estimated scf accuracy    <       0.00115646 Ry

     iteration #  7     ecut=    40.00 Ry     beta=0.70
     CG style diagonalization
     c_bands:  1 eigenvalues not converged
     c_bands:  1 eigenvalues not converged
     c_bands:  1 eigenvalues not converged
     c_bands:  1 eigenvalues not converged
     c_bands:  1 eigenvalues not converged
     c_bands:  1 eigenvalues not converged
     c_bands:  1 eigenvalues not converged
     c_bands:  1 eigenvalues not converged
     ethr =  1.31E-06,  avg # of iterations =  4.4

     total cpu time spent up to now is     1882.6 secs

     total energy              =   -1367.30294130 Ry
     Harris-Foulkes estimate   =   -1367.30296289 Ry
     estimated scf accuracy    <       0.00004106 Ry

     iteration #  8     ecut=    40.00 Ry     beta=0.70
     CG style diagonalization
     c_bands:  1 eigenvalues not converged
     c_bands:  1 eigenvalues not converged
     ethr =  4.67E-08,  avg # of iterations =  5.1

     total cpu time spent up to now is     1964.1 secs

     End of self-consistent calculation

     Number of k-points >= 100: set verbosity='high' to print the bands.

     the Fermi energy is    19.5420 ev

!    total energy              =   -1367.30299102 Ry
     Harris-Foulkes estimate   =   -1367.30299799 Ry
     estimated scf accuracy    <       0.00000817 Ry

     The total energy is the sum of the following terms:

     one-electron contribution =    -580.48950050 Ry
     hartree contribution      =     305.30399459 Ry
     xc contribution           =    -111.30545646 Ry
     ewald contribution        =    -980.71017187 Ry
     smearing contrib. (-TS)   =      -0.10185678 Ry

     convergence has been achieved in   8 iterations

     Forces acting on atoms (Ry/au):

     atom    1 type  1   force =     0.05479888   -0.01936321   -0.01476969
     atom    2 type  1   force =    -0.05479888    0.01936321    0.01476969
     atom    3 type  2   force =    -0.03984014    0.01404738   -0.01416568
     atom    4 type  2   force =     0.03984014   -0.01404738    0.01416568

     Total force =     0.105653     Total SCF correction =     0.000000


     entering subroutine stress ...

          total   stress  (Ry/bohr**3)                   (kbar)     P=  -70.46
  -0.00037763  -0.00006693   0.00000035        -55.55     -9.85      0.05
  -0.00006693  -0.00054371  -0.00000008         -9.85    -79.98     -0.01
   0.00000035  -0.00000008  -0.00051561          0.05     -0.01    -75.85


     number of scf cycles    =   3
     number of bfgs steps    =   2

     enthalpy old            =   -1367.0386677896 Ry
     enthalpy new            =   -1367.3029910171 Ry

     CASE: enthalpy_new < enthalpy_old

     Message from routine bfgs:
     history already reset at previous step: stopping
     small trust_radius: resetting bfgs history

     new trust radius        =       0.0746632005 bohr
     new conv_thr            =       0.0000547989 Ry

     new unit-cell volume =    716.64286 a.u.^3 (   106.19551 Ang^3 )

CELL_PARAMETERS (alat= 13.39297219)
   0.863231953  -0.002724000   0.000009230
  -0.671853355   0.542011795  -0.000008620
   0.000006870  -0.000001715   0.640085091

ATOMIC_POSITIONS (crystal)
Tl       0.387640098   0.612372353   0.747921407
Tl       0.612359902   0.387627647   0.252078593
I        0.131753493   0.868227079   0.747976893
I        0.868246507   0.131772921   0.252023107



     Writing output data file Prototype-La-oS8-TlI.save
     NEW-OLD atomic charge density approx. for the potential
     NEW k-points: (use verbosity='high' to print them)

     total cpu time spent up to now is     1972.9 secs

     Self-consistent Calculation

     iteration #  1     ecut=    40.00 Ry     beta=0.70
     CG style diagonalization
     c_bands:  4 eigenvalues not converged
     c_bands:  2 eigenvalues not converged
     c_bands:  1 eigenvalues not converged
     c_bands:  1 eigenvalues not converged
     c_bands:  1 eigenvalues not converged
     c_bands:  1 eigenvalues not converged
     c_bands:  3 eigenvalues not converged
     c_bands:  1 eigenvalues not converged
     c_bands:  1 eigenvalues not converged
     c_bands:  1 eigenvalues not converged
     c_bands:  1 eigenvalues not converged
     c_bands:  2 eigenvalues not converged
     c_bands:  1 eigenvalues not converged
     c_bands:  1 eigenvalues not converged
     c_bands:  1 eigenvalues not converged
     c_bands:  1 eigenvalues not converged
     c_bands:  1 eigenvalues not converged
     c_bands:  1 eigenvalues not converged
     c_bands:  1 eigenvalues not converged
     c_bands:  1 eigenvalues not converged
     c_bands:  1 eigenvalues not converged
     c_bands:  1 eigenvalues not converged
     c_bands:  1 eigenvalues not converged
     c_bands:  1 eigenvalues not converged
     c_bands:  1 eigenvalues not converged
     ethr =  1.00E-06,  avg # of iterations = 20.8

     total cpu time spent up to now is     2321.4 secs

     total energy              =   -1358.37126162 Ry
     Harris-Foulkes estimate   =   -1370.54625095 Ry
     estimated scf accuracy    <      14.30662843 Ry

     iteration #  2     ecut=    40.00 Ry     beta=0.70
     CG style diagonalization
     ethr =  1.00E-02,  avg # of iterations =  5.7

     total cpu time spent up to now is     2418.3 secs

     total energy              =   -1358.19849459 Ry
     Harris-Foulkes estimate   =   -1379.44113883 Ry
     estimated scf accuracy    <      54.76050610 Ry

     iteration #  3     ecut=    40.00 Ry     beta=0.70
     CG style diagonalization
     ethr =  1.00E-02,  avg # of iterations =  4.5

     total cpu time spent up to now is     2490.8 secs

     total energy              =   -1366.94580170 Ry
     Harris-Foulkes estimate   =   -1367.16838947 Ry
     estimated scf accuracy    <       0.48223342 Ry

     iteration #  4     ecut=    40.00 Ry     beta=0.70
     CG style diagonalization
     c_bands:  1 eigenvalues not converged
     ethr =  5.48E-04,  avg # of iterations =  5.3

     total cpu time spent up to now is     2569.7 secs

     total energy              =   -1367.30446936 Ry
     Harris-Foulkes estimate   =   -1367.32107186 Ry
     estimated scf accuracy    <       0.03685040 Ry

     iteration #  5     ecut=    40.00 Ry     beta=0.70
     CG style diagonalization
     c_bands:  1 eigenvalues not converged
     c_bands:  1 eigenvalues not converged
     c_bands:  1 eigenvalues not converged
     c_bands:  1 eigenvalues not converged
     c_bands:  1 eigenvalues not converged
     c_bands:  1 eigenvalues not converged
     c_bands:  1 eigenvalues not converged
     c_bands:  2 eigenvalues not converged
     c_bands:  1 eigenvalues not converged
     c_bands:  1 eigenvalues not converged
     c_bands:  1 eigenvalues not converged
     c_bands:  2 eigenvalues not converged
     c_bands:  1 eigenvalues not converged
     c_bands:  2 eigenvalues not converged
     c_bands:  1 eigenvalues not converged
     c_bands:  1 eigenvalues not converged
     c_bands:  1 eigenvalues not converged
     ethr =  4.19E-05,  avg # of iterations =  4.9

     total cpu time spent up to now is     2642.2 secs

     total energy              =   -1367.31678630 Ry
     Harris-Foulkes estimate   =   -1367.32102059 Ry
     estimated scf accuracy    <       0.00809511 Ry

     iteration #  6     ecut=    40.00 Ry     beta=0.70
     CG style diagonalization
     c_bands:  1 eigenvalues not converged
     c_bands:  1 eigenvalues not converged
     c_bands:  1 eigenvalues not converged
     c_bands:  1 eigenvalues not converged
     c_bands:  1 eigenvalues not converged
     c_bands:  1 eigenvalues not converged
     c_bands:  1 eigenvalues not converged
     c_bands:  1 eigenvalues not converged
     c_bands:  1 eigenvalues not converged
     c_bands:  1 eigenvalues not converged
     c_bands:  1 eigenvalues not converged
     ethr =  9.20E-06,  avg # of iterations =  4.1

     total cpu time spent up to now is     2704.4 secs

     total energy              =   -1367.31845366 Ry
     Harris-Foulkes estimate   =   -1367.31925996 Ry
     estimated scf accuracy    <       0.00159526 Ry

     iteration #  7     ecut=    40.00 Ry     beta=0.70
     CG style diagonalization
     c_bands:  1 eigenvalues not converged
     c_bands:  1 eigenvalues not converged
     c_bands:  1 eigenvalues not converged
     c_bands:  1 eigenvalues not converged
     c_bands:  1 eigenvalues not converged
     c_bands:  1 eigenvalues not converged
     c_bands:  1 eigenvalues not converged
     c_bands:  1 eigenvalues not converged
     c_bands:  1 eigenvalues not converged
     c_bands:  1 eigenvalues not converged
     ethr =  1.81E-06,  avg # of iterations =  4.3

     total cpu time spent up to now is     2769.2 secs

     total energy              =   -1367.31890323 Ry
     Harris-Foulkes estimate   =   -1367.31901534 Ry
     estimated scf accuracy    <       0.00022591 Ry

     iteration #  8     ecut=    40.00 Ry     beta=0.70
     CG style diagonalization
     c_bands:  1 eigenvalues not converged
     c_bands:  1 eigenvalues not converged
     c_bands:  1 eigenvalues not converged
     ethr =  2.57E-07,  avg # of iterations =  4.3

     total cpu time spent up to now is     2830.0 secs

     End of self-consistent calculation

     Number of k-points >= 100: set verbosity='high' to print the bands.

     the Fermi energy is    20.4932 ev

!    total energy              =   -1367.31896066 Ry
     Harris-Foulkes estimate   =   -1367.31900284 Ry
     estimated scf accuracy    <       0.00004966 Ry

     The total energy is the sum of the following terms:

     one-electron contribution =    -561.10703027 Ry
     hartree contribution      =     298.36275107 Ry
     xc contribution           =    -111.44239706 Ry
     ewald contribution        =    -993.03136831 Ry
     smearing contrib. (-TS)   =      -0.10091609 Ry

     convergence has been achieved in   8 iterations

     Forces acting on atoms (Ry/au):

     atom    1 type  1   force =     0.01770470   -0.00619612   -0.01566203
     atom    2 type  1   force =    -0.01770470    0.00619612    0.01566203
     atom    3 type  2   force =    -0.00628549    0.00221863   -0.01573448
     atom    4 type  2   force =     0.00628549   -0.00221863    0.01573448

     Total force =     0.042170     Total SCF correction =     0.000000


     entering subroutine stress ...

          total   stress  (Ry/bohr**3)                   (kbar)     P=    0.49
  -0.00000955  -0.00000106   0.00000655         -1.40     -0.16      0.96
  -0.00000106  -0.00001385  -0.00000228         -0.16     -2.04     -0.34
   0.00000655  -0.00000228   0.00003333          0.96     -0.34      4.90


     The maximum number of steps has been reached.

     End of BFGS Geometry Optimization
Begin final coordinates
     new unit-cell volume =    716.64286 a.u.^3 (   106.19551 Ang^3 )

CELL_PARAMETERS (alat= 13.39297219)
   0.863231953  -0.002724000   0.000009230
  -0.671853355   0.542011795  -0.000008620
   0.000006870  -0.000001715   0.640085091

ATOMIC_POSITIONS (crystal)
Tl       0.387640098   0.612372353   0.747921407
Tl       0.612359902   0.387627647   0.252078593
I        0.131753493   0.868227079   0.747976893
I        0.868246507   0.131772921   0.252023107
End final coordinates



     A final scf calculation at the relaxed structure.
     The G-vectors are recalculated for the final unit cell
     Results may differ from those at the preceding step.
 
     Parallelization info
     --------------------
     sticks:   dense  smooth     PW     G-vecs:    dense   smooth      PW
     Min         267     267     81                 6119     6119    1037
     Max         268     268     82                 6122     6122    1040
     Sum        1069    1069    325                24483    24483    4151
 


     bravais-lattice index     =            0
     lattice parameter (alat)  =      13.3930  a.u.
     unit-cell volume          =     716.6429 (a.u.)^3
     number of atoms/cell      =            4
     number of atomic types    =            2
     number of electrons       =        88.00
     number of Kohn-Sham states=           53
     kinetic-energy cutoff     =      40.0000  Ry
     charge density cutoff     =     160.0000  Ry
     convergence threshold     =      5.5E-05
     mixing beta               =       0.7000
     number of iterations used =            8  plain     mixing
     Exchange-correlation      = SLA-PZ-NOGX-NOGC ( 1 1 0 0 0)
     EXX-fraction              =        0.00

     celldm(1)=  13.392972  celldm(2)=   0.000000  celldm(3)=   0.000000
     celldm(4)=   0.000000  celldm(5)=   0.000000  celldm(6)=   0.000000

     crystal axes: (cart. coord. in units of alat)
               a(1) = (   0.863232  -0.002724   0.000009 )  
               a(2) = (  -0.671853   0.542012  -0.000009 )  
               a(3) = (   0.000007  -0.000002   0.640085 )  

     reciprocal axes: (cart. coord. in units 2 pi/alat)
               b(1) = (  1.162986  1.441585 -0.000009 )  
               b(2) = (  0.005845  1.852223  0.000005 )  
               b(3) = ( -0.000017  0.000004  1.562292 )  


     PseudoPot. # 1 for Tb read from file:
     /home/jld5415/pp.La/Tb.UPF
     MD5 check sum: 3d6088a3f0cf7fd2e110c43f7f8e95c2
     Pseudo is Norm-conserving, Zval = 19.0
     Generated in analytical, separable form
     Using radial grid of 1263 points,  6 beta functions with: 
                l(1) =   0
                l(2) =   0
                l(3) =   1
                l(4) =   1
                l(5) =   2
                l(6) =   3

     PseudoPot. # 2 for Lu read from file:
     /home/jld5415/pp.La/La.UPF
     MD5 check sum: 4fc038260c66a0bf25fb4835376efb80
     Pseudo is Norm-conserving, Zval = 25.0
     Generated in analytical, separable form
     Using radial grid of 1271 points,  6 beta functions with: 
                l(1) =   0
                l(2) =   0
                l(3) =   1
                l(4) =   1
                l(5) =   2
                l(6) =   3

     atomic species   valence    mass     pseudopotential
        Tl            19.00   204.38300     Tb( 1.00)
        I             25.00   126.90400     Lu( 1.00)

      2 Sym. Ops., with inversion, found
          (note:  2 additional sym.ops. were found but ignored
           their fractional translations are incommensurate with FFT grid)


   Cartesian axes

     site n.     atom                  positions (alat units)
         1           Tl  tau(   1) = (  -0.0767960   0.3308558   0.4787316  )
         2           Tl  tau(   2) = (   0.2681814   0.2084303   0.1613541  )
         3           I   tau(   3) = (  -0.4695823   0.4702291   0.4787626  )
         4           I   tau(   4) = (   0.6609678   0.0690569   0.1613231  )

     number of k points=   106  gaussian smearing, width (Ry)=  0.1000

     Number of k-points >= 100: set verbosity='high' to print them.

     Dense  grid:    24483 G-vectors     FFT dimensions: (  48,  48,  36)

     Largest allocated arrays     est. size (Mb)     dimensions
        Kohn-Sham Wavefunctions         0.65 Mb     (    805,   53)
        NL pseudopotentials             0.98 Mb     (    805,   80)
        Each V/rho on FFT grid          0.32 Mb     (  20736)
        Each G-vector array             0.05 Mb     (   6121)
        G-vector shells                 0.05 Mb     (   5925)
     Largest temporary arrays     est. size (Mb)     dimensions
        Each subspace H/S matrix        0.04 Mb     (  53,  53)
        Each <psi_i|beta_j> matrix      0.06 Mb     (     80,   53)
        Arrays for rho mixing           2.53 Mb     (  20736,   8)

     Initial potential from superposition of free atoms

     Starting from uniform charge
     Starting wfc are    0 randomized atomic wfcs

     Writing output data file Prototype-La-oS8-TlI.save

     total cpu time spent up to now is     2842.9 secs

     Self-consistent Calculation

     iteration #  1     ecut=    40.00 Ry     beta=0.70
     CG style diagonalization
     c_bands:  5 eigenvalues not converged
     c_bands:  5 eigenvalues not converged
     c_bands:  5 eigenvalues not converged
     c_bands:  5 eigenvalues not converged
     c_bands:  5 eigenvalues not converged
     c_bands:  5 eigenvalues not converged
     c_bands:  5 eigenvalues not converged
     c_bands:  4 eigenvalues not converged
     c_bands:  5 eigenvalues not converged
     c_bands:  5 eigenvalues not converged
     c_bands:  5 eigenvalues not converged
     c_bands:  5 eigenvalues not converged
     c_bands:  5 eigenvalues not converged
     c_bands:  5 eigenvalues not converged
     c_bands:  1 eigenvalues not converged
     c_bands:  5 eigenvalues not converged
     c_bands:  5 eigenvalues not converged
     c_bands:  5 eigenvalues not converged
     c_bands:  5 eigenvalues not converged
     c_bands:  5 eigenvalues not converged
     c_bands:  5 eigenvalues not converged
     c_bands:  5 eigenvalues not converged
     c_bands:  5 eigenvalues not converged
     c_bands:  5 eigenvalues not converged
     c_bands:  4 eigenvalues not converged
     c_bands:  5 eigenvalues not converged
     c_bands:  1 eigenvalues not converged
     c_bands:  5 eigenvalues not converged
     c_bands:  5 eigenvalues not converged
     c_bands:  5 eigenvalues not converged
     c_bands:  4 eigenvalues not converged
     c_bands:  5 eigenvalues not converged
     c_bands:  5 eigenvalues not converged
     c_bands:  5 eigenvalues not converged
     c_bands:  2 eigenvalues not converged
     c_bands:  1 eigenvalues not converged
     c_bands:  5 eigenvalues not converged
     c_bands:  5 eigenvalues not converged
     c_bands:  5 eigenvalues not converged
     c_bands:  1 eigenvalues not converged
     c_bands:  5 eigenvalues not converged
     c_bands:  5 eigenvalues not converged
     c_bands:  5 eigenvalues not converged
     c_bands:  5 eigenvalues not converged
     c_bands:  5 eigenvalues not converged
     c_bands:  1 eigenvalues not converged
     c_bands:  5 eigenvalues not converged
     c_bands:  4 eigenvalues not converged
     c_bands:  5 eigenvalues not converged
     c_bands:  5 eigenvalues not converged
     c_bands:  5 eigenvalues not converged
     c_bands:  1 eigenvalues not converged
     c_bands:  5 eigenvalues not converged
     c_bands:  5 eigenvalues not converged
     c_bands:  5 eigenvalues not converged
     c_bands:  5 eigenvalues not converged
     c_bands:  5 eigenvalues not converged
     c_bands:  1 eigenvalues not converged
     c_bands:  5 eigenvalues not converged
     c_bands:  5 eigenvalues not converged
     c_bands:  1 eigenvalues not converged
     c_bands:  5 eigenvalues not converged
     c_bands:  5 eigenvalues not converged
     c_bands:  5 eigenvalues not converged
     c_bands:  5 eigenvalues not converged
     c_bands:  4 eigenvalues not converged
     c_bands:  5 eigenvalues not converged
     c_bands:  5 eigenvalues not converged
     c_bands:  5 eigenvalues not converged
     c_bands:  5 eigenvalues not converged
     c_bands:  1 eigenvalues not converged
     c_bands:  1 eigenvalues not converged
     c_bands:  5 eigenvalues not converged
     c_bands:  5 eigenvalues not converged
     c_bands:  4 eigenvalues not converged
     c_bands:  1 eigenvalues not converged
     c_bands:  5 eigenvalues not converged
     c_bands:  5 eigenvalues not converged
     c_bands:  5 eigenvalues not converged
     c_bands:  5 eigenvalues not converged
     c_bands:  5 eigenvalues not converged
     c_bands:  5 eigenvalues not converged
     c_bands:  5 eigenvalues not converged
     c_bands:  5 eigenvalues not converged
     c_bands:  5 eigenvalues not converged
     c_bands:  5 eigenvalues not converged
     c_bands:  5 eigenvalues not converged
     c_bands:  5 eigenvalues not converged
     c_bands:  5 eigenvalues not converged
     c_bands:  5 eigenvalues not converged
     c_bands:  5 eigenvalues not converged
     c_bands:  4 eigenvalues not converged
     c_bands:  4 eigenvalues not converged
     c_bands:  5 eigenvalues not converged
     c_bands:  5 eigenvalues not converged
     c_bands:  5 eigenvalues not converged
     c_bands:  1 eigenvalues not converged
     c_bands:  5 eigenvalues not converged
     c_bands:  5 eigenvalues not converged
     c_bands:  5 eigenvalues not converged
     c_bands:  5 eigenvalues not converged
     c_bands:  5 eigenvalues not converged
     c_bands:  2 eigenvalues not converged
     ethr =  1.00E-06,  avg # of iterations = 52.9

     total cpu time spent up to now is     3219.1 secs

     total energy              =    -933.93039989 Ry
     Harris-Foulkes estimate   =   -1891.10764686 Ry
     estimated scf accuracy    <    1153.59566435 Ry

     iteration #  2     ecut=    40.00 Ry     beta=0.70
     CG style diagonalization
     c_bands:  2 eigenvalues not converged
     c_bands:  2 eigenvalues not converged
     c_bands:  3 eigenvalues not converged
     c_bands:  1 eigenvalues not converged
     c_bands:  5 eigenvalues not converged
     c_bands:  5 eigenvalues not converged
     c_bands:  3 eigenvalues not converged
     c_bands:  2 eigenvalues not converged
     c_bands:  3 eigenvalues not converged
     c_bands:  3 eigenvalues not converged
     c_bands:  4 eigenvalues not converged
     c_bands:  2 eigenvalues not converged
     c_bands:  5 eigenvalues not converged
     c_bands:  5 eigenvalues not converged
     c_bands:  4 eigenvalues not converged
     c_bands:  5 eigenvalues not converged
     c_bands:  2 eigenvalues not converged
     c_bands:  1 eigenvalues not converged
     c_bands:  3 eigenvalues not converged
     c_bands:  5 eigenvalues not converged
     c_bands:  5 eigenvalues not converged
     c_bands:  1 eigenvalues not converged
     c_bands:  2 eigenvalues not converged
     c_bands:  1 eigenvalues not converged
     c_bands:  3 eigenvalues not converged
     c_bands:  1 eigenvalues not converged
     c_bands:  4 eigenvalues not converged
     c_bands:  2 eigenvalues not converged
     c_bands:  3 eigenvalues not converged
     c_bands:  4 eigenvalues not converged
     c_bands:  4 eigenvalues not converged
     c_bands:  1 eigenvalues not converged
     c_bands:  4 eigenvalues not converged
     c_bands:  4 eigenvalues not converged
     c_bands:  3 eigenvalues not converged
     c_bands:  1 eigenvalues not converged
     c_bands:  4 eigenvalues not converged
     c_bands:  4 eigenvalues not converged
     c_bands:  4 eigenvalues not converged
     c_bands:  1 eigenvalues not converged
     c_bands:  4 eigenvalues not converged
     c_bands:  1 eigenvalues not converged
     c_bands:  3 eigenvalues not converged
     c_bands:  2 eigenvalues not converged
     c_bands:  4 eigenvalues not converged
     c_bands:  5 eigenvalues not converged
     c_bands:  1 eigenvalues not converged
     c_bands:  2 eigenvalues not converged
     c_bands:  4 eigenvalues not converged
     c_bands:  2 eigenvalues not converged
     c_bands:  5 eigenvalues not converged
     c_bands:  1 eigenvalues not converged
     c_bands:  1 eigenvalues not converged
     c_bands:  4 eigenvalues not converged
     c_bands:  4 eigenvalues not converged
     c_bands:  5 eigenvalues not converged
     c_bands:  4 eigenvalues not converged
     c_bands:  3 eigenvalues not converged
     c_bands:  4 eigenvalues not converged
     c_bands:  3 eigenvalues not converged
     c_bands:  3 eigenvalues not converged
     c_bands:  5 eigenvalues not converged
     c_bands:  4 eigenvalues not converged
     c_bands:  2 eigenvalues not converged
     c_bands:  4 eigenvalues not converged
     c_bands:  5 eigenvalues not converged
     c_bands:  3 eigenvalues not converged
     c_bands:  1 eigenvalues not converged
     c_bands:  5 eigenvalues not converged
     c_bands:  4 eigenvalues not converged
     c_bands:  3 eigenvalues not converged
     c_bands:  5 eigenvalues not converged
     c_bands:  5 eigenvalues not converged
     c_bands:  3 eigenvalues not converged
     c_bands:  3 eigenvalues not converged
     c_bands:  3 eigenvalues not converged
     c_bands:  4 eigenvalues not converged
     c_bands:  2 eigenvalues not converged
     c_bands:  3 eigenvalues not converged
     c_bands:  5 eigenvalues not converged
     c_bands:  5 eigenvalues not converged
     c_bands:  3 eigenvalues not converged
     c_bands:  2 eigenvalues not converged
     c_bands:  4 eigenvalues not converged
     c_bands:  3 eigenvalues not converged
     c_bands:  3 eigenvalues not converged
     c_bands:  2 eigenvalues not converged
     c_bands:  1 eigenvalues not converged
     c_bands:  2 eigenvalues not converged
     c_bands:  4 eigenvalues not converged
     c_bands:  2 eigenvalues not converged
     c_bands:  1 eigenvalues not converged
     c_bands:  5 eigenvalues not converged
     c_bands:  4 eigenvalues not converged
     c_bands:  4 eigenvalues not converged
     ethr =  1.00E-02,  avg # of iterations = 13.0

     total cpu time spent up to now is     3318.8 secs

     total energy              =   -1040.13540875 Ry
     Harris-Foulkes estimate   =   -1761.71853797 Ry
     estimated scf accuracy    <    1361.40554327 Ry

     iteration #  3     ecut=    40.00 Ry     beta=0.70
     CG style diagonalization
     ethr =  1.00E-02,  avg # of iterations = 11.2

     total cpu time spent up to now is     3401.9 secs

     total energy              =   -1339.14555063 Ry
     Harris-Foulkes estimate   =   -1391.35007983 Ry
     estimated scf accuracy    <      98.77304310 Ry

     iteration #  4     ecut=    40.00 Ry     beta=0.70
     CG style diagonalization
     ethr =  1.00E-02,  avg # of iterations =  6.5

     total cpu time spent up to now is     3451.9 secs

     total energy              =   -1364.14701100 Ry
     Harris-Foulkes estimate   =   -1370.47988980 Ry
     estimated scf accuracy    <      16.80579829 Ry

     iteration #  5     ecut=    40.00 Ry     beta=0.70
     CG style diagonalization
     ethr =  1.00E-02,  avg # of iterations =  3.6

     total cpu time spent up to now is     3480.0 secs

     total energy              =   -1365.63164687 Ry
     Harris-Foulkes estimate   =   -1366.89109455 Ry
     estimated scf accuracy    <       2.09265372 Ry

     iteration #  6     ecut=    40.00 Ry     beta=0.70
     CG style diagonalization
     ethr =  2.38E-03,  avg # of iterations =  3.6

     total cpu time spent up to now is     3507.0 secs

     total energy              =   -1366.06317673 Ry
     Harris-Foulkes estimate   =   -1366.09161555 Ry
     estimated scf accuracy    <       0.04736961 Ry

     iteration #  7     ecut=    40.00 Ry     beta=0.70
     CG style diagonalization
     c_bands:  1 eigenvalues not converged
     c_bands:  1 eigenvalues not converged
     c_bands:  1 eigenvalues not converged
     c_bands:  2 eigenvalues not converged
     c_bands:  1 eigenvalues not converged
     c_bands:  1 eigenvalues not converged
     c_bands:  1 eigenvalues not converged
     c_bands:  1 eigenvalues not converged
     c_bands:  1 eigenvalues not converged
     c_bands:  1 eigenvalues not converged
     c_bands:  2 eigenvalues not converged
     c_bands:  1 eigenvalues not converged
     c_bands:  2 eigenvalues not converged
     c_bands:  1 eigenvalues not converged
     c_bands:  1 eigenvalues not converged
     c_bands:  2 eigenvalues not converged
     c_bands:  1 eigenvalues not converged
     ethr =  5.38E-05,  avg # of iterations =  5.4

     total cpu time spent up to now is     3547.3 secs

     total energy              =   -1366.09769524 Ry
     Harris-Foulkes estimate   =   -1366.11225703 Ry
     estimated scf accuracy    <       0.02854079 Ry

     iteration #  8     ecut=    40.00 Ry     beta=0.70
     CG style diagonalization
     ethr =  3.24E-05,  avg # of iterations =  3.4

     total cpu time spent up to now is     3572.1 secs

     total energy              =   -1366.10180564 Ry
     Harris-Foulkes estimate   =   -1366.10243685 Ry
     estimated scf accuracy    <       0.00118178 Ry

     iteration #  9     ecut=    40.00 Ry     beta=0.70
     CG style diagonalization
     c_bands:  2 eigenvalues not converged
     c_bands:  1 eigenvalues not converged
     c_bands:  1 eigenvalues not converged
     c_bands:  1 eigenvalues not converged
     c_bands:  1 eigenvalues not converged
     c_bands:  1 eigenvalues not converged
     c_bands:  1 eigenvalues not converged
     c_bands:  1 eigenvalues not converged
     c_bands:  1 eigenvalues not converged
     c_bands:  1 eigenvalues not converged
     c_bands:  1 eigenvalues not converged
     c_bands:  1 eigenvalues not converged
     ethr =  1.34E-06,  avg # of iterations =  4.9

     total cpu time spent up to now is     3607.1 secs

     total energy              =   -1366.10219255 Ry
     Harris-Foulkes estimate   =   -1366.10244085 Ry
     estimated scf accuracy    <       0.00041516 Ry

     iteration # 10     ecut=    40.00 Ry     beta=0.70
     CG style diagonalization
     ethr =  4.72E-07,  avg # of iterations =  3.6

     total cpu time spent up to now is     3632.2 secs

     End of self-consistent calculation

     Number of k-points >= 100: set verbosity='high' to print the bands.

     the Fermi energy is    20.5478 ev

!    total energy              =   -1366.10225688 Ry
     Harris-Foulkes estimate   =   -1366.10228117 Ry
     estimated scf accuracy    <       0.00002785 Ry

     The total energy is the sum of the following terms:

     one-electron contribution =    -559.15152394 Ry
     hartree contribution      =     297.45250489 Ry
     xc contribution           =    -111.27315352 Ry
     ewald contribution        =    -993.03136833 Ry
     smearing contrib. (-TS)   =      -0.09871598 Ry

     convergence has been achieved in  10 iterations

     Forces acting on atoms (Ry/au):

     atom    1 type  1   force =     0.05099550   -0.01821609    0.02932247
     atom    2 type  1   force =    -0.05099550    0.01821609   -0.02932247
     atom    3 type  2   force =    -0.02535622    0.00883833    0.03671954
     atom    4 type  2   force =     0.02535622   -0.00883833   -0.03671954

     Total force =     0.108273     Total SCF correction =     0.000000


     entering subroutine stress ...

          total   stress  (Ry/bohr**3)                   (kbar)     P= -610.94
  -0.00412834  -0.00002583   0.00000630       -607.30     -3.80      0.93
  -0.00002583  -0.00419483  -0.00000223         -3.80   -617.08     -0.33
   0.00000630  -0.00000223  -0.00413616          0.93     -0.33   -608.45


     Writing output data file Prototype-La-oS8-TlI.save
 
     init_run     :     12.38s CPU     16.16s WALL (       2 calls)
     electrons    :   2748.61s CPU   3584.78s WALL (       5 calls)
     update_pot   :      2.53s CPU      2.58s WALL (       3 calls)
     forces       :      6.77s CPU      7.54s WALL (       5 calls)
     stress       :     17.34s CPU     18.97s WALL (       5 calls)

     Called by init_run:
     wfcinit      :     11.33s CPU     15.05s WALL (       2 calls)
     potinit      :      0.57s CPU      0.59s WALL (       2 calls)

     Called by electrons:
     c_bands      :   2635.95s CPU   3407.33s WALL (      44 calls)
     sum_band     :    112.13s CPU    153.18s WALL (      44 calls)
     v_of_rho     :      0.11s CPU      0.13s WALL (      49 calls)
     mix_rho      :      0.08s CPU      0.11s WALL (      44 calls)

     Called by c_bands:
     init_us_2    :      7.52s CPU      9.88s WALL (   10600 calls)
     ccgdiagg     :   2345.79s CPU   3006.69s WALL (    5314 calls)
     wfcrot       :    294.34s CPU    403.53s WALL (    5420 calls)

     Called by *cgdiagg:
     h_psi        :   2078.44s CPU   2786.85s WALL ( 1628346 calls)
     cdiaghg      :      7.45s CPU      8.13s WALL (    5420 calls)

     Called by h_psi:
     add_vuspsi   :     72.19s CPU    116.16s WALL ( 1628346 calls)

     General routines
     calbec       :    386.74s CPU    460.38s WALL ( 3252332 calls)
     fft          :      0.30s CPU      0.35s WALL (     219 calls)
     fftw         :   1650.31s CPU   2194.12s WALL ( 4067564 calls)
     davcio       :      4.69s CPU     10.00s WALL (   15264 calls)
 
     Parallel routines
     fft_scatter  :    701.00s CPU    972.02s WALL ( 4067783 calls)
 
     PWSCF        :     0h46m CPU        1h 0m WALL

 
   This run was terminated on:  18:35:35  22Mar2018            

=------------------------------------------------------------------------------=
   JOB DONE.
=------------------------------------------------------------------------------=
