
     Program PWSCF v.5.0.2 starts on 22Mar2018 at 22:45:40 

     This program is part of the open-source Quantum ESPRESSO suite
     for quantum simulation of materials; please cite
         "P. Giannozzi et al., J. Phys.:Condens. Matter 21 395502 (2009);
          URL http://www.quantum-espresso.org", 
     in publications or presentations arising from this work. More details at
     http://www.quantum-espresso.org/quote.php

     Parallel version (MPI), running on     4 processors
     R & G space division:  proc/nbgrp/npool/nimage =       4

     Current dimensions of program PWSCF are:
     Max number of different atomic species (ntypx) = 10
     Max number of k-points (npk) =  40000
     Max angular momentum in pseudopotentials (lmaxx) =  3
     Waiting for input...
     Reading input from standard input

     Subspace diagonalization in iterative solution of the eigenvalue problem:
     a serial algorithm will be used

 
     Parallelization info
     --------------------
     sticks:   dense  smooth     PW     G-vecs:    dense   smooth      PW
     Min         267     267     77                11587    11587    1762
     Max         268     268     79                11596    11596    1765
     Sum        1069    1069    313                46361    46361    7055
 


     bravais-lattice index     =            0
     lattice parameter (alat)  =       9.9235  a.u.
     unit-cell volume          =    1361.0366 (a.u.)^3
     number of atoms/cell      =           12
     number of atomic types    =            2
     number of electrons       =       192.00
     number of Kohn-Sham states=          115
     kinetic-energy cutoff     =      40.0000  Ry
     charge density cutoff     =     160.0000  Ry
     convergence threshold     =      1.0E-04
     mixing beta               =       0.7000
     number of iterations used =            8  plain     mixing
     Exchange-correlation      = SLA-PZ-NOGX-NOGC ( 1 1 0 0 0)
     EXX-fraction              =        0.00
     nstep                     =           50


     celldm(1)=   9.923489  celldm(2)=   0.000000  celldm(3)=   0.000000
     celldm(4)=   0.000000  celldm(5)=   0.000000  celldm(6)=   0.000000

     crystal axes: (cart. coord. in units of alat)
               a(1) = (   1.000000   0.000000   0.000000 )  
               a(2) = (  -0.500000   0.866025   0.000000 )  
               a(3) = (   0.000000   0.000000   1.608222 )  

     reciprocal axes: (cart. coord. in units 2 pi/alat)
               b(1) = (  1.000000  0.577350  0.000000 )  
               b(2) = (  0.000000  1.154701  0.000000 )  
               b(3) = (  0.000000  0.000000  0.621805 )  


     PseudoPot. # 1 for Er read from file:
     /home/cwx6513/pp.La/Er.UPF
     MD5 check sum: e152ae21b84514339d8526f066caf99b
     Pseudo is Norm-conserving, Zval = 22.0
     Generated in analytical, separable form
     Using radial grid of 1267 points,  6 beta functions with: 
                l(1) =   0
                l(2) =   0
                l(3) =   1
                l(4) =   1
                l(5) =   2
                l(6) =   3

     PseudoPot. # 2 for Pr read from file:
     /home/cwx6513/pp.La/Pr.UPF
     MD5 check sum: 70e2b4b153859e92c8c91247dfc63203
     Pseudo is Norm-conserving, Zval = 13.0
     Generated in analytical, separable form
     Using radial grid of 1255 points,  6 beta functions with: 
                l(1) =   0
                l(2) =   0
                l(3) =   1
                l(4) =   1
                l(5) =   2
                l(6) =   3

     atomic species   valence    mass     pseudopotential
        Mg            22.00    24.30500     Er( 1.00)
        Zn            13.00    65.39000     Pr( 1.00)

     24 Sym. Ops., with inversion, found (12 have fractional translation)



   Cartesian axes

     site n.     atom                  positions (alat units)
         1           Mg  tau(   1) = (  -0.0000005   0.5773506   0.1003820  )
         2           Mg  tau(   2) = (   0.5000005   0.2886748   0.9044931  )
         3           Mg  tau(   3) = (   0.5000005   0.2886748   1.5078402  )
         4           Mg  tau(   4) = (  -0.0000005   0.5773506   0.7037291  )
         5           Zn  tau(   5) = (   0.0000000   0.0000000   0.0000000  )
         6           Zn  tau(   6) = (   0.0000000   0.0000000   0.8041111  )
         7           Zn  tau(   7) = (   0.0000000   0.2950739   1.2061667  )
         8           Zn  tau(   8) = (   0.7444585   0.1475370   0.4020556  )
         9           Zn  tau(   9) = (   0.2555415   0.1475370   0.4020556  )
        10           Zn  tau(  10) = (   0.2444585   0.7184884   1.2061667  )
        11           Zn  tau(  11) = (  -0.2444585   0.7184884   1.2061667  )
        12           Zn  tau(  12) = (   0.5000000   0.5709515   0.4020556  )

     number of k points=    12  gaussian smearing, width (Ry)=  0.1000
                       cart. coord. in units 2pi/alat
        k(    1) = (   0.0000000   0.0000000   0.0000000), wk =   0.0833333
        k(    2) = (   0.0000000   0.0000000   0.1554512), wk =   0.1666667
        k(    3) = (   0.0000000   0.0000000  -0.3109023), wk =   0.0833333
        k(    4) = (   0.0000000   0.3849002   0.0000000), wk =   0.1666667
        k(    5) = (   0.0000000   0.3849002   0.1554512), wk =   0.3333333
        k(    6) = (   0.0000000   0.3849002  -0.3109023), wk =   0.1666667
        k(    7) = (  -0.5000000  -0.2886751   0.0000000), wk =   0.0833333
        k(    8) = (  -0.5000000  -0.2886751   0.1554512), wk =   0.1666667
        k(    9) = (  -0.5000000  -0.2886751  -0.3109023), wk =   0.0833333
        k(   10) = (  -0.5000000   0.0962250   0.0000000), wk =   0.1666667
        k(   11) = (  -0.5000000   0.0962250   0.1554512), wk =   0.3333333
        k(   12) = (  -0.5000000   0.0962250  -0.3109023), wk =   0.1666667

     Dense  grid:    46361 G-vectors     FFT dimensions: (  40,  40,  72)

     Largest allocated arrays     est. size (Mb)     dimensions
        Kohn-Sham Wavefunctions         2.59 Mb     (   1478,  115)
        NL pseudopotentials             5.41 Mb     (   1478,  240)
        Each V/rho on FFT grid          0.44 Mb     (  28800)
        Each G-vector array             0.09 Mb     (  11589)
        G-vector shells                 0.09 Mb     (  11589)
     Largest temporary arrays     est. size (Mb)     dimensions
        Each subspace H/S matrix        0.20 Mb     ( 115, 115)
        Each <psi_i|beta_j> matrix      0.42 Mb     (    240,  115)
        Arrays for rho mixing           3.52 Mb     (  28800,   8)

     Initial potential from superposition of free atoms
     Check: negative starting charge=   -0.000695

     starting charge  103.92434, renormalised to  192.00000

     negative rho (up, down):  0.128E-02 0.000E+00
     Starting wfc are  160 randomized atomic wfcs

     total cpu time spent up to now is        4.4 secs

     Self-consistent Calculation

     iteration #  1     ecut=    40.00 Ry     beta=0.70
     CG style diagonalization
     c_bands:  1 eigenvalues not converged
     c_bands:  1 eigenvalues not converged
     ethr =  1.00E-02,  avg # of iterations = 24.3

     negative rho (up, down):  0.364E-03 0.000E+00

     total cpu time spent up to now is      105.9 secs

     total energy              =       3.41632526 Ry
     Harris-Foulkes estimate   =   -4605.79353414 Ry
     estimated scf accuracy    <    5402.51125407 Ry

     iteration #  2     ecut=    40.00 Ry     beta=0.70
     CG style diagonalization
     ethr =  1.00E-02,  avg # of iterations = 22.3

     negative rho (up, down):  0.144E-03 0.000E+00

     total cpu time spent up to now is      192.3 secs

     total energy              =   -1639.89228533 Ry
     Harris-Foulkes estimate   =   -3571.67844022 Ry
     estimated scf accuracy    <    3149.47546304 Ry

     iteration #  3     ecut=    40.00 Ry     beta=0.70
     CG style diagonalization
     c_bands:  1 eigenvalues not converged
     c_bands:  2 eigenvalues not converged
     c_bands:  1 eigenvalues not converged
     c_bands:  1 eigenvalues not converged
     c_bands:  2 eigenvalues not converged
     c_bands:  1 eigenvalues not converged
     ethr =  1.00E-02,  avg # of iterations = 13.3

     negative rho (up, down):  0.893E-04 0.000E+00

     total cpu time spent up to now is      246.8 secs

     total energy              =   -2076.85377739 Ry
     Harris-Foulkes estimate   =   -2149.05816869 Ry
     estimated scf accuracy    <     251.33266843 Ry

     iteration #  4     ecut=    40.00 Ry     beta=0.70
     CG style diagonalization
     ethr =  1.00E-02,  avg # of iterations =  4.2

     negative rho (up, down):  0.724E-04 0.000E+00

     total cpu time spent up to now is      263.8 secs

     total energy              =   -2069.57725979 Ry
     Harris-Foulkes estimate   =   -2088.81647602 Ry
     estimated scf accuracy    <      82.34749681 Ry

     iteration #  5     ecut=    40.00 Ry     beta=0.70
     CG style diagonalization
     ethr =  1.00E-02,  avg # of iterations =  3.3

     total cpu time spent up to now is      277.0 secs

     total energy              =   -2046.78344567 Ry
     Harris-Foulkes estimate   =   -2072.18993822 Ry
     estimated scf accuracy    <      44.93091906 Ry

     iteration #  6     ecut=    40.00 Ry     beta=0.70
     CG style diagonalization
     ethr =  1.00E-02,  avg # of iterations =  4.6

     total cpu time spent up to now is      296.4 secs

     total energy              =   -2058.55274591 Ry
     Harris-Foulkes estimate   =   -2058.42127637 Ry
     estimated scf accuracy    <       2.36051870 Ry

     iteration #  7     ecut=    40.00 Ry     beta=0.70
     CG style diagonalization
     c_bands:  1 eigenvalues not converged
     ethr =  1.23E-03,  avg # of iterations =  4.5

     total cpu time spent up to now is      315.0 secs

     total energy              =   -2057.66667231 Ry
     Harris-Foulkes estimate   =   -2059.28417817 Ry
     estimated scf accuracy    <       3.46681222 Ry

     iteration #  8     ecut=    40.00 Ry     beta=0.70
     CG style diagonalization
     ethr =  1.23E-03,  avg # of iterations =  3.5

     total cpu time spent up to now is      328.6 secs

     total energy              =   -2058.09239212 Ry
     Harris-Foulkes estimate   =   -2058.16105992 Ry
     estimated scf accuracy    <       0.13089086 Ry

     iteration #  9     ecut=    40.00 Ry     beta=0.70
     CG style diagonalization
     c_bands:  1 eigenvalues not converged
     c_bands:  2 eigenvalues not converged
     ethr =  6.82E-05,  avg # of iterations =  4.8

     total cpu time spent up to now is      346.8 secs

     total energy              =   -2058.15072393 Ry
     Harris-Foulkes estimate   =   -2058.15468552 Ry
     estimated scf accuracy    <       0.01824222 Ry

     iteration # 10     ecut=    40.00 Ry     beta=0.70
     CG style diagonalization
     c_bands:  1 eigenvalues not converged
     c_bands:  2 eigenvalues not converged
     ethr =  9.50E-06,  avg # of iterations =  4.1

     total cpu time spent up to now is      362.1 secs

     total energy              =   -2058.14898593 Ry
     Harris-Foulkes estimate   =   -2058.15546853 Ry
     estimated scf accuracy    <       0.01365037 Ry

     iteration # 11     ecut=    40.00 Ry     beta=0.70
     CG style diagonalization
     ethr =  7.11E-06,  avg # of iterations =  3.4

     total cpu time spent up to now is      374.9 secs

     total energy              =   -2058.15128859 Ry
     Harris-Foulkes estimate   =   -2058.15136776 Ry
     estimated scf accuracy    <       0.00016463 Ry

     iteration # 12     ecut=    40.00 Ry     beta=0.70
     CG style diagonalization
     c_bands:  1 eigenvalues not converged
     ethr =  8.57E-08,  avg # of iterations =  5.2

     total cpu time spent up to now is      396.4 secs

     End of self-consistent calculation

          k = 0.0000 0.0000 0.0000 (  5769 PWs)   bands (ev):

   -71.0485 -71.0380 -71.0317 -71.0010 -33.0537 -33.0371 -33.0273 -33.0273
   -33.0053 -33.0053 -33.0017 -32.9754 -32.9717 -32.9717 -32.9630 -32.9630
   -14.5224 -14.0872 -12.9258 -12.4130 -12.4130 -12.4000 -12.4000 -12.3566
     1.6006   2.5317   3.4766   4.6416   4.6416   4.9146   4.9147   5.1228
     5.1229   5.9479   6.9956   6.9957   7.0375   7.0376   7.7018   8.9325
     9.0699   9.0784   9.1353   9.1354   9.6362   9.6362   9.8330   9.8330
    13.3935  13.3935  13.4118  13.4155  13.6053  13.6054  13.7369  13.7369
    13.7877  13.7877  13.9370  13.9909  13.9909  14.0617  14.0617  14.2059
    14.2059  14.2108  14.2108  14.2244  18.1242  20.1129  20.4790  22.8511
    22.8512  23.2373  24.1954  24.6866  24.8437  24.8776  24.8776  25.2054
    25.9308  25.9308  26.1580  26.1581  26.9218  26.9218  27.5520  27.8209
    28.2750  28.2751  28.9813  28.9813  30.4810  30.4812  31.0477  31.8186
    32.2546  32.4763  32.5899  32.5900  32.9623  32.9624  33.4090  33.5140
    33.5141  33.5690  33.5686  33.6718  33.6719  34.1880  34.1885  34.1910
    34.6075  34.7743  35.5484

          k = 0.0000 0.0000 0.1555 (  5780 PWs)   bands (ev):

   -71.0517 -71.0482 -71.0271 -71.0051 -33.0449 -33.0430 -33.0184 -33.0184
   -33.0175 -33.0174 -33.0095 -32.9798 -32.9728 -32.9728 -32.9663 -32.9663
   -14.4734 -14.1735 -12.8203 -12.4259 -12.4112 -12.4112 -12.4021 -12.4021
     1.6733   2.2504   3.9225   4.6607   4.6607   4.8169   4.8169   5.3295
     5.3296   5.5356   6.3258   6.3259   7.7463   7.7463   7.9979   8.8114
     8.9257   8.9258   9.0695   9.0761   9.6922   9.6922   9.8154   9.8154
    13.3894  13.4118  13.4252  13.4252  13.5738  13.5738  13.7402  13.7402
    13.7746  13.7746  13.9888  14.0001  14.0001  14.0502  14.0502  14.1694
    14.2060  14.2060  14.2097  14.2097  18.3269  19.4963  21.2950  22.8653
    23.0915  23.0915  24.4792  24.5106  24.5109  24.5109  24.5714  24.8516
    25.9536  25.9536  26.1341  26.1342  26.9358  26.9358  27.8789  28.3814
    28.3814  28.8466  28.9190  28.9190  30.6195  30.7150  30.7151  31.4284
    31.9740  32.3426  32.7553  32.7554  32.9105  32.9106  33.0425  33.2238
    33.2238  33.4498  33.6025  33.6027  33.6160  33.6158  34.3110  34.3106
    35.1834  35.2926  35.8012

          k = 0.0000 0.0000-0.3109 (  5780 PWs)   bands (ev):

   -71.0461 -71.0460 -71.0186 -71.0186 -33.0437 -33.0436 -33.0156 -33.0156
   -33.0156 -33.0156 -33.0093 -33.0092 -32.9641 -32.9641 -32.9641 -32.9641
   -14.3403 -14.3403 -12.6070 -12.6070 -12.4064 -12.4064 -12.4064 -12.4064
     1.8943   1.8943   4.7197   4.7197   4.7197   4.7197   4.7264   4.7264
     5.7514   5.7514   5.7515   5.7515   8.4201   8.4202   8.4202   8.4202
     8.4705   8.4705   9.0748   9.0748   9.7661   9.7661   9.7662   9.7662
    13.3902  13.3902  13.4998  13.4998  13.4999  13.4999  13.7521  13.7521
    13.7521  13.7521  14.0241  14.0241  14.0241  14.0241  14.0741  14.0741
    14.2077  14.2077  14.2077  14.2077  18.8447  18.8447  22.2568  22.2568
    23.7367  23.7367  23.7368  23.7368  24.1186  24.1187  24.8052  24.8052
    26.0251  26.0251  26.0251  26.0251  27.5054  27.5054  27.5054  27.5054
    28.8704  28.8704  30.0125  30.0125  30.0125  30.0125  31.1197  31.1198
    31.8433  31.8433  32.4277  32.4277  32.9031  32.9032  32.9032  32.9034
    33.5733  33.5734  33.5734  33.5734  34.0837  34.0838  34.0841  34.0837
    35.3579  35.3579  35.3579

          k = 0.0000 0.3849 0.0000 (  5787 PWs)   bands (ev):

   -71.0469 -71.0423 -71.0267 -71.0247 -33.0445 -33.0407 -33.0251 -33.0226
   -33.0216 -33.0129 -33.0000 -32.9832 -32.9816 -32.9789 -32.9738 -32.9619
   -14.2450 -13.7900 -13.0960 -12.9239 -12.8153 -12.4199 -12.4089 -12.0310
     2.5807   3.4093   3.6219   4.8283   4.8522   5.1524   5.1723   5.4189
     5.7626   6.2857   6.6569   6.6705   6.8805   6.9818   7.1168   7.8731
     7.9067   8.1426   8.7120   8.9281   9.1471   9.4562   9.5054   9.6501
    13.2831  13.3439  13.4511  13.4597  13.5039  13.5531  13.6565  13.7388
    13.8045  13.8246  13.8310  13.9107  13.9772  14.0073  14.0142  14.0623
    14.1831  14.2132  14.2424  14.2682  19.4851  20.8329  21.3160  21.5537
    23.9727  24.1641  24.5921  25.2788  25.4967  25.7239  25.8635  25.9746
    26.2417  26.8456  26.8777  27.1953  27.3310  27.5024  27.6133  28.0537
    28.3655  28.5912  28.6476  28.6548  29.5940  29.7723  29.9372  30.2356
    30.2828  31.0131  31.4379  31.7426  31.7970  32.2532  32.4875  32.5185
    32.6090  32.7492  32.9356  33.2852  34.3558  34.5844  34.6971  35.1120
    35.2179  35.5624  35.6779

          k = 0.0000 0.3849 0.1555 (  5804 PWs)   bands (ev):

   -71.0540 -71.0475 -71.0331 -71.0294 -33.0512 -33.0451 -33.0282 -33.0259
   -33.0218 -33.0155 -33.0054 -32.9991 -32.9823 -32.9800 -32.9712 -32.9630
   -14.1936 -13.8789 -13.0907 -13.0185 -12.6095 -12.4185 -12.4106 -12.1114
     2.6290   3.0666   4.0842   4.7320   4.9549   5.2135   5.2950   5.4031
     5.8016   5.8902   6.0989   6.3749   7.1377   7.3333   7.4841   7.8587
     7.9819   8.2198   8.5851   8.9446   9.0114   9.3845   9.5620   9.6438
    13.3033  13.3740  13.4579  13.4623  13.4689  13.5657  13.6774  13.7459
    13.7720  13.8187  13.8591  13.9148  13.9756  13.9946  14.0023  14.0669
    14.1902  14.1925  14.2358  14.2447  19.6409  20.5325  21.5168  21.5866
    24.0379  24.3402  24.5097  25.2139  25.3433  25.4938  25.7022  25.9908
    26.1864  26.5058  26.9550  27.1300  27.3222  27.5669  27.8110  28.3256
    28.4311  28.7078  28.8478  28.9960  29.6137  29.6870  30.1517  30.2583
    30.2850  30.9652  31.1612  31.6654  31.6876  32.0042  32.3582  32.6237
    32.6603  32.7589  33.2336  33.4425  33.7783  34.2161  34.3485  35.2306
    35.3123  35.5765  35.6206

          k = 0.0000 0.3849-0.3109 (  5816 PWs)   bands (ev):

   -71.0530 -71.0530 -71.0378 -71.0378 -33.0461 -33.0461 -33.0338 -33.0338
   -33.0194 -33.0194 -33.0071 -33.0070 -32.9819 -32.9819 -32.9712 -32.9712
   -14.0534 -14.0534 -13.0709 -13.0709 -12.4147 -12.4147 -12.3277 -12.3277
     2.7838   2.7838   4.5470   4.5470   5.2589   5.2589   5.3347   5.3347
     5.6325   5.6326   5.9784   5.9784   7.3887   7.3887   7.7816   7.7816
     8.2711   8.2711   8.5367   8.5367   9.2050   9.2050   9.6187   9.6187
    13.3622  13.3622  13.4638  13.4638  13.4983  13.4984  13.7296  13.7296
    13.7837  13.7837  13.9016  13.9016  13.9822  13.9822  14.0250  14.0251
    14.1957  14.1958  14.2157  14.2157  20.0439  20.0439  21.6502  21.6502
    24.1642  24.1642  24.8373  24.8373  25.2715  25.2715  25.9324  25.9324
    26.1690  26.1690  27.2184  27.2184  27.3085  27.3085  27.8761  27.8761
    28.8932  28.8933  29.3537  29.3537  29.3870  29.3871  30.5774  30.5774
    30.5814  30.5814  31.0515  31.0515  31.9634  31.9634  32.6301  32.6301
    32.6960  32.6960  33.2293  33.2294  33.3737  33.3737  34.6593  34.6600
    35.4833  35.4836  36.0322

          k =-0.5000-0.2887 0.0000 (  5800 PWs)   bands (ev):

   -71.0507 -71.0454 -71.0397 -71.0216 -33.0547 -33.0396 -33.0250 -33.0240
   -33.0139 -33.0137 -33.0060 -32.9971 -32.9872 -32.9856 -32.9746 -32.9583
   -14.0939 -13.6180 -13.3021 -13.0345 -12.9233 -12.4227 -12.4117 -11.9930
     2.9887   3.6781   3.7754   4.8013   4.9759   5.1625   5.8738   5.9962
     6.0040   6.1388   6.4851   6.5118   6.5503   6.8221   6.9750   6.9836
     7.3123   7.7956   8.5486   8.8076   9.1499   9.4997   9.5920   9.6210
    13.2666  13.3734  13.4160  13.4166  13.4868  13.5164  13.6890  13.6906
    13.7119  13.8345  13.8611  13.8945  13.9741  13.9828  13.9913  14.0467
    14.1804  14.2145  14.2564  14.3054  20.7351  20.7839  21.0281  21.4957
    24.2344  25.1838  25.3366  25.3664  25.4768  25.5729  25.6406  26.0165
    26.2320  26.2353  26.2464  26.6309  26.7347  27.8721  28.0265  28.1159
    28.1884  28.6004  29.8997  30.0007  30.0438  30.1835  30.7366  30.8509
    30.8639  31.0046  31.0267  31.0708  31.3001  31.7253  31.8017  31.9149
    33.0186  33.0288  33.0731  33.2653  33.5945  33.6887  33.9125  34.1345
    34.6329  34.6590  34.7933

          k =-0.5000-0.2887 0.1555 (  5822 PWs)   bands (ev):

   -71.0591 -71.0574 -71.0373 -71.0347 -33.0506 -33.0501 -33.0305 -33.0251
   -33.0242 -33.0216 -33.0145 -33.0060 -32.9893 -32.9878 -32.9714 -32.9645
   -14.0385 -13.7018 -13.2986 -13.2036 -12.6437 -12.4213 -12.4136 -12.0803
     3.0259   3.3728   4.1836   4.8850   4.9168   5.2536   5.8228   5.8288
     5.8811   5.9617   6.4905   6.5324   6.5398   6.7454   6.9783   6.9825
     7.5932   8.0321   8.4134   8.9446   8.9625   9.5014   9.5536   9.6170
    13.2959  13.3801  13.4157  13.4222  13.4699  13.5533  13.6455  13.6955
    13.7463  13.8374  13.8864  13.9282  13.9677  13.9806  13.9906  14.0177
    14.1875  14.1995  14.2428  14.2556  20.7808  20.8699  21.1002  21.3150
    24.3960  24.8331  25.0229  25.3030  25.5733  25.5960  25.6908  25.8798
    25.9115  26.4005  26.6178  27.1648  27.4035  27.4451  27.5224  27.9982
    28.5309  28.5907  29.2004  30.0171  30.0946  30.4052  30.4592  30.5644
    30.9346  31.1118  31.3414  31.4693  31.5542  31.8240  31.8705  31.9604
    32.7094  32.9194  32.9259  33.0555  33.6219  33.8074  33.8710  34.3662
    34.5613  34.7242  35.0049

          k =-0.5000-0.2887-0.3109 (  5804 PWs)   bands (ev):

   -71.0466 -71.0466 -71.0353 -71.0353 -33.0440 -33.0440 -33.0238 -33.0238
   -33.0157 -33.0157 -33.0012 -33.0012 -32.9863 -32.9862 -32.9739 -32.9739
   -13.8864 -13.8864 -13.2790 -13.2790 -12.4174 -12.4174 -12.3181 -12.3181
     3.1473   3.1473   4.6135   4.6135   5.2874   5.2874   5.5048   5.5048
     5.9108   5.9108   6.5085   6.5085   6.6249   6.6249   6.9826   6.9826
     8.0553   8.0553   8.5084   8.5084   9.2630   9.2630   9.6010   9.6010
    13.3403  13.3404  13.4412  13.4412  13.5191  13.5192  13.6436  13.6436
    13.8101  13.8101  13.9568  13.9568  13.9657  13.9657  13.9936  13.9937
    14.1822  14.1823  14.2122  14.2122  20.9409  20.9409  21.1178  21.1178
    24.5903  24.5903  24.8740  24.8740  25.6098  25.6098  25.7645  25.7645
    26.6224  26.6224  26.6485  26.6485  27.6885  27.6885  28.0796  28.0796
    28.1636  28.1636  29.0168  29.0168  30.2319  30.2320  30.9256  30.9256
    30.9913  30.9913  31.6225  31.6225  31.9468  31.9468  31.9828  31.9828
    32.7669  32.7669  32.9614  32.9615  33.2104  33.2102  34.0981  34.0984
    35.0121  35.0118  35.4579

          k =-0.5000 0.0962 0.0000 (  5827 PWs)   bands (ev):

   -71.0603 -71.0494 -71.0484 -71.0362 -33.0560 -33.0509 -33.0341 -33.0294
   -33.0271 -33.0145 -33.0097 -32.9937 -32.9913 -32.9838 -32.9781 -32.9768
   -14.0958 -13.6155 -13.3061 -13.0277 -12.9236 -12.4237 -12.4162 -11.9925
     3.0964   3.6793   3.8727   4.7716   4.8397   5.0831   5.1915   5.8729
     6.1922   6.2433   6.3087   6.7199   6.7503   6.8859   6.9120   7.1796
     7.7572   7.9825   8.7093   8.8344   9.0682   9.2086   9.2479   9.5684
    13.2991  13.3636  13.3747  13.3888  13.4907  13.6016  13.6590  13.6930
    13.7535  13.8125  13.8473  13.8759  13.8970  13.9938  13.9959  14.0378
    14.2299  14.2351  14.2576  14.2990  20.3455  21.1426  21.3121  21.4330
    24.3076  24.6166  24.9807  25.3513  25.3828  26.0207  26.1928  26.2169
    26.3235  26.3756  26.7539  26.7664  27.2089  27.6152  27.7027  28.2012
    28.3561  28.6099  28.9721  29.3344  29.4248  29.8847  29.9443  30.2321
    30.4032  30.5972  30.6407  31.3786  31.5867  31.8461  32.1759  32.3679
    32.3844  33.4512  33.6073  33.6966  33.7234  33.8775  34.7326  34.8725
    35.0745  35.3484  35.5927

          k =-0.5000 0.0962 0.1555 (  5825 PWs)   bands (ev):

   -71.0601 -71.0507 -71.0427 -71.0383 -33.0514 -33.0488 -33.0331 -33.0313
   -33.0258 -33.0174 -33.0063 -33.0044 -32.9884 -32.9847 -32.9754 -32.9734
   -14.0402 -13.7017 -13.3003 -13.1977 -12.6427 -12.4224 -12.4173 -12.0796
     3.1300   3.4401   4.1917   4.6709   4.9942   5.1553   5.2792   5.7508
     5.9743   6.0983   6.2496   6.3324   6.7611   6.8361   7.3319   7.4502
     7.8397   8.0559   8.5872   8.8225   9.0082   9.2393   9.2710   9.4919
    13.3115  13.3603  13.3730  13.3928  13.5025  13.6357  13.6587  13.7063
    13.7862  13.8186  13.8659  13.8726  13.8939  13.9584  13.9877  14.0277
    14.2021  14.2361  14.2522  14.2741  20.4529  21.0297  21.3716  21.4131
    24.3769  24.6082  24.9977  25.0589  25.4223  25.8227  26.0687  26.3116
    26.4289  26.5232  26.6831  26.9302  27.3507  27.5331  27.6535  28.2842
    28.4043  28.5317  28.9074  29.0970  29.4295  29.7295  30.1897  30.2947
    30.5424  30.8504  30.8726  31.3126  31.5990  31.8180  32.0730  32.2424
    32.3621  33.1457  33.3813  33.4731  33.8604  34.1272  34.7703  35.0036
    35.3180  35.4361  35.6049

          k =-0.5000 0.0962-0.3109 (  5824 PWs)   bands (ev):

   -71.0529 -71.0528 -71.0425 -71.0424 -33.0479 -33.0478 -33.0315 -33.0314
   -33.0212 -33.0212 -33.0048 -33.0047 -32.9872 -32.9872 -32.9767 -32.9767
   -13.8880 -13.8880 -13.2763 -13.2763 -12.4198 -12.4198 -12.3172 -12.3172
     3.2384   3.2384   4.5076   4.5076   5.2595   5.2595   5.4561   5.4561
     5.7490   5.7490   6.2524   6.2524   6.7904   6.7904   7.5837   7.5837
     8.0817   8.0817   8.5329   8.5329   9.1890   9.1890   9.3329   9.3329
    13.3349  13.3349  13.3853  13.3853  13.5765  13.5766  13.7049  13.7049
    13.8238  13.8238  13.8758  13.8759  13.9353  13.9353  13.9759  13.9760
    14.1933  14.1934  14.2572  14.2572  20.7267  20.7267  21.4309  21.4310
    24.5246  24.5246  24.8143  24.8143  25.6821  25.6822  26.2836  26.2836
    26.4238  26.4238  26.8167  26.8167  27.7013  27.7013  27.7842  27.7842
    28.2974  28.2974  29.0366  29.0366  29.8026  29.8026  29.9299  29.9299
    30.8844  30.8844  31.1153  31.1153  31.7888  31.7888  32.4419  32.4419
    32.5188  32.5189  33.6318  33.6319  33.7334  33.7335  34.5085  34.5087
    35.3433  35.3431  35.9577

     the Fermi energy is    30.6122 ev

!    total energy              =   -2058.15150396 Ry
     Harris-Foulkes estimate   =   -2058.15153708 Ry
     estimated scf accuracy    <       0.00003913 Ry

     The total energy is the sum of the following terms:

     one-electron contribution =    -214.35191186 Ry
     hartree contribution      =     273.57186321 Ry
     xc contribution           =    -210.00604681 Ry
     ewald contribution        =   -1906.88174894 Ry
     smearing contrib. (-TS)   =      -0.48365956 Ry

     convergence has been achieved in  12 iterations

     Forces acting on atoms (Ry/au):

     atom    1 type  1   force =     0.00000000    0.00000000    0.02233188
     atom    2 type  1   force =     0.00000000    0.00000000    0.02233188
     atom    3 type  1   force =     0.00000000    0.00000000   -0.02233188
     atom    4 type  1   force =     0.00000000    0.00000000   -0.02233188
     atom    5 type  2   force =     0.00000000    0.00000000    0.00000000
     atom    6 type  2   force =     0.00000000    0.00000000    0.00000000
     atom    7 type  2   force =     0.00000000    0.05411481    0.00000000
     atom    8 type  2   force =    -0.04686480    0.02705741    0.00000000
     atom    9 type  2   force =     0.04686480    0.02705741    0.00000000
     atom   10 type  2   force =    -0.04686480   -0.02705741    0.00000000
     atom   11 type  2   force =     0.04686480   -0.02705741    0.00000000
     atom   12 type  2   force =     0.00000000   -0.05411481    0.00000000

     Total force =     0.139876     Total SCF correction =     0.009685


     entering subroutine stress ...

          total   stress  (Ry/bohr**3)                   (kbar)     P=  990.15
   0.00650456   0.00000000   0.00000000        956.85      0.00      0.00
   0.00000000   0.00650456   0.00000000          0.00    956.85      0.00
   0.00000000   0.00000000   0.00718356          0.00      0.00   1056.74


     BFGS Geometry Optimization

     number of scf cycles    =   1
     number of bfgs steps    =   0

     enthalpy new            =   -2058.1515039592 Ry

     new trust radius        =       0.5000000000 bohr
     new conv_thr            =       0.0001000000 Ry

     new unit-cell volume =   1637.08300 a.u.^3 (   242.59067 Ang^3 )

CELL_PARAMETERS (alat=  9.92348860)
   1.061359743   0.000000000   0.000000000
  -0.530679872   0.919164500   0.000000000
   0.000000000   0.000000000   1.717203317

ATOMIC_POSITIONS (crystal)
Mg       0.333333000   0.666667000   0.062946008
Mg       0.666667000   0.333333000   0.562946008
Mg       0.666667000   0.333333000   0.937053992
Mg       0.333333000   0.666667000   0.437053992
Zn       0.000000000   0.000000000   0.000000000
Zn       0.000000000   0.000000000   0.500000000
Zn       0.171549000   0.343098001   0.750000000
Zn       0.828451000   0.171549000   0.250000000
Zn       0.343098001   0.171549000   0.250000000
Zn       0.656901999   0.828451000   0.750000000
Zn       0.171549000   0.828451000   0.750000000
Zn       0.828451000   0.656901999   0.250000000



     Writing output data file Prototype-La-hP12-MgZn2.save
     Check: negative starting charge=   -0.000695
     NEW-OLD atomic charge density approx. for the potential
     NEW k-points:
        k(    1) = (   0.0000000   0.0000000   0.0000000), wk =   0.0833333
        k(    2) = (   0.0000000   0.0000000   0.1455856), wk =   0.1666667
        k(    3) = (   0.0000000   0.0000000  -0.2911711), wk =   0.0833333
        k(    4) = (   0.0000000   0.3626482   0.0000000), wk =   0.1666667
        k(    5) = (   0.0000000   0.3626482   0.1455856), wk =   0.3333333
        k(    6) = (   0.0000000   0.3626482  -0.2911711), wk =   0.1666667
        k(    7) = (  -0.4710938  -0.2719861   0.0000000), wk =   0.0833333
        k(    8) = (  -0.4710938  -0.2719861   0.1455856), wk =   0.1666667
        k(    9) = (  -0.4710938  -0.2719861  -0.2911711), wk =   0.0833333
        k(   10) = (  -0.4710938   0.0906620   0.0000000), wk =   0.1666667
        k(   11) = (  -0.4710938   0.0906620   0.1455856), wk =   0.3333333
        k(   12) = (  -0.4710938   0.0906620  -0.2911711), wk =   0.1666667
     Check: negative starting charge=   -0.006994

     negative rho (up, down):  0.606E-02 0.000E+00
     extrapolated charge  209.52381, renormalised to  192.00000

     total cpu time spent up to now is      403.3 secs

     Self-consistent Calculation

     iteration #  1     ecut=    40.00 Ry     beta=0.70
     CG style diagonalization
     c_bands:  2 eigenvalues not converged
     c_bands:  1 eigenvalues not converged
     c_bands:  2 eigenvalues not converged
     c_bands:  1 eigenvalues not converged
     c_bands:  4 eigenvalues not converged
     c_bands:  1 eigenvalues not converged
     c_bands:  2 eigenvalues not converged
     c_bands:  1 eigenvalues not converged
     c_bands:  1 eigenvalues not converged
     ethr =  1.00E-06,  avg # of iterations = 29.3

     negative rho (up, down):  0.153E-02 0.000E+00

     total cpu time spent up to now is      522.7 secs

     total energy              =   -1994.20502359 Ry
     Harris-Foulkes estimate   =   -2064.40997938 Ry
     estimated scf accuracy    <     118.06903503 Ry

     iteration #  2     ecut=    40.00 Ry     beta=0.70
     CG style diagonalization
     c_bands:  2 eigenvalues not converged
     c_bands:  1 eigenvalues not converged
     c_bands:  1 eigenvalues not converged
     c_bands:  2 eigenvalues not converged
     c_bands:  1 eigenvalues not converged
     ethr =  1.00E-02,  avg # of iterations =  8.8

     negative rho (up, down):  0.115E-02 0.000E+00

     total cpu time spent up to now is      559.8 secs

     total energy              =   -1945.90920696 Ry
     Harris-Foulkes estimate   =   -2148.01436031 Ry
     estimated scf accuracy    <     536.25215328 Ry

     iteration #  3     ecut=    40.00 Ry     beta=0.70
     CG style diagonalization
     c_bands:  1 eigenvalues not converged
     ethr =  1.00E-02,  avg # of iterations =  8.3

     negative rho (up, down):  0.655E-03 0.000E+00

     total cpu time spent up to now is      594.9 secs

     total energy              =   -2058.59338434 Ry
     Harris-Foulkes estimate   =   -2061.81140536 Ry
     estimated scf accuracy    <      11.20213461 Ry

     iteration #  4     ecut=    40.00 Ry     beta=0.70
     CG style diagonalization
     ethr =  5.83E-03,  avg # of iterations =  3.4

     negative rho (up, down):  0.203E-03 0.000E+00

     total cpu time spent up to now is      608.2 secs

     total energy              =   -2058.51150884 Ry
     Harris-Foulkes estimate   =   -2060.01787242 Ry
     estimated scf accuracy    <       4.19970247 Ry

     iteration #  5     ecut=    40.00 Ry     beta=0.70
     CG style diagonalization
     ethr =  2.19E-03,  avg # of iterations =  3.8

     negative rho (up, down):  0.863E-04 0.000E+00

     total cpu time spent up to now is      623.4 secs

     total energy              =   -2058.86434162 Ry
     Harris-Foulkes estimate   =   -2059.12675829 Ry
     estimated scf accuracy    <       0.84885970 Ry

     iteration #  6     ecut=    40.00 Ry     beta=0.70
     CG style diagonalization
     c_bands:  1 eigenvalues not converged
     ethr =  4.42E-04,  avg # of iterations =  3.9

     negative rho (up, down):  0.457E-04 0.000E+00

     total cpu time spent up to now is      638.6 secs

     total energy              =   -2058.94783741 Ry
     Harris-Foulkes estimate   =   -2059.01158045 Ry
     estimated scf accuracy    <       0.20489202 Ry

     iteration #  7     ecut=    40.00 Ry     beta=0.70
     CG style diagonalization
     c_bands:  1 eigenvalues not converged
     c_bands:  1 eigenvalues not converged
     c_bands:  1 eigenvalues not converged
     ethr =  1.07E-04,  avg # of iterations =  3.6

     total cpu time spent up to now is      653.4 secs

     total energy              =   -2058.94475552 Ry
     Harris-Foulkes estimate   =   -2058.97588935 Ry
     estimated scf accuracy    <       0.05129998 Ry

     iteration #  8     ecut=    40.00 Ry     beta=0.70
     CG style diagonalization
     c_bands:  1 eigenvalues not converged
     c_bands:  1 eigenvalues not converged
     c_bands:  1 eigenvalues not converged
     c_bands:  1 eigenvalues not converged
     ethr =  2.67E-05,  avg # of iterations =  4.1

     total cpu time spent up to now is      669.8 secs

     total energy              =   -2058.96094746 Ry
     Harris-Foulkes estimate   =   -2058.96399817 Ry
     estimated scf accuracy    <       0.00500701 Ry

     iteration #  9     ecut=    40.00 Ry     beta=0.70
     CG style diagonalization
     c_bands:  2 eigenvalues not converged
     c_bands:  1 eigenvalues not converged
     c_bands:  1 eigenvalues not converged
     c_bands:  1 eigenvalues not converged
     c_bands:  1 eigenvalues not converged
     ethr =  2.61E-06,  avg # of iterations =  4.5

     total cpu time spent up to now is      688.7 secs

     total energy              =   -2058.96309446 Ry
     Harris-Foulkes estimate   =   -2058.96335649 Ry
     estimated scf accuracy    <       0.00068307 Ry

     iteration # 10     ecut=    40.00 Ry     beta=0.70
     CG style diagonalization
     ethr =  3.56E-07,  avg # of iterations =  3.7

     total cpu time spent up to now is      703.7 secs

     total energy              =   -2058.96303792 Ry
     Harris-Foulkes estimate   =   -2058.96321744 Ry
     estimated scf accuracy    <       0.00025910 Ry

     iteration # 11     ecut=    40.00 Ry     beta=0.70
     CG style diagonalization
     ethr =  1.35E-07,  avg # of iterations =  3.7

     total cpu time spent up to now is      717.5 secs

     End of self-consistent calculation

          k = 0.0000 0.0000 0.0000 (  5769 PWs)   bands (ev):

   -75.8189 -75.7983 -75.7901 -75.7285 -38.0219 -38.0021 -38.0021 -38.0014
   -37.9834 -37.9789 -37.9789 -37.9629 -37.9629 -37.9545 -37.9524 -37.9523
   -19.1541 -18.9228 -18.1855 -17.9468 -17.9467 -17.9431 -17.9430 -17.9110
    -1.9462  -1.3439  -0.4751   0.2418   0.2419   0.4093   0.4093   0.6556
     0.6557   1.1195   1.8836   1.8836   1.8898   1.8898   2.2629   3.1720
     3.1737   3.2027   3.2028   3.2037   3.6230   3.6230   3.7469   3.7470
     8.5600   8.5600   8.5795   8.5811   8.6705   8.6706   8.7131   8.7131
     8.7785   8.7785   8.9060   8.9060   8.9106   8.9619   8.9619   9.0252
     9.0303   9.0303   9.0506   9.0506  14.1109  15.7500  16.2995  18.7383
    18.8260  18.8261  19.1976  19.8580  20.0432  20.0878  20.3369  20.3369
    21.1484  21.1485  21.2525  21.2525  21.9745  21.9745  21.9956  22.2245
    23.1658  23.1658  23.5688  23.5688  24.4889  24.4890  25.7610  25.9201
    26.3943  26.6764  26.9906  26.9907  27.2348  27.2350  27.3482  27.3484
    27.6457  27.7082  27.7083  27.7868  27.7869  27.8901  28.1492  28.2122
    28.2125  28.4930  29.2484

          k = 0.0000 0.0000 0.1456 (  5780 PWs)   bands (ev):

   -75.8222 -75.8191 -75.7814 -75.7374 -38.0155 -38.0094 -37.9927 -37.9927
   -37.9924 -37.9924 -37.9887 -37.9638 -37.9638 -37.9591 -37.9563 -37.9563
   -19.1269 -18.9662 -18.1359 -17.9462 -17.9462 -17.9447 -17.9437 -17.9436
    -1.8928  -1.5013  -0.2184   0.2537   0.2537   0.3567   0.3567   0.7815
     0.7816   0.8395   1.4408   1.4408   2.3434   2.3434   2.4859   3.0767
     3.0767   3.1118   3.1694   3.1697   3.6560   3.6560   3.7348   3.7348
     8.5707   8.5760   8.5761   8.5784   8.6535   8.6535   8.7212   8.7212
     8.7674   8.7675   8.9136   8.9136   8.9344   8.9526   8.9526   9.0081
     9.0341   9.0341   9.0480   9.0480  14.2702  15.2691  16.8906  18.2942
    18.9953  18.9954  19.4889  19.5470  19.7907  20.0376  20.0377  20.1078
    21.1929  21.1929  21.2526  21.2526  22.0360  22.0360  22.3844  22.9818
    23.0651  23.0652  23.5656  23.5656  24.7271  24.7272  24.7984  25.9780
    26.5463  26.7842  26.7937  27.0269  27.0269  27.1431  27.1432  27.3423
    27.3424  27.4553  27.7437  27.7438  27.7922  27.7923  28.3453  28.3454
    28.7622  28.9541  29.0511

          k = 0.0000 0.0000-0.2912 (  5780 PWs)   bands (ev):

   -75.8149 -75.8149 -75.7640 -75.7640 -38.0110 -38.0109 -37.9915 -37.9914
   -37.9904 -37.9904 -37.9904 -37.9904 -37.9538 -37.9538 -37.9538 -37.9538
   -19.0541 -19.0541 -18.0329 -18.0329 -17.9449 -17.9449 -17.9449 -17.9449
    -1.7344  -1.7344   0.2895   0.2895   0.2947   0.2947   0.2947   0.2947
     1.0649   1.0649   1.0649   1.0649   2.7636   2.7636   2.7637   2.7637
     2.8458   2.8458   3.1738   3.1738   3.7022   3.7022   3.7022   3.7022
     8.5681   8.5681   8.6149   8.6149   8.6149   8.6149   8.7420   8.7420
     8.7420   8.7420   8.9339   8.9339   8.9339   8.9339   8.9710   8.9711
     9.0430   9.0430   9.0430   9.0430  14.6966  14.6966  17.6769  17.6769
    19.2994  19.2995  19.4583  19.4583  19.4583  19.4583  19.9937  19.9938
    21.2420  21.2420  21.2420  21.2420  22.4126  22.4126  22.4126  22.4126
    23.3022  23.3023  24.3145  24.3145  24.3145  24.3145  24.8248  24.8248
    26.3534  26.3534  27.0863  27.0863  27.2662  27.2662  27.2662  27.2662
    27.5790  27.5790  27.5790  27.5790  27.9318  27.9319  27.9319  27.9322
    29.1904  29.1909  29.5905

          k = 0.0000 0.3626 0.0000 (  5787 PWs)   bands (ev):

   -75.8170 -75.8060 -75.7805 -75.7710 -38.0098 -38.0071 -38.0036 -38.0008
   -37.9940 -37.9861 -37.9800 -37.9719 -37.9708 -37.9654 -37.9608 -37.9539
   -18.9716 -18.7495 -18.3386 -18.1851 -18.1554 -17.9491 -17.9459 -17.7319
    -1.2574  -0.7170  -0.3661   0.3660   0.4657   0.5704   0.6669   0.7896
     0.9911   1.3859   1.5588   1.6258   1.7564   1.8865   1.9123   2.4615
     2.4823   2.6267   2.9686   3.1930   3.2097   3.4898   3.5171   3.6243
     8.4956   8.5315   8.5762   8.6025   8.6435   8.6604   8.7230   8.7327
     8.7922   8.8040   8.8178   8.8643   8.8729   8.9261   8.9422   8.9445
     9.0430   9.0508   9.0517   9.0835  15.1275  16.3049  16.6570  17.1489
    19.4719  19.8475  19.9138  20.5564  20.6481  20.8279  20.9756  21.1209
    21.3418  21.7158  21.9906  22.0078  22.1978  22.3563  22.4092  22.6256
    23.1896  23.2602  23.3184  23.4621  24.1267  24.2684  24.5243  24.5455
    24.6707  25.2639  25.8998  25.9292  26.1186  26.4197  26.4951  26.6341
    26.7833  26.8272  26.9310  27.3781  28.3856  28.4201  28.5218  28.7593
    28.9553  29.1044  29.2409

          k = 0.0000 0.3626 0.1456 (  5804 PWs)   bands (ev):

   -75.8294 -75.8176 -75.7879 -75.7829 -38.0176 -38.0122 -38.0052 -37.9998
   -37.9994 -37.9885 -37.9878 -37.9847 -37.9702 -37.9681 -37.9628 -37.9548
   -18.9443 -18.7886 -18.3334 -18.2678 -18.0267 -17.9487 -17.9464 -17.7714
    -1.2193  -0.8977  -0.1208   0.3163   0.4882   0.6817   0.6977   0.7837
     1.0244   1.0818   1.2464   1.4466   1.9237   2.0786   2.1888   2.4517
     2.5158   2.6684   2.8884   3.0857   3.2337   3.4442   3.5523   3.6183
     8.5083   8.5451   8.5816   8.6004   8.6164   8.6627   8.7190   8.7426
     8.7761   8.7940   8.8397   8.8697   8.8773   8.9150   8.9261   8.9667
     9.0327   9.0507   9.0530   9.0725  15.2484  16.0090  16.8589  17.1362
    19.5764  19.9281  19.9689  20.3701  20.5362  20.7470  20.7679  21.1674
    21.3686  21.5454  21.7838  22.0583  22.1991  22.3912  22.6025  22.9449
    23.2271  23.3204  23.5482  23.5586  24.0791  24.2781  24.5598  24.6632
    24.8080  25.1957  25.5749  25.7737  25.9554  26.3028  26.6082  26.7242
    26.8102  26.8604  26.9664  27.6949  27.8912  28.1456  28.1746  28.5953
    29.0039  29.2262  29.3246

          k = 0.0000 0.3626-0.2912 (  5816 PWs)   bands (ev):

   -75.8272 -75.8272 -75.7972 -75.7972 -38.0142 -38.0142 -38.0105 -38.0105
   -37.9926 -37.9926 -37.9912 -37.9912 -37.9706 -37.9705 -37.9632 -37.9632
   -18.8722 -18.8722 -18.3144 -18.3144 -17.9475 -17.9475 -17.8796 -17.8796
    -1.0997  -1.0997   0.1786   0.1786   0.6664   0.6664   0.7554   0.7554
     0.9344   0.9344   1.1663   1.1663   2.1174   2.1174   2.3947   2.3947
     2.6886   2.6886   2.8433   2.8433   3.3378   3.3378   3.5962   3.5962
     8.5426   8.5427   8.5925   8.5925   8.6186   8.6186   8.7448   8.7448
     8.7696   8.7696   8.8661   8.8662   8.8926   8.8926   8.9474   8.9474
     9.0441   9.0441   9.0527   9.0527  15.5776  15.5777  17.0591  17.0591
    19.7329  19.7329  20.3092  20.3092  20.4392  20.4392  20.9156  20.9156
    21.3389  21.3389  22.1198  22.1198  22.1452  22.1452  22.7761  22.7761
    23.4256  23.4256  23.8548  23.8548  24.0307  24.0307  25.0023  25.0023
    25.0493  25.0493  25.1606  25.1606  26.1457  26.1457  26.8429  26.8429
    26.8657  26.8657  27.0857  27.0857  27.5454  27.5455  28.5488  28.5489
    29.1829  29.1835  29.6035

          k =-0.4711-0.2720 0.0000 (  5800 PWs)   bands (ev):

   -75.8240 -75.8106 -75.8038 -75.7677 -38.0210 -38.0049 -38.0019 -37.9973
   -37.9946 -37.9862 -37.9860 -37.9845 -37.9759 -37.9717 -37.9687 -37.9486
   -18.8661 -18.6563 -18.4729 -18.2641 -18.1849 -17.9500 -17.9468 -17.7106
    -0.9578  -0.4449  -0.3216   0.4309   0.4373   0.6710   0.9763   1.0988
     1.2217   1.3012   1.4256   1.4890   1.6206   1.7089   1.8800   1.9518
     2.0302   2.4119   2.8743   3.1100   3.2097   3.5058   3.5657   3.6090
     8.4906   8.5343   8.5795   8.5946   8.6136   8.6419   8.7263   8.7493
     8.7555   8.8156   8.8229   8.8389   8.8589   8.9122   8.9333   8.9351
     9.0498   9.0533   9.0620   9.0936  15.9543  16.2544  16.7028  16.7319
    19.5212  20.3664  20.7208  20.8899  20.8996  20.9063  21.0259  21.1419
    21.3542  21.3832  21.4072  21.4981  21.9330  22.3389  22.6019  22.7013
    23.2316  23.3321  24.1408  24.4501  24.6165  24.7760  25.0011  25.0596
    25.1234  25.1537  25.2883  25.2992  25.3444  25.7038  26.1106  26.3305
    26.5295  26.9661  27.1276  27.4341  27.6828  27.7752  27.9969  28.2268
    28.3966  28.4238  28.7534

          k =-0.4711-0.2720 0.1456 (  5822 PWs)   bands (ev):

   -75.8383 -75.8347 -75.7961 -75.7927 -38.0170 -38.0165 -38.0043 -38.0040
   -38.0023 -38.0014 -37.9948 -37.9935 -37.9753 -37.9739 -37.9635 -37.9568
   -18.8373 -18.6859 -18.4672 -18.3723 -18.0391 -17.9495 -17.9473 -17.7533
    -0.9261  -0.6482  -0.0668   0.3845   0.5011   0.7314   0.9847   1.0598
     1.0843   1.1114   1.4251   1.4589   1.6276   1.6903   1.9118   1.9473
     2.2320   2.5417   2.7873   3.0863   3.1928   3.5079   3.5405   3.6017
     8.5054   8.5477   8.5801   8.5903   8.5983   8.6557   8.7060   8.7333
     8.7443   8.8080   8.8533   8.8627   8.8786   8.9009   8.9266   8.9369
     9.0435   9.0491   9.0584   9.0729  16.0143  16.3030  16.6065  16.6933
    19.7580  20.2446  20.4441  20.6201  20.8557  20.9067  21.0198  21.1038
    21.1975  21.3721  21.8173  22.0292  22.2107  22.3217  22.3939  22.5684
    23.2864  23.3262  23.6579  24.5704  24.6257  24.8014  24.8452  24.8584
    25.0887  25.2210  25.4742  25.5821  25.6721  25.7418  26.0629  26.4747
    26.5896  26.8685  26.9010  27.0692  27.4591  27.7994  28.0522  28.3272
    28.4810  28.5314  28.8084

          k =-0.4711-0.2720-0.2912 (  5804 PWs)   bands (ev):

   -75.8163 -75.8163 -75.7918 -75.7918 -38.0099 -38.0099 -37.9972 -37.9972
   -37.9935 -37.9935 -37.9864 -37.9864 -37.9723 -37.9722 -37.9665 -37.9665
   -18.7631 -18.7631 -18.4426 -18.4426 -17.9484 -17.9484 -17.8718 -17.8718
    -0.8250  -0.8250   0.2140   0.2140   0.7330   0.7330   0.8983   0.8983
     1.0180   1.0180   1.4363   1.4363   1.6580   1.6580   1.9414   1.9414
     2.5519   2.5519   2.8232   2.8232   3.3666   3.3666   3.5815   3.5815
     8.5393   8.5393   8.5829   8.5829   8.6291   8.6292   8.6959   8.6960
     8.7823   8.7823   8.8789   8.8789   8.8970   8.8970   8.9315   8.9315
     9.0398   9.0398   9.0537   9.0537  16.1944  16.1944  16.6110  16.6110
    20.0857  20.0857  20.3424  20.3424  20.8715  20.8715  20.8876  20.8876
    21.6920  21.6920  21.7377  21.7377  22.3447  22.3447  22.9084  22.9084
    22.9580  22.9580  23.7081  23.7081  24.6696  24.6697  25.0543  25.0543
    25.1581  25.1581  25.7854  25.7854  26.1413  26.1413  26.2190  26.2190
    26.4077  26.4077  26.9959  26.9959  27.2867  27.2868  28.1102  28.1104
    28.8083  28.8085  29.3131

          k =-0.4711 0.0907 0.0000 (  5827 PWs)   bands (ev):

   -75.8405 -75.8208 -75.8171 -75.7937 -38.0219 -38.0172 -38.0087 -38.0077
   -38.0019 -37.9958 -37.9893 -37.9818 -37.9809 -37.9717 -37.9691 -37.9691
   -18.8669 -18.6553 -18.4737 -18.2623 -18.1850 -17.9502 -17.9481 -17.7104
    -0.8851  -0.3904  -0.3207   0.2933   0.4529   0.5961   0.6138   1.0920
     1.2329   1.2698   1.4246   1.6519   1.7434   1.7803   1.8077   1.9517
     2.3811   2.5268   2.9585   3.1288   3.1612   3.3481   3.3757   3.5534
     8.5020   8.5285   8.5514   8.5601   8.6494   8.6872   8.7138   8.7456
     8.7948   8.7973   8.8204   8.8303   8.8326   8.9071   8.9144   8.9220
     9.0540   9.0627   9.0767   9.0994  15.7443  16.5512  16.5792  16.9043
    19.6310  20.2034  20.2084  20.5510  20.9057  21.1528  21.2921  21.4127
    21.4579  21.5409  21.7345  21.8733  22.0354  22.1993  22.4163  22.8503
    23.2413  23.2550  23.6385  23.9565  24.0177  24.3114  24.5367  24.6768
    24.7804  25.0848  25.1091  25.7657  25.8752  26.0026  26.0385  26.2361
    26.3190  27.0869  27.3445  27.6030  27.8462  27.8903  28.5995  28.6680
    28.8880  29.0920  29.3512

          k =-0.4711 0.0907 0.1456 (  5825 PWs)   bands (ev):

   -75.8405 -75.8220 -75.8071 -75.7980 -38.0176 -38.0151 -38.0098 -38.0077
   -38.0018 -37.9959 -37.9902 -37.9884 -37.9771 -37.9721 -37.9675 -37.9662
   -18.8381 -18.6856 -18.4674 -18.3707 -18.0388 -17.9499 -17.9484 -17.7531
    -0.8544  -0.5945  -0.0824   0.2401   0.5342   0.6394   0.6924   1.0038
     1.1832   1.1995   1.2690   1.3730   1.7682   1.7785   2.0771   2.1558
     2.4191   2.5644   2.8794   3.0299   3.2094   3.3697   3.3834   3.5107
     8.5135   8.5386   8.5484   8.5577   8.6370   8.7034   8.7122   8.7380
     8.7775   8.8091   8.8354   8.8386   8.8522   8.8917   8.8962   8.9318
     9.0446   9.0626   9.0722   9.0902  15.8339  16.3664  16.6839  16.8808
    19.7731  20.1514  20.3227  20.3839  20.7958  20.9783  21.2079  21.4543
    21.5458  21.6265  21.6485  21.9086  22.0836  22.3423  22.4829  22.9837
    23.1626  23.1958  23.5637  23.7607  24.0212  24.2605  24.6630  24.7625
    24.9785  25.2228  25.2998  25.5783  25.9252  25.9877  26.0308  26.1264
    26.4217  26.9162  27.2006  27.4732  27.6909  27.9221  28.6334  28.7368
    28.9047  29.1410  29.2653

          k =-0.4711 0.0907-0.2912 (  5824 PWs)   bands (ev):

   -75.8269 -75.8269 -75.8059 -75.8059 -38.0143 -38.0142 -38.0054 -38.0053
   -37.9990 -37.9990 -37.9897 -37.9897 -37.9755 -37.9755 -37.9696 -37.9696
   -18.7637 -18.7637 -18.4416 -18.4416 -17.9491 -17.9491 -17.8716 -17.8716
    -0.7597  -0.7597   0.1274   0.1274   0.7174   0.7174   0.8068   0.8068
     1.0209   1.0209   1.2712   1.2712   1.7791   1.7791   2.2590   2.2590
     2.5678   2.5678   2.8333   2.8333   3.3247   3.3247   3.4257   3.4257
     8.5343   8.5343   8.5527   8.5527   8.6554   8.6554   8.7412   8.7412
     8.7848   8.7848   8.8511   8.8511   8.8741   8.8742   8.9097   8.9098
     9.0444   9.0444   9.0784   9.0784  16.0721  16.0721  16.8058  16.8058
    20.0177  20.0178  20.2694  20.2694  20.9219  20.9219  21.2222  21.2222
    21.4810  21.4810  21.8827  21.8827  22.4739  22.4739  22.6559  22.6559
    22.9627  22.9627  23.7537  23.7537  24.3442  24.3442  24.4598  24.4598
    25.2673  25.2673  25.4944  25.4944  26.0089  26.0089  26.2437  26.2438
    26.3758  26.3758  27.3497  27.3497  27.7966  27.7968  28.3306  28.3307
    29.0835  29.0836  29.4576

     the Fermi energy is    24.9621 ev

!    total energy              =   -2058.96310626 Ry
     Harris-Foulkes estimate   =   -2058.96312893 Ry
     estimated scf accuracy    <       0.00002452 Ry

     The total energy is the sum of the following terms:

     one-electron contribution =    -374.93797338 Ry
     hartree contribution      =     315.85146517 Ry
     xc contribution           =    -206.28457078 Ry
     ewald contribution        =   -1793.02324808 Ry
     smearing contrib. (-TS)   =      -0.56877919 Ry

     convergence has been achieved in  11 iterations

     Forces acting on atoms (Ry/au):

     atom    1 type  1   force =     0.00000000    0.00000000    0.00588368
     atom    2 type  1   force =     0.00000000    0.00000000    0.00588368
     atom    3 type  1   force =     0.00000000    0.00000000   -0.00588368
     atom    4 type  1   force =     0.00000000    0.00000000   -0.00588368
     atom    5 type  2   force =     0.00000000    0.00000000    0.00000000
     atom    6 type  2   force =     0.00000000    0.00000000    0.00000000
     atom    7 type  2   force =     0.00000000    0.00062953    0.00000000
     atom    8 type  2   force =    -0.00054519    0.00031477    0.00000000
     atom    9 type  2   force =     0.00054519    0.00031477    0.00000000
     atom   10 type  2   force =    -0.00054519   -0.00031477    0.00000000
     atom   11 type  2   force =     0.00054519   -0.00031477    0.00000000
     atom   12 type  2   force =     0.00000000   -0.00062953    0.00000000

     Total force =     0.011868     Total SCF correction =     0.005518
     SCF correction compared to forces is large: reduce conv_thr to get better values


     entering subroutine stress ...

          total   stress  (Ry/bohr**3)                   (kbar)     P=  -12.00
  -0.00009761   0.00000000   0.00000000        -14.36      0.00      0.00
   0.00000000  -0.00009761   0.00000000          0.00    -14.36      0.00
   0.00000000   0.00000000  -0.00004952          0.00      0.00     -7.28


     number of scf cycles    =   2
     number of bfgs steps    =   1

     enthalpy old            =   -2058.1515039591 Ry
     enthalpy new            =   -2058.9631062646 Ry

     CASE: enthalpy_new < enthalpy_old

     small trust_radius: resetting bfgs history

     new trust radius        =       0.0197478117 bohr
     new conv_thr            =       0.0000058837 Ry

     new unit-cell volume =   1627.08593 a.u.^3 (   241.10926 Ang^3 )

CELL_PARAMETERS (alat=  9.92348860)
   1.058769645   0.000000000   0.000000000
  -0.529384823   0.916921409   0.000000000
   0.000000000   0.000000000   1.715077583

ATOMIC_POSITIONS (crystal)
Mg       0.333333000   0.666667000   0.063291281
Mg       0.666667000   0.333333000   0.563291281
Mg       0.666667000   0.333333000   0.936708719
Mg       0.333333000   0.666667000   0.436708719
Zn       0.000000000   0.000000000   0.000000000
Zn       0.000000000   0.000000000   0.500000000
Zn       0.171583509   0.343167019   0.750000000
Zn       0.828416491   0.171583509   0.250000000
Zn       0.343167019   0.171583509   0.250000000
Zn       0.656832981   0.828416491   0.750000000
Zn       0.171583509   0.828416491   0.750000000
Zn       0.828416491   0.656832981   0.250000000



     Writing output data file Prototype-La-hP12-MgZn2.save
     Check: negative starting charge=   -0.006994
     NEW-OLD atomic charge density approx. for the potential
     NEW k-points:
        k(    1) = (   0.0000000   0.0000000   0.0000000), wk =   0.0833333
        k(    2) = (   0.0000000   0.0000000   0.1457660), wk =   0.1666667
        k(    3) = (   0.0000000   0.0000000  -0.2915320), wk =   0.0833333
        k(    4) = (   0.0000000   0.3635353   0.0000000), wk =   0.1666667
        k(    5) = (   0.0000000   0.3635353   0.1457660), wk =   0.3333333
        k(    6) = (   0.0000000   0.3635353  -0.2915320), wk =   0.1666667
        k(    7) = (  -0.4722463  -0.2726515   0.0000000), wk =   0.0833333
        k(    8) = (  -0.4722463  -0.2726515   0.1457660), wk =   0.1666667
        k(    9) = (  -0.4722463  -0.2726515  -0.2915320), wk =   0.0833333
        k(   10) = (  -0.4722463   0.0908838   0.0000000), wk =   0.1666667
        k(   11) = (  -0.4722463   0.0908838   0.1457660), wk =   0.3333333
        k(   12) = (  -0.4722463   0.0908838  -0.2915320), wk =   0.1666667
     Check: negative starting charge=   -0.006689
     extrapolated charge  191.36147, renormalised to  192.00000

     total cpu time spent up to now is      723.9 secs

     Self-consistent Calculation

     iteration #  1     ecut=    40.00 Ry     beta=0.70
     CG style diagonalization
     c_bands:  1 eigenvalues not converged
     c_bands:  1 eigenvalues not converged
     c_bands:  1 eigenvalues not converged
     c_bands:  1 eigenvalues not converged
     ethr =  1.00E-06,  avg # of iterations =  6.5

     total cpu time spent up to now is      750.2 secs

     total energy              =   -2058.86209476 Ry
     Harris-Foulkes estimate   =   -2060.22396529 Ry
     estimated scf accuracy    <       0.20273581 Ry

     iteration #  2     ecut=    40.00 Ry     beta=0.70
     CG style diagonalization
     ethr =  1.06E-04,  avg # of iterations =  4.3

     total cpu time spent up to now is      767.2 secs

     total energy              =   -2058.88928837 Ry
     Harris-Foulkes estimate   =   -2059.05314262 Ry
     estimated scf accuracy    <       0.34243110 Ry

     iteration #  3     ecut=    40.00 Ry     beta=0.70
     CG style diagonalization
     ethr =  1.06E-04,  avg # of iterations =  3.7

     total cpu time spent up to now is      782.1 secs

     total energy              =   -2058.95945842 Ry
     Harris-Foulkes estimate   =   -2058.96261314 Ry
     estimated scf accuracy    <       0.00579243 Ry

     iteration #  4     ecut=    40.00 Ry     beta=0.70
     CG style diagonalization
     c_bands:  2 eigenvalues not converged
     ethr =  3.02E-06,  avg # of iterations =  4.5

     total cpu time spent up to now is      799.2 secs

     total energy              =   -2058.96277922 Ry
     Harris-Foulkes estimate   =   -2058.96328115 Ry
     estimated scf accuracy    <       0.00094994 Ry

     iteration #  5     ecut=    40.00 Ry     beta=0.70
     CG style diagonalization
     c_bands:  1 eigenvalues not converged
     c_bands:  1 eigenvalues not converged
     ethr =  4.95E-07,  avg # of iterations =  3.7

     total cpu time spent up to now is      814.3 secs

     total energy              =   -2058.96295817 Ry
     Harris-Foulkes estimate   =   -2058.96326411 Ry
     estimated scf accuracy    <       0.00091194 Ry

     iteration #  6     ecut=    40.00 Ry     beta=0.70
     CG style diagonalization
     ethr =  4.75E-07,  avg # of iterations =  3.2

     total cpu time spent up to now is      827.0 secs

     total energy              =   -2058.96307658 Ry
     Harris-Foulkes estimate   =   -2058.96308732 Ry
     estimated scf accuracy    <       0.00002333 Ry

     iteration #  7     ecut=    40.00 Ry     beta=0.70
     CG style diagonalization
     ethr =  1.22E-08,  avg # of iterations =  4.4

     total cpu time spent up to now is      844.0 secs

     total energy              =   -2058.96309325 Ry
     Harris-Foulkes estimate   =   -2058.96309619 Ry
     estimated scf accuracy    <       0.00000791 Ry

     iteration #  8     ecut=    40.00 Ry     beta=0.70
     CG style diagonalization
     ethr =  4.12E-09,  avg # of iterations =  3.5

     total cpu time spent up to now is      858.1 secs

     End of self-consistent calculation

          k = 0.0000 0.0000 0.0000 (  5769 PWs)   bands (ev):

   -75.6914 -75.6707 -75.6624 -75.6026 -37.8810 -37.8621 -37.8620 -37.8609
   -37.8425 -37.8384 -37.8384 -37.8223 -37.8223 -37.8132 -37.8122 -37.8122
   -19.0015 -18.7682 -18.0137 -17.7685 -17.7684 -17.7646 -17.7646 -17.7359
    -1.8337  -1.2288  -0.3387   0.3801   0.3801   0.5480   0.5480   0.8082
     0.8082   1.2729   2.0474   2.0474   2.0577   2.0577   2.4293   3.3605
     3.3619   3.3814   3.3855   3.3856   3.8181   3.8181   3.9424   3.9424
     8.6997   8.6997   8.7176   8.7189   8.8134   8.8134   8.8581   8.8581
     8.9238   8.9238   9.0522   9.0522   9.0594   9.1084   9.1084   9.1743
     9.1788   9.1788   9.1997   9.1997  14.2279  15.8857  16.4121  18.8755
    18.9520  18.9521  19.3513  19.9973  20.1923  20.2281  20.4771  20.4771
    21.3055  21.3056  21.3964  21.3964  22.1151  22.1151  22.1693  22.3793
    23.3210  23.3211  23.7395  23.7395  24.6758  24.6760  25.9360  26.0959
    26.5683  26.8504  27.1791  27.1793  27.4138  27.4139  27.5284  27.5285
    27.8305  27.8952  27.8952  27.9725  27.9725  28.0849  28.3213  28.3975
    28.3976  28.6902  29.4542

          k = 0.0000 0.0000 0.1458 (  5780 PWs)   bands (ev):

   -75.6939 -75.6903 -75.6550 -75.6119 -37.8741 -37.8685 -37.8525 -37.8525
   -37.8517 -37.8517 -37.8483 -37.8234 -37.8234 -37.8181 -37.8163 -37.8163
   -18.9740 -18.8119 -17.9635 -17.7701 -17.7679 -17.7679 -17.7652 -17.7652
    -1.7800  -1.3863  -0.0805   0.3922   0.3922   0.4962   0.4962   0.9341
     0.9342   0.9890   1.6009   1.6010   2.5154   2.5155   2.6552   3.2582
     3.2582   3.2884   3.3579   3.3580   3.8510   3.8510   3.9302   3.9302
     8.7078   8.7162   8.7162   8.7175   8.7958   8.7958   8.8662   8.8662
     8.9126   8.9126   9.0600   9.0600   9.0829   9.0991   9.0991   9.1569
     9.1828   9.1828   9.1971   9.1971  14.3880  15.3942  17.0153  18.4311
    19.1228  19.1228  19.6422  19.6946  19.9311  20.1746  20.1747  20.2510
    21.3468  21.3468  21.3974  21.3974  22.1822  22.1822  22.5373  23.1575
    23.2327  23.2327  23.7253  23.7253  24.9085  24.9086  24.9639  26.1517
    26.7208  26.9590  26.9800  27.2097  27.2097  27.3284  27.3285  27.5255
    27.5255  27.6374  27.9304  27.9304  27.9783  27.9783  28.5340  28.5341
    28.9644  29.1383  29.2604

          k = 0.0000 0.0000-0.2915 (  5780 PWs)   bands (ev):

   -75.6873 -75.6873 -75.6373 -75.6373 -37.8703 -37.8702 -37.8503 -37.8503
   -37.8502 -37.8502 -37.8502 -37.8502 -37.8133 -37.8133 -37.8133 -37.8133
   -18.9004 -18.9004 -17.8594 -17.8594 -17.7666 -17.7665 -17.7665 -17.7665
    -1.6206  -1.6206   0.4328   0.4328   0.4337   0.4337   0.4337   0.4337
     1.2202   1.2202   1.2203   1.2203   2.9412   2.9412   2.9413   2.9413
     3.0195   3.0195   3.3621   3.3621   3.8973   3.8973   3.8974   3.8974
     8.7063   8.7064   8.7561   8.7561   8.7561   8.7561   8.8870   8.8870
     8.8870   8.8870   9.0804   9.0804   9.0804   9.0804   9.1195   9.1196
     9.1918   9.1918   9.1918   9.1918  14.8172  14.8172  17.8088  17.8089
    19.4469  19.4469  19.5897  19.5897  19.5898  19.5898  20.1392  20.1392
    21.3900  21.3900  21.3901  21.3901  22.5705  22.5705  22.5706  22.5706
    23.4585  23.4585  24.4835  24.4835  24.4835  24.4835  25.0076  25.0076
    26.5240  26.5240  27.2640  27.2640  27.4481  27.4481  27.4481  27.4482
    27.7732  27.7732  27.7732  27.7733  28.1213  28.1213  28.1213  28.1214
    29.3845  29.3846  29.7766

          k = 0.0000 0.3635 0.0000 (  5787 PWs)   bands (ev):

   -75.6892 -75.6785 -75.6538 -75.6435 -37.8693 -37.8666 -37.8634 -37.8601
   -37.8537 -37.8454 -37.8391 -37.8316 -37.8303 -37.8254 -37.8193 -37.8137
   -18.8150 -18.5912 -18.1702 -18.0132 -17.9825 -17.7709 -17.7676 -17.5523
    -1.1345  -0.5927  -0.2274   0.5071   0.6141   0.7122   0.8199   0.9369
     1.1385   1.5440   1.7186   1.7886   1.9188   2.0543   2.0773   2.6351
     2.6549   2.8025   3.1458   3.3725   3.3924   3.6749   3.7106   3.8178
     8.6334   8.6698   8.7172   8.7440   8.7861   8.8011   8.8638   8.8773
     8.9369   8.9489   8.9625   9.0116   9.0197   9.0724   9.0894   9.0896
     9.1918   9.1996   9.1999   9.2332  15.2561  16.4448  16.7902  17.2831
    19.6051  19.9832  20.0560  20.6962  20.7938  20.9763  21.1295  21.2724
    21.4893  21.8719  22.1374  22.1621  22.3628  22.5104  22.5696  22.7948
    23.3557  23.4220  23.4853  23.6265  24.2956  24.4361  24.6895  24.7117
    24.8417  25.4429  26.0735  26.1119  26.2973  26.5970  26.6807  26.8108
    26.9656  27.0044  27.1170  27.5624  28.5681  28.6136  28.7105  28.9562
    29.1465  29.3099  29.4407

          k = 0.0000 0.3635 0.1458 (  5804 PWs)   bands (ev):

   -75.7016 -75.6896 -75.6610 -75.6556 -37.8769 -37.8716 -37.8648 -37.8595
   -37.8592 -37.8481 -37.8470 -37.8440 -37.8298 -37.8270 -37.8226 -37.8144
   -18.7875 -18.6305 -18.1649 -18.0974 -17.8519 -17.7705 -17.7681 -17.5925
    -1.0961  -0.7726   0.0182   0.4582   0.6326   0.8279   0.8500   0.9314
     1.1733   1.2358   1.4025   1.6059   2.0903   2.2462   2.3592   2.6252
     2.6884   2.8448   3.0646   3.2677   3.4141   3.6285   3.7456   3.8117
     8.6467   8.6838   8.7227   8.7418   8.7577   8.8037   8.8616   8.8873
     8.9198   8.9391   8.9848   9.0159   9.0239   9.0613   9.0728   9.1132
     9.1811   9.1992   9.2016   9.2217  15.3780  16.1443  16.9955  17.2710
    19.7101  20.0640  20.1059  20.5216  20.6803  20.8951  20.9173  21.3149
    21.5155  21.6976  21.9397  22.2167  22.3599  22.5501  22.7620  23.1108
    23.3899  23.4865  23.7146  23.7229  24.2465  24.4473  24.7277  24.8323
    24.9725  25.3722  25.7479  25.9533  26.1295  26.4841  26.7909  26.9014
    26.9930  27.0392  27.1512  27.8815  28.0797  28.3383  28.3576  28.7994
    29.2084  29.4226  29.5168

          k = 0.0000 0.3635-0.2915 (  5816 PWs)   bands (ev):

   -75.6990 -75.6990 -75.6701 -75.6701 -37.8737 -37.8737 -37.8700 -37.8700
   -37.8524 -37.8524 -37.8504 -37.8503 -37.8299 -37.8299 -37.8229 -37.8229
   -18.7147 -18.7147 -18.1452 -18.1452 -17.7693 -17.7693 -17.7024 -17.7024
    -0.9756  -0.9756   0.3200   0.3200   0.8125   0.8125   0.9051   0.9051
     1.0866   1.0866   1.3202   1.3202   2.2865   2.2865   2.5676   2.5676
     2.8624   2.8624   3.0222   3.0222   3.5201   3.5201   3.7894   3.7895
     8.6818   8.6819   8.7338   8.7338   8.7592   8.7593   8.8883   8.8883
     8.9146   8.9146   9.0115   9.0116   9.0389   9.0389   9.0944   9.0944
     9.1925   9.1925   9.2012   9.2012  15.7095  15.7095  17.1957  17.1958
    19.8663  19.8663  20.4504  20.4504  20.5897  20.5897  21.0665  21.0665
    21.4850  21.4850  22.2832  22.2832  22.3005  22.3005  22.9344  22.9344
    23.5942  23.5942  24.0229  24.0229  24.1966  24.1966  25.1705  25.1705
    25.2177  25.2177  25.3355  25.3355  26.3195  26.3195  27.0272  27.0272
    27.0458  27.0458  27.2733  27.2733  27.7309  27.7309  28.7450  28.7453
    29.3859  29.3862  29.7809

          k =-0.4722-0.2727 0.0000 (  5800 PWs)   bands (ev):

   -75.6968 -75.6823 -75.6761 -75.6409 -37.8806 -37.8641 -37.8616 -37.8569
   -37.8537 -37.8457 -37.8456 -37.8441 -37.8351 -37.8307 -37.8284 -37.8085
   -18.7068 -18.4961 -18.3078 -18.0938 -18.0130 -17.7718 -17.7685 -17.5307
    -0.8309  -0.3175  -0.1820   0.5789   0.5848   0.8241   1.1238   1.2488
     1.3780   1.4571   1.5794   1.6454   1.7815   1.8740   2.0478   2.1167
     2.1952   2.5829   3.0492   3.2866   3.3924   3.6993   3.7525   3.8021
     8.6278   8.6733   8.7205   8.7360   8.7552   8.7836   8.8706   8.8911
     8.8959   8.9604   8.9681   8.9866   9.0058   9.0583   9.0799   9.0802
     9.1980   9.2022   9.2109   9.2431  16.0942  16.3887  16.8353  16.8761
    19.6580  20.5166  20.8547  21.0318  21.0464  21.0508  21.1674  21.2913
    21.5175  21.5268  21.5482  21.6448  22.0871  22.5023  22.7654  22.8683
    23.3873  23.4941  24.3187  24.6263  24.7866  24.9409  25.1843  25.2313
    25.3082  25.3343  25.4466  25.4848  25.5279  25.8968  26.2921  26.5006
    26.7236  27.1584  27.3122  27.6178  27.8627  27.9617  28.1875  28.3996
    28.5902  28.6216  28.9502

          k =-0.4722-0.2727 0.1458 (  5822 PWs)   bands (ev):

   -75.7100 -75.7067 -75.6688 -75.6653 -37.8765 -37.8759 -37.8638 -37.8638
   -37.8619 -37.8612 -37.8544 -37.8528 -37.8342 -37.8330 -37.8233 -37.8164
   -18.6778 -18.5257 -18.3018 -18.2040 -17.8648 -17.7714 -17.7690 -17.5741
    -0.7989  -0.5189   0.0724   0.5313   0.6496   0.8852   1.1325   1.2098
     1.2372   1.2680   1.5791   1.6142   1.7890   1.8544   2.0783   2.1123
     2.3993   2.7156   2.9611   3.2681   3.3714   3.6936   3.7337   3.7949
     8.6433   8.6871   8.7211   8.7317   8.7393   8.7976   8.8475   8.8757
     8.8890   8.9532   8.9987   9.0092   9.0249   9.0470   9.0734   9.0820
     9.1921   9.1974   9.2072   9.2218  16.1544  16.4383  16.7482  16.8268
    19.8955  20.3828  20.5947  20.7565  21.0032  21.0509  21.1664  21.2526
    21.3399  21.5283  21.9625  22.1879  22.3693  22.4777  22.5462  22.7350
    23.4481  23.4876  23.8266  24.7353  24.7907  24.9843  25.0172  25.0281
    25.2722  25.4064  25.6542  25.7666  25.8556  25.9301  26.2525  26.6460
    26.7786  27.0467  27.0797  27.2532  27.6528  27.9861  28.2461  28.5202
    28.6703  28.7190  29.0083

          k =-0.4722-0.2727-0.2915 (  5804 PWs)   bands (ev):

   -75.6890 -75.6890 -75.6640 -75.6640 -37.8698 -37.8698 -37.8569 -37.8569
   -37.8531 -37.8531 -37.8459 -37.8459 -37.8308 -37.8307 -37.8262 -37.8262
   -18.6031 -18.6031 -18.2763 -18.2763 -17.7702 -17.7702 -17.6948 -17.6948
    -0.6970  -0.6970   0.3578   0.3578   0.8831   0.8831   1.0536   1.0536
     1.1662   1.1662   1.5907   1.5907   1.8204   1.8204   2.1067   2.1067
     2.7228   2.7228   3.0017   3.0017   3.5491   3.5491   3.7746   3.7746
     8.6785   8.6785   8.7241   8.7241   8.7702   8.7702   8.8380   8.8380
     8.9276   8.9276   9.0251   9.0251   9.0433   9.0434   9.0774   9.0775
     9.1876   9.1877   9.2021   9.2021  16.3344  16.3344  16.7462  16.7462
    20.2233  20.2233  20.4817  20.4817  21.0219  21.0219  21.0365  21.0365
    21.8391  21.8391  21.8911  21.8912  22.5069  22.5069  23.0691  23.0691
    23.1164  23.1164  23.8648  23.8648  24.8367  24.8368  25.2438  25.2438
    25.3419  25.3419  25.9686  25.9686  26.3238  26.3238  26.3930  26.3930
    26.5979  26.5979  27.1825  27.1825  27.4665  27.4665  28.3068  28.3068
    29.0026  29.0031  29.5145

          k =-0.4722 0.0909 0.0000 (  5827 PWs)   bands (ev):

   -75.7119 -75.6929 -75.6894 -75.6667 -37.8811 -37.8766 -37.8682 -37.8675
   -37.8615 -37.8555 -37.8486 -37.8411 -37.8406 -37.8311 -37.8288 -37.8282
   -18.7077 -18.4951 -18.3085 -18.0919 -18.0131 -17.7721 -17.7699 -17.5305
    -0.7563  -0.2612  -0.1811   0.4350   0.6013   0.7392   0.7657   1.2443
     1.3851   1.4227   1.5830   1.8157   1.9055   1.9432   1.9739   2.1164
     2.5529   2.7009   3.1358   3.3081   3.3431   3.5356   3.5639   3.7400
     8.6399   8.6675   8.6914   8.7013   8.7915   8.8293   8.8568   8.8872
     8.9401   8.9413   8.9653   8.9761   8.9781   9.0532   9.0616   9.0675
     9.2030   9.2108   9.2262   9.2486  15.8802  16.6899  16.7200  17.0406
    19.7712  20.3418  20.3546  20.6912  21.0469  21.3039  21.4423  21.5578
    21.6067  21.6915  21.8892  22.0246  22.1989  22.3593  22.5753  23.0160
    23.3976  23.4212  23.8037  24.1265  24.1821  24.4809  24.7034  24.8452
    24.9558  25.2556  25.2822  25.9340  26.0667  26.1704  26.2298  26.4220
    26.5066  27.2843  27.5361  27.7845  28.0293  28.0659  28.7957  28.8674
    29.0801  29.2878  29.4949

          k =-0.4722 0.0909 0.1458 (  5825 PWs)   bands (ev):

   -75.7124 -75.6939 -75.6798 -75.6704 -37.8771 -37.8747 -37.8695 -37.8674
   -37.8614 -37.8554 -37.8494 -37.8477 -37.8364 -37.8312 -37.8271 -37.8258
   -18.6786 -18.5254 -18.3020 -18.2024 -17.8645 -17.7718 -17.7702 -17.5739
    -0.7254  -0.4635   0.0562   0.3820   0.6816   0.7869   0.8427   1.1550
     1.3391   1.3530   1.4211   1.5299   1.9329   1.9415   2.2449   2.3234
     2.5915   2.7391   3.0561   3.2109   3.3899   3.5576   3.5709   3.6965
     8.6520   8.6780   8.6886   8.6982   8.7786   8.8452   8.8553   8.8817
     8.9220   8.9542   8.9806   8.9838   8.9973   9.0377   9.0425   9.0781
     9.1930   9.2111   9.2213   9.2390  15.9704  16.5057  16.8230  17.0172
    19.9143  20.2911  20.4650  20.5243  20.9414  21.1257  21.3580  21.6061
    21.6968  21.7764  21.8028  22.0642  22.2405  22.4996  22.6423  23.1487
    23.3217  23.3587  23.7281  23.9247  24.1862  24.4275  24.8341  24.9348
    25.1521  25.3887  25.4717  25.7553  26.1110  26.1671  26.2148  26.3163
    26.6033  27.1079  27.3859  27.6630  27.8722  28.1129  28.8311  28.9355
    29.1044  29.3372  29.4635

          k =-0.4722 0.0909-0.2915 (  5824 PWs)   bands (ev):

   -75.6988 -75.6988 -75.6784 -75.6784 -37.8739 -37.8738 -37.8649 -37.8649
   -37.8586 -37.8586 -37.8490 -37.8490 -37.8347 -37.8347 -37.8292 -37.8292
   -18.6037 -18.6037 -18.2753 -18.2753 -17.7710 -17.7710 -17.6945 -17.6945
    -0.6301  -0.6301   0.2683   0.2683   0.8677   0.8677   0.9554   0.9554
     1.1754   1.1754   1.4234   1.4234   1.9427   1.9427   2.4291   2.4291
     2.7410   2.7410   3.0116   3.0116   3.5093   3.5093   3.6119   3.6119
     8.6739   8.6739   8.6927   8.6927   8.7970   8.7971   8.8846   8.8846
     8.9301   8.9301   8.9962   8.9962   9.0201   9.0201   9.0557   9.0557
     9.1925   9.1925   9.2270   9.2270  16.2100  16.2100  16.9435  16.9436
    20.1589  20.1589  20.4086  20.4086  21.0684  21.0684  21.3787  21.3787
    21.6330  21.6330  22.0333  22.0333  22.6333  22.6334  22.8127  22.8127
    23.1256  23.1256  23.9152  23.9152  24.5108  24.5108  24.6279  24.6279
    25.4449  25.4449  25.6659  25.6659  26.1890  26.1890  26.4351  26.4351
    26.5600  26.5600  27.5399  27.5399  27.9826  27.9826  28.5255  28.5257
    29.2813  29.2813  29.6645

     the Fermi energy is    25.1357 ev

!    total energy              =   -2058.96309275 Ry
     Harris-Foulkes estimate   =   -2058.96309470 Ry
     estimated scf accuracy    <       0.00000217 Ry

     The total energy is the sum of the following terms:

     one-electron contribution =    -369.77226050 Ry
     hartree contribution      =     314.46974413 Ry
     xc contribution           =    -206.40097875 Ry
     ewald contribution        =   -1796.69431144 Ry
     smearing contrib. (-TS)   =      -0.56528618 Ry

     convergence has been achieved in   8 iterations

     Forces acting on atoms (Ry/au):

     atom    1 type  1   force =     0.00000000    0.00000000    0.00197171
     atom    2 type  1   force =     0.00000000    0.00000000    0.00197171
     atom    3 type  1   force =     0.00000000    0.00000000   -0.00197171
     atom    4 type  1   force =     0.00000000    0.00000000   -0.00197171
     atom    5 type  2   force =     0.00000000    0.00000000    0.00000000
     atom    6 type  2   force =     0.00000000    0.00000000    0.00000000
     atom    7 type  2   force =     0.00000000   -0.00000904    0.00000000
     atom    8 type  2   force =     0.00000783   -0.00000452    0.00000000
     atom    9 type  2   force =    -0.00000783   -0.00000452    0.00000000
     atom   10 type  2   force =     0.00000783    0.00000452    0.00000000
     atom   11 type  2   force =    -0.00000783    0.00000452    0.00000000
     atom   12 type  2   force =     0.00000000    0.00000904    0.00000000

     Total force =     0.003943     Total SCF correction =     0.004421
     SCF correction compared to forces is large: reduce conv_thr to get better values


     entering subroutine stress ...

          total   stress  (Ry/bohr**3)                   (kbar)     P=   16.02
   0.00010457   0.00000000   0.00000000         15.38      0.00      0.00
   0.00000000   0.00010457   0.00000000          0.00     15.38      0.00
   0.00000000   0.00000000   0.00011747          0.00      0.00     17.28


     number of scf cycles    =   3
     number of bfgs steps    =   2

     enthalpy old            =   -2058.9631062646 Ry
     enthalpy new            =   -2058.9630927486 Ry

     CASE: enthalpy_new > enthalpy_old

     new trust radius        =       0.0097388872 bohr

     trust_radius < trust_radius_min

     resetting bfgs history

     Message from routine bfgs:
     history already reset at previous step: stopping
     new conv_thr            =       0.0000058837 Ry

     new unit-cell volume =   1627.06870 a.u.^3 (   241.10670 Ang^3 )

CELL_PARAMETERS (alat=  9.92348860)
   1.058766435   0.000000000   0.000000000
  -0.529383217   0.916918629   0.000000000
   0.000000000   0.000000000   1.715069814

ATOMIC_POSITIONS (crystal)
Mg       0.333333000   0.666667000   0.063292137
Mg       0.666667000   0.333333000   0.563292137
Mg       0.666667000   0.333333000   0.936707863
Mg       0.333333000   0.666667000   0.436707863
Zn       0.000000000   0.000000000   0.000000000
Zn       0.000000000   0.000000000   0.500000000
Zn       0.171583678   0.343167357   0.750000000
Zn       0.828416322   0.171583678   0.250000000
Zn       0.343167357   0.171583678   0.250000000
Zn       0.656832643   0.828416322   0.750000000
Zn       0.171583678   0.828416322   0.750000000
Zn       0.828416322   0.656832643   0.250000000



     Writing output data file Prototype-La-hP12-MgZn2.save
     Check: negative starting charge=   -0.006689
     NEW-OLD atomic charge density approx. for the potential
     NEW k-points:
        k(    1) = (   0.0000000   0.0000000   0.0000000), wk =   0.0833333
        k(    2) = (   0.0000000   0.0000000   0.1457667), wk =   0.1666667
        k(    3) = (   0.0000000   0.0000000  -0.2915333), wk =   0.0833333
        k(    4) = (   0.0000000   0.3635364   0.0000000), wk =   0.1666667
        k(    5) = (   0.0000000   0.3635364   0.1457667), wk =   0.3333333
        k(    6) = (   0.0000000   0.3635364  -0.2915333), wk =   0.1666667
        k(    7) = (  -0.4722477  -0.2726523   0.0000000), wk =   0.0833333
        k(    8) = (  -0.4722477  -0.2726523   0.1457667), wk =   0.1666667
        k(    9) = (  -0.4722477  -0.2726523  -0.2915333), wk =   0.0833333
        k(   10) = (  -0.4722477   0.0908841   0.0000000), wk =   0.1666667
        k(   11) = (  -0.4722477   0.0908841   0.1457667), wk =   0.3333333
        k(   12) = (  -0.4722477   0.0908841  -0.2915333), wk =   0.1666667
     Check: negative starting charge=   -0.006689
     extrapolated charge  191.99890, renormalised to  192.00000

     total cpu time spent up to now is      864.7 secs

     Self-consistent Calculation

     iteration #  1     ecut=    40.00 Ry     beta=0.70
     CG style diagonalization
     ethr =  1.00E-06,  avg # of iterations =  3.0

     Threshold (ethr) on eigenvalues was too large:
     Diagonalizing with lowered threshold

     CG style diagonalization
     ethr =  1.12E-08,  avg # of iterations =  3.0

     total cpu time spent up to now is      888.1 secs

     total energy              =   -2058.96307885 Ry
     Harris-Foulkes estimate   =   -2058.96515348 Ry
     estimated scf accuracy    <       0.00002247 Ry

     iteration #  2     ecut=    40.00 Ry     beta=0.70
     CG style diagonalization
     ethr =  1.17E-08,  avg # of iterations =  4.2

     total cpu time spent up to now is      905.9 secs

     total energy              =   -2058.96307181 Ry
     Harris-Foulkes estimate   =   -2058.96311650 Ry
     estimated scf accuracy    <       0.00013153 Ry

     iteration #  3     ecut=    40.00 Ry     beta=0.70
     CG style diagonalization
     ethr =  1.17E-08,  avg # of iterations =  3.8

     total cpu time spent up to now is      920.6 secs

     End of self-consistent calculation

          k = 0.0000 0.0000 0.0000 (  5769 PWs)   bands (ev):

   -75.6919 -75.6711 -75.6628 -75.6031 -37.8811 -37.8625 -37.8625 -37.8610
   -37.8425 -37.8389 -37.8388 -37.8228 -37.8228 -37.8132 -37.8127 -37.8127
   -19.0014 -18.7672 -18.0171 -17.7675 -17.7674 -17.7636 -17.7636 -17.7384
    -1.8333  -1.2278  -0.3397   0.3808   0.3808   0.5491   0.5491   0.8068
     0.8069   1.2735   2.0450   2.0450   2.0583   2.0583   2.4271   3.3617
     3.3630   3.3802   3.3844   3.3845   3.8192   3.8193   3.9433   3.9434
     8.6995   8.6995   8.7178   8.7190   8.8131   8.8132   8.8579   8.8579
     8.9236   8.9236   9.0520   9.0520   9.0594   9.1083   9.1083   9.1743
     9.1786   9.1786   9.1995   9.1995  14.2282  15.8857  16.4129  18.8762
    18.9519  18.9519  19.3516  19.9979  20.1931  20.2282  20.4769  20.4769
    21.3058  21.3058  21.3975  21.3975  22.1155  22.1155  22.1698  22.3798
    23.3205  23.3205  23.7384  23.7384  24.6758  24.6759  25.9349  26.0965
    26.5674  26.8508  27.1793  27.1794  27.4128  27.4128  27.5289  27.5290
    27.8312  27.8963  27.8964  27.9737  27.9737  28.0853  28.3217  28.3968
    28.3969  28.6896  29.4547

          k = 0.0000 0.0000 0.1458 (  5780 PWs)   bands (ev):

   -75.6943 -75.6908 -75.6554 -75.6123 -37.8742 -37.8686 -37.8529 -37.8529
   -37.8522 -37.8522 -37.8484 -37.8239 -37.8239 -37.8182 -37.8168 -37.8168
   -18.9738 -18.8112 -17.9667 -17.7726 -17.7669 -17.7669 -17.7643 -17.7642
    -1.7796  -1.3856  -0.0811   0.3929   0.3929   0.4969   0.4970   0.9331
     0.9331   0.9891   1.6000   1.6001   2.5146   2.5146   2.6535   3.2572
     3.2573   3.2872   3.3591   3.3592   3.8520   3.8520   3.9311   3.9311
     8.7079   8.7160   8.7160   8.7176   8.7955   8.7956   8.8661   8.8661
     8.9124   8.9124   9.0598   9.0598   9.0829   9.0990   9.0990   9.1569
     9.1826   9.1826   9.1969   9.1969  14.3883  15.3944  17.0159  18.4317
    19.1226  19.1227  19.6426  19.6950  19.9317  20.1745  20.1745  20.2516
    21.3474  21.3474  21.3985  21.3985  22.1820  22.1820  22.5377  23.1579
    23.2318  23.2318  23.7250  23.7251  24.9085  24.9086  24.9644  26.1507
    26.7199  26.9595  26.9804  27.2096  27.2097  27.3284  27.3285  27.5250
    27.5250  27.6380  27.9315  27.9315  27.9794  27.9794  28.5335  28.5336
    28.9641  29.1389  29.2603

          k = 0.0000 0.0000-0.2915 (  5780 PWs)   bands (ev):

   -75.6878 -75.6877 -75.6377 -75.6377 -37.8704 -37.8703 -37.8507 -37.8507
   -37.8507 -37.8507 -37.8504 -37.8504 -37.8138 -37.8138 -37.8138 -37.8138
   -18.9001 -18.9001 -17.8622 -17.8622 -17.7656 -17.7655 -17.7655 -17.7655
    -1.6201  -1.6201   0.4325   0.4325   0.4344   0.4344   0.4344   0.4344
     1.2193   1.2193   1.2194   1.2194   2.9404   2.9404   2.9404   2.9404
     3.0181   3.0181   3.3633   3.3633   3.8983   3.8983   3.8983   3.8983
     8.7064   8.7065   8.7558   8.7559   8.7559   8.7559   8.8868   8.8869
     8.8869   8.8869   9.0802   9.0802   9.0802   9.0802   9.1196   9.1196
     9.1916   9.1916   9.1916   9.1916  14.8175  14.8175  17.8094  17.8094
    19.4472  19.4472  19.5896  19.5896  19.5896  19.5896  20.1398  20.1398
    21.3910  21.3910  21.3910  21.3910  22.5698  22.5698  22.5698  22.5698
    23.4589  23.4589  24.4835  24.4835  24.4835  24.4835  25.0080  25.0081
    26.5230  26.5230  27.2645  27.2645  27.4478  27.4478  27.4478  27.4479
    27.7735  27.7735  27.7735  27.7735  28.1220  28.1220  28.1220  28.1220
    29.3842  29.3843  29.7772

          k = 0.0000 0.3635 0.0000 (  5787 PWs)   bands (ev):

   -75.6897 -75.6789 -75.6542 -75.6439 -37.8694 -37.8669 -37.8638 -37.8604
   -37.8541 -37.8459 -37.8392 -37.8320 -37.8307 -37.8258 -37.8194 -37.8141
   -18.8151 -18.5902 -18.1701 -18.0166 -17.9815 -17.7699 -17.7666 -17.5537
    -1.1342  -0.5917  -0.2286   0.5076   0.6131   0.7132   0.8185   0.9372
[...]

     iteration # 10     ecut=    40.00 Ry     beta=0.70
     CG style diagonalization
     c_bands:  1 eigenvalues not converged
     c_bands:  2 eigenvalues not converged
     c_bands:  1 eigenvalues not converged
     c_bands:  2 eigenvalues not converged
     c_bands:  1 eigenvalues not converged
     c_bands:  1 eigenvalues not converged
     c_bands:  1 eigenvalues not converged
     c_bands:  3 eigenvalues not converged
     c_bands:  1 eigenvalues not converged
     ethr =  1.45E-05,  avg # of iterations =  4.7

     total cpu time spent up to now is     1709.7 secs

     total energy              =   -2059.98098263 Ry
     Harris-Foulkes estimate   =   -2059.98901274 Ry
     estimated scf accuracy    <       0.01873322 Ry

     iteration # 11     ecut=    40.00 Ry     beta=0.70
     CG style diagonalization
     c_bands:  1 eigenvalues not converged
     ethr =  9.76E-06,  avg # of iterations =  3.4

     total cpu time spent up to now is     1728.4 secs

     total energy              =   -2059.98376496 Ry
     Harris-Foulkes estimate   =   -2059.98388278 Ry
     estimated scf accuracy    <       0.00026207 Ry

     iteration # 12     ecut=    40.00 Ry     beta=0.70
     CG style diagonalization
     c_bands:  1 eigenvalues not converged
     c_bands:  1 eigenvalues not converged
     ethr =  1.36E-07,  avg # of iterations =  5.3

     total cpu time spent up to now is     1758.2 secs

     total energy              =   -2059.98408768 Ry
     Harris-Foulkes estimate   =   -2059.98411110 Ry
     estimated scf accuracy    <       0.00008853 Ry

     iteration # 13     ecut=    40.00 Ry     beta=0.70
     CG style diagonalization
     ethr =  4.61E-08,  avg # of iterations =  3.1

     total cpu time spent up to now is     1773.6 secs

     total energy              =   -2059.98408051 Ry
     Harris-Foulkes estimate   =   -2059.98409408 Ry
     estimated scf accuracy    <       0.00003437 Ry

     iteration # 14     ecut=    40.00 Ry     beta=0.70
     CG style diagonalization
     ethr =  1.79E-08,  avg # of iterations =  3.7

     total cpu time spent up to now is     1792.8 secs

     End of self-consistent calculation

          k = 0.0000 0.0000 0.0000 (  6947 PWs)   bands (ev):

   -76.0456 -76.0200 -76.0123 -76.0113 -37.9751 -37.9654 -37.9541 -37.9541
   -37.9502 -37.9502 -37.9436 -37.9435 -37.9395 -37.9395 -37.9348 -37.9313
   -18.9873 -18.7527 -18.0022 -17.7513 -17.7513 -17.7480 -17.7479 -17.7231
    -1.8557  -1.2571  -0.3796   0.3462   0.3462   0.5143   0.5143   0.7733
     0.7733   1.2394   2.0019   2.0019   2.0226   2.0227   2.3881   3.3090
     3.3110   3.3280   3.3280   3.3343   3.7764   3.7764   3.8899   3.8899
     8.7677   8.7677   8.7861   8.7881   8.8811   8.8811   8.9247   8.9247
     8.9943   8.9943   9.1238   9.1238   9.1351   9.1811   9.1811   9.2481
     9.2515   9.2515   9.2728   9.2728  14.1633  15.8284  16.3691  18.8623
    18.9405  18.9405  19.2699  19.9848  20.1741  20.2055  20.4598  20.4598
    21.2939  21.2939  21.3813  21.3813  22.1017  22.1017  22.1418  22.3140
    23.2985  23.2985  23.7169  23.7169  24.6521  24.6523  25.8983  26.0356
    26.5435  26.8110  27.1446  27.1447  27.3839  27.3843  27.5033  27.5034
    27.8099  27.8722  27.8723  27.9501  27.9503  28.0304  28.2498  28.3636
    28.3637  28.6382  29.4354

          k = 0.0000 0.0000 0.1458 (  6940 PWs)   bands (ev):

   -76.0401 -76.0333 -76.0096 -76.0015 -37.9644 -37.9613 -37.9568 -37.9534
   -37.9534 -37.9478 -37.9478 -37.9443 -37.9360 -37.9360 -37.9336 -37.9336
   -18.9599 -18.7970 -17.9516 -17.7571 -17.7507 -17.7507 -17.7482 -17.7482
    -1.8035  -1.4144  -0.1167   0.3587   0.3587   0.4630   0.4630   0.9008
     0.9008   0.9464   1.5656   1.5657   2.4741   2.4742   2.6130   3.2046
     3.2047   3.2356   3.3103   3.3127   3.8068   3.8069   3.8812   3.8813
     8.7785   8.7841   8.7841   8.7861   8.8637   8.8637   8.9336   8.9336
     8.9816   8.9816   9.1321   9.1321   9.1567   9.1721   9.1721   9.2309
     9.2559   9.2559   9.2705   9.2705  14.3262  15.3409  16.9647  18.3846
    19.1110  19.1111  19.6124  19.6767  19.9093  20.1591  20.1592  20.2283
    21.3345  21.3346  21.3820  21.3821  22.1662  22.1662  22.4769  23.1243
    23.2134  23.2134  23.7035  23.7035  24.8842  24.8843  24.9036  26.1110
    26.6898  26.9245  26.9325  27.1843  27.1844  27.2946  27.2947  27.4904
    27.4905  27.6138  27.9083  27.9084  27.9579  27.9581  28.4978  28.4978
    28.9075  29.0745  29.2296

          k = 0.0000 0.0000-0.2915 (  6994 PWs)   bands (ev):

   -76.0543 -76.0543 -76.0215 -76.0215 -37.9745 -37.9745 -37.9624 -37.9624
   -37.9595 -37.9595 -37.9594 -37.9594 -37.9430 -37.9430 -37.9430 -37.9430
   -18.8862 -18.8862 -17.8470 -17.8470 -17.7498 -17.7498 -17.7498 -17.7498
    -1.6488  -1.6488   0.3968   0.3968   0.3968   0.3968   0.4029   0.4029
     1.1825   1.1825   1.1825   1.1825   2.8916   2.8916   2.8916   2.8917
     2.9717   2.9717   3.3092   3.3092   3.8522   3.8522   3.8522   3.8522
     8.7779   8.7779   8.8237   8.8237   8.8237   8.8237   8.9554   8.9554
     8.9554   8.9554   9.1517   9.1517   9.1517   9.1517   9.1954   9.1955
     9.2640   9.2640   9.2640   9.2640  14.7556  14.7556  17.7533  17.7534
    19.4334  19.4334  19.5756  19.5756  19.5757  19.5757  20.1110  20.1111
    21.3757  21.3757  21.3757  21.3757  22.5529  22.5529  22.5530  22.5530
    23.3920  23.3920  24.4590  24.4590  24.4590  24.4590  24.9754  24.9754
    26.4871  26.4871  27.2299  27.2299  27.4115  27.4116  27.4116  27.4116
    27.7503  27.7504  27.7504  27.7504  28.0930  28.0930  28.0930  28.0931
    29.3483  29.3483  29.3484

          k = 0.0000 0.3635 0.0000 (  6948 PWs)   bands (ev):

   -76.0396 -76.0212 -76.0187 -76.0144 -37.9681 -37.9677 -37.9545 -37.9519
   -37.9503 -37.9470 -37.9455 -37.9450 -37.9433 -37.9423 -37.9354 -37.9341
   -18.8014 -18.5756 -18.1550 -18.0016 -17.9660 -17.7535 -17.7506 -17.5374
    -1.1615  -0.6244  -0.2592   0.4728   0.5746   0.6777   0.7832   0.9034
     1.1014   1.5042   1.6750   1.7489   1.8765   2.0163   2.0391   2.5958
     2.6169   2.7610   3.1000   3.3311   3.3334   3.6242   3.6640   3.7736
     8.7017   8.7387   8.7853   8.8119   8.8538   8.8698   8.9340   8.9459
     9.0070   9.0190   9.0328   9.0822   9.0898   9.1454   9.1607   9.1619
     9.2675   9.2724   9.2739   9.3087  15.1938  16.3828  16.7295  17.2287
    19.5929  19.9688  20.0404  20.6750  20.7782  20.9573  21.1122  21.2552
    21.4738  21.8567  22.1196  22.1422  22.3444  22.4853  22.5501  22.7742
    23.3017  23.3990  23.4625  23.5996  24.2712  24.4145  24.6665  24.6719
    24.8197  25.4181  26.0487  26.0647  26.2770  26.5571  26.6479  26.7817
    26.9173  26.9654  27.0791  27.5233  28.5250  28.5867  28.6680  28.9262
    29.1023  29.2648  29.3875

          k = 0.0000 0.3635 0.1458 (  6946 PWs)   bands (ev):

   -76.0374 -76.0225 -76.0205 -76.0110 -37.9666 -37.9637 -37.9586 -37.9538
   -37.9511 -37.9495 -37.9445 -37.9427 -37.9410 -37.9408 -37.9364 -37.9325
   -18.7738 -18.6154 -18.1497 -18.0831 -17.8375 -17.7530 -17.7510 -17.5777
    -1.1226  -0.8014  -0.0159   0.4225   0.5976   0.7920   0.8159   0.8972
     1.1389   1.1990   1.3656   1.5686   2.0520   2.2100   2.3194   2.5857
     2.6483   2.8010   3.0206   3.2174   3.3705   3.5789   3.6993   3.7665
     8.7165   8.7534   8.7909   8.8092   8.8262   8.8720   8.9312   8.9568
     8.9899   9.0099   9.0566   9.0874   9.0944   9.1337   9.1443   9.1864
     9.2568   9.2727   9.2754   9.2970  15.3178  16.0837  16.9372  17.2150
    19.6965  20.0485  20.0919  20.5024  20.6614  20.8794  20.8984  21.2980
    21.5006  21.6829  21.9225  22.1986  22.3424  22.5314  22.7401  23.0895
    23.3675  23.4503  23.6882  23.6995  24.2065  24.4246  24.7040  24.7966
    24.9507  25.3408  25.7244  25.9173  26.0946  26.4616  26.7361  26.8652
    26.9542  27.0115  27.1144  27.8445  28.0481  28.3068  28.3177  28.7521
    29.1689  29.3886  29.4689

          k = 0.0000 0.3635-0.2915 (  6948 PWs)   bands (ev):

   -76.0288 -76.0288 -76.0182 -76.0182 -37.9640 -37.9639 -37.9616 -37.9615
   -37.9484 -37.9484 -37.9426 -37.9426 -37.9412 -37.9412 -37.9349 -37.9349
   -18.7005 -18.7005 -18.1303 -18.1303 -17.7519 -17.7519 -17.6880 -17.6880
    -1.0017  -1.0017   0.2859   0.2859   0.7780   0.7780   0.8706   0.8706
     1.0521   1.0521   1.2864   1.2864   2.2510   2.2510   2.5294   2.5294
     2.8193   2.8193   2.9756   2.9756   3.4720   3.4720   3.7433   3.7433
     8.7518   8.7518   8.8014   8.8014   8.8288   8.8288   8.9576   8.9576
     8.9842   8.9842   9.0841   9.0841   9.1107   9.1107   9.1674   9.1675
     9.2682   9.2683   9.2749   9.2749  15.6513  15.6513  17.1384  17.1385
    19.8514  19.8515  20.4359  20.4359  20.5693  20.5693  21.0512  21.0512
    21.4698  21.4698  22.2659  22.2659  22.2814  22.2814  22.9137  22.9138
    23.5702  23.5702  23.9986  23.9986  24.1723  24.1724  25.1410  25.1410
    25.1969  25.1969  25.2825  25.2825  26.2852  26.2852  27.0002  27.0002
    27.0076  27.0076  27.2356  27.2356  27.7018  27.7019  28.7065  28.7066
    29.3371  29.3375  29.7521

          k =-0.4722-0.2727 0.0000 (  6944 PWs)   bands (ev):

   -76.0329 -76.0248 -76.0170 -76.0109 -37.9682 -37.9604 -37.9575 -37.9556
   -37.9494 -37.9488 -37.9485 -37.9443 -37.9436 -37.9395 -37.9307 -37.9271
   -18.6936 -18.4806 -18.2921 -18.0777 -18.0014 -17.7544 -17.7513 -17.5158
    -0.8597  -0.3486  -0.2134   0.5400   0.5562   0.7871   1.0830   1.2088
     1.3462   1.4218   1.5401   1.6040   1.7517   1.8318   2.0141   2.0835
     2.1533   2.5438   3.0053   3.2472   3.3367   3.6527   3.7008   3.7547
     8.6965   8.7424   8.7892   8.8030   8.8222   8.8517   8.9395   8.9633
     8.9674   9.0314   9.0399   9.0582   9.0746   9.1310   9.1508   9.1518
     9.2726   9.2774   9.2837   9.3194  16.0250  16.3319  16.7798  16.8153
    19.6444  20.5001  20.8372  21.0074  21.0283  21.0367  21.1530  21.2722
    21.4974  21.5107  21.5341  21.6244  22.0697  22.4819  22.7467  22.8532
    23.3625  23.4763  24.2871  24.5947  24.7522  24.9154  25.1570  25.2161
    25.2885  25.3041  25.4094  25.4585  25.4943  25.8725  26.2304  26.4672
    26.6998  27.1126  27.2615  27.5790  27.7944  27.9144  28.1461  28.3604
    28.5434  28.5851  28.7102

          k =-0.4722-0.2727 0.1458 (  6948 PWs)   bands (ev):

   -76.0388 -76.0212 -76.0210 -76.0112 -37.9724 -37.9622 -37.9592 -37.9559
   -37.9543 -37.9517 -37.9474 -37.9471 -37.9398 -37.9364 -37.9327 -37.9254
   -18.6642 -18.5103 -18.2864 -18.1895 -17.8513 -17.7540 -17.7519 -17.5592
    -0.8269  -0.5486   0.0409   0.5012   0.6133   0.8480   1.0923   1.1734
     1.2006   1.2361   1.5427   1.5745   1.7625   1.8170   2.0471   2.0811
     2.3605   2.6749   2.9179   3.2168   3.3261   3.6450   3.6890   3.7496
     8.7137   8.7567   8.7892   8.7994   8.8079   8.8659   8.9186   8.9464
     8.9588   9.0246   9.0702   9.0796   9.0973   9.1200   9.1449   9.1536
     9.2685   9.2729   9.2813   9.2977  16.0868  16.3797  16.6891  16.7743
    19.8807  20.3664  20.5792  20.7366  20.9862  21.0342  21.1518  21.2362
    21.3246  21.5111  21.9436  22.1676  22.3532  22.4569  22.5288  22.7193
    23.4294  23.4645  23.8000  24.7182  24.7600  24.9541  24.9856  25.0073
    25.2482  25.3748  25.6270  25.7306  25.8325  25.8985  26.1956  26.6128
    26.7481  26.9951  27.0350  27.2127  27.6010  27.9462  28.2118  28.4927
    28.6312  28.6671  28.9861

          k =-0.4722-0.2727-0.2915 (  6916 PWs)   bands (ev):

   -76.0215 -76.0215 -76.0054 -76.0053 -37.9635 -37.9635 -37.9499 -37.9498
   -37.9463 -37.9463 -37.9380 -37.9380 -37.9349 -37.9349 -37.9260 -37.9260
   -18.5885 -18.5885 -18.2612 -18.2612 -17.7530 -17.7530 -17.6803 -17.6803
    -0.7251  -0.7251   0.3266   0.3266   0.8460   0.8460   1.0189   1.0189
     1.1259   1.1259   1.5529   1.5529   1.7896   1.7896   2.0731   2.0731
     2.6818   2.6818   2.9560   2.9560   3.4986   3.4986   3.7315   3.7315
     8.7478   8.7479   8.7926   8.7926   8.8389   8.8389   8.9067   8.9067
     8.9975   8.9975   9.0971   9.0971   9.1161   9.1162   9.1487   9.1487
     9.2633   9.2634   9.2761   9.2761  16.2711  16.2711  16.6910  16.6910
    20.2050  20.2050  20.4671  20.4671  21.0041  21.0041  21.0208  21.0208
    21.8227  21.8227  21.8737  21.8737  22.4884  22.4884  23.0490  23.0490
    23.0982  23.0982  23.8409  23.8409  24.8199  24.8199  25.2131  25.2131
    25.3120  25.3120  25.9321  25.9321  26.2952  26.2952  26.3644  26.3644
    26.5397  26.5397  27.1367  27.1367  27.4288  27.4289  28.2749  28.2749
    28.9582  28.9585  29.4439

          k =-0.4722 0.0909 0.0000 (  6941 PWs)   bands (ev):

   -76.0329 -76.0228 -76.0192 -76.0081 -37.9636 -37.9631 -37.9579 -37.9530
   -37.9517 -37.9503 -37.9424 -37.9412 -37.9401 -37.9372 -37.9362 -37.9319
   -18.6944 -18.4792 -18.2931 -18.0756 -18.0014 -17.7549 -17.7528 -17.5153
    -0.7820  -0.2898  -0.2120   0.4044   0.5638   0.7069   0.7303   1.2048
     1.3494   1.3862   1.5486   1.7762   1.8660   1.9139   1.9391   2.0765
     2.5181   2.6630   3.0922   3.2677   3.2926   3.4944   3.5228   3.6925
     8.7095   8.7372   8.7599   8.7691   8.8608   8.8991   8.9268   8.9592
     9.0115   9.0120   9.0366   9.0457   9.0497   9.1255   9.1339   9.1389
     9.2793   9.2840   9.3024   9.3240  15.8161  16.6285  16.6634  16.9857
    19.7574  20.3248  20.3408  20.6755  21.0287  21.2877  21.4248  21.5405
    21.5877  21.6742  21.8725  22.0027  22.1819  22.3387  22.5570  22.9953
    23.3738  23.3985  23.7854  24.0989  24.1585  24.4612  24.6742  24.8180
    24.9298  25.2319  25.2555  25.8978  26.0412  26.1271  26.2010  26.3956
    26.4547  27.2569  27.4853  27.7438  27.9944  28.0297  28.7386  28.8251
    29.0377  29.2485  29.4494

          k =-0.4722 0.0909 0.1458 (  6939 PWs)   bands (ev):

   -76.0301 -76.0232 -76.0154 -76.0120 -37.9658 -37.9596 -37.9573 -37.9538
   -37.9495 -37.9476 -37.9441 -37.9415 -37.9396 -37.9387 -37.9364 -37.9303
   -18.6650 -18.5100 -18.2867 -18.1878 -17.8507 -17.7544 -17.7531 -17.5590
    -0.7521  -0.4921   0.0252   0.3508   0.6464   0.7521   0.8075   1.1174
     1.3034   1.3184   1.3836   1.4945   1.8981   1.9109   2.2068   2.2851
     2.5542   2.7000   3.0121   3.1631   3.3453   3.5170   3.5281   3.6482
     8.7217   8.7474   8.7570   8.7666   8.8478   8.9163   8.9243   8.9518
     8.9922   9.0244   9.0515   9.0555   9.0699   9.1095   9.1141   9.1510
     9.2691   9.2861   9.2966   9.3138  15.9070  16.4443  16.7645  16.9631
    19.8992  20.2741  20.4489  20.5081  20.9256  21.1081  21.3401  21.5882
    21.6794  21.7590  21.7861  22.0472  22.2204  22.4793  22.6235  23.1285
    23.2990  23.3355  23.7056  23.9046  24.1623  24.4095  24.8100  24.9123
    25.1156  25.3564  25.4450  25.7251  26.0694  26.1368  26.1764  26.2857
    26.5670  27.0792  27.3391  27.6202  27.8327  28.0718  28.7890  28.8986
    29.0552  29.2905  29.4186

          k =-0.4722 0.0909-0.2915 (  6946 PWs)   bands (ev):

   -76.0233 -76.0233 -76.0208 -76.0208 -37.9651 -37.9651 -37.9601 -37.9600
   -37.9467 -37.9467 -37.9445 -37.9445 -37.9397 -37.9397 -37.9333 -37.9333
   -18.5894 -18.5894 -18.2603 -18.2603 -17.7538 -17.7538 -17.6800 -17.6800
    -0.6579  -0.6579   0.2358   0.2358   0.8313   0.8313   0.9210   0.9210
     1.1390   1.1390   1.3877   1.3877   1.9106   1.9106   2.3913   2.3913
     2.7021   2.7022   2.9654   2.9654   3.4650   3.4650   3.5676   3.5676
     8.7431   8.7431   8.7617   8.7617   8.8664   8.8665   8.9540   8.9540
     8.9997   8.9997   9.0686   9.0686   9.0914   9.0914   9.1289   9.1289
     9.2686   9.2686   9.3013   9.3013  16.1488  16.1489  16.8848  16.8849
    20.1418  20.1418  20.3921  20.3921  21.0523  21.0524  21.3601  21.3601
    21.6170  21.6170  22.0164  22.0164  22.6136  22.6136  22.7921  22.7921
    23.1032  23.1032  23.8930  23.8930  24.4873  24.4873  24.6061  24.6061
    25.4187  25.4187  25.6357  25.6357  26.1534  26.1534  26.3942  26.3942
    26.5200  26.5200  27.4973  27.4974  27.9493  27.9494  28.4837  28.4838
    29.2385  29.2386  29.6167

     the Fermi energy is    25.1063 ev

!    total energy              =   -2059.98408700 Ry
     Harris-Foulkes estimate   =   -2059.98408801 Ry
     estimated scf accuracy    <       0.00000114 Ry

     The total energy is the sum of the following terms:

     one-electron contribution =    -371.31614029 Ry
     hartree contribution      =     315.11915982 Ry
     xc contribution           =    -206.51881885 Ry
     ewald contribution        =   -1796.70064769 Ry
     smearing contrib. (-TS)   =      -0.56764000 Ry

     convergence has been achieved in  14 iterations

     Forces acting on atoms (Ry/au):

     atom    1 type  1   force =     0.00000000    0.00000000    0.00771416
     atom    2 type  1   force =     0.00000000    0.00000000    0.00771416
     atom    3 type  1   force =     0.00000000    0.00000000   -0.00771416
     atom    4 type  1   force =     0.00000000    0.00000000   -0.00771416
     atom    5 type  2   force =     0.00000000    0.00000000    0.00000000
     atom    6 type  2   force =     0.00000000    0.00000000    0.00000000
     atom    7 type  2   force =     0.00000000    0.00213025    0.00000000
     atom    8 type  2   force =    -0.00184485    0.00106512    0.00000000
     atom    9 type  2   force =     0.00184485    0.00106512    0.00000000
     atom   10 type  2   force =    -0.00184485   -0.00106512    0.00000000
     atom   11 type  2   force =     0.00184485   -0.00106512    0.00000000
     atom   12 type  2   force =     0.00000000   -0.00213025    0.00000000

     Total force =     0.016287     Total SCF correction =     0.004681
     SCF correction compared to forces is large: reduce conv_thr to get better values


     entering subroutine stress ...

          total   stress  (Ry/bohr**3)                   (kbar)     P=  228.66
   0.00151898   0.00000000   0.00000000        223.45      0.00      0.00
   0.00000000   0.00151898   0.00000000          0.00    223.45      0.00
   0.00000000   0.00000000   0.00162521          0.00      0.00    239.08


     Writing output data file Prototype-La-hP12-MgZn2.save
 
     init_run     :      7.52s CPU      9.51s WALL (       2 calls)
     electrons    :   1529.09s CPU   1757.40s WALL (       5 calls)
     update_pot   :      3.01s CPU      3.57s WALL (       3 calls)
     forces       :      6.09s CPU      6.33s WALL (       5 calls)
     stress       :     18.10s CPU     18.55s WALL (       5 calls)

     Called by init_run:
     wfcinit      :      6.28s CPU      7.73s WALL (       2 calls)
     potinit      :      0.54s CPU      0.54s WALL (       2 calls)

     Called by electrons:
     c_bands      :   1498.16s CPU   1697.12s WALL (      49 calls)
     sum_band     :     30.29s CPU     39.90s WALL (      49 calls)
     v_of_rho     :      0.13s CPU      0.16s WALL (      53 calls)
     mix_rho      :      0.15s CPU      0.19s WALL (      49 calls)

     Called by c_bands:
     init_us_2    :      2.14s CPU      2.55s WALL (    1320 calls)
     ccgdiagg     :   1386.05s CPU   1558.29s WALL (     705 calls)
     wfcrot       :    116.33s CPU    142.98s WALL (     717 calls)

     Called by *cgdiagg:
     h_psi        :    962.72s CPU   1156.26s WALL (  437571 calls)
     cdiaghg      :      4.57s CPU      4.96s WALL (     717 calls)

     Called by h_psi:
     add_vuspsi   :    205.39s CPU    215.47s WALL (  437571 calls)

     General routines
     calbec       :    448.00s CPU    479.40s WALL (  874545 calls)
     fft          :      0.26s CPU      0.30s WALL (     237 calls)
     fftw         :    493.38s CPU    625.90s WALL ( 1108398 calls)
     davcio       :      1.00s CPU      2.79s WALL (    1908 calls)
 
     Parallel routines
     fft_scatter  :    206.20s CPU    270.34s WALL ( 1108635 calls)
 
     PWSCF        : 26m 4.27s CPU    29m59.14s WALL

 
   This run was terminated on:  23:15:39  22Mar2018            

=------------------------------------------------------------------------------=
   JOB DONE.
=------------------------------------------------------------------------------=
