
     Program PWSCF v.5.0.2 starts on 22Mar2018 at 12: 4:16 

     This program is part of the open-source Quantum ESPRESSO suite
     for quantum simulation of materials; please cite
         "P. Giannozzi et al., J. Phys.:Condens. Matter 21 395502 (2009);
          URL http://www.quantum-espresso.org", 
     in publications or presentations arising from this work. More details at
     http://www.quantum-espresso.org/quote.php

     Parallel version (MPI), running on     4 processors
     R & G space division:  proc/nbgrp/npool/nimage =       4

     Current dimensions of program PWSCF are:
     Max number of different atomic species (ntypx) = 10
     Max number of k-points (npk) =  40000
     Max angular momentum in pseudopotentials (lmaxx) =  3
     Waiting for input...
     Reading input from standard input

     Subspace diagonalization in iterative solution of the eigenvalue problem:
     a serial algorithm will be used

 
     Parallelization info
     --------------------
     sticks:   dense  smooth     PW     G-vecs:    dense   smooth      PW
     Min         164     164     48                 3132     3132     524
     Max         165     165     49                 3135     3135     527
     Sum         657     657    193                12533    12533    2103
 


     bravais-lattice index     =            0
     lattice parameter (alat)  =       7.1317  a.u.
     unit-cell volume          =     362.7211 (a.u.)^3
     number of atoms/cell      =            4
     number of atomic types    =            2
     number of electrons       =        84.00
     number of Kohn-Sham states=           50
     kinetic-energy cutoff     =      40.0000  Ry
     charge density cutoff     =     160.0000  Ry
     convergence threshold     =      1.0E-04
     mixing beta               =       0.7000
     number of iterations used =            8  plain     mixing
     Exchange-correlation      = SLA-PZ-NOGX-NOGC ( 1 1 0 0 0)
     EXX-fraction              =        0.00
     nstep                     =           50


     celldm(1)=   7.131665  celldm(2)=   0.000000  celldm(3)=   0.000000
     celldm(4)=   0.000000  celldm(5)=   0.000000  celldm(6)=   0.000000

     crystal axes: (cart. coord. in units of alat)
               a(1) = (   1.000000   0.000000   0.000000 )  
               a(2) = (   0.000000   1.000000   0.000000 )  
               a(3) = (   0.000000   0.000000   1.000000 )  

     reciprocal axes: (cart. coord. in units 2 pi/alat)
               b(1) = (  1.000000  0.000000  0.000000 )  
               b(2) = (  0.000000  1.000000  0.000000 )  
               b(3) = (  0.000000  0.000000  1.000000 )  


     PseudoPot. # 1 for Yb read from file:
     /home/jld5415/pp.La/Yb.UPF
     MD5 check sum: 3e859b81cc28c53ec6aa3a2e888efcdf
     Pseudo is Norm-conserving, Zval = 24.0
     Generated in analytical, separable form
     Using radial grid of 1269 points,  6 beta functions with: 
                l(1) =   0
                l(2) =   0
                l(3) =   1
                l(4) =   1
                l(5) =   2
                l(6) =   3

     PseudoPot. # 2 for Ce read from file:
     /home/jld5415/pp.La/Ce.UPF
     MD5 check sum: 44451aa79a44a00cf2bc029dc19922f6
     Pseudo is Norm-conserving, Zval = 12.0
     Generated in analytical, separable form
     Using radial grid of 1255 points,  6 beta functions with: 
                l(1) =   0
                l(2) =   0
                l(3) =   1
                l(4) =   1
                l(5) =   2
                l(6) =   3

     atomic species   valence    mass     pseudopotential
        Cu            24.00    63.54600     Yb( 1.00)
        Au            12.00   196.96600     Ce( 1.00)

     48 Sym. Ops., with inversion, found



   Cartesian axes

     site n.     atom                  positions (alat units)
         1           Cu  tau(   1) = (   0.0000000   0.5000000   0.5000000  )
         2           Cu  tau(   2) = (   0.5000000   0.5000000   0.0000000  )
         3           Cu  tau(   3) = (   0.5000000   0.0000000   0.5000000  )
         4           Au  tau(   4) = (   0.0000000   0.0000000   0.0000000  )

     number of k points=   100  gaussian smearing, width (Ry)=  0.1000

     Number of k-points >= 100: set verbosity='high' to print them.

     Dense  grid:    12533 G-vectors     FFT dimensions: (  30,  30,  30)

     Largest allocated arrays     est. size (Mb)     dimensions
        Kohn-Sham Wavefunctions         0.31 Mb     (    400,   50)
        NL pseudopotentials             0.49 Mb     (    400,   80)
        Each V/rho on FFT grid          0.11 Mb     (   7200)
        Each G-vector array             0.02 Mb     (   3134)
        G-vector shells                 0.02 Mb     (   3134)
     Largest temporary arrays     est. size (Mb)     dimensions
        Each subspace H/S matrix        0.04 Mb     (  50,  50)
        Each <psi_i|beta_j> matrix      0.06 Mb     (     80,   50)
        Arrays for rho mixing           0.88 Mb     (   7200,   8)

     Initial potential from superposition of free atoms

     Starting from uniform charge
     Starting wfc are    0 randomized atomic wfcs

     total cpu time spent up to now is        2.1 secs

     Self-consistent Calculation

     iteration #  1     ecut=    40.00 Ry     beta=0.70
     CG style diagonalization
     c_bands:  5 eigenvalues not converged
     c_bands:  5 eigenvalues not converged
     c_bands:  5 eigenvalues not converged
     c_bands:  5 eigenvalues not converged
     c_bands:  5 eigenvalues not converged
     c_bands:  4 eigenvalues not converged
     c_bands:  5 eigenvalues not converged
     c_bands:  5 eigenvalues not converged
     c_bands:  5 eigenvalues not converged
     c_bands:  5 eigenvalues not converged
     ethr =  1.00E-02,  avg # of iterations = 17.6

     total cpu time spent up to now is       38.2 secs

     total energy              =   -1029.96651277 Ry
     Harris-Foulkes estimate   =   -1666.52860064 Ry
     estimated scf accuracy    <     780.05510389 Ry

     iteration #  2     ecut=    40.00 Ry     beta=0.70
     CG style diagonalization
     c_bands:  2 eigenvalues not converged
     c_bands:  1 eigenvalues not converged
     c_bands:  1 eigenvalues not converged
     c_bands:  1 eigenvalues not converged
     c_bands:  1 eigenvalues not converged
     c_bands:  1 eigenvalues not converged
     c_bands:  1 eigenvalues not converged
     c_bands:  1 eigenvalues not converged
     c_bands:  2 eigenvalues not converged
     c_bands:  2 eigenvalues not converged
     c_bands:  1 eigenvalues not converged
     c_bands:  1 eigenvalues not converged
     c_bands:  1 eigenvalues not converged
     c_bands:  1 eigenvalues not converged
     c_bands:  1 eigenvalues not converged
     c_bands:  1 eigenvalues not converged
     c_bands:  1 eigenvalues not converged
     c_bands:  1 eigenvalues not converged
     c_bands:  1 eigenvalues not converged
     c_bands:  1 eigenvalues not converged
     c_bands:  1 eigenvalues not converged
     c_bands:  1 eigenvalues not converged
     c_bands:  1 eigenvalues not converged
     ethr =  1.00E-02,  avg # of iterations = 11.7

     total cpu time spent up to now is       60.7 secs

     total energy              =   -1124.75836906 Ry
     Harris-Foulkes estimate   =   -1423.50091688 Ry
     estimated scf accuracy    <     509.37401819 Ry

     iteration #  3     ecut=    40.00 Ry     beta=0.70
     CG style diagonalization
     c_bands:  1 eigenvalues not converged
     c_bands:  1 eigenvalues not converged
     c_bands:  3 eigenvalues not converged
     c_bands:  1 eigenvalues not converged
     c_bands:  2 eigenvalues not converged
     c_bands:  1 eigenvalues not converged
     c_bands:  1 eigenvalues not converged
     c_bands:  1 eigenvalues not converged
     c_bands:  2 eigenvalues not converged
     c_bands:  1 eigenvalues not converged
     c_bands:  1 eigenvalues not converged
     c_bands:  1 eigenvalues not converged
     c_bands:  1 eigenvalues not converged
     c_bands:  1 eigenvalues not converged
     c_bands:  1 eigenvalues not converged
     c_bands:  1 eigenvalues not converged
     c_bands:  1 eigenvalues not converged
     c_bands:  1 eigenvalues not converged
     c_bands:  2 eigenvalues not converged
     c_bands:  1 eigenvalues not converged
     c_bands:  2 eigenvalues not converged
     c_bands:  1 eigenvalues not converged
     c_bands:  1 eigenvalues not converged
     c_bands:  1 eigenvalues not converged
     c_bands:  1 eigenvalues not converged
     c_bands:  1 eigenvalues not converged
     c_bands:  1 eigenvalues not converged
     c_bands:  1 eigenvalues not converged
     c_bands:  3 eigenvalues not converged
     c_bands:  1 eigenvalues not converged
     c_bands:  2 eigenvalues not converged
     c_bands:  2 eigenvalues not converged
     c_bands:  1 eigenvalues not converged
     c_bands:  1 eigenvalues not converged
     c_bands:  1 eigenvalues not converged
     c_bands:  2 eigenvalues not converged
     c_bands:  2 eigenvalues not converged
     c_bands:  1 eigenvalues not converged
     c_bands:  1 eigenvalues not converged
     c_bands:  1 eigenvalues not converged
     c_bands:  1 eigenvalues not converged
     c_bands:  3 eigenvalues not converged
     ethr =  1.00E-02,  avg # of iterations = 10.5

     total cpu time spent up to now is       80.1 secs

     total energy              =   -1295.26384674 Ry
     Harris-Foulkes estimate   =   -1336.28795266 Ry
     estimated scf accuracy    <      98.36329186 Ry

     iteration #  4     ecut=    40.00 Ry     beta=0.70
     CG style diagonalization
     ethr =  1.00E-02,  avg # of iterations =  5.1

     total cpu time spent up to now is       90.3 secs

     total energy              =   -1303.46431146 Ry
     Harris-Foulkes estimate   =   -1306.22644346 Ry
     estimated scf accuracy    <       8.64326994 Ry

     iteration #  5     ecut=    40.00 Ry     beta=0.70
     CG style diagonalization
     ethr =  1.00E-02,  avg # of iterations =  3.1

     total cpu time spent up to now is       97.9 secs

     total energy              =   -1301.44824547 Ry
     Harris-Foulkes estimate   =   -1303.87158562 Ry
     estimated scf accuracy    <       3.87597095 Ry

     iteration #  6     ecut=    40.00 Ry     beta=0.70
     CG style diagonalization
     ethr =  4.61E-03,  avg # of iterations =  4.1

     total cpu time spent up to now is      105.9 secs

     total energy              =   -1302.91188130 Ry
     Harris-Foulkes estimate   =   -1302.99476140 Ry
     estimated scf accuracy    <       0.39944192 Ry

     iteration #  7     ecut=    40.00 Ry     beta=0.70
     CG style diagonalization
     c_bands:  1 eigenvalues not converged
     c_bands:  1 eigenvalues not converged
     c_bands:  1 eigenvalues not converged
     c_bands:  1 eigenvalues not converged
     c_bands:  1 eigenvalues not converged
     c_bands:  1 eigenvalues not converged
     c_bands:  1 eigenvalues not converged
     ethr =  4.76E-04,  avg # of iterations =  4.0

     negative rho (up, down):  0.111E-04 0.000E+00

     total cpu time spent up to now is      113.8 secs

     total energy              =   -1302.76830487 Ry
     Harris-Foulkes estimate   =   -1302.96256713 Ry
     estimated scf accuracy    <       0.24210132 Ry

     iteration #  8     ecut=    40.00 Ry     beta=0.70
     CG style diagonalization
     c_bands:  1 eigenvalues not converged
     ethr =  2.88E-04,  avg # of iterations =  4.1

     negative rho (up, down):  0.190E-05 0.000E+00

     total cpu time spent up to now is      122.2 secs

     total energy              =   -1302.87057685 Ry
     Harris-Foulkes estimate   =   -1302.99023930 Ry
     estimated scf accuracy    <       0.31278601 Ry

     iteration #  9     ecut=    40.00 Ry     beta=0.70
     CG style diagonalization
     ethr =  2.88E-04,  avg # of iterations =  3.3

     total cpu time spent up to now is      128.0 secs

     total energy              =   -1302.89224298 Ry
     Harris-Foulkes estimate   =   -1302.90523168 Ry
     estimated scf accuracy    <       0.02804715 Ry

     iteration # 10     ecut=    40.00 Ry     beta=0.70
     CG style diagonalization
     c_bands:  1 eigenvalues not converged
     c_bands:  1 eigenvalues not converged
     c_bands:  1 eigenvalues not converged
     c_bands:  1 eigenvalues not converged
     c_bands:  1 eigenvalues not converged
     c_bands:  1 eigenvalues not converged
     c_bands:  1 eigenvalues not converged
     c_bands:  1 eigenvalues not converged
     c_bands:  1 eigenvalues not converged
     c_bands:  1 eigenvalues not converged
     c_bands:  2 eigenvalues not converged
     c_bands:  1 eigenvalues not converged
     ethr =  3.34E-05,  avg # of iterations =  4.0

     total cpu time spent up to now is      135.2 secs

     End of self-consistent calculation

     Number of k-points >= 100: set verbosity='high' to print the bands.

     the Fermi energy is    44.5484 ev

!    total energy              =   -1302.90018018 Ry
     Harris-Foulkes estimate   =   -1302.90023381 Ry
     estimated scf accuracy    <       0.00006484 Ry

     The total energy is the sum of the following terms:

     one-electron contribution =    -212.89155213 Ry
     hartree contribution      =     187.95884227 Ry
     xc contribution           =    -109.62582423 Ry
     ewald contribution        =   -1168.20022595 Ry
     smearing contrib. (-TS)   =      -0.14142014 Ry

     convergence has been achieved in  10 iterations

     Forces acting on atoms (Ry/au):

     atom    1 type  1   force =     0.00000000    0.00000000    0.00000000
     atom    2 type  1   force =     0.00000000    0.00000000    0.00000000
     atom    3 type  1   force =     0.00000000    0.00000000    0.00000000
     atom    4 type  2   force =     0.00000000    0.00000000    0.00000000

     Total force =     0.000000     Total SCF correction =     0.000000


     entering subroutine stress ...

          total   stress  (Ry/bohr**3)                   (kbar)     P= 3017.45
   0.02051224   0.00000000   0.00000000       3017.45      0.00      0.00
   0.00000000   0.02051224   0.00000000          0.00   3017.45      0.00
   0.00000000   0.00000000   0.02051224          0.00      0.00   3017.45


     BFGS Geometry Optimization

     number of scf cycles    =   1
     number of bfgs steps    =   0

     enthalpy new            =   -1302.9001801811 Ry

     new trust radius        =       0.5000000000 bohr
     new conv_thr            =       0.0001000000 Ry

     new unit-cell volume =    525.13076 a.u.^3 (    77.81635 Ang^3 )

CELL_PARAMETERS (alat=  7.13166486)
   1.131266415   0.000000000   0.000000000
   0.000000000   1.131266415   0.000000000
   0.000000000   0.000000000   1.131266415

ATOMIC_POSITIONS (crystal)
Cu       0.000000000   0.500000000   0.500000000
Cu       0.500000000   0.500000000   0.000000000
Cu       0.500000000   0.000000000   0.500000000
Au       0.000000000   0.000000000   0.000000000



     Writing output data file Prototype-La-cP4-Cu3Au.save
     NEW-OLD atomic charge density approx. for the potential
     NEW k-points: (use verbosity='high' to print them)

     total cpu time spent up to now is      137.6 secs

     Self-consistent Calculation

     iteration #  1     ecut=    40.00 Ry     beta=0.70
     CG style diagonalization
     c_bands:  1 eigenvalues not converged
     c_bands:  1 eigenvalues not converged
     c_bands:  1 eigenvalues not converged
     c_bands:  2 eigenvalues not converged
     c_bands:  1 eigenvalues not converged
     c_bands:  2 eigenvalues not converged
     c_bands:  2 eigenvalues not converged
     c_bands:  1 eigenvalues not converged
     c_bands:  1 eigenvalues not converged
     c_bands:  3 eigenvalues not converged
     c_bands:  1 eigenvalues not converged
     c_bands:  1 eigenvalues not converged
     c_bands:  4 eigenvalues not converged
     c_bands:  1 eigenvalues not converged
     c_bands:  1 eigenvalues not converged
     c_bands:  1 eigenvalues not converged
     c_bands:  2 eigenvalues not converged
     c_bands:  2 eigenvalues not converged
     c_bands:  1 eigenvalues not converged
     c_bands:  2 eigenvalues not converged
     c_bands:  3 eigenvalues not converged
     c_bands:  1 eigenvalues not converged
     c_bands:  1 eigenvalues not converged
     c_bands:  2 eigenvalues not converged
     c_bands:  3 eigenvalues not converged
     c_bands:  1 eigenvalues not converged
     c_bands:  1 eigenvalues not converged
     c_bands:  1 eigenvalues not converged
     c_bands:  3 eigenvalues not converged
     c_bands:  1 eigenvalues not converged
     c_bands:  2 eigenvalues not converged
     c_bands:  2 eigenvalues not converged
     c_bands:  2 eigenvalues not converged
     c_bands:  2 eigenvalues not converged
     c_bands:  2 eigenvalues not converged
     c_bands:  2 eigenvalues not converged
     c_bands:  2 eigenvalues not converged
     c_bands:  3 eigenvalues not converged
     c_bands:  2 eigenvalues not converged
     c_bands:  1 eigenvalues not converged
     c_bands:  2 eigenvalues not converged
     ethr =  1.00E-06,  avg # of iterations = 23.4

     total cpu time spent up to now is      181.0 secs

     total energy              =   -1291.07359393 Ry
     Harris-Foulkes estimate   =   -1320.97099770 Ry
     estimated scf accuracy    <      36.76433297 Ry

     iteration #  2     ecut=    40.00 Ry     beta=0.70
     CG style diagonalization
     ethr =  1.00E-02,  avg # of iterations =  4.4

     total cpu time spent up to now is      189.4 secs

     total energy              =   -1298.18266492 Ry
     Harris-Foulkes estimate   =   -1308.45706385 Ry
     estimated scf accuracy    <      16.05641889 Ry

     iteration #  3     ecut=    40.00 Ry     beta=0.70
     CG style diagonalization
     ethr =  1.00E-02,  avg # of iterations =  3.9

     total cpu time spent up to now is      197.1 secs

     total energy              =   -1303.20934285 Ry
     Harris-Foulkes estimate   =   -1305.07410850 Ry
     estimated scf accuracy    <       3.93213752 Ry

     iteration #  4     ecut=    40.00 Ry     beta=0.70
     CG style diagonalization
     ethr =  4.68E-03,  avg # of iterations =  3.4

     total cpu time spent up to now is      203.7 secs

     total energy              =   -1303.82337234 Ry
     Harris-Foulkes estimate   =   -1303.86848515 Ry
     estimated scf accuracy    <       0.13077801 Ry

     iteration #  5     ecut=    40.00 Ry     beta=0.70
     CG style diagonalization
     ethr =  1.56E-04,  avg # of iterations =  4.1

     total cpu time spent up to now is      213.3 secs

     total energy              =   -1303.86301094 Ry
     Harris-Foulkes estimate   =   -1303.86805224 Ry
     estimated scf accuracy    <       0.00991705 Ry

     iteration #  6     ecut=    40.00 Ry     beta=0.70
     CG style diagonalization
     c_bands:  1 eigenvalues not converged
     c_bands:  1 eigenvalues not converged
     c_bands:  1 eigenvalues not converged
     c_bands:  1 eigenvalues not converged
     c_bands:  1 eigenvalues not converged
     c_bands:  1 eigenvalues not converged
     c_bands:  1 eigenvalues not converged
     c_bands:  1 eigenvalues not converged
     c_bands:  2 eigenvalues not converged
     ethr =  1.18E-05,  avg # of iterations =  4.4

     total cpu time spent up to now is      222.0 secs

     total energy              =   -1303.86608790 Ry
     Harris-Foulkes estimate   =   -1303.86632718 Ry
     estimated scf accuracy    <       0.00039290 Ry

     iteration #  7     ecut=    40.00 Ry     beta=0.70
     CG style diagonalization
     c_bands:  2 eigenvalues not converged
     c_bands:  1 eigenvalues not converged
     c_bands:  1 eigenvalues not converged
     c_bands:  1 eigenvalues not converged
     c_bands:  1 eigenvalues not converged
     c_bands:  1 eigenvalues not converged
     ethr =  4.68E-07,  avg # of iterations =  4.6

     total cpu time spent up to now is      230.6 secs

     total energy              =   -1303.86626284 Ry
     Harris-Foulkes estimate   =   -1303.86633524 Ry
     estimated scf accuracy    <       0.00014267 Ry

     iteration #  8     ecut=    40.00 Ry     beta=0.70
     CG style diagonalization
     c_bands:  1 eigenvalues not converged
     ethr =  1.70E-07,  avg # of iterations =  3.5

     total cpu time spent up to now is      236.7 secs

     End of self-consistent calculation

     Number of k-points >= 100: set verbosity='high' to print the bands.

     the Fermi energy is    30.4609 ev

!    total energy              =   -1303.86630017 Ry
     Harris-Foulkes estimate   =   -1303.86630540 Ry
     estimated scf accuracy    <       0.00000587 Ry

     The total energy is the sum of the following terms:

     one-electron contribution =    -408.56591721 Ry
     hartree contribution      =     243.93276539 Ry
     xc contribution           =    -106.41269181 Ry
     ewald contribution        =   -1032.64820230 Ry
     smearing contrib. (-TS)   =      -0.17225424 Ry

     convergence has been achieved in   8 iterations

     Forces acting on atoms (Ry/au):

     atom    1 type  1   force =     0.00000000    0.00000000    0.00000000
     atom    2 type  1   force =     0.00000000    0.00000000    0.00000000
     atom    3 type  1   force =     0.00000000    0.00000000    0.00000000
     atom    4 type  2   force =     0.00000000    0.00000000    0.00000000

     Total force =     0.000000     Total SCF correction =     0.000000


     entering subroutine stress ...

          total   stress  (Ry/bohr**3)                   (kbar)     P= -621.07
  -0.00422197   0.00000000   0.00000000       -621.07      0.00      0.00
   0.00000000  -0.00422197   0.00000000          0.00   -621.07      0.00
   0.00000000   0.00000000  -0.00422197          0.00      0.00   -621.07


     number of scf cycles    =   2
     number of bfgs steps    =   1

     enthalpy old            =   -1302.9001801811 Ry
     enthalpy new            =   -1303.8663001674 Ry

     CASE: enthalpy_new < enthalpy_old

     small trust_radius: resetting bfgs history

     new trust radius        =       0.4837472235 bohr
     new conv_thr            =       0.0000010000 Ry

     new unit-cell volume =    375.78280 a.u.^3 (    55.68526 Ang^3 )

CELL_PARAMETERS (alat=  7.13166486)
   1.011862200   0.000000000   0.000000000
   0.000000000   1.011862200   0.000000000
   0.000000000   0.000000000   1.011862200

ATOMIC_POSITIONS (crystal)
Cu       0.000000000   0.500000000   0.500000000
Cu       0.500000000   0.500000000   0.000000000
Cu       0.500000000   0.000000000   0.500000000
Au       0.000000000   0.000000000   0.000000000



     Writing output data file Prototype-La-cP4-Cu3Au.save
     NEW-OLD atomic charge density approx. for the potential
     NEW k-points: (use verbosity='high' to print them)

     total cpu time spent up to now is      239.0 secs

     Self-consistent Calculation

     iteration #  1     ecut=    40.00 Ry     beta=0.70
     CG style diagonalization
     c_bands:  5 eigenvalues not converged
     c_bands:  4 eigenvalues not converged
     c_bands:  2 eigenvalues not converged
     c_bands:  3 eigenvalues not converged
     c_bands:  3 eigenvalues not converged
     c_bands:  3 eigenvalues not converged
     c_bands:  1 eigenvalues not converged
     c_bands:  3 eigenvalues not converged
     c_bands:  2 eigenvalues not converged
     c_bands:  1 eigenvalues not converged
     c_bands:  1 eigenvalues not converged
     c_bands:  2 eigenvalues not converged
     c_bands:  1 eigenvalues not converged
     c_bands:  1 eigenvalues not converged
     c_bands:  2 eigenvalues not converged
     c_bands:  3 eigenvalues not converged
     c_bands:  1 eigenvalues not converged
     c_bands:  1 eigenvalues not converged
     c_bands:  2 eigenvalues not converged
     c_bands:  2 eigenvalues not converged
     c_bands:  1 eigenvalues not converged
     c_bands:  1 eigenvalues not converged
     c_bands:  1 eigenvalues not converged
     c_bands:  1 eigenvalues not converged
     c_bands:  1 eigenvalues not converged
     c_bands:  1 eigenvalues not converged
     c_bands:  2 eigenvalues not converged
     c_bands:  2 eigenvalues not converged
     c_bands:  1 eigenvalues not converged
     c_bands:  2 eigenvalues not converged
     c_bands:  1 eigenvalues not converged
     c_bands:  1 eigenvalues not converged
     c_bands:  1 eigenvalues not converged
     c_bands:  2 eigenvalues not converged
     c_bands:  1 eigenvalues not converged
     c_bands:  1 eigenvalues not converged
     c_bands:  1 eigenvalues not converged
     c_bands:  1 eigenvalues not converged
     c_bands:  1 eigenvalues not converged
     c_bands:  1 eigenvalues not converged
     ethr =  1.00E-06,  avg # of iterations = 23.1

     total cpu time spent up to now is      283.3 secs

     total energy              =   -1291.36317413 Ry
     Harris-Foulkes estimate   =   -1318.79610021 Ry
     estimated scf accuracy    <      33.50451604 Ry

     iteration #  2     ecut=    40.00 Ry     beta=0.70
     CG style diagonalization
     ethr =  1.00E-02,  avg # of iterations =  4.7

     total cpu time spent up to now is      292.3 secs

     total energy              =   -1300.91046514 Ry
     Harris-Foulkes estimate   =   -1306.07853241 Ry
     estimated scf accuracy    <       7.48344472 Ry

     iteration #  3     ecut=    40.00 Ry     beta=0.70
     CG style diagonalization
     ethr =  8.91E-03,  avg # of iterations =  3.8

     total cpu time spent up to now is      299.6 secs

     total energy              =   -1302.83978491 Ry
     Harris-Foulkes estimate   =   -1303.48618705 Ry
     estimated scf accuracy    <       1.21293115 Ry

     iteration #  4     ecut=    40.00 Ry     beta=0.70
     CG style diagonalization
     ethr =  1.44E-03,  avg # of iterations =  3.5

     total cpu time spent up to now is      307.7 secs

     total energy              =   -1303.13608120 Ry
     Harris-Foulkes estimate   =   -1303.14172814 Ry
     estimated scf accuracy    <       0.00987908 Ry

     iteration #  5     ecut=    40.00 Ry     beta=0.70
     CG style diagonalization
     c_bands:  1 eigenvalues not converged
     c_bands:  1 eigenvalues not converged
     c_bands:  1 eigenvalues not converged
     c_bands:  1 eigenvalues not converged
     c_bands:  1 eigenvalues not converged
     c_bands:  1 eigenvalues not converged
     c_bands:  1 eigenvalues not converged
     c_bands:  1 eigenvalues not converged
     c_bands:  1 eigenvalues not converged
     c_bands:  1 eigenvalues not converged
     c_bands:  2 eigenvalues not converged
     c_bands:  2 eigenvalues not converged
     c_bands:  1 eigenvalues not converged
     c_bands:  1 eigenvalues not converged
     c_bands:  1 eigenvalues not converged
     c_bands:  1 eigenvalues not converged
     c_bands:  1 eigenvalues not converged
     c_bands:  2 eigenvalues not converged
     c_bands:  1 eigenvalues not converged
     c_bands:  1 eigenvalues not converged
     c_bands:  1 eigenvalues not converged
     ethr =  1.18E-05,  avg # of iterations =  5.5

     total cpu time spent up to now is      318.7 secs

     total energy              =   -1303.14734790 Ry
     Harris-Foulkes estimate   =   -1303.14863751 Ry
     estimated scf accuracy    <       0.00210074 Ry

     iteration #  6     ecut=    40.00 Ry     beta=0.70
     CG style diagonalization
     c_bands:  1 eigenvalues not converged
     c_bands:  1 eigenvalues not converged
     c_bands:  1 eigenvalues not converged
     c_bands:  1 eigenvalues not converged
     c_bands:  1 eigenvalues not converged
     c_bands:  1 eigenvalues not converged
     c_bands:  1 eigenvalues not converged
     c_bands:  1 eigenvalues not converged
     ethr =  2.50E-06,  avg # of iterations =  3.9

     total cpu time spent up to now is      326.5 secs

     total energy              =   -1303.14783783 Ry
     Harris-Foulkes estimate   =   -1303.14787916 Ry
     estimated scf accuracy    <       0.00006003 Ry

     iteration #  7     ecut=    40.00 Ry     beta=0.70
     CG style diagonalization
     c_bands:  1 eigenvalues not converged
     ethr =  7.15E-08,  avg # of iterations =  4.8

     total cpu time spent up to now is      336.0 secs

     total energy              =   -1303.14790725 Ry
     Harris-Foulkes estimate   =   -1303.14791490 Ry
     estimated scf accuracy    <       0.00001339 Ry

     iteration #  8     ecut=    40.00 Ry     beta=0.70
     CG style diagonalization
     ethr =  1.59E-08,  avg # of iterations =  3.8

     total cpu time spent up to now is      343.5 secs

     End of self-consistent calculation

     Number of k-points >= 100: set verbosity='high' to print the bands.

     the Fermi energy is    43.0559 ev

!    total energy              =   -1303.14790947 Ry
     Harris-Foulkes estimate   =   -1303.14791014 Ry
     estimated scf accuracy    <       0.00000076 Ry

     The total energy is the sum of the following terms:

     one-electron contribution =    -232.35566577 Ry
     hartree contribution      =     193.12072468 Ry
     xc contribution           =    -109.26483496 Ry
     ewald contribution        =   -1154.50525397 Ry
     smearing contrib. (-TS)   =      -0.14287945 Ry

     convergence has been achieved in   8 iterations

     Forces acting on atoms (Ry/au):

     atom    1 type  1   force =     0.00000000    0.00000000    0.00000000
     atom    2 type  1   force =     0.00000000    0.00000000    0.00000000
     atom    3 type  1   force =     0.00000000    0.00000000    0.00000000
     atom    4 type  2   force =     0.00000000    0.00000000    0.00000000

     Total force =     0.000000     Total SCF correction =     0.000000


     entering subroutine stress ...

          total   stress  (Ry/bohr**3)                   (kbar)     P= 2554.25
   0.01736341   0.00000000   0.00000000       2554.25      0.00      0.00
   0.00000000   0.01736341   0.00000000          0.00   2554.25      0.00
   0.00000000   0.00000000   0.01736341          0.00      0.00   2554.25


     number of scf cycles    =   3
     number of bfgs steps    =   2

     enthalpy old            =   -1303.8663001674 Ry
     enthalpy new            =   -1303.1479094736 Ry

     CASE: enthalpy_new > enthalpy_old

     new trust radius        =       0.1130594064 bohr

     trust_radius < trust_radius_min

     resetting bfgs history

     Message from routine bfgs:
     history already reset at previous step: stopping
     new conv_thr            =       0.0000010000 Ry

     new unit-cell volume =    363.56144 a.u.^3 (    53.87425 Ang^3 )

CELL_PARAMETERS (alat=  7.13166486)
   1.000771695   0.000000000   0.000000000
   0.000000000   1.000771695   0.000000000
   0.000000000   0.000000000   1.000771695

ATOMIC_POSITIONS (crystal)
Cu       0.000000000   0.500000000   0.500000000
Cu       0.500000000   0.500000000   0.000000000
Cu       0.500000000   0.000000000   0.500000000
Au       0.000000000   0.000000000   0.000000000



     Writing output data file Prototype-La-cP4-Cu3Au.save
     NEW-OLD atomic charge density approx. for the potential
     NEW k-points: (use verbosity='high' to print them)

     total cpu time spent up to now is      345.8 secs

     Self-consistent Calculation

     iteration #  1     ecut=    40.00 Ry     beta=0.70
     CG style diagonalization
     c_bands:  1 eigenvalues not converged
     c_bands:  1 eigenvalues not converged
     c_bands:  1 eigenvalues not converged
     c_bands:  1 eigenvalues not converged
     c_bands:  1 eigenvalues not converged
     c_bands:  1 eigenvalues not converged
     c_bands:  1 eigenvalues not converged
     c_bands:  2 eigenvalues not converged
     c_bands:  1 eigenvalues not converged
     c_bands:  1 eigenvalues not converged
     c_bands:  1 eigenvalues not converged
     c_bands:  1 eigenvalues not converged
     c_bands:  1 eigenvalues not converged
     ethr =  1.00E-06,  avg # of iterations =  8.4

     total cpu time spent up to now is      362.3 secs

     total energy              =   -1302.81684677 Ry
     Harris-Foulkes estimate   =   -1303.06204611 Ry
     estimated scf accuracy    <       0.30253627 Ry

     iteration #  2     ecut=    40.00 Ry     beta=0.70
     CG style diagonalization
     ethr =  3.60E-04,  avg # of iterations =  3.8

     total cpu time spent up to now is      371.5 secs

     total energy              =   -1302.89790826 Ry
     Harris-Foulkes estimate   =   -1302.93940959 Ry
     estimated scf accuracy    <       0.05897494 Ry

     iteration #  3     ecut=    40.00 Ry     beta=0.70
     CG style diagonalization
     ethr =  7.02E-05,  avg # of iterations =  3.8

     total cpu time spent up to now is      378.9 secs

     total energy              =   -1302.91486308 Ry
     Harris-Foulkes estimate   =   -1302.92166729 Ry
     estimated scf accuracy    <       0.01327972 Ry

     iteration #  4     ecut=    40.00 Ry     beta=0.70
     CG style diagonalization
     ethr =  1.58E-05,  avg # of iterations =  3.4

     total cpu time spent up to now is      385.4 secs

     total energy              =   -1302.91796174 Ry
     Harris-Foulkes estimate   =   -1302.91798952 Ry
     estimated scf accuracy    <       0.00004528 Ry

     iteration #  5     ecut=    40.00 Ry     beta=0.70
     CG style diagonalization
     c_bands:  1 eigenvalues not converged
     ethr =  5.39E-08,  avg # of iterations =  5.2

     total cpu time spent up to now is      395.6 secs

     total energy              =   -1302.91805763 Ry
     Harris-Foulkes estimate   =   -1302.91806950 Ry
     estimated scf accuracy    <       0.00002102 Ry

     iteration #  6     ecut=    40.00 Ry     beta=0.70
     CG style diagonalization
     ethr =  2.50E-08,  avg # of iterations =  3.4

     total cpu time spent up to now is      402.2 secs

     End of self-consistent calculation

     Number of k-points >= 100: set verbosity='high' to print the bands.

     the Fermi energy is    44.4496 ev

!    total energy              =   -1302.91805672 Ry
     Harris-Foulkes estimate   =   -1302.91806203 Ry
     estimated scf accuracy    <       0.00000045 Ry

     The total energy is the sum of the following terms:

     one-electron contribution =    -214.18067549 Ry
     hartree contribution      =     188.30044575 Ry
     xc contribution           =    -109.59676848 Ry
     ewald contribution        =   -1167.29942628 Ry
     smearing contrib. (-TS)   =      -0.14163222 Ry

     convergence has been achieved in   6 iterations

     Forces acting on atoms (Ry/au):

     atom    1 type  1   force =     0.00000000    0.00000000    0.00000000
     atom    2 type  1   force =     0.00000000    0.00000000    0.00000000
     atom    3 type  1   force =     0.00000000    0.00000000    0.00000000
     atom    4 type  2   force =     0.00000000    0.00000000    0.00000000

     Total force =     0.000000     Total SCF correction =     0.000000


     entering subroutine stress ...

          total   stress  (Ry/bohr**3)                   (kbar)     P= 2984.76
   0.02029000   0.00000000   0.00000000       2984.76      0.00      0.00
   0.00000000   0.02029000   0.00000000          0.00   2984.76      0.00
   0.00000000   0.00000000   0.02029000          0.00      0.00   2984.76


     The maximum number of steps has been reached.

     End of BFGS Geometry Optimization
Begin final coordinates
     new unit-cell volume =    363.56144 a.u.^3 (    53.87425 Ang^3 )

CELL_PARAMETERS (alat=  7.13166486)
   1.000771695   0.000000000   0.000000000
   0.000000000   1.000771695   0.000000000
   0.000000000   0.000000000   1.000771695

ATOMIC_POSITIONS (crystal)
Cu       0.000000000   0.500000000   0.500000000
Cu       0.500000000   0.500000000   0.000000000
Cu       0.500000000   0.000000000   0.500000000
Au       0.000000000   0.000000000   0.000000000
End final coordinates



     A final scf calculation at the relaxed structure.
     The G-vectors are recalculated for the final unit cell
     Results may differ from those at the preceding step.
 
     Parallelization info
     --------------------
     sticks:   dense  smooth     PW     G-vecs:    dense   smooth      PW
     Min         164     164     48                 3132     3132     524
     Max         165     165     49                 3135     3135     527
     Sum         657     657    193                12533    12533    2103
 


     bravais-lattice index     =            0
     lattice parameter (alat)  =       7.1317  a.u.
     unit-cell volume          =     363.5614 (a.u.)^3
     number of atoms/cell      =            4
     number of atomic types    =            2
     number of electrons       =        84.00
     number of Kohn-Sham states=           50
     kinetic-energy cutoff     =      40.0000  Ry
     charge density cutoff     =     160.0000  Ry
     convergence threshold     =      1.0E-06
     mixing beta               =       0.7000
     number of iterations used =            8  plain     mixing
     Exchange-correlation      = SLA-PZ-NOGX-NOGC ( 1 1 0 0 0)
     EXX-fraction              =        0.00

     celldm(1)=   7.131665  celldm(2)=   0.000000  celldm(3)=   0.000000
     celldm(4)=   0.000000  celldm(5)=   0.000000  celldm(6)=   0.000000

     crystal axes: (cart. coord. in units of alat)
               a(1) = (   1.000772   0.000000   0.000000 )  
               a(2) = (   0.000000   1.000772   0.000000 )  
               a(3) = (   0.000000   0.000000   1.000772 )  

     reciprocal axes: (cart. coord. in units 2 pi/alat)
               b(1) = (  0.999229  0.000000  0.000000 )  
               b(2) = (  0.000000  0.999229  0.000000 )  
               b(3) = (  0.000000  0.000000  0.999229 )  


     PseudoPot. # 1 for Yb read from file:
     /home/jld5415/pp.La/Yb.UPF
     MD5 check sum: 3e859b81cc28c53ec6aa3a2e888efcdf
     Pseudo is Norm-conserving, Zval = 24.0
     Generated in analytical, separable form
     Using radial grid of 1269 points,  6 beta functions with: 
                l(1) =   0
                l(2) =   0
                l(3) =   1
                l(4) =   1
                l(5) =   2
                l(6) =   3

     PseudoPot. # 2 for Ce read from file:
     /home/jld5415/pp.La/Ce.UPF
     MD5 check sum: 44451aa79a44a00cf2bc029dc19922f6
     Pseudo is Norm-conserving, Zval = 12.0
     Generated in analytical, separable form
     Using radial grid of 1255 points,  6 beta functions with: 
                l(1) =   0
                l(2) =   0
                l(3) =   1
                l(4) =   1
                l(5) =   2
                l(6) =   3

     atomic species   valence    mass     pseudopotential
        Cu            24.00    63.54600     Yb( 1.00)
        Au            12.00   196.96600     Ce( 1.00)

     48 Sym. Ops., with inversion, found



   Cartesian axes

     site n.     atom                  positions (alat units)
         1           Cu  tau(   1) = (   0.0000000   0.5003858   0.5003858  )
         2           Cu  tau(   2) = (   0.5003858   0.5003858   0.0000000  )
         3           Cu  tau(   3) = (   0.5003858   0.0000000   0.5003858  )
         4           Au  tau(   4) = (   0.0000000   0.0000000   0.0000000  )

     number of k points=   100  gaussian smearing, width (Ry)=  0.1000

     Number of k-points >= 100: set verbosity='high' to print them.

     Dense  grid:    12533 G-vectors     FFT dimensions: (  30,  30,  30)

     Largest allocated arrays     est. size (Mb)     dimensions
        Kohn-Sham Wavefunctions         0.31 Mb     (    403,   50)
        NL pseudopotentials             0.49 Mb     (    403,   80)
        Each V/rho on FFT grid          0.11 Mb     (   7200)
        Each G-vector array             0.02 Mb     (   3134)
        G-vector shells                 0.00 Mb     (    175)
     Largest temporary arrays     est. size (Mb)     dimensions
        Each subspace H/S matrix        0.04 Mb     (  50,  50)
        Each <psi_i|beta_j> matrix      0.06 Mb     (     80,   50)
        Arrays for rho mixing           0.88 Mb     (   7200,   8)

     Initial potential from superposition of free atoms

     Starting from uniform charge
     Starting wfc are    0 randomized atomic wfcs

     Writing output data file Prototype-La-cP4-Cu3Au.save

     total cpu time spent up to now is      406.6 secs

     Self-consistent Calculation

     iteration #  1     ecut=    40.00 Ry     beta=0.70
     CG style diagonalization
     c_bands:  2 eigenvalues not converged
     c_bands:  3 eigenvalues not converged
     c_bands:  3 eigenvalues not converged
     c_bands:  3 eigenvalues not converged
     c_bands:  5 eigenvalues not converged
     c_bands:  4 eigenvalues not converged
     c_bands:  3 eigenvalues not converged
     c_bands:  3 eigenvalues not converged
     c_bands:  4 eigenvalues not converged
     c_bands:  1 eigenvalues not converged
     c_bands:  4 eigenvalues not converged
     c_bands:  2 eigenvalues not converged
     c_bands:  5 eigenvalues not converged
     c_bands:  5 eigenvalues not converged
     c_bands:  3 eigenvalues not converged
     c_bands:  4 eigenvalues not converged
     c_bands:  1 eigenvalues not converged
     c_bands:  2 eigenvalues not converged
     c_bands:  1 eigenvalues not converged
     c_bands:  4 eigenvalues not converged
     c_bands:  4 eigenvalues not converged
     c_bands:  3 eigenvalues not converged
     c_bands:  3 eigenvalues not converged
     c_bands:  3 eigenvalues not converged
     c_bands:  3 eigenvalues not converged
     c_bands:  2 eigenvalues not converged
     c_bands:  4 eigenvalues not converged
     c_bands:  4 eigenvalues not converged
     c_bands:  5 eigenvalues not converged
     c_bands:  4 eigenvalues not converged
     c_bands:  5 eigenvalues not converged
     c_bands:  3 eigenvalues not converged
     c_bands:  3 eigenvalues not converged
     c_bands:  3 eigenvalues not converged
     c_bands:  2 eigenvalues not converged
     c_bands:  3 eigenvalues not converged
     c_bands:  3 eigenvalues not converged
     c_bands:  5 eigenvalues not converged
     c_bands:  2 eigenvalues not converged
     c_bands:  4 eigenvalues not converged
     c_bands:  4 eigenvalues not converged
     c_bands:  4 eigenvalues not converged
     c_bands:  5 eigenvalues not converged
     c_bands:  2 eigenvalues not converged
     c_bands:  2 eigenvalues not converged
     c_bands:  4 eigenvalues not converged
     c_bands:  4 eigenvalues not converged
     c_bands:  3 eigenvalues not converged
     c_bands:  4 eigenvalues not converged
     c_bands:  5 eigenvalues not converged
     c_bands:  4 eigenvalues not converged
     c_bands:  4 eigenvalues not converged
     c_bands:  5 eigenvalues not converged
     c_bands:  4 eigenvalues not converged
     c_bands:  3 eigenvalues not converged
     c_bands:  4 eigenvalues not converged
     c_bands:  2 eigenvalues not converged
     c_bands:  3 eigenvalues not converged
     c_bands:  2 eigenvalues not converged
     c_bands:  5 eigenvalues not converged
     c_bands:  4 eigenvalues not converged
     c_bands:  5 eigenvalues not converged
     c_bands:  5 eigenvalues not converged
     c_bands:  5 eigenvalues not converged
     c_bands:  5 eigenvalues not converged
     c_bands:  5 eigenvalues not converged
     c_bands:  5 eigenvalues not converged
     c_bands:  5 eigenvalues not converged
     c_bands:  2 eigenvalues not converged
     c_bands:  4 eigenvalues not converged
     c_bands:  4 eigenvalues not converged
     c_bands:  4 eigenvalues not converged
     c_bands:  3 eigenvalues not converged
     c_bands:  3 eigenvalues not converged
     c_bands:  5 eigenvalues not converged
     c_bands:  3 eigenvalues not converged
     c_bands:  2 eigenvalues not converged
     c_bands:  3 eigenvalues not converged
     c_bands:  4 eigenvalues not converged
     c_bands:  5 eigenvalues not converged
     c_bands:  4 eigenvalues not converged
     c_bands:  1 eigenvalues not converged
     c_bands:  5 eigenvalues not converged
     c_bands:  4 eigenvalues not converged
     c_bands:  5 eigenvalues not converged
     c_bands:  5 eigenvalues not converged
     c_bands:  5 eigenvalues not converged
     c_bands:  4 eigenvalues not converged
     c_bands:  3 eigenvalues not converged
     c_bands:  2 eigenvalues not converged
     ethr =  1.00E-06,  avg # of iterations = 50.5

     total cpu time spent up to now is      502.8 secs

     total energy              =   -1029.95093234 Ry
     Harris-Foulkes estimate   =   -1667.73853882 Ry
     estimated scf accuracy    <     781.52192250 Ry

     iteration #  2     ecut=    40.00 Ry     beta=0.70
     CG style diagonalization
     c_bands:  1 eigenvalues not converged
     c_bands:  1 eigenvalues not converged
     c_bands:  1 eigenvalues not converged
     c_bands:  2 eigenvalues not converged
     c_bands:  1 eigenvalues not converged
     c_bands:  1 eigenvalues not converged
     c_bands:  2 eigenvalues not converged
     c_bands:  1 eigenvalues not converged
     c_bands:  1 eigenvalues not converged
     c_bands:  2 eigenvalues not converged
     c_bands:  1 eigenvalues not converged
     c_bands:  1 eigenvalues not converged
     c_bands:  1 eigenvalues not converged
     c_bands:  2 eigenvalues not converged
     c_bands:  1 eigenvalues not converged
     c_bands:  2 eigenvalues not converged
     c_bands:  1 eigenvalues not converged
     c_bands:  1 eigenvalues not converged
     c_bands:  1 eigenvalues not converged
     c_bands:  1 eigenvalues not converged
     c_bands:  1 eigenvalues not converged
     c_bands:  2 eigenvalues not converged
     c_bands:  1 eigenvalues not converged
     c_bands:  1 eigenvalues not converged
     c_bands:  1 eigenvalues not converged
     c_bands:  1 eigenvalues not converged
     c_bands:  1 eigenvalues not converged
     c_bands:  1 eigenvalues not converged
     c_bands:  1 eigenvalues not converged
     c_bands:  3 eigenvalues not converged
     ethr =  1.00E-02,  avg # of iterations = 11.4

     total cpu time spent up to now is      523.5 secs

     total energy              =   -1123.38146971 Ry
     Harris-Foulkes estimate   =   -1424.49464796 Ry
     estimated scf accuracy    <     514.03835684 Ry

     iteration #  3     ecut=    40.00 Ry     beta=0.70
     CG style diagonalization
     c_bands:  3 eigenvalues not converged
     c_bands:  3 eigenvalues not converged
     c_bands:  1 eigenvalues not converged
     c_bands:  1 eigenvalues not converged
     c_bands:  1 eigenvalues not converged
     c_bands:  1 eigenvalues not converged
     c_bands:  3 eigenvalues not converged
     c_bands:  1 eigenvalues not converged
     c_bands:  1 eigenvalues not converged
     c_bands:  2 eigenvalues not converged
     c_bands:  2 eigenvalues not converged
     c_bands:  1 eigenvalues not converged
     c_bands:  1 eigenvalues not converged
     c_bands:  1 eigenvalues not converged
     c_bands:  3 eigenvalues not converged
     c_bands:  1 eigenvalues not converged
     c_bands:  1 eigenvalues not converged
     c_bands:  1 eigenvalues not converged
     c_bands:  1 eigenvalues not converged
     c_bands:  1 eigenvalues not converged
     c_bands:  1 eigenvalues not converged
     c_bands:  1 eigenvalues not converged
     c_bands:  1 eigenvalues not converged
     c_bands:  1 eigenvalues not converged
     c_bands:  2 eigenvalues not converged
     c_bands:  1 eigenvalues not converged
     c_bands:  1 eigenvalues not converged
     c_bands:  1 eigenvalues not converged
     c_bands:  1 eigenvalues not converged
     c_bands:  1 eigenvalues not converged
     c_bands:  2 eigenvalues not converged
     c_bands:  1 eigenvalues not converged
     c_bands:  1 eigenvalues not converged
     c_bands:  1 eigenvalues not converged
     c_bands:  1 eigenvalues not converged
     c_bands:  2 eigenvalues not converged
     c_bands:  2 eigenvalues not converged
     c_bands:  1 eigenvalues not converged
     c_bands:  1 eigenvalues not converged
     c_bands:  1 eigenvalues not converged
     c_bands:  1 eigenvalues not converged
     c_bands:  1 eigenvalues not converged
     c_bands:  1 eigenvalues not converged
     c_bands:  1 eigenvalues not converged
     c_bands:  2 eigenvalues not converged
     c_bands:  2 eigenvalues not converged
     c_bands:  1 eigenvalues not converged
     c_bands:  1 eigenvalues not converged
     c_bands:  2 eigenvalues not converged
     c_bands:  2 eigenvalues not converged
     c_bands:  2 eigenvalues not converged
     c_bands:  2 eigenvalues not converged
     c_bands:  2 eigenvalues not converged
     c_bands:  4 eigenvalues not converged
     c_bands:  2 eigenvalues not converged
     ethr =  1.00E-02,  avg # of iterations = 10.4

     total cpu time spent up to now is      544.1 secs

     total energy              =   -1295.36496386 Ry
     Harris-Foulkes estimate   =   -1336.48593070 Ry
     estimated scf accuracy    <      98.53317429 Ry

     iteration #  4     ecut=    40.00 Ry     beta=0.70
     CG style diagonalization
     ethr =  1.00E-02,  avg # of iterations =  5.1

     total cpu time spent up to now is      555.3 secs

     total energy              =   -1303.49477159 Ry
     Harris-Foulkes estimate   =   -1306.27894645 Ry
     estimated scf accuracy    <       8.71221554 Ry

     iteration #  5     ecut=    40.00 Ry     beta=0.70
     CG style diagonalization
     ethr =  1.00E-02,  avg # of iterations =  3.1

     total cpu time spent up to now is      561.4 secs

     total energy              =   -1301.47522000 Ry
     Harris-Foulkes estimate   =   -1303.90914075 Ry
     estimated scf accuracy    <       3.89059912 Ry

     iteration #  6     ecut=    40.00 Ry     beta=0.70
     CG style diagonalization
     ethr =  4.63E-03,  avg # of iterations =  4.0

     total cpu time spent up to now is      569.4 secs

     total energy              =   -1302.93466181 Ry
     Harris-Foulkes estimate   =   -1303.01549758 Ry
     estimated scf accuracy    <       0.39003275 Ry

     iteration #  7     ecut=    40.00 Ry     beta=0.70
     CG style diagonalization
     c_bands:  1 eigenvalues not converged
     c_bands:  1 eigenvalues not converged
     c_bands:  1 eigenvalues not converged
     c_bands:  1 eigenvalues not converged
     c_bands:  1 eigenvalues not converged
     c_bands:  1 eigenvalues not converged
     c_bands:  1 eigenvalues not converged
     c_bands:  1 eigenvalues not converged
     c_bands:  1 eigenvalues not converged
     c_bands:  1 eigenvalues not converged
     c_bands:  1 eigenvalues not converged
     c_bands:  1 eigenvalues not converged
     c_bands:  1 eigenvalues not converged
     c_bands:  1 eigenvalues not converged
     c_bands:  2 eigenvalues not converged
     c_bands:  1 eigenvalues not converged
     c_bands:  1 eigenvalues not converged
     c_bands:  1 eigenvalues not converged
     c_bands:  1 eigenvalues not converged
     ethr =  4.64E-04,  avg # of iterations =  4.1

     negative rho (up, down):  0.119E-04 0.000E+00

     total cpu time spent up to now is      577.6 secs

     total energy              =   -1302.79956064 Ry
     Harris-Foulkes estimate   =   -1302.98620980 Ry
     estimated scf accuracy    <       0.23614385 Ry

     iteration #  8     ecut=    40.00 Ry     beta=0.70
     CG style diagonalization
     c_bands:  1 eigenvalues not converged
     c_bands:  1 eigenvalues not converged
     ethr =  2.81E-04,  avg # of iterations =  4.1

     negative rho (up, down):  0.223E-05 0.000E+00

     total cpu time spent up to now is      585.6 secs

     total energy              =   -1302.90007286 Ry
     Harris-Foulkes estimate   =   -1303.00065921 Ry
     estimated scf accuracy    <       0.26603600 Ry

     iteration #  9     ecut=    40.00 Ry     beta=0.70
     CG style diagonalization
     ethr =  2.81E-04,  avg # of iterations =  3.2

     total cpu time spent up to now is      591.9 secs

     total energy              =   -1302.91737037 Ry
     Harris-Foulkes estimate   =   -1302.92917422 Ry
     estimated scf accuracy    <       0.02546443 Ry

     iteration # 10     ecut=    40.00 Ry     beta=0.70
     CG style diagonalization
     c_bands:  1 eigenvalues not converged
     c_bands:  1 eigenvalues not converged
     c_bands:  1 eigenvalues not converged
     c_bands:  1 eigenvalues not converged
     c_bands:  1 eigenvalues not converged
     c_bands:  1 eigenvalues not converged
     c_bands:  1 eigenvalues not converged
     c_bands:  1 eigenvalues not converged
     c_bands:  1 eigenvalues not converged
     c_bands:  1 eigenvalues not converged
     c_bands:  1 eigenvalues not converged
     c_bands:  1 eigenvalues not converged
     ethr =  3.03E-05,  avg # of iterations =  4.0

     total cpu time spent up to now is      599.9 secs

     total energy              =   -1302.92493232 Ry
     Harris-Foulkes estimate   =   -1302.92482787 Ry
     estimated scf accuracy    <       0.00007786 Ry

     iteration # 11     ecut=    40.00 Ry     beta=0.70
     CG style diagonalization
     c_bands:  1 eigenvalues not converged
     c_bands:  2 eigenvalues not converged
     c_bands:  1 eigenvalues not converged
     c_bands:  1 eigenvalues not converged
     c_bands:  1 eigenvalues not converged
     c_bands:  1 eigenvalues not converged
     c_bands:  1 eigenvalues not converged
     c_bands:  1 eigenvalues not converged
     c_bands:  1 eigenvalues not converged
     c_bands:  1 eigenvalues not converged
     ethr =  9.27E-08,  avg # of iterations =  6.7

     total cpu time spent up to now is      613.3 secs

     total energy              =   -1302.92568116 Ry
     Harris-Foulkes estimate   =   -1302.92566574 Ry
     estimated scf accuracy    <       0.00080451 Ry

     iteration # 12     ecut=    40.00 Ry     beta=0.70
     CG style diagonalization
     c_bands:  1 eigenvalues not converged
     ethr =  9.27E-08,  avg # of iterations =  3.0

     total cpu time spent up to now is      621.1 secs

     total energy              =   -1302.92535704 Ry
     Harris-Foulkes estimate   =   -1302.92568298 Ry
     estimated scf accuracy    <       0.00085323 Ry

     iteration # 13     ecut=    40.00 Ry     beta=0.70
     CG style diagonalization
     ethr =  9.27E-08,  avg # of iterations =  4.0

     total cpu time spent up to now is      630.2 secs

     total energy              =   -1302.92544371 Ry
     Harris-Foulkes estimate   =   -1302.92544738 Ry
     estimated scf accuracy    <       0.00006014 Ry

     iteration # 14     ecut=    40.00 Ry     beta=0.70
     CG style diagonalization
     ethr =  7.16E-08,  avg # of iterations =  3.0

     total cpu time spent up to now is      636.0 secs

     total energy              =   -1302.92543482 Ry
     Harris-Foulkes estimate   =   -1302.92544449 Ry
     estimated scf accuracy    <       0.00005068 Ry

     iteration # 15     ecut=    40.00 Ry     beta=0.70
     CG style diagonalization
     ethr =  6.03E-08,  avg # of iterations =  3.0

     total cpu time spent up to now is      643.2 secs

     total energy              =   -1302.92542358 Ry
     Harris-Foulkes estimate   =   -1302.92543635 Ry
     estimated scf accuracy    <       0.00002305 Ry

     iteration # 16     ecut=    40.00 Ry     beta=0.70
     CG style diagonalization
     ethr =  2.74E-08,  avg # of iterations =  3.7

     total cpu time spent up to now is      650.5 secs

     total energy              =   -1302.92543192 Ry
     Harris-Foulkes estimate   =   -1302.92543267 Ry
     estimated scf accuracy    <       0.00000294 Ry

     iteration # 17     ecut=    40.00 Ry     beta=0.70
     CG style diagonalization
     ethr =  3.50E-09,  avg # of iterations =  3.2

     total cpu time spent up to now is      656.7 secs

     total energy              =   -1302.92543180 Ry
     Harris-Foulkes estimate   =   -1302.92543220 Ry
     estimated scf accuracy    <       0.00000104 Ry

     iteration # 18     ecut=    40.00 Ry     beta=0.70
     CG style diagonalization
     ethr =  1.24E-09,  avg # of iterations =  3.3

     total cpu time spent up to now is      663.1 secs

     End of self-consistent calculation

     Number of k-points >= 100: set verbosity='high' to print the bands.

     the Fermi energy is    44.4483 ev

!    total energy              =   -1302.92543187 Ry
     Harris-Foulkes estimate   =   -1302.92543196 Ry
     estimated scf accuracy    <       0.00000010 Ry

     The total energy is the sum of the following terms:

     one-electron contribution =    -214.20241704 Ry
     hartree contribution      =     188.31680433 Ry
     xc contribution           =    -109.59872425 Ry
     ewald contribution        =   -1167.29942628 Ry
     smearing contrib. (-TS)   =      -0.14166863 Ry

     convergence has been achieved in  18 iterations

     Forces acting on atoms (Ry/au):

     atom    1 type  1   force =     0.00000000    0.00000000    0.00000000
     atom    2 type  1   force =     0.00000000    0.00000000    0.00000000
     atom    3 type  1   force =     0.00000000    0.00000000    0.00000000
     atom    4 type  2   force =     0.00000000    0.00000000    0.00000000

     Total force =     0.000000     Total SCF correction =     0.000000


     entering subroutine stress ...

          total   stress  (Ry/bohr**3)                   (kbar)     P= 2993.53
   0.02034958   0.00000000   0.00000000       2993.53      0.00      0.00
   0.00000000   0.02034958   0.00000000          0.00   2993.53      0.00
   0.00000000   0.00000000   0.02034958          0.00      0.00   2993.53


     Writing output data file Prototype-La-cP4-Cu3Au.save
 
     init_run     :      3.19s CPU      3.56s WALL (       2 calls)
     electrons    :    611.28s CPU    649.52s WALL (       5 calls)
     update_pot   :      0.84s CPU      0.86s WALL (       3 calls)
     forces       :      2.20s CPU      2.48s WALL (       5 calls)
     stress       :      6.21s CPU      6.29s WALL (       5 calls)

     Called by init_run:
     wfcinit      :      2.87s CPU      3.22s WALL (       2 calls)
     potinit      :      0.12s CPU      0.12s WALL (       2 calls)

     Called by electrons:
     c_bands      :    584.67s CPU    615.42s WALL (      50 calls)
     sum_band     :     26.37s CPU     27.66s WALL (      50 calls)
     v_of_rho     :      0.03s CPU      0.04s WALL (      55 calls)
     mix_rho      :      0.03s CPU      0.04s WALL (      50 calls)

     Called by c_bands:
     init_us_2    :      2.31s CPU      2.65s WALL (   11200 calls)
     ccgdiagg     :    506.75s CPU    525.33s WALL (    5488 calls)
     wfcrot       :     78.33s CPU     84.84s WALL (    5588 calls)

     Called by *cgdiagg:
     h_psi        :    393.84s CPU    418.49s WALL ( 1373110 calls)
     cdiaghg      :      4.96s CPU      5.32s WALL (    5588 calls)

     Called by h_psi:
     add_vuspsi   :     33.05s CPU     41.78s WALL ( 1373110 calls)

     General routines
     calbec       :     96.32s CPU     97.04s WALL ( 2741632 calls)
     fft          :      0.04s CPU      0.04s WALL (     243 calls)
     fftw         :    311.05s CPU    310.67s WALL ( 3543844 calls)
     davcio       :      1.99s CPU      7.84s WALL (   16200 calls)
 
     Parallel routines
     fft_scatter  :    115.77s CPU    117.51s WALL ( 3544087 calls)
 
     PWSCF        : 10m24.76s CPU    11m 6.25s WALL

 
   This run was terminated on:  12:15:22  22Mar2018            

=------------------------------------------------------------------------------=
   JOB DONE.
=------------------------------------------------------------------------------=
