
     Program PWSCF v.5.0.2 starts on 22Mar2018 at 22:45:57 

     This program is part of the open-source Quantum ESPRESSO suite
     for quantum simulation of materials; please cite
         "P. Giannozzi et al., J. Phys.:Condens. Matter 21 395502 (2009);
          URL http://www.quantum-espresso.org", 
     in publications or presentations arising from this work. More details at
     http://www.quantum-espresso.org/quote.php

     Parallel version (MPI), running on     4 processors
     R & G space division:  proc/nbgrp/npool/nimage =       4

     Current dimensions of program PWSCF are:
     Max number of different atomic species (ntypx) = 10
     Max number of k-points (npk) =  40000
     Max angular momentum in pseudopotentials (lmaxx) =  3
     Waiting for input...
     Reading input from standard input

     Subspace diagonalization in iterative solution of the eigenvalue problem:
     a serial algorithm will be used

 
     Parallelization info
     --------------------
     sticks:   dense  smooth     PW     G-vecs:    dense   smooth      PW
     Min         164     164     48                 3132     3132     524
     Max         165     165     49                 3135     3135     527
     Sum         657     657    193                12533    12533    2103
 


     bravais-lattice index     =            0
     lattice parameter (alat)  =       7.1317  a.u.
     unit-cell volume          =     362.7211 (a.u.)^3
     number of atoms/cell      =            4
     number of atomic types    =            2
     number of electrons       =        71.00
     number of Kohn-Sham states=           43
     kinetic-energy cutoff     =      40.0000  Ry
     charge density cutoff     =     160.0000  Ry
     convergence threshold     =      1.0E-04
     mixing beta               =       0.7000
     number of iterations used =            8  plain     mixing
     Exchange-correlation      = SLA-PZ-NOGX-NOGC ( 1 1 0 0 0)
     EXX-fraction              =        0.00
     nstep                     =           50


     celldm(1)=   7.131665  celldm(2)=   0.000000  celldm(3)=   0.000000
     celldm(4)=   0.000000  celldm(5)=   0.000000  celldm(6)=   0.000000

     crystal axes: (cart. coord. in units of alat)
               a(1) = (   1.000000   0.000000   0.000000 )  
               a(2) = (   0.000000   1.000000   0.000000 )  
               a(3) = (   0.000000   0.000000   1.000000 )  

     reciprocal axes: (cart. coord. in units 2 pi/alat)
               b(1) = (  1.000000  0.000000  0.000000 )  
               b(2) = (  0.000000  1.000000  0.000000 )  
               b(3) = (  0.000000  0.000000  1.000000 )  


     PseudoPot. # 1 for Gd read from file:
     /home/cwx6513/pp.La/Gd.UPF
     MD5 check sum: 09a8be538722f05520810cb6aac0efd2
     Pseudo is Norm-conserving, Zval = 18.0
     Generated in analytical, separable form
     Using radial grid of 1263 points,  6 beta functions with: 
                l(1) =   0
                l(2) =   0
                l(3) =   1
                l(4) =   1
                l(5) =   2
                l(6) =   3

     PseudoPot. # 2 for Eu read from file:
     /home/cwx6513/pp.La/Eu.UPF
     MD5 check sum: 5efdbbfc50c6a10138933a6429836ad2
     Pseudo is Norm-conserving, Zval = 17.0
     Generated in analytical, separable form
     Using radial grid of 1261 points,  6 beta functions with: 
                l(1) =   0
                l(2) =   0
                l(3) =   1
                l(4) =   1
                l(5) =   2
                l(6) =   3

     atomic species   valence    mass     pseudopotential
        Cu            18.00    63.54600     Gd( 1.00)
        Au            17.00   196.96600     Eu( 1.00)

     48 Sym. Ops., with inversion, found



   Cartesian axes

     site n.     atom                  positions (alat units)
         1           Cu  tau(   1) = (   0.0000000   0.5000000   0.5000000  )
         2           Cu  tau(   2) = (   0.5000000   0.5000000   0.0000000  )
         3           Cu  tau(   3) = (   0.5000000   0.0000000   0.5000000  )
         4           Au  tau(   4) = (   0.0000000   0.0000000   0.0000000  )

     number of k points=   100  gaussian smearing, width (Ry)=  0.1000

     Number of k-points >= 100: set verbosity='high' to print them.

     Dense  grid:    12533 G-vectors     FFT dimensions: (  30,  30,  30)

     Largest allocated arrays     est. size (Mb)     dimensions
        Kohn-Sham Wavefunctions         0.26 Mb     (    400,   43)
        NL pseudopotentials             0.49 Mb     (    400,   80)
        Each V/rho on FFT grid          0.11 Mb     (   7200)
        Each G-vector array             0.02 Mb     (   3134)
        G-vector shells                 0.02 Mb     (   3134)
     Largest temporary arrays     est. size (Mb)     dimensions
        Each subspace H/S matrix        0.03 Mb     (  43,  43)
        Each <psi_i|beta_j> matrix      0.05 Mb     (     80,   43)
        Arrays for rho mixing           0.88 Mb     (   7200,   8)

     Initial potential from superposition of free atoms

     Starting from uniform charge
     Starting wfc are    0 randomized atomic wfcs

     total cpu time spent up to now is        1.9 secs

     Self-consistent Calculation

     iteration #  1     ecut=    40.00 Ry     beta=0.70
     CG style diagonalization
     c_bands:  1 eigenvalues not converged
     c_bands:  1 eigenvalues not converged
     c_bands:  1 eigenvalues not converged
     c_bands:  2 eigenvalues not converged
     c_bands:  1 eigenvalues not converged
     c_bands:  1 eigenvalues not converged
     c_bands:  1 eigenvalues not converged
     c_bands:  2 eigenvalues not converged
     c_bands:  4 eigenvalues not converged
     ethr =  1.00E-02,  avg # of iterations = 10.4

     total cpu time spent up to now is       18.8 secs

     total energy              =    -735.22397855 Ry
     Harris-Foulkes estimate   =    -865.46543770 Ry
     estimated scf accuracy    <     175.88035492 Ry

     iteration #  2     ecut=    40.00 Ry     beta=0.70
     CG style diagonalization
     ethr =  1.00E-02,  avg # of iterations =  6.0

     total cpu time spent up to now is       27.8 secs

     total energy              =    -775.99187663 Ry
     Harris-Foulkes estimate   =    -782.00078859 Ry
     estimated scf accuracy    <       8.64644127 Ry

     iteration #  3     ecut=    40.00 Ry     beta=0.70
     CG style diagonalization
     ethr =  1.00E-02,  avg # of iterations =  3.8

     total cpu time spent up to now is       33.5 secs

     total energy              =    -777.83434307 Ry
     Harris-Foulkes estimate   =    -778.30292092 Ry
     estimated scf accuracy    <       1.05317473 Ry

     iteration #  4     ecut=    40.00 Ry     beta=0.70
     CG style diagonalization
     ethr =  1.48E-03,  avg # of iterations =  3.7

     negative rho (up, down):  0.364E-05 0.000E+00

     total cpu time spent up to now is       39.2 secs

     total energy              =    -778.05628900 Ry
     Harris-Foulkes estimate   =    -778.08448422 Ry
     estimated scf accuracy    <       0.08321825 Ry

     iteration #  5     ecut=    40.00 Ry     beta=0.70
     CG style diagonalization
     c_bands:  1 eigenvalues not converged
     c_bands:  1 eigenvalues not converged
     c_bands:  1 eigenvalues not converged
     c_bands:  1 eigenvalues not converged
     c_bands:  1 eigenvalues not converged
     c_bands:  1 eigenvalues not converged
     c_bands:  1 eigenvalues not converged
     c_bands:  1 eigenvalues not converged
     ethr =  1.17E-04,  avg # of iterations =  4.0

     total cpu time spent up to now is       47.5 secs

     total energy              =    -778.05335649 Ry
     Harris-Foulkes estimate   =    -778.07100088 Ry
     estimated scf accuracy    <       0.05019285 Ry

     iteration #  6     ecut=    40.00 Ry     beta=0.70
     CG style diagonalization
     ethr =  7.07E-05,  avg # of iterations =  3.1

     total cpu time spent up to now is       52.2 secs

     total energy              =    -778.05689709 Ry
     Harris-Foulkes estimate   =    -778.05866188 Ry
     estimated scf accuracy    <       0.00373081 Ry

     iteration #  7     ecut=    40.00 Ry     beta=0.70
     CG style diagonalization
     c_bands:  1 eigenvalues not converged
     c_bands:  1 eigenvalues not converged
     c_bands:  1 eigenvalues not converged
     c_bands:  1 eigenvalues not converged
     c_bands:  2 eigenvalues not converged
     c_bands:  1 eigenvalues not converged
     c_bands:  1 eigenvalues not converged
     c_bands:  1 eigenvalues not converged
     c_bands:  1 eigenvalues not converged
     c_bands:  1 eigenvalues not converged
     c_bands:  1 eigenvalues not converged
     c_bands:  1 eigenvalues not converged
     ethr =  5.25E-06,  avg # of iterations =  4.4

     total cpu time spent up to now is       59.5 secs

     total energy              =    -778.05839634 Ry
     Harris-Foulkes estimate   =    -778.05854659 Ry
     estimated scf accuracy    <       0.00064824 Ry

     iteration #  8     ecut=    40.00 Ry     beta=0.70
     CG style diagonalization
     c_bands:  1 eigenvalues not converged
     ethr =  9.13E-07,  avg # of iterations =  3.2

     total cpu time spent up to now is       65.0 secs

     total energy              =    -778.05839555 Ry
     Harris-Foulkes estimate   =    -778.05846330 Ry
     estimated scf accuracy    <       0.00016029 Ry

     iteration #  9     ecut=    40.00 Ry     beta=0.70
     CG style diagonalization
     ethr =  2.26E-07,  avg # of iterations =  3.5

     total cpu time spent up to now is       70.4 secs

     End of self-consistent calculation

     Number of k-points >= 100: set verbosity='high' to print the bands.

     the Fermi energy is    37.9717 ev

!    total energy              =    -778.05843692 Ry
     Harris-Foulkes estimate   =    -778.05843889 Ry
     estimated scf accuracy    <       0.00000216 Ry

     The total energy is the sum of the following terms:

     one-electron contribution =      51.95038750 Ry
     hartree contribution      =      61.57580961 Ry
     xc contribution           =     -80.98238541 Ry
     ewald contribution        =    -810.43678077 Ry
     smearing contrib. (-TS)   =      -0.16546785 Ry

     convergence has been achieved in   9 iterations

     Forces acting on atoms (Ry/au):

     atom    1 type  1   force =     0.00000000    0.00000000    0.00000000
     atom    2 type  1   force =     0.00000000    0.00000000    0.00000000
     atom    3 type  1   force =     0.00000000    0.00000000    0.00000000
     atom    4 type  2   force =     0.00000000    0.00000000    0.00000000

     Total force =     0.000000     Total SCF correction =     0.000000


     entering subroutine stress ...

          total   stress  (Ry/bohr**3)                   (kbar)     P= 2175.16
   0.01478644   0.00000000   0.00000000       2175.16      0.00      0.00
   0.00000000   0.01478644   0.00000000          0.00   2175.16      0.00
   0.00000000   0.00000000   0.01478644          0.00      0.00   2175.16


     BFGS Geometry Optimization

     number of scf cycles    =   1
     number of bfgs steps    =   0

     enthalpy new            =    -778.0584369168 Ry

     new trust radius        =       0.5000000000 bohr
     new conv_thr            =       0.0001000000 Ry

     new unit-cell volume =    525.13076 a.u.^3 (    77.81635 Ang^3 )

CELL_PARAMETERS (alat=  7.13166486)
   1.131266415   0.000000000   0.000000000
   0.000000000   1.131266415   0.000000000
   0.000000000   0.000000000   1.131266415

ATOMIC_POSITIONS (crystal)
Cu       0.000000000   0.500000000   0.500000000
Cu       0.500000000   0.500000000   0.000000000
Cu       0.500000000   0.000000000   0.500000000
Au       0.000000000   0.000000000   0.000000000



     Writing output data file Prototype-La-cP4-Cu3Au.save
     NEW-OLD atomic charge density approx. for the potential
     NEW k-points: (use verbosity='high' to print them)

     total cpu time spent up to now is       73.1 secs

     Self-consistent Calculation

     iteration #  1     ecut=    40.00 Ry     beta=0.70
     CG style diagonalization
     c_bands:  5 eigenvalues not converged
     c_bands:  2 eigenvalues not converged
     c_bands:  1 eigenvalues not converged
     c_bands:  2 eigenvalues not converged
     c_bands:  1 eigenvalues not converged
     c_bands:  1 eigenvalues not converged
     c_bands:  1 eigenvalues not converged
     c_bands:  4 eigenvalues not converged
     c_bands:  1 eigenvalues not converged
     c_bands:  1 eigenvalues not converged
     c_bands:  1 eigenvalues not converged
     ethr =  1.00E-06,  avg # of iterations = 20.4

     total cpu time spent up to now is      103.7 secs

     total energy              =    -767.11817113 Ry
     Harris-Foulkes estimate   =    -790.54242836 Ry
     estimated scf accuracy    <      30.34536095 Ry

     iteration #  2     ecut=    40.00 Ry     beta=0.70
     CG style diagonalization
     ethr =  1.00E-02,  avg # of iterations =  4.1

     total cpu time spent up to now is      110.0 secs

     total energy              =    -776.38599156 Ry
     Harris-Foulkes estimate   =    -781.51926882 Ry
     estimated scf accuracy    <       8.58559153 Ry

     iteration #  3     ecut=    40.00 Ry     beta=0.70
     CG style diagonalization
     ethr =  1.00E-02,  avg # of iterations =  3.7

     total cpu time spent up to now is      115.6 secs

     total energy              =    -777.92592674 Ry
     Harris-Foulkes estimate   =    -779.03126601 Ry
     estimated scf accuracy    <       3.56247997 Ry

     iteration #  4     ecut=    40.00 Ry     beta=0.70
     CG style diagonalization
     ethr =  5.02E-03,  avg # of iterations =  3.1

     total cpu time spent up to now is      120.3 secs

     total energy              =    -778.39497989 Ry
     Harris-Foulkes estimate   =    -778.39905304 Ry
     estimated scf accuracy    <       0.00797205 Ry

     iteration #  5     ecut=    40.00 Ry     beta=0.70
     CG style diagonalization
     c_bands:  1 eigenvalues not converged
     c_bands:  1 eigenvalues not converged
     c_bands:  1 eigenvalues not converged
     c_bands:  1 eigenvalues not converged
     c_bands:  1 eigenvalues not converged
     ethr =  1.12E-05,  avg # of iterations =  4.8

     total cpu time spent up to now is      127.6 secs

     total energy              =    -778.41069109 Ry
     Harris-Foulkes estimate   =    -778.41405269 Ry
     estimated scf accuracy    <       0.01377020 Ry

     iteration #  6     ecut=    40.00 Ry     beta=0.70
     CG style diagonalization
     c_bands:  1 eigenvalues not converged
     ethr =  1.12E-05,  avg # of iterations =  3.1

     total cpu time spent up to now is      132.2 secs

     total energy              =    -778.41092904 Ry
     Harris-Foulkes estimate   =    -778.41160843 Ry
     estimated scf accuracy    <       0.00156508 Ry

     iteration #  7     ecut=    40.00 Ry     beta=0.70
     CG style diagonalization
     c_bands:  1 eigenvalues not converged
     c_bands:  1 eigenvalues not converged
     c_bands:  1 eigenvalues not converged
     c_bands:  1 eigenvalues not converged
     ethr =  2.20E-06,  avg # of iterations =  3.6

     total cpu time spent up to now is      138.1 secs

     total energy              =    -778.41138826 Ry
     Harris-Foulkes estimate   =    -778.41151639 Ry
     estimated scf accuracy    <       0.00059040 Ry

     iteration #  8     ecut=    40.00 Ry     beta=0.70
     CG style diagonalization
     ethr =  8.32E-07,  avg # of iterations =  3.0

     total cpu time spent up to now is      143.0 secs

     End of self-consistent calculation

     Number of k-points >= 100: set verbosity='high' to print the bands.

     the Fermi energy is    23.9217 ev

!    total energy              =    -778.41135598 Ry
     Harris-Foulkes estimate   =    -778.41142663 Ry
     estimated scf accuracy    <       0.00007513 Ry

     The total energy is the sum of the following terms:

     one-electron contribution =     -77.58994902 Ry
     hartree contribution      =      94.05059530 Ry
     xc contribution           =     -78.22782577 Ry
     ewald contribution        =    -716.39781099 Ry
     smearing contrib. (-TS)   =      -0.24636549 Ry

     convergence has been achieved in   8 iterations

     Forces acting on atoms (Ry/au):

     atom    1 type  1   force =     0.00000000    0.00000000    0.00000000
     atom    2 type  1   force =     0.00000000    0.00000000    0.00000000
     atom    3 type  1   force =     0.00000000    0.00000000    0.00000000
     atom    4 type  2   force =     0.00000000    0.00000000    0.00000000

     Total force =     0.000000     Total SCF correction =     0.000000


     entering subroutine stress ...

          total   stress  (Ry/bohr**3)                   (kbar)     P= -747.33
  -0.00508024   0.00000000   0.00000000       -747.33      0.00      0.00
   0.00000000  -0.00508024   0.00000000          0.00   -747.33      0.00
   0.00000000   0.00000000  -0.00508024          0.00      0.00   -747.33


     number of scf cycles    =   2
     number of bfgs steps    =   1

     enthalpy old            =    -778.0584369168 Ry
     enthalpy new            =    -778.4113559804 Ry

     CASE: enthalpy_new < enthalpy_old

     small trust_radius: resetting bfgs history

     new trust radius        =       0.5820869180 bohr
     new conv_thr            =       0.0000010000 Ry

     new unit-cell volume =    349.38261 a.u.^3 (    51.77316 Ang^3 )

CELL_PARAMETERS (alat=  7.13166486)
   0.987588832   0.000000000   0.000000000
   0.000000000   0.987588832   0.000000000
   0.000000000   0.000000000   0.987588832

ATOMIC_POSITIONS (crystal)
Cu       0.000000000   0.500000000   0.500000000
Cu       0.500000000   0.500000000   0.000000000
Cu       0.500000000   0.000000000   0.500000000
Au       0.000000000   0.000000000   0.000000000



     Writing output data file Prototype-La-cP4-Cu3Au.save
     NEW-OLD atomic charge density approx. for the potential
     NEW k-points: (use verbosity='high' to print them)

     total cpu time spent up to now is      145.4 secs

     Self-consistent Calculation

     iteration #  1     ecut=    40.00 Ry     beta=0.70
     CG style diagonalization
     c_bands:  4 eigenvalues not converged
     c_bands:  2 eigenvalues not converged
     c_bands:  2 eigenvalues not converged
     c_bands:  1 eigenvalues not converged
     c_bands:  1 eigenvalues not converged
     c_bands:  1 eigenvalues not converged
     c_bands:  1 eigenvalues not converged
     c_bands:  1 eigenvalues not converged
     c_bands:  1 eigenvalues not converged
     c_bands:  4 eigenvalues not converged
     c_bands:  2 eigenvalues not converged
     c_bands:  4 eigenvalues not converged
     c_bands:  1 eigenvalues not converged
     c_bands:  1 eigenvalues not converged
     c_bands:  1 eigenvalues not converged
     c_bands:  2 eigenvalues not converged
     c_bands:  1 eigenvalues not converged
     c_bands:  3 eigenvalues not converged
     c_bands:  1 eigenvalues not converged
     c_bands:  1 eigenvalues not converged
     c_bands:  1 eigenvalues not converged
     c_bands:  1 eigenvalues not converged
     c_bands:  1 eigenvalues not converged
     c_bands:  1 eigenvalues not converged
     c_bands:  5 eigenvalues not converged
     c_bands:  1 eigenvalues not converged
     c_bands:  1 eigenvalues not converged
     c_bands:  1 eigenvalues not converged
     c_bands:  1 eigenvalues not converged
     c_bands:  1 eigenvalues not converged
     c_bands:  1 eigenvalues not converged
     c_bands:  1 eigenvalues not converged
     c_bands:  1 eigenvalues not converged
     c_bands:  4 eigenvalues not converged
     c_bands:  2 eigenvalues not converged
     c_bands:  1 eigenvalues not converged
     c_bands:  1 eigenvalues not converged
     c_bands:  1 eigenvalues not converged
     c_bands:  1 eigenvalues not converged
     c_bands:  1 eigenvalues not converged
     c_bands:  4 eigenvalues not converged
     ethr =  1.00E-06,  avg # of iterations = 21.3

     total cpu time spent up to now is      177.0 secs

     total energy              =    -770.45640051 Ry
     Harris-Foulkes estimate   =    -791.16437408 Ry
     estimated scf accuracy    <      26.59153777 Ry

     iteration #  2     ecut=    40.00 Ry     beta=0.70
     CG style diagonalization
     ethr =  1.00E-02,  avg # of iterations =  4.3

     total cpu time spent up to now is      183.4 secs

     total energy              =    -776.98578498 Ry
     Harris-Foulkes estimate   =    -778.80569115 Ry
     estimated scf accuracy    <       2.69967611 Ry

     iteration #  3     ecut=    40.00 Ry     beta=0.70
     CG style diagonalization
     ethr =  3.80E-03,  avg # of iterations =  3.7

     total cpu time spent up to now is      189.5 secs

     total energy              =    -777.56198978 Ry
     Harris-Foulkes estimate   =    -778.16914412 Ry
     estimated scf accuracy    <       1.30508685 Ry

     iteration #  4     ecut=    40.00 Ry     beta=0.70
     CG style diagonalization
     ethr =  1.84E-03,  avg # of iterations =  3.3

     total cpu time spent up to now is      195.1 secs

     total energy              =    -777.83060298 Ry
     Harris-Foulkes estimate   =    -777.84125095 Ry
     estimated scf accuracy    <       0.02229208 Ry

     iteration #  5     ecut=    40.00 Ry     beta=0.70
     CG style diagonalization
     c_bands:  1 eigenvalues not converged
     c_bands:  1 eigenvalues not converged
     c_bands:  2 eigenvalues not converged
     c_bands:  1 eigenvalues not converged
     c_bands:  1 eigenvalues not converged
     c_bands:  1 eigenvalues not converged
     c_bands:  2 eigenvalues not converged
     c_bands:  1 eigenvalues not converged
     c_bands:  1 eigenvalues not converged
     c_bands:  1 eigenvalues not converged
     c_bands:  1 eigenvalues not converged
     c_bands:  1 eigenvalues not converged
     c_bands:  1 eigenvalues not converged
     c_bands:  1 eigenvalues not converged
     c_bands:  1 eigenvalues not converged
     c_bands:  1 eigenvalues not converged
     c_bands:  1 eigenvalues not converged
     c_bands:  1 eigenvalues not converged
     c_bands:  2 eigenvalues not converged
     c_bands:  2 eigenvalues not converged
     c_bands:  1 eigenvalues not converged
     c_bands:  1 eigenvalues not converged
     c_bands:  1 eigenvalues not converged
     ethr =  3.14E-05,  avg # of iterations =  4.4

     total cpu time spent up to now is      201.9 secs

     total energy              =    -777.83663726 Ry
     Harris-Foulkes estimate   =    -777.83715381 Ry
     estimated scf accuracy    <       0.00123835 Ry

     iteration #  6     ecut=    40.00 Ry     beta=0.70
     CG style diagonalization
     c_bands:  1 eigenvalues not converged
     c_bands:  1 eigenvalues not converged
     c_bands:  1 eigenvalues not converged
     c_bands:  1 eigenvalues not converged
     c_bands:  1 eigenvalues not converged
     c_bands:  1 eigenvalues not converged
     c_bands:  1 eigenvalues not converged
     c_bands:  1 eigenvalues not converged
     c_bands:  1 eigenvalues not converged
     c_bands:  2 eigenvalues not converged
     c_bands:  1 eigenvalues not converged
     c_bands:  1 eigenvalues not converged
     c_bands:  1 eigenvalues not converged
     c_bands:  1 eigenvalues not converged
     c_bands:  1 eigenvalues not converged
     c_bands:  1 eigenvalues not converged
     c_bands:  1 eigenvalues not converged
     c_bands:  1 eigenvalues not converged
     ethr =  1.74E-06,  avg # of iterations =  4.1

     total cpu time spent up to now is      208.8 secs

     total energy              =    -777.83681516 Ry
     Harris-Foulkes estimate   =    -777.83692810 Ry
     estimated scf accuracy    <       0.00021854 Ry

     iteration #  7     ecut=    40.00 Ry     beta=0.70
     CG style diagonalization
     c_bands:  1 eigenvalues not converged
     c_bands:  1 eigenvalues not converged
     c_bands:  1 eigenvalues not converged
     ethr =  3.08E-07,  avg # of iterations =  3.6

     total cpu time spent up to now is      214.8 secs

     total energy              =    -777.83687841 Ry
     Harris-Foulkes estimate   =    -777.83688436 Ry
     estimated scf accuracy    <       0.00001387 Ry

     iteration #  8     ecut=    40.00 Ry     beta=0.70
     CG style diagonalization
     c_bands:  1 eigenvalues not converged
     ethr =  1.95E-08,  avg # of iterations =  3.9

     total cpu time spent up to now is      220.7 secs

     End of self-consistent calculation

     Number of k-points >= 100: set verbosity='high' to print the bands.

     the Fermi energy is    39.6952 ev

!    total energy              =    -777.83688387 Ry
     Harris-Foulkes estimate   =    -777.83688398 Ry
     estimated scf accuracy    <       0.00000013 Ry

     The total energy is the sum of the following terms:

     one-electron contribution =      65.60935088 Ry
     hartree contribution      =      58.67988708 Ry
     xc contribution           =     -81.34615294 Ry
     ewald contribution        =    -820.62165357 Ry
     smearing contrib. (-TS)   =      -0.15831532 Ry

     convergence has been achieved in   8 iterations

     Forces acting on atoms (Ry/au):

     atom    1 type  1   force =     0.00000000    0.00000000    0.00000000
     atom    2 type  1   force =     0.00000000    0.00000000    0.00000000
     atom    3 type  1   force =     0.00000000    0.00000000    0.00000000
     atom    4 type  2   force =     0.00000000    0.00000000    0.00000000

     Total force =     0.000000     Total SCF correction =     0.000000


     entering subroutine stress ...

          total   stress  (Ry/bohr**3)                   (kbar)     P= 2722.23
   0.01850533   0.00000000   0.00000000       2722.23      0.00      0.00
   0.00000000   0.01850533   0.00000000          0.00   2722.23      0.00
   0.00000000   0.00000000   0.01850533          0.00      0.00   2722.23


     number of scf cycles    =   3
     number of bfgs steps    =   2

     enthalpy old            =    -778.4113559804 Ry
     enthalpy new            =    -777.8368838737 Ry

     CASE: enthalpy_new > enthalpy_old

     new trust radius        =       0.1737418835 bohr

     trust_radius < trust_radius_min

     resetting bfgs history

     Message from routine bfgs:
     history already reset at previous step: stopping
     new conv_thr            =       0.0000010000 Ry

     new unit-cell volume =    361.82706 a.u.^3 (    53.61724 Ang^3 )

CELL_PARAMETERS (alat=  7.13166486)
   0.999177754   0.000000000   0.000000000
   0.000000000   0.999177754   0.000000000
   0.000000000   0.000000000   0.999177754

ATOMIC_POSITIONS (crystal)
Cu       0.000000000   0.500000000   0.500000000
Cu       0.500000000   0.500000000   0.000000000
Cu       0.500000000   0.000000000   0.500000000
Au       0.000000000   0.000000000   0.000000000



     Writing output data file Prototype-La-cP4-Cu3Au.save
     NEW-OLD atomic charge density approx. for the potential
     NEW k-points: (use verbosity='high' to print them)

     total cpu time spent up to now is      223.3 secs

     Self-consistent Calculation

     iteration #  1     ecut=    40.00 Ry     beta=0.70
     CG style diagonalization
     c_bands:  1 eigenvalues not converged
     c_bands:  1 eigenvalues not converged
     c_bands:  1 eigenvalues not converged
     c_bands:  1 eigenvalues not converged
     c_bands:  1 eigenvalues not converged
     c_bands:  1 eigenvalues not converged
     c_bands:  1 eigenvalues not converged
     c_bands:  1 eigenvalues not converged
     ethr =  1.00E-06,  avg # of iterations =  7.7

     total cpu time spent up to now is      235.6 secs

     total energy              =    -777.98389064 Ry
     Harris-Foulkes estimate   =    -778.13567516 Ry
     estimated scf accuracy    <       0.19762587 Ry

     iteration #  2     ecut=    40.00 Ry     beta=0.70
     CG style diagonalization
     ethr =  2.78E-04,  avg # of iterations =  3.8

     total cpu time spent up to now is      241.3 secs

     total energy              =    -778.03433541 Ry
     Harris-Foulkes estimate   =    -778.05565064 Ry
     estimated scf accuracy    <       0.03198544 Ry

     iteration #  3     ecut=    40.00 Ry     beta=0.70
     CG style diagonalization
     ethr =  4.50E-05,  avg # of iterations =  3.7

     total cpu time spent up to now is      247.5 secs

     total energy              =    -778.04112997 Ry
     Harris-Foulkes estimate   =    -778.05006468 Ry
     estimated scf accuracy    <       0.02184744 Ry

     iteration #  4     ecut=    40.00 Ry     beta=0.70
     CG style diagonalization
     ethr =  3.08E-05,  avg # of iterations =  3.2

     total cpu time spent up to now is      252.9 secs

     total energy              =    -778.04502835 Ry
     Harris-Foulkes estimate   =    -778.04506160 Ry
     estimated scf accuracy    <       0.00006454 Ry

     iteration #  5     ecut=    40.00 Ry     beta=0.70
     CG style diagonalization
     c_bands:  1 eigenvalues not converged
     c_bands:  1 eigenvalues not converged
     c_bands:  1 eigenvalues not converged
     ethr =  9.09E-08,  avg # of iterations =  4.7

     total cpu time spent up to now is      260.9 secs

     total energy              =    -778.04510624 Ry
     Harris-Foulkes estimate   =    -778.04512692 Ry
     estimated scf accuracy    <       0.00006517 Ry

     iteration #  6     ecut=    40.00 Ry     beta=0.70
     CG style diagonalization
     ethr =  9.09E-08,  avg # of iterations =  3.1

     total cpu time spent up to now is      266.2 secs

     total energy              =    -778.04510735 Ry
     Harris-Foulkes estimate   =    -778.04511132 Ry
     estimated scf accuracy    <       0.00001100 Ry

     iteration #  7     ecut=    40.00 Ry     beta=0.70
     CG style diagonalization
     ethr =  1.55E-08,  avg # of iterations =  3.4

     total cpu time spent up to now is      271.3 secs

     End of self-consistent calculation

     Number of k-points >= 100: set verbosity='high' to print the bands.

     the Fermi energy is    38.0830 ev

!    total energy              =    -778.04510912 Ry
     Harris-Foulkes estimate   =    -778.04510927 Ry
     estimated scf accuracy    <       0.00000016 Ry

     The total energy is the sum of the following terms:

     one-electron contribution =      52.84325904 Ry
     hartree contribution      =      61.38679821 Ry
     xc contribution           =     -81.00647965 Ry
     ewald contribution        =    -811.10370794 Ry
     smearing contrib. (-TS)   =      -0.16497878 Ry

     convergence has been achieved in   7 iterations

     Forces acting on atoms (Ry/au):

     atom    1 type  1   force =     0.00000000    0.00000000    0.00000000
     atom    2 type  1   force =     0.00000000    0.00000000    0.00000000
     atom    3 type  1   force =     0.00000000    0.00000000    0.00000000
     atom    4 type  2   force =     0.00000000    0.00000000    0.00000000

     Total force =     0.000000     Total SCF correction =     0.000000


     entering subroutine stress ...

          total   stress  (Ry/bohr**3)                   (kbar)     P= 2211.03
   0.01503029   0.00000000   0.00000000       2211.03      0.00      0.00
   0.00000000   0.01503029   0.00000000          0.00   2211.03      0.00
   0.00000000   0.00000000   0.01503029          0.00      0.00   2211.03


     The maximum number of steps has been reached.

     End of BFGS Geometry Optimization
Begin final coordinates
     new unit-cell volume =    361.82706 a.u.^3 (    53.61724 Ang^3 )

CELL_PARAMETERS (alat=  7.13166486)
   0.999177754   0.000000000   0.000000000
   0.000000000   0.999177754   0.000000000
   0.000000000   0.000000000   0.999177754

ATOMIC_POSITIONS (crystal)
Cu       0.000000000   0.500000000   0.500000000
Cu       0.500000000   0.500000000   0.000000000
Cu       0.500000000   0.000000000   0.500000000
Au       0.000000000   0.000000000   0.000000000
End final coordinates



     A final scf calculation at the relaxed structure.
     The G-vectors are recalculated for the final unit cell
     Results may differ from those at the preceding step.
 
     Parallelization info
     --------------------
     sticks:   dense  smooth     PW     G-vecs:    dense   smooth      PW
     Min         163     163     48                 3073     3073     524
     Max         165     165     49                 3074     3074     527
     Sum         657     657    193                12293    12293    2103
 


     bravais-lattice index     =            0
     lattice parameter (alat)  =       7.1317  a.u.
     unit-cell volume          =     361.8271 (a.u.)^3
     number of atoms/cell      =            4
     number of atomic types    =            2
     number of electrons       =        71.00
     number of Kohn-Sham states=           43
     kinetic-energy cutoff     =      40.0000  Ry
     charge density cutoff     =     160.0000  Ry
     convergence threshold     =      1.0E-06
     mixing beta               =       0.7000
     number of iterations used =            8  plain     mixing
     Exchange-correlation      = SLA-PZ-NOGX-NOGC ( 1 1 0 0 0)
     EXX-fraction              =        0.00

     celldm(1)=   7.131665  celldm(2)=   0.000000  celldm(3)=   0.000000
     celldm(4)=   0.000000  celldm(5)=   0.000000  celldm(6)=   0.000000

     crystal axes: (cart. coord. in units of alat)
               a(1) = (   0.999178   0.000000   0.000000 )  
               a(2) = (   0.000000   0.999178   0.000000 )  
               a(3) = (   0.000000   0.000000   0.999178 )  

     reciprocal axes: (cart. coord. in units 2 pi/alat)
               b(1) = (  1.000823  0.000000  0.000000 )  
               b(2) = (  0.000000  1.000823  0.000000 )  
               b(3) = (  0.000000  0.000000  1.000823 )  


     PseudoPot. # 1 for Gd read from file:
     /home/cwx6513/pp.La/Gd.UPF
     MD5 check sum: 09a8be538722f05520810cb6aac0efd2
     Pseudo is Norm-conserving, Zval = 18.0
     Generated in analytical, separable form
     Using radial grid of 1263 points,  6 beta functions with: 
                l(1) =   0
                l(2) =   0
                l(3) =   1
                l(4) =   1
                l(5) =   2
                l(6) =   3

     PseudoPot. # 2 for Eu read from file:
     /home/cwx6513/pp.La/Eu.UPF
     MD5 check sum: 5efdbbfc50c6a10138933a6429836ad2
     Pseudo is Norm-conserving, Zval = 17.0
     Generated in analytical, separable form
     Using radial grid of 1261 points,  6 beta functions with: 
                l(1) =   0
                l(2) =   0
                l(3) =   1
                l(4) =   1
                l(5) =   2
                l(6) =   3

     atomic species   valence    mass     pseudopotential
        Cu            18.00    63.54600     Gd( 1.00)
        Au            17.00   196.96600     Eu( 1.00)

     48 Sym. Ops., with inversion, found



   Cartesian axes

     site n.     atom                  positions (alat units)
         1           Cu  tau(   1) = (   0.0000000   0.4995889   0.4995889  )
         2           Cu  tau(   2) = (   0.4995889   0.4995889   0.0000000  )
         3           Cu  tau(   3) = (   0.4995889   0.0000000   0.4995889  )
         4           Au  tau(   4) = (   0.0000000   0.0000000   0.0000000  )

     number of k points=   100  gaussian smearing, width (Ry)=  0.1000

     Number of k-points >= 100: set verbosity='high' to print them.

     Dense  grid:    12293 G-vectors     FFT dimensions: (  30,  30,  30)

     Largest allocated arrays     est. size (Mb)     dimensions
        Kohn-Sham Wavefunctions         0.26 Mb     (    400,   43)
        NL pseudopotentials             0.49 Mb     (    400,   80)
        Each V/rho on FFT grid          0.11 Mb     (   7200)
        Each G-vector array             0.02 Mb     (   3074)
        G-vector shells                 0.00 Mb     (    172)
     Largest temporary arrays     est. size (Mb)     dimensions
        Each subspace H/S matrix        0.03 Mb     (  43,  43)
        Each <psi_i|beta_j> matrix      0.05 Mb     (     80,   43)
        Arrays for rho mixing           0.88 Mb     (   7200,   8)

     Initial potential from superposition of free atoms

     Starting from uniform charge
     Starting wfc are    0 randomized atomic wfcs

     Writing output data file Prototype-La-cP4-Cu3Au.save

     total cpu time spent up to now is      276.0 secs

     Self-consistent Calculation

     iteration #  1     ecut=    40.00 Ry     beta=0.70
     CG style diagonalization
     c_bands:  1 eigenvalues not converged
     c_bands:  4 eigenvalues not converged
     c_bands:  1 eigenvalues not converged
     c_bands:  1 eigenvalues not converged
     c_bands:  4 eigenvalues not converged
     c_bands:  5 eigenvalues not converged
     c_bands:  1 eigenvalues not converged
     c_bands:  4 eigenvalues not converged
     c_bands:  2 eigenvalues not converged
     c_bands:  5 eigenvalues not converged
     c_bands:  2 eigenvalues not converged
     c_bands:  4 eigenvalues not converged
     c_bands:  3 eigenvalues not converged
     c_bands:  2 eigenvalues not converged
     c_bands:  1 eigenvalues not converged
     c_bands:  1 eigenvalues not converged
     c_bands:  2 eigenvalues not converged
     c_bands:  4 eigenvalues not converged
     c_bands:  3 eigenvalues not converged
     c_bands:  3 eigenvalues not converged
     c_bands:  4 eigenvalues not converged
     c_bands:  5 eigenvalues not converged
     c_bands:  2 eigenvalues not converged
     c_bands:  2 eigenvalues not converged
     c_bands:  3 eigenvalues not converged
     c_bands:  5 eigenvalues not converged
     c_bands:  4 eigenvalues not converged
     c_bands:  3 eigenvalues not converged
     c_bands:  3 eigenvalues not converged
     c_bands:  2 eigenvalues not converged
     c_bands:  2 eigenvalues not converged
     c_bands:  1 eigenvalues not converged
     c_bands:  3 eigenvalues not converged
     c_bands:  3 eigenvalues not converged
     c_bands:  3 eigenvalues not converged
     c_bands:  4 eigenvalues not converged
     c_bands:  3 eigenvalues not converged
     c_bands:  3 eigenvalues not converged
     c_bands:  2 eigenvalues not converged
     c_bands:  2 eigenvalues not converged
     c_bands:  5 eigenvalues not converged
     c_bands:  3 eigenvalues not converged
     c_bands:  3 eigenvalues not converged
     c_bands:  3 eigenvalues not converged
     c_bands:  3 eigenvalues not converged
     c_bands:  5 eigenvalues not converged
     c_bands:  5 eigenvalues not converged
     c_bands:  5 eigenvalues not converged
     c_bands:  2 eigenvalues not converged
     c_bands:  3 eigenvalues not converged
     c_bands:  2 eigenvalues not converged
     c_bands:  2 eigenvalues not converged
     c_bands:  3 eigenvalues not converged
     c_bands:  2 eigenvalues not converged
     c_bands:  3 eigenvalues not converged
     c_bands:  3 eigenvalues not converged
     c_bands:  3 eigenvalues not converged
     c_bands:  3 eigenvalues not converged
     c_bands:  2 eigenvalues not converged
     c_bands:  3 eigenvalues not converged
     c_bands:  3 eigenvalues not converged
     c_bands:  3 eigenvalues not converged
     c_bands:  2 eigenvalues not converged
     c_bands:  3 eigenvalues not converged
     c_bands:  4 eigenvalues not converged
     c_bands:  2 eigenvalues not converged
     c_bands:  3 eigenvalues not converged
     c_bands:  3 eigenvalues not converged
     c_bands:  3 eigenvalues not converged
     c_bands:  2 eigenvalues not converged
     c_bands:  2 eigenvalues not converged
     c_bands:  2 eigenvalues not converged
     c_bands:  3 eigenvalues not converged
     c_bands:  2 eigenvalues not converged
     c_bands:  3 eigenvalues not converged
     c_bands:  1 eigenvalues not converged
     c_bands:  1 eigenvalues not converged
     c_bands:  2 eigenvalues not converged
     c_bands:  2 eigenvalues not converged
     c_bands:  3 eigenvalues not converged
     c_bands:  1 eigenvalues not converged
     c_bands:  5 eigenvalues not converged
     c_bands:  2 eigenvalues not converged
     c_bands:  3 eigenvalues not converged
     c_bands:  3 eigenvalues not converged
     c_bands:  5 eigenvalues not converged
     c_bands:  3 eigenvalues not converged
     c_bands:  2 eigenvalues not converged
     c_bands:  5 eigenvalues not converged
     c_bands:  4 eigenvalues not converged
     c_bands:  5 eigenvalues not converged
     c_bands:  3 eigenvalues not converged
     c_bands:  3 eigenvalues not converged
     c_bands:  2 eigenvalues not converged
     c_bands:  2 eigenvalues not converged
     c_bands:  3 eigenvalues not converged
     c_bands:  3 eigenvalues not converged
     c_bands:  3 eigenvalues not converged
     c_bands:  2 eigenvalues not converged
     c_bands:  3 eigenvalues not converged
     ethr =  1.00E-06,  avg # of iterations = 37.0

     total cpu time spent up to now is      337.2 secs

     total energy              =    -735.64687296 Ry
     Harris-Foulkes estimate   =    -865.26784998 Ry
     estimated scf accuracy    <     175.11434922 Ry

     iteration #  2     ecut=    40.00 Ry     beta=0.70
     CG style diagonalization
     ethr =  1.00E-02,  avg # of iterations =  5.9

     total cpu time spent up to now is      348.5 secs

     total energy              =    -776.03783509 Ry
     Harris-Foulkes estimate   =    -781.93112036 Ry
     estimated scf accuracy    <       8.48168080 Ry

     iteration #  3     ecut=    40.00 Ry     beta=0.70
     CG style diagonalization
     ethr =  1.00E-02,  avg # of iterations =  3.8

     total cpu time spent up to now is      356.2 secs

     total energy              =    -777.83297532 Ry
     Harris-Foulkes estimate   =    -778.25414207 Ry
     estimated scf accuracy    <       0.92235152 Ry

     iteration #  4     ecut=    40.00 Ry     beta=0.70
     CG style diagonalization
     ethr =  1.30E-03,  avg # of iterations =  3.8

     negative rho (up, down):  0.488E-05 0.000E+00

     total cpu time spent up to now is      363.3 secs

     total energy              =    -778.03970183 Ry
     Harris-Foulkes estimate   =    -778.06932003 Ry
     estimated scf accuracy    <       0.09053525 Ry

     iteration #  5     ecut=    40.00 Ry     beta=0.70
     CG style diagonalization
     c_bands:  1 eigenvalues not converged
     c_bands:  1 eigenvalues not converged
     c_bands:  1 eigenvalues not converged
     c_bands:  2 eigenvalues not converged
     c_bands:  1 eigenvalues not converged
     c_bands:  1 eigenvalues not converged
     c_bands:  1 eigenvalues not converged
     c_bands:  1 eigenvalues not converged
     c_bands:  1 eigenvalues not converged
     c_bands:  1 eigenvalues not converged
     c_bands:  1 eigenvalues not converged
     c_bands:  1 eigenvalues not converged
     c_bands:  1 eigenvalues not converged
     ethr =  1.28E-04,  avg # of iterations =  3.8

     total cpu time spent up to now is      371.1 secs

     total energy              =    -778.03639969 Ry
     Harris-Foulkes estimate   =    -778.05236912 Ry
     estimated scf accuracy    <       0.04401582 Ry

     iteration #  6     ecut=    40.00 Ry     beta=0.70
     CG style diagonalization
     ethr =  6.20E-05,  avg # of iterations =  3.1

     total cpu time spent up to now is      377.5 secs

     total energy              =    -778.04006973 Ry
     Harris-Foulkes estimate   =    -778.04135508 Ry
     estimated scf accuracy    <       0.00265773 Ry

     iteration #  7     ecut=    40.00 Ry     beta=0.70
     CG style diagonalization
     c_bands:  1 eigenvalues not converged
     c_bands:  1 eigenvalues not converged
     c_bands:  1 eigenvalues not converged
     c_bands:  1 eigenvalues not converged
     c_bands:  1 eigenvalues not converged
     c_bands:  1 eigenvalues not converged
     c_bands:  1 eigenvalues not converged
     ethr =  3.74E-06,  avg # of iterations =  4.5

     total cpu time spent up to now is      386.2 secs

     total energy              =    -778.04127752 Ry
     Harris-Foulkes estimate   =    -778.04142686 Ry
     estimated scf accuracy    <       0.00057810 Ry

     iteration #  8     ecut=    40.00 Ry     beta=0.70
     CG style diagonalization
     c_bands:  1 eigenvalues not converged
     c_bands:  1 eigenvalues not converged
     ethr =  8.14E-07,  avg # of iterations =  3.2

     total cpu time spent up to now is      392.1 secs

     total energy              =    -778.04129001 Ry
     Harris-Foulkes estimate   =    -778.04133660 Ry
     estimated scf accuracy    <       0.00010981 Ry

     iteration #  9     ecut=    40.00 Ry     beta=0.70
     CG style diagonalization
     ethr =  1.55E-07,  avg # of iterations =  3.6

     total cpu time spent up to now is      398.8 secs

     total energy              =    -778.04132160 Ry
     Harris-Foulkes estimate   =    -778.04132277 Ry
     estimated scf accuracy    <       0.00000242 Ry

     iteration # 10     ecut=    40.00 Ry     beta=0.70
     CG style diagonalization
     ethr =  3.41E-09,  avg # of iterations =  4.3

     total cpu time spent up to now is      406.5 secs

     End of self-consistent calculation

     Number of k-points >= 100: set verbosity='high' to print the bands.

     the Fermi energy is    38.0832 ev

!    total energy              =    -778.04132346 Ry
     Harris-Foulkes estimate   =    -778.04132351 Ry
     estimated scf accuracy    <       0.00000005 Ry

     The total energy is the sum of the following terms:

     one-electron contribution =      52.84768322 Ry
     hartree contribution      =      61.38580301 Ry
     xc contribution           =     -81.00611994 Ry
     ewald contribution        =    -811.10370794 Ry
     smearing contrib. (-TS)   =      -0.16498181 Ry

     convergence has been achieved in  10 iterations

     Forces acting on atoms (Ry/au):

     atom    1 type  1   force =     0.00000000    0.00000000    0.00000000
     atom    2 type  1   force =     0.00000000    0.00000000    0.00000000
     atom    3 type  1   force =     0.00000000    0.00000000    0.00000000
     atom    4 type  2   force =     0.00000000    0.00000000    0.00000000

     Total force =     0.000000     Total SCF correction =     0.000000


     entering subroutine stress ...

          total   stress  (Ry/bohr**3)                   (kbar)     P= 2207.23
   0.01500447   0.00000000   0.00000000       2207.23      0.00      0.00
   0.00000000   0.01500447   0.00000000          0.00   2207.23      0.00
   0.00000000   0.00000000   0.01500447          0.00      0.00   2207.23


     Writing output data file Prototype-La-cP4-Cu3Au.save
 
     init_run     :      2.84s CPU      3.82s WALL (       2 calls)
     electrons    :    360.74s CPU    392.39s WALL (       5 calls)
     update_pot   :      0.81s CPU      1.02s WALL (       3 calls)
     forces       :      1.99s CPU      2.24s WALL (       5 calls)
     stress       :      5.44s CPU      5.53s WALL (       5 calls)

     Called by init_run:
     wfcinit      :      2.53s CPU      2.80s WALL (       2 calls)
     potinit      :      0.12s CPU      0.12s WALL (       2 calls)

     Called by electrons:
     c_bands      :    341.11s CPU    360.68s WALL (      42 calls)
     sum_band     :     19.48s CPU     20.38s WALL (      42 calls)
     v_of_rho     :      0.03s CPU      0.03s WALL (      47 calls)
     mix_rho      :      0.02s CPU      0.03s WALL (      42 calls)

     Called by c_bands:
     init_us_2    :      1.96s CPU      2.17s WALL (    9600 calls)
     ccgdiagg     :    288.07s CPU    300.59s WALL (    4574 calls)
     wfcrot       :     53.68s CPU     58.39s WALL (    4674 calls)

     Called by *cgdiagg:
     h_psi        :    242.12s CPU    260.83s WALL (  832857 calls)
     cdiaghg      :      3.00s CPU      3.24s WALL (    4674 calls)

     Called by h_psi:
     add_vuspsi   :     17.70s CPU     25.86s WALL (  832857 calls)

     General routines
     calbec       :     58.36s CPU     55.87s WALL ( 1662040 calls)
     fft          :      0.04s CPU      0.04s WALL (     211 calls)
     fftw         :    193.62s CPU    198.85s WALL ( 2238930 calls)
     davcio       :      1.32s CPU      3.80s WALL (   13800 calls)
 
     Parallel routines
     fft_scatter  :     50.09s CPU     58.06s WALL ( 2239141 calls)
 
     PWSCF        :  6m12.79s CPU     6m48.83s WALL

 
   This run was terminated on:  22:52:45  22Mar2018            

=------------------------------------------------------------------------------=
   JOB DONE.
=------------------------------------------------------------------------------=
