
     Program PWSCF v.5.0.2 starts on 22Mar2018 at  0:35:21 

     This program is part of the open-source Quantum ESPRESSO suite
     for quantum simulation of materials; please cite
         "P. Giannozzi et al., J. Phys.:Condens. Matter 21 395502 (2009);
          URL http://www.quantum-espresso.org", 
     in publications or presentations arising from this work. More details at
     http://www.quantum-espresso.org/quote.php

     Parallel version (MPI), running on     4 processors
     R & G space division:  proc/nbgrp/npool/nimage =       4

     Current dimensions of program PWSCF are:
     Max number of different atomic species (ntypx) = 10
     Max number of k-points (npk) =  40000
     Max angular momentum in pseudopotentials (lmaxx) =  3
     Waiting for input...
     Reading input from standard input

     Subspace diagonalization in iterative solution of the eigenvalue problem:
     a serial algorithm will be used

 
     Parallelization info
     --------------------
     sticks:   dense  smooth     PW     G-vecs:    dense   smooth      PW
     Min         396     396    112                10116    10116    1566
     Max         397     397    113                10119    10119    1567
     Sum        1585    1585    451                40467    40467    6267
 


     bravais-lattice index     =            0
     lattice parameter (alat)  =      12.0168  a.u.
     unit-cell volume          =    1187.3413 (a.u.)^3
     number of atoms/cell      =            8
     number of atomic types    =            2
     number of electrons       =       108.00
     number of Kohn-Sham states=           65
     kinetic-energy cutoff     =      40.0000  Ry
     charge density cutoff     =     160.0000  Ry
     convergence threshold     =      1.0E-04
     mixing beta               =       0.7000
     number of iterations used =            8  plain     mixing
     Exchange-correlation      = SLA-PZ-NOGX-NOGC ( 1 1 0 0 0)
     EXX-fraction              =        0.00
     nstep                     =           50


     celldm(1)=  12.016801  celldm(2)=   0.000000  celldm(3)=   0.000000
     celldm(4)=   0.000000  celldm(5)=   0.000000  celldm(6)=   0.000000

     crystal axes: (cart. coord. in units of alat)
               a(1) = (   1.000000   0.000000   0.000000 )  
               a(2) = (  -0.500000   0.866025   0.000000 )  
               a(3) = (   0.000000   0.000000   0.790093 )  

     reciprocal axes: (cart. coord. in units 2 pi/alat)
               b(1) = (  1.000000  0.577350  0.000000 )  
               b(2) = (  0.000000  1.154701  0.000000 )  
               b(3) = (  0.000000  0.000000  1.265674 )  


     PseudoPot. # 1 for Ce read from file:
     /home/jld5415/pp.La/Ce.UPF
     MD5 check sum: 44451aa79a44a00cf2bc029dc19922f6
     Pseudo is Norm-conserving, Zval = 12.0
     Generated in analytical, separable form
     Using radial grid of 1255 points,  6 beta functions with: 
                l(1) =   0
                l(2) =   0
                l(3) =   1
                l(4) =   1
                l(5) =   2
                l(6) =   3

     PseudoPot. # 2 for Gd read from file:
     /home/jld5415/pp.La/Gd.UPF
     MD5 check sum: 09a8be538722f05520810cb6aac0efd2
     Pseudo is Norm-conserving, Zval = 18.0
     Generated in analytical, separable form
     Using radial grid of 1263 points,  6 beta functions with: 
                l(1) =   0
                l(2) =   0
                l(3) =   1
                l(4) =   1
                l(5) =   2
                l(6) =   3

     atomic species   valence    mass     pseudopotential
        Mg            12.00    24.30500     Ce( 1.00)
        Cd            18.00   112.41100     Gd( 1.00)

     24 Sym. Ops., with inversion, found (12 have fractional translation)



   Cartesian axes

     site n.     atom                  positions (alat units)
         1           Mg  tau(   1) = (   0.2478935   0.7204716   0.1975233  )
         2           Mg  tau(   2) = (   0.7478935   0.1455538   0.5925699  )
         3           Mg  tau(   3) = (   0.2521065   0.1455538   0.5925699  )
         4           Mg  tau(   4) = (  -0.2478935   0.7204716   0.1975233  )
         5           Mg  tau(   5) = (   0.0000000   0.2911075   0.1975233  )
         6           Mg  tau(   6) = (   0.5000000   0.5749179   0.5925699  )
         7           Cd  tau(   7) = (   0.5000005   0.2886748   0.1975233  )
         8           Cd  tau(   8) = (  -0.0000005   0.5773506   0.5925699  )

     number of k points=    64  gaussian smearing, width (Ry)=  0.1000
                       cart. coord. in units 2pi/alat
        k(    1) = (   0.0000000   0.0000000   0.0000000), wk =   0.0095238
        k(    2) = (   0.0000000   0.0000000   0.1808105), wk =   0.0190476
        k(    3) = (   0.0000000   0.0000000   0.3616210), wk =   0.0190476
        k(    4) = (   0.0000000   0.0000000   0.5424315), wk =   0.0190476
        k(    5) = (   0.0000000   0.1924501   0.0000000), wk =   0.0190476
        k(    6) = (   0.0000000   0.1924501   0.1808105), wk =   0.0380952
        k(    7) = (   0.0000000   0.1924501   0.3616210), wk =   0.0380952
        k(    8) = (   0.0000000   0.1924501   0.5424315), wk =   0.0380952
        k(    9) = (   0.0000000   0.3849002   0.0000000), wk =   0.0190476
        k(   10) = (   0.0000000   0.3849002   0.1808105), wk =   0.0380952
        k(   11) = (   0.0000000   0.3849002   0.3616210), wk =   0.0380952
        k(   12) = (   0.0000000   0.3849002   0.5424315), wk =   0.0380952
        k(   13) = (   0.0000000  -0.5773503   0.0000000), wk =   0.0095238
        k(   14) = (   0.0000000  -0.5773503   0.1808105), wk =   0.0190476
        k(   15) = (   0.0000000  -0.5773503   0.3616210), wk =   0.0190476
        k(   16) = (   0.0000000  -0.5773503   0.5424315), wk =   0.0190476
        k(   17) = (   0.2000000   0.1154701   0.0000000), wk =   0.0190476
        k(   18) = (   0.2000000   0.1154701   0.1808105), wk =   0.0380952
        k(   19) = (   0.2000000   0.1154701   0.3616210), wk =   0.0380952
        k(   20) = (   0.2000000   0.1154701   0.5424315), wk =   0.0380952
        k(   21) = (   0.2000000   0.3079201   0.0000000), wk =   0.0190476
        k(   22) = (   0.2000000   0.3079201   0.1808105), wk =   0.0380952
        k(   23) = (   0.2000000   0.3079201   0.3616210), wk =   0.0380952
        k(   24) = (   0.2000000   0.3079201   0.5424315), wk =   0.0380952
        k(   25) = (   0.2000000   0.5003702   0.0000000), wk =   0.0190476
        k(   26) = (   0.2000000   0.5003702   0.1808105), wk =   0.0380952
        k(   27) = (   0.2000000   0.5003702   0.3616210), wk =   0.0380952
        k(   28) = (   0.2000000   0.5003702   0.5424315), wk =   0.0380952
        k(   29) = (   0.2000000  -0.4618802   0.0000000), wk =   0.0190476
        k(   30) = (   0.2000000  -0.4618802   0.1808105), wk =   0.0380952
        k(   31) = (   0.2000000  -0.4618802   0.3616210), wk =   0.0380952
        k(   32) = (   0.2000000  -0.4618802   0.5424315), wk =   0.0380952
        k(   33) = (   0.2000000  -0.2694301   0.0000000), wk =   0.0190476
        k(   34) = (   0.2000000  -0.2694301   0.1808105), wk =   0.0380952
        k(   35) = (   0.2000000  -0.2694301   0.3616210), wk =   0.0380952
        k(   36) = (   0.2000000  -0.2694301   0.5424315), wk =   0.0380952
        k(   37) = (   0.2000000  -0.0769800   0.0000000), wk =   0.0190476
        k(   38) = (   0.2000000  -0.0769800   0.1808105), wk =   0.0380952
        k(   39) = (   0.2000000  -0.0769800   0.3616210), wk =   0.0380952
        k(   40) = (   0.2000000  -0.0769800   0.5424315), wk =   0.0380952
        k(   41) = (   0.4000000   0.2309401   0.0000000), wk =   0.0190476
        k(   42) = (   0.4000000   0.2309401   0.1808105), wk =   0.0380952
        k(   43) = (   0.4000000   0.2309401   0.3616210), wk =   0.0380952
        k(   44) = (   0.4000000   0.2309401   0.5424315), wk =   0.0380952
        k(   45) = (   0.4000000   0.4233902   0.0000000), wk =   0.0190476
        k(   46) = (   0.4000000   0.4233902   0.1808105), wk =   0.0380952
        k(   47) = (   0.4000000   0.4233902   0.3616210), wk =   0.0380952
        k(   48) = (   0.4000000   0.4233902   0.5424315), wk =   0.0380952
        k(   49) = (   0.4000000   0.6158403   0.0000000), wk =   0.0190476
        k(   50) = (   0.4000000   0.6158403   0.1808105), wk =   0.0380952
        k(   51) = (   0.4000000   0.6158403   0.3616210), wk =   0.0380952
        k(   52) = (   0.4000000   0.6158403   0.5424315), wk =   0.0380952
        k(   53) = (   0.4000000  -0.3464102   0.0000000), wk =   0.0190476
        k(   54) = (   0.4000000  -0.3464102   0.1808105), wk =   0.0380952
        k(   55) = (   0.4000000  -0.3464102   0.3616210), wk =   0.0380952
        k(   56) = (   0.4000000  -0.3464102   0.5424315), wk =   0.0380952
        k(   57) = (   0.4000000  -0.1539601   0.0000000), wk =   0.0190476
        k(   58) = (   0.4000000  -0.1539601   0.1808105), wk =   0.0380952
        k(   59) = (   0.4000000  -0.1539601   0.3616210), wk =   0.0380952
        k(   60) = (   0.4000000  -0.1539601   0.5424315), wk =   0.0380952
        k(   61) = (   0.4000000   0.0384900   0.0000000), wk =   0.0190476
        k(   62) = (   0.4000000   0.0384900   0.1808105), wk =   0.0380952
        k(   63) = (   0.4000000   0.0384900   0.3616210), wk =   0.0380952
        k(   64) = (   0.4000000   0.0384900   0.5424315), wk =   0.0380952

     Dense  grid:    40467 G-vectors     FFT dimensions: (  50,  50,  40)

     Largest allocated arrays     est. size (Mb)     dimensions
        Kohn-Sham Wavefunctions         1.29 Mb     (   1298,   65)
        NL pseudopotentials             3.17 Mb     (   1298,  160)
        Each V/rho on FFT grid          0.38 Mb     (  25000)
        Each G-vector array             0.08 Mb     (  10119)
        G-vector shells                 0.08 Mb     (  10119)
     Largest temporary arrays     est. size (Mb)     dimensions
        Each subspace H/S matrix        0.06 Mb     (  65,  65)
        Each <psi_i|beta_j> matrix      0.16 Mb     (    160,   65)
        Arrays for rho mixing           3.05 Mb     (  25000,   8)

     Initial potential from superposition of free atoms

     Starting from uniform charge
     Starting wfc are    0 randomized atomic wfcs

     total cpu time spent up to now is        7.1 secs

     Self-consistent Calculation

     iteration #  1     ecut=    40.00 Ry     beta=0.70
     CG style diagonalization
     c_bands:  2 eigenvalues not converged
     c_bands:  1 eigenvalues not converged
     c_bands:  1 eigenvalues not converged
     c_bands:  1 eigenvalues not converged
     c_bands:  1 eigenvalues not converged
     c_bands:  2 eigenvalues not converged
     c_bands:  1 eigenvalues not converged
     c_bands:  1 eigenvalues not converged
     c_bands:  2 eigenvalues not converged
     c_bands:  4 eigenvalues not converged
     c_bands:  4 eigenvalues not converged
     c_bands:  1 eigenvalues not converged
     c_bands:  2 eigenvalues not converged
     c_bands:  1 eigenvalues not converged
     c_bands:  1 eigenvalues not converged
     c_bands:  1 eigenvalues not converged
     c_bands:  2 eigenvalues not converged
     c_bands:  2 eigenvalues not converged
     c_bands:  4 eigenvalues not converged
     c_bands:  5 eigenvalues not converged
     c_bands:  4 eigenvalues not converged
     c_bands:  2 eigenvalues not converged
     c_bands:  1 eigenvalues not converged
     c_bands:  1 eigenvalues not converged
     c_bands:  5 eigenvalues not converged
     c_bands:  1 eigenvalues not converged
     c_bands:  4 eigenvalues not converged
     c_bands:  1 eigenvalues not converged
     c_bands:  2 eigenvalues not converged
     c_bands:  3 eigenvalues not converged
     c_bands:  2 eigenvalues not converged
     c_bands:  1 eigenvalues not converged
     c_bands:  2 eigenvalues not converged
     c_bands:  4 eigenvalues not converged
     c_bands:  3 eigenvalues not converged
     c_bands:  2 eigenvalues not converged
     c_bands:  3 eigenvalues not converged
     c_bands:  1 eigenvalues not converged
     c_bands:  1 eigenvalues not converged
     c_bands:  1 eigenvalues not converged
     c_bands:  5 eigenvalues not converged
     c_bands:  1 eigenvalues not converged
     ethr =  1.00E-02,  avg # of iterations = 11.5

     total cpu time spent up to now is      106.7 secs

     total energy              =    -358.00397151 Ry
     Harris-Foulkes estimate   =   -1113.85284296 Ry
     estimated scf accuracy    <     908.83566202 Ry

     iteration #  2     ecut=    40.00 Ry     beta=0.70
     CG style diagonalization
     c_bands:  5 eigenvalues not converged
     c_bands:  3 eigenvalues not converged
     c_bands:  3 eigenvalues not converged
     c_bands:  5 eigenvalues not converged
     c_bands:  5 eigenvalues not converged
     c_bands:  4 eigenvalues not converged
     c_bands:  5 eigenvalues not converged
     c_bands:  5 eigenvalues not converged
     c_bands:  4 eigenvalues not converged
     c_bands:  1 eigenvalues not converged
     c_bands:  3 eigenvalues not converged
     c_bands:  3 eigenvalues not converged
     c_bands:  4 eigenvalues not converged
     c_bands:  5 eigenvalues not converged
     c_bands:  4 eigenvalues not converged
     c_bands:  4 eigenvalues not converged
     c_bands:  3 eigenvalues not converged
     c_bands:  1 eigenvalues not converged
     c_bands:  2 eigenvalues not converged
     c_bands:  5 eigenvalues not converged
     c_bands:  3 eigenvalues not converged
     c_bands:  3 eigenvalues not converged
     c_bands:  2 eigenvalues not converged
     c_bands:  5 eigenvalues not converged
     c_bands:  2 eigenvalues not converged
     ethr =  1.00E-02,  avg # of iterations = 15.4

     total cpu time spent up to now is      233.7 secs

     total energy              =    -791.59219342 Ry
     Harris-Foulkes estimate   =   -1344.54663197 Ry
     estimated scf accuracy    <    1025.08195319 Ry

     iteration #  3     ecut=    40.00 Ry     beta=0.70
     CG style diagonalization
     ethr =  1.00E-02,  avg # of iterations =  9.9

     total cpu time spent up to now is      322.6 secs

     total energy              =    -853.64270603 Ry
     Harris-Foulkes estimate   =    -921.47300213 Ry
     estimated scf accuracy    <     161.14734932 Ry

     iteration #  4     ecut=    40.00 Ry     beta=0.70
     CG style diagonalization
     ethr =  1.00E-02,  avg # of iterations =  5.5

     total cpu time spent up to now is      370.0 secs

     total energy              =    -858.99896283 Ry
     Harris-Foulkes estimate   =    -873.88473102 Ry
     estimated scf accuracy    <      32.14339434 Ry

     iteration #  5     ecut=    40.00 Ry     beta=0.70
     CG style diagonalization
     ethr =  1.00E-02,  avg # of iterations =  4.4

     total cpu time spent up to now is      408.2 secs

     total energy              =    -865.64239634 Ry
     Harris-Foulkes estimate   =    -867.15020314 Ry
     estimated scf accuracy    <       3.34025526 Ry

     iteration #  6     ecut=    40.00 Ry     beta=0.70
     CG style diagonalization
     ethr =  3.09E-03,  avg # of iterations =  3.7

     total cpu time spent up to now is      440.0 secs

     total energy              =    -866.12843430 Ry
     Harris-Foulkes estimate   =    -866.27644023 Ry
     estimated scf accuracy    <       0.23779749 Ry

     iteration #  7     ecut=    40.00 Ry     beta=0.70
     CG style diagonalization
     c_bands:  3 eigenvalues not converged
     c_bands:  1 eigenvalues not converged
     c_bands:  1 eigenvalues not converged
     c_bands:  1 eigenvalues not converged
     c_bands:  1 eigenvalues not converged
     c_bands:  1 eigenvalues not converged
     c_bands:  3 eigenvalues not converged
     c_bands:  1 eigenvalues not converged
     c_bands:  1 eigenvalues not converged
     c_bands:  1 eigenvalues not converged
     c_bands:  1 eigenvalues not converged
     c_bands:  1 eigenvalues not converged
     c_bands:  2 eigenvalues not converged
     ethr =  2.20E-04,  avg # of iterations =  5.1

     total cpu time spent up to now is      485.6 secs

     total energy              =    -866.21051118 Ry
     Harris-Foulkes estimate   =    -866.24275773 Ry
     estimated scf accuracy    <       0.05276643 Ry

     iteration #  8     ecut=    40.00 Ry     beta=0.70
     CG style diagonalization
     c_bands:  1 eigenvalues not converged
     c_bands:  1 eigenvalues not converged
     c_bands:  1 eigenvalues not converged
     c_bands:  1 eigenvalues not converged
     c_bands:  1 eigenvalues not converged
     c_bands:  1 eigenvalues not converged
     c_bands:  1 eigenvalues not converged
     ethr =  4.89E-05,  avg # of iterations =  4.5

     total cpu time spent up to now is      526.2 secs

     total energy              =    -866.22123456 Ry
     Harris-Foulkes estimate   =    -866.25625287 Ry
     estimated scf accuracy    <       0.08314780 Ry

     iteration #  9     ecut=    40.00 Ry     beta=0.70
     CG style diagonalization
     ethr =  4.89E-05,  avg # of iterations =  3.5

     total cpu time spent up to now is      556.5 secs

     total energy              =    -866.23681628 Ry
     Harris-Foulkes estimate   =    -866.23692984 Ry
     estimated scf accuracy    <       0.00047666 Ry

     iteration # 10     ecut=    40.00 Ry     beta=0.70
     CG style diagonalization
     c_bands:  1 eigenvalues not converged
     c_bands:  1 eigenvalues not converged
     c_bands:  1 eigenvalues not converged
     c_bands:  1 eigenvalues not converged
     c_bands:  1 eigenvalues not converged
     c_bands:  1 eigenvalues not converged
     c_bands:  1 eigenvalues not converged
     c_bands:  1 eigenvalues not converged
     c_bands:  1 eigenvalues not converged
     c_bands:  1 eigenvalues not converged
     ethr =  4.41E-07,  avg # of iterations =  6.3

     total cpu time spent up to now is      613.1 secs

     total energy              =    -866.23677423 Ry
     Harris-Foulkes estimate   =    -866.23810901 Ry
     estimated scf accuracy    <       0.00260273 Ry

     iteration # 11     ecut=    40.00 Ry     beta=0.70
     CG style diagonalization
     c_bands:  1 eigenvalues not converged
     c_bands:  1 eigenvalues not converged
     c_bands:  1 eigenvalues not converged
     ethr =  4.41E-07,  avg # of iterations =  4.3

     total cpu time spent up to now is      649.3 secs

     total energy              =    -866.23746989 Ry
     Harris-Foulkes estimate   =    -866.23767212 Ry
     estimated scf accuracy    <       0.00053764 Ry

     iteration # 12     ecut=    40.00 Ry     beta=0.70
     CG style diagonalization
     ethr =  4.41E-07,  avg # of iterations =  3.4

     total cpu time spent up to now is      675.6 secs

     End of self-consistent calculation

          k = 0.0000 0.0000 0.0000 (  5047 PWs)   bands (ev):

   -47.7595 -47.7587 -18.7852 -18.7766 -18.7336 -18.7336 -18.7328 -18.7328
   -17.3650 -16.8392 -16.8392 -16.7715 -16.5476 -16.5475  -0.6469  -0.3769
     0.0513   0.4166   0.4166   0.5509   0.5510   0.6437   0.6437   1.3660
     1.7994   1.7994   2.2633   2.2634   2.2769   2.3017   2.3018   2.3898
    15.0759  15.0759  15.1070  15.4332  15.7350  15.7350  15.8582  16.0519
    16.0519  16.6513  16.7222  16.7222  16.9834  18.8412  19.6994  19.7408
    19.7408  20.0549  20.0549  20.7102  20.9985  20.9986  21.0955  21.8701
    21.8702  21.9519  21.9520  22.5556  22.6824  22.6825  24.5498  25.2969
    25.6876

          k = 0.0000 0.0000 0.1808 (  5065 PWs)   bands (ev):

   -47.7607 -47.7598 -18.7878 -18.7843 -18.7393 -18.7393 -18.7317 -18.7317
   -17.3311 -16.8270 -16.8270 -16.7968 -16.5636 -16.5635  -0.6244  -0.4102
     0.1510   0.1510   0.1734   0.5145   0.5146   0.9148   0.9148   1.4120
     1.8643   1.8643   2.1322   2.2559   2.2559   2.3184   2.3185   2.3323
    15.1569  15.1569  15.2009  15.4368  15.4369  15.4949  15.9146  16.1073
    16.2673  16.2673  16.7012  16.7012  18.0632  18.4224  19.5262  19.9482
    19.9482  19.9954  19.9954  20.4051  20.6353  20.6353  20.9570  20.9934
    20.9935  22.5811  22.5811  23.3765  23.3766  23.6598  24.0224  25.1977
    25.1980

          k = 0.0000 0.0000 0.3616 (  5047 PWs)   bands (ev):

   -47.7602 -47.7584 -18.7936 -18.7885 -18.7332 -18.7332 -18.7330 -18.7330
   -17.2381 -16.8686 -16.7904 -16.7903 -16.6079 -16.6078  -0.5658  -0.4447
    -0.0344  -0.0344   0.2590   0.2590   0.4570   1.3692   1.3692   1.5416
     1.7598   1.9472   1.9473   2.1770   2.2423   2.2423   2.3377   2.3377
    15.2079  15.2079  15.3640  15.3640  15.4306  15.5046  15.6458  16.3499
    16.3500  16.5086  16.5086  16.6356  17.5305  18.6135  19.8295  19.8295
    19.9560  20.0159  20.0159  20.0489  20.1790  20.1790  20.9355  20.9355
    21.6784  22.6865  22.6865  22.7752  24.6646  24.6655  24.7133  24.7149
    24.8290

          k = 0.0000 0.0000 0.5424 (  5041 PWs)   bands (ev):

   -47.7599 -47.7582 -18.8044 -18.7986 -18.7300 -18.7300 -18.7290 -18.7290
   -17.1106 -16.9796 -16.7346 -16.7346 -16.6699 -16.6698  -0.5032  -0.4655
    -0.0705  -0.0705   0.0383   0.0383   0.8371   1.2913   1.7359   1.7525
     1.7525   1.9420   1.9421   1.9625   2.2420   2.2420   2.2950   2.2951
    15.2964  15.2964  15.5077  15.5077  15.6050  15.6703  15.7678  16.1834
    16.1834  16.2034  16.2371  16.2371  17.6622  18.1358  19.7694  19.7694
    19.9584  19.9584  20.1757  20.1757  20.2260  20.6700  20.6700  21.2458
    21.9354  22.8209  23.4827  23.4828  23.8687  24.3139  24.4059  24.4074
    24.6839

          k = 0.0000 0.1925 0.0000 (  5083 PWs)   bands (ev):

   -47.7619 -47.7605 -18.7871 -18.7806 -18.7475 -18.7435 -18.7347 -18.7345
   -17.3313 -16.8700 -16.8368 -16.7639 -16.5548 -16.5481  -0.5267  -0.3512
     0.1451   0.4043   0.4527   0.5115   0.5404   0.6664   0.7527   1.3087
     1.7686   1.8129   2.0325   2.1663   2.1668   2.2751   2.3196   2.3538
    15.1746  15.3241  15.3671  15.6357  15.7303  15.7923  16.0864  16.1229
    16.2163  16.4617  16.7167  16.7840  17.4511  18.8884  19.4838  19.8221
    19.8880  20.0209  20.2953  20.4262  20.7032  21.1500  21.1653  21.3220
    21.5684  21.6612  21.9664  22.1964  22.5831  22.5920  23.5282  24.9219
    25.1375

          k = 0.0000 0.1925 0.1808 (  5077 PWs)   bands (ev):

   -47.7619 -47.7599 -18.7884 -18.7869 -18.7449 -18.7425 -18.7358 -18.7315
   -17.2984 -16.8566 -16.8243 -16.7856 -16.5734 -16.5642  -0.5051  -0.3614
     0.1330   0.1897   0.2432   0.5270   0.6084   0.8871   0.8909   1.3784
     1.7883   1.8634   2.0350   2.1575   2.1755   2.2267   2.2796   2.3325
    15.2445  15.3902  15.4477  15.5330  15.5448  15.6912  16.0193  16.2880
    16.3529  16.3748  16.6689  16.6778  18.2922  18.5485  19.5006  19.7331
    19.9103  19.9676  20.2371  20.2492  20.4762  20.4817  20.7939  21.0657
    21.1943  22.2537  22.5761  22.7434  22.9539  23.1995  23.3059  24.7385
    24.8157

          k = 0.0000 0.1925 0.3616 (  5061 PWs)   bands (ev):

   -47.7612 -47.7589 -18.7969 -18.7899 -18.7417 -18.7403 -18.7338 -18.7282
   -17.2094 -16.8579 -16.8118 -16.7882 -16.6229 -16.6078  -0.4531  -0.3713
    -0.0434   0.0166   0.2559   0.3435   0.5100   1.2333   1.3290   1.6024
     1.6897   1.8725   1.9647   2.0600   2.1370   2.2151   2.2525   2.3519
    15.2899  15.3264  15.4679  15.6086  15.6257  15.6839  15.8668  16.3684
    16.4426  16.5000  16.5147  16.7480  17.7878  18.8679  19.3193  19.7028
    19.7827  19.8403  20.1076  20.1364  20.4018  20.4603  20.9570  21.1314
    21.2386  21.9257  22.5852  22.7544  23.4758  23.6357  24.1571  24.4387
    24.8021

          k = 0.0000 0.1925 0.5424 (  5050 PWs)   bands (ev):

   -47.7603 -47.7588 -18.8028 -18.7978 -18.7359 -18.7352 -18.7342 -18.7280
   -17.0868 -16.9602 -16.7563 -16.7335 -16.6887 -16.6691  -0.4011  -0.3758
    -0.0746  -0.0081   0.0342   0.1117   0.8693   1.2955   1.4988   1.6987
     1.7238   1.8745   1.9060   2.0825   2.1010   2.2085   2.2102   2.3055
    15.3893  15.4276  15.5620  15.6958  15.7575  15.8445  15.9689  16.2240
    16.2400  16.2460  16.3636  16.3943  17.9604  18.4005  19.4100  19.6029
    19.8764  19.8821  20.1117  20.1693  20.3376  20.7634  20.8207  21.1212
    21.9687  22.1024  22.5695  23.2035  23.2726  23.3461  23.9333  24.1438
    24.7577

          k = 0.0000 0.3849 0.0000 (  5079 PWs)   bands (ev):

   -47.7624 -47.7600 -18.7823 -18.7777 -18.7612 -18.7499 -18.7371 -18.7345
   -17.2423 -16.9552 -16.8308 -16.7399 -16.5728 -16.5487  -0.2915  -0.2259
     0.2541   0.4250   0.4925   0.5215   0.5774   0.8064   1.0124   1.1620
     1.5317   1.7232   1.7588   1.8408   1.9097   2.1491   2.3627   2.3927
    15.3983  15.7217  15.8501  15.9123  15.9343  16.0213  16.3326  16.3618
    16.5568  16.6821  16.7057  17.2186  18.2253  18.6189  19.2908  19.7246
    19.9211  20.1285  20.1447  20.2417  20.3889  20.3983  20.5148  21.2335
    21.3511  21.5383  21.5843  22.1490  22.3647  22.5328  22.8114  23.9100
    24.4007

          k = 0.0000 0.3849 0.1808 (  5090 PWs)   bands (ev):

   -47.7626 -47.7608 -18.7881 -18.7869 -18.7581 -18.7492 -18.7386 -18.7336
   -17.2135 -16.9393 -16.8190 -16.7549 -16.5984 -16.5646  -0.2594  -0.2284
     0.1205   0.2962   0.3447   0.6778   0.7922   0.8652   0.8675   1.2992
     1.4982   1.6267   1.7774   1.9518   1.9961   2.2003   2.2897   2.3373
    15.4431  15.6708  15.7826  15.9767  16.0046  16.0436  16.1118  16.4969
    16.5782  16.6640  16.8478  16.9463  18.7119  18.7945  18.9870  19.5143
    19.7173  19.8965  20.0231  20.1353  20.2080  20.5218  20.5689  21.1976
    21.3844  21.9205  22.1982  22.2574  22.3364  22.6055  22.6551  23.7801
    24.2488

          k = 0.0000 0.3849 0.3616 (  5078 PWs)   bands (ev):

   -47.7620 -47.7601 -18.8001 -18.7945 -18.7488 -18.7440 -18.7371 -18.7318
   -17.1347 -16.8993 -16.7991 -16.7838 -16.6630 -16.6077  -0.2761  -0.1886
     0.0443   0.1509   0.2521   0.5558   0.6850   1.0017   1.1763   1.5107
     1.5767   1.6054   1.7146   2.0323   2.0712   2.0942   2.2371   2.3321
    15.4924  15.6152  15.7657  15.8825  16.0998  16.1600  16.1800  16.3830
    16.4429  16.7245  16.8091  17.1190  18.2876  18.7329  19.0870  19.3679
    19.7413  19.7527  20.0707  20.2845  20.4280  20.4787  20.7053  21.0909
    21.4142  21.5917  21.9350  22.3974  22.5431  22.6003  23.3838  23.7722
    24.0962

          k = 0.0000 0.3849 0.5424 (  5051 PWs)   bands (ev):

   -47.7603 -47.7588 -18.8042 -18.7993 -18.7393 -18.7364 -18.7359 -18.7313
   -17.0243 -16.9150 -16.8078 -16.7398 -16.7303 -16.6674  -0.2722  -0.2028
     0.0619   0.1110   0.1510   0.2960   0.9206   1.1758   1.2095   1.4269
     1.5711   1.6510   1.8994   2.0059   2.0619   2.1543   2.1560   2.3005
    15.6038  15.7043  15.7565  15.9760  15.9855  16.0652  16.1452  16.3265
    16.4600  16.6659  16.8432  16.9811  18.4974  18.7359  18.9278  19.2213
    19.5061  19.9579  19.9997  20.4012  20.4041  20.7976  20.9444  21.1595
    21.3399  21.3666  21.6955  22.0370  22.7485  22.7678  23.2573  23.5692
    24.3379

          k = 0.0000-0.5774 0.0000 (  5068 PWs)   bands (ev):

   -47.7610 -47.7603 -18.7838 -18.7796 -18.7612 -18.7521 -18.7386 -18.7290
   -17.1637 -17.0313 -16.8282 -16.7244 -16.5852 -16.5483  -0.2566  -0.0151
     0.2199   0.3754   0.5120   0.6869   0.6982   0.9988   1.1239   1.1326
     1.2839   1.3397   1.6565   1.7049   1.8537   2.1052   2.3654   2.4250
    15.5600  15.7177  15.8409  15.9210  16.3863  16.3966  16.4083  16.4564
    16.6764  16.6987  17.5428  17.7573  17.8049  18.9513  19.0946  19.2430
    19.3733  19.9192  19.9614  20.0007  20.0193  20.1904  20.9169  21.1436
    21.2324  21.5837  21.7794  22.2301  22.6175  22.9329  22.9629  23.0034
    23.5727

          k = 0.0000-0.5774 0.1808 (  5072 PWs)   bands (ev):

   -47.7609 -47.7607 -18.7878 -18.7847 -18.7570 -18.7509 -18.7372 -18.7331
   -17.1390 -17.0118 -16.8160 -16.7342 -16.6162 -16.5642  -0.1938  -0.1202
     0.2125   0.3433   0.3771   0.7415   0.8755   1.0214   1.0635   1.1601
     1.2286   1.2602   1.6215   1.8756   1.9665   2.1703   2.3243   2.3373
    15.5865  15.7513  15.9493  15.9667  16.1268  16.3941  16.4256  16.4706
    16.5669  16.7337  17.5981  17.6383  18.0700  18.4302  19.1186  19.5025
    19.5935  19.6289  19.7311  19.8174  20.1317  20.4987  21.0345  21.2300
    21.3684  21.9436  22.0209  22.1205  22.2296  22.8761  23.0233  23.1463
    23.2589

          k = 0.0000-0.5774 0.3616 (  5090 PWs)   bands (ev):

   -47.7619 -47.7614 -18.7997 -18.7994 -18.7527 -18.7460 -18.7399 -18.7335
   -17.0684 -16.9621 -16.7817 -16.7628 -16.6996 -16.6079  -0.2524  -0.0900
     0.1902   0.2498   0.3300   0.7125   0.8640   0.8651   0.9975   1.2720
     1.4112   1.4163   1.7157   2.0304   2.0445   2.0570   2.2666   2.3039
    15.6648  15.8101  15.9031  16.0335  16.1601  16.2654  16.3109  16.3425
    16.5430  16.8500  17.5361  17.7952  17.9112  18.5536  18.9017  19.0078
    19.6844  19.6898  19.8083  19.9440  20.3131  21.1448  21.1700  21.2865
    21.2889  21.6711  21.7111  22.2842  22.4397  22.4536  22.5158  23.3782
    23.5849

          k = 0.0000-0.5774 0.5424 (  5080 PWs)   bands (ev):

   -47.7617 -47.7605 -18.8044 -18.8026 -18.7506 -18.7436 -18.7368 -18.7340
   -16.9667 -16.9097 -16.8062 -16.8030 -16.7289 -16.6672  -0.2659  -0.1627
     0.2532   0.2636   0.3122   0.4264   0.8904   0.9700   1.0468   1.2519
     1.3935   1.6312   1.8268   2.0021   2.0644   2.1054   2.1847   2.2898
    15.7854  15.8588  15.8722  16.0054  16.1071  16.1138  16.1464  16.3109
    16.7103  16.8544  17.6139  17.6946  18.2115  18.6777  18.8058  18.9353
    19.3120  19.3893  20.0193  20.4353  20.6463  20.8523  21.1664  21.2038
    21.3643  21.5836  21.8646  21.8913  22.1588  22.1893  22.2506  22.9485
    23.5352

          k = 0.2000 0.1155 0.0000 (  5087 PWs)   bands (ev):

   -47.7623 -47.7606 -18.7863 -18.7798 -18.7518 -18.7442 -18.7376 -18.7342
   -17.3172 -16.8834 -16.8357 -16.7602 -16.5575 -16.5483  -0.4763  -0.3407
     0.1791   0.4040   0.4707   0.4960   0.5369   0.6800   0.7967   1.2845
     1.7587   1.8182   1.9451   2.1026   2.1297   2.2468   2.3347   2.3552
    15.2125  15.4263  15.4782  15.7085  15.7286  15.8104  16.1410  16.1917
    16.2809  16.4199  16.7146  16.8429  17.5881  18.8925  19.4113  19.8502
    19.9433  20.0165  20.3558  20.3783  20.6185  21.0901  21.1022  21.1908
    21.4449  21.5959  22.0027  22.0566  22.5467  22.5502  23.3272  24.7401
    25.0121

          k = 0.2000 0.1155 0.1808 (  5078 PWs)   bands (ev):

   -47.7620 -47.7600 -18.7883 -18.7869 -18.7475 -18.7441 -18.7373 -18.7295
   -17.2848 -16.8699 -16.8231 -16.7805 -16.5775 -16.5641  -0.4561  -0.3426
     0.1267   0.2067   0.2693   0.5386   0.6472   0.8757   0.8825   1.3650
     1.7568   1.8596   1.9556   2.1212   2.1420   2.2286   2.2622   2.3342
    15.2776  15.4773  15.5530  15.5778  15.5876  15.7603  16.0499  16.3401
    16.4191  16.4231  16.6668  16.6683  18.3783  18.6040  19.4232  19.7246
    19.8667  19.9793  20.1897  20.2503  20.4460  20.4660  20.8091  21.0165
    21.2238  22.1555  22.5609  22.5657  22.8176  22.9987  23.1711  24.6356
    24.6404

          k = 0.2000 0.1155 0.3616 (  5067 PWs)   bands (ev):

   -47.7615 -47.7593 -18.7977 -18.7915 -18.7440 -18.7409 -18.7350 -18.7286
   -17.1974 -16.8568 -16.8174 -16.7874 -16.6293 -16.6078  -0.4091  -0.3428
    -0.0415   0.0383   0.2539   0.3784   0.5347   1.1890   1.3099   1.6146
     1.6610   1.8373   1.9356   2.0238   2.1215   2.2163   2.2185   2.3509
    15.3225  15.3763  15.5162  15.6844  15.7053  15.7644  15.9521  16.3872
    16.4511  16.5179  16.5240  16.7929  17.8955  18.9551  19.1870  19.6252
    19.7384  19.8284  20.0926  20.2008  20.4360  20.5733  20.9149  21.1445
    21.1746  21.6999  22.4868  22.7188  23.2415  23.3798  24.0048  24.3979
    24.6241

          k = 0.2000 0.1155 0.5424 (  5053 PWs)   bands (ev):

   -47.7605 -47.7590 -18.8036 -18.7977 -18.7381 -18.7349 -18.7330 -18.7310
   -17.0766 -16.9523 -16.7652 -16.7329 -16.6967 -16.6690  -0.3632  -0.3417
    -0.0686   0.0182   0.0363   0.1423   0.8810   1.2904   1.4414   1.6666
     1.6776   1.8386   1.9293   2.0542   2.1006   2.1768   2.1997   2.3067
    15.4254  15.4787  15.5928  15.7638  15.8037  15.9026  16.0329  16.2490
    16.2631  16.3040  16.4146  16.4609  18.0768  18.5006  19.2850  19.5144
    19.7970  19.9027  20.1419  20.1643  20.4275  20.7907  20.8145  21.0809
    21.8861  21.8975  22.3375  22.9462  23.1696  23.2001  23.8824  24.0554
    24.7488

          k = 0.2000 0.3079 0.0000 (  5075 PWs)   bands (ev):

   -47.7618 -47.7601 -18.7817 -18.7788 -18.7597 -18.7481 -18.7398 -18.7309
   -17.2516 -16.9254 -16.8671 -16.7241 -16.5639 -16.5584  -0.2967  -0.2460
     0.3213   0.4445   0.4616   0.4749   0.5088   0.7773   1.0203   1.1483
     1.6363   1.7255   1.7395   1.8262   2.1128   2.1440   2.2430   2.3891
    15.5355  15.6181  15.6331  15.9656  16.0155  16.0520  16.2465  16.3574
    16.4819  16.6308  16.6924  17.1733  18.1350  18.8796  19.3273  19.3709
    19.8739  20.1277  20.3039  20.3580  20.4349  20.7289  20.8779  20.8958
    21.0328  21.1002  21.8305  22.3261  22.3597  22.4914  23.0119  23.9025
    24.1213

          k = 0.2000 0.3079 0.1808 (  5088 PWs)   bands (ev):

   -47.7622 -47.7610 -18.7882 -18.7877 -18.7564 -18.7472 -18.7395 -18.7332
   -17.2221 -16.9101 -16.8582 -16.7381 -16.5880 -16.5740  -0.2646  -0.2351
     0.1154   0.2561   0.3932   0.5612   0.8215   0.8418   0.8884   1.2914
     1.5807   1.6057   1.8753   1.9055   2.1556   2.1786   2.2228   2.2867
    15.5613  15.6314  15.6780  15.8241  16.0009  16.0964  16.1952  16.3673
    16.5938  16.6106  16.7995  16.9100  18.6966  18.8895  19.2401  19.4241
    19.6149  19.7188  19.9053  20.1852  20.3933  20.5475  20.6345  21.1550
    21.2921  21.9161  22.2263  22.2899  22.5250  22.6228  22.6772  23.5592
    24.0434

          k = 0.2000 0.3079 0.3616 (  5068 PWs)   bands (ev):

   -47.7616 -47.7595 -18.7989 -18.7932 -18.7476 -18.7410 -18.7356 -18.7327
   -17.1424 -16.8671 -16.8486 -16.7648 -16.6487 -16.6161  -0.2297  -0.2079
    -0.0273   0.1023   0.3379   0.4384   0.7069   0.9858   1.2820   1.4820
     1.5313   1.6395   1.8932   1.9609   2.0387   2.1346   2.2418   2.2931
    15.5440  15.5813  15.7479  15.8962  15.9286  16.1749  16.2926  16.3641
    16.4458  16.4618  16.8777  17.0622  18.3657  18.7719  19.2439  19.3981
    19.4562  19.7632  20.1510  20.2459  20.3183  20.3594  20.9278  21.1216
    21.5092  21.5621  21.8601  22.3325  22.5991  22.8776  23.2049  23.7691
    23.9588

          k = 0.2000 0.3079 0.5424 (  5058 PWs)   bands (ev):

   -47.7603 -47.7597 -18.8030 -18.8006 -18.7406 -18.7381 -18.7342 -18.7337
   -17.0307 -16.9174 -16.8028 -16.7491 -16.7123 -16.6733  -0.2125  -0.1851
    -0.0435  -0.0012   0.2107   0.2806   0.9215   1.1225   1.3435   1.4074
     1.6052   1.7693   1.8937   1.9317   2.0222   2.1349   2.2336   2.2677
    15.6406  15.6598  15.7708  15.9267  16.0279  16.0393  16.1879  16.3287
    16.3810  16.4614  16.8569  16.9160  18.5793  18.7959  19.0525  19.1133
    19.5348  19.8097  20.1377  20.2594  20.3672  20.5953  21.0634  21.2040
    21.4103  21.4878  21.6211  22.1618  22.7940  22.9901  23.0779  23.6063
    24.0716

          k = 0.2000 0.5004 0.0000 (  5072 PWs)   bands (ev):

   -47.7612 -47.7605 -18.7806 -18.7785 -18.7634 -18.7505 -18.7424 -18.7330
   -17.1614 -16.9923 -16.9019 -16.6740 -16.5854 -16.5651  -0.2512   0.0637
     0.3642   0.4005   0.4742   0.5566   0.6406   0.8475   0.9652   1.1962
     1.3718   1.4873   1.7388   1.8221   1.8762   2.0049   2.1838   2.4324
    15.5272  15.8102  16.1252  16.1280  16.1952  16.3758  16.4039  16.4726
    16.5925  16.6633  17.4009  17.6569  18.3342  18.9282  18.9292  19.4170
    19.5383  19.7466  19.7753  20.0209  20.2718  20.4407  20.5623  20.8317
    20.9246  21.0468  21.6538  22.3456  22.6375  22.7550  22.9694  23.2812
    23.6620

          k = 0.2000 0.5004 0.1808 (  5079 PWs)   bands (ev):

   -47.7619 -47.7606 -18.7869 -18.7848 -18.7607 -18.7480 -18.7421 -18.7346
   -17.1367 -16.9750 -16.8898 -16.6845 -16.6086 -16.5862  -0.1823   0.0024
     0.1887   0.3134   0.4094   0.6163   0.8503   0.9164   1.1056   1.1656
     1.2152   1.3449   1.7983   1.9020   1.9883   2.0888   2.1706   2.3341
    15.6399  15.8404  16.0652  16.1452  16.1946  16.2688  16.4427  16.4804
    16.5188  16.6099  17.4636  17.5186  18.5418  18.6876  19.2335  19.2802
    19.4266  19.6136  19.6893  19.7921  20.2605  20.3114  20.6974  21.1946
    21.3943  21.6338  21.7243  22.3465  22.4365  22.5584  22.6516  23.1726
    23.3643

          k = 0.2000 0.5004 0.3616 (  5085 PWs)   bands (ev):

   -47.7623 -47.7608 -18.7996 -18.7977 -18.7542 -18.7424 -18.7411 -18.7347
   -17.0663 -16.9292 -16.8604 -16.7174 -16.6791 -16.6288  -0.1338  -0.0238
     0.0938   0.1877   0.3591   0.5204   0.8723   0.9541   1.1549   1.2003
     1.3367   1.5118   1.7662   1.9700   2.0397   2.0772   2.2037   2.2594
    15.7934  15.8859  16.0114  16.0920  16.2099  16.2601  16.3349  16.3707
    16.4632  16.6250  17.4526  17.6696  18.2602  18.8029  19.0331  19.1418
    19.3241  19.5837  19.8838  20.0918  20.3097  20.5645  20.9497  21.2310
    21.4951  21.5519  21.7955  21.8143  22.3622  22.4210  22.4561  23.3566
    23.5654

          k = 0.2000 0.5004 0.5424 (  5080 PWs)   bands (ev):

   -47.7614 -47.7608 -18.8047 -18.8038 -18.7473 -18.7422 -18.7385 -18.7358
   -16.9639 -16.8857 -16.8432 -16.7943 -16.7134 -16.6803  -0.1463  -0.0390
     0.0727   0.1517   0.3337   0.3774   0.9312   0.9513   1.1933   1.2077
     1.5385   1.6244   1.7963   1.8209   2.0700   2.1020   2.2002   2.2635
    15.8763  15.9285  15.9563  16.0343  16.1214  16.1678  16.2301  16.3095
    16.6107  16.6978  17.5398  17.6624  18.3880  18.7843  18.9769  19.1123
    19.4688  19.6225  19.9993  20.1391  20.3840  20.5940  20.6649  21.0255
    21.3010  21.4080  21.6303  21.8620  22.1254  22.2719  22.4565  23.1309
    23.8429

          k = 0.2000-0.4619 0.0000 (  5078 PWs)   bands (ev):

   -47.7618 -47.7605 -18.7816 -18.7795 -18.7638 -18.7506 -18.7423 -18.7328
   -17.1774 -16.9787 -16.8986 -16.6821 -16.5802 -16.5651  -0.2577   0.0110
     0.3746   0.4063   0.4788   0.5285   0.5966   0.8734   0.9652   1.2688
     1.3095   1.5179   1.7381   1.8232   1.9346   2.0257   2.1850   2.4269
    15.5407  15.7771  16.0206  16.1073  16.1862  16.3560  16.3699  16.4755
    16.5563  16.6670  17.2415  17.5789  18.4842  18.7603  18.9824  19.4050
    19.6232  19.7807  19.9024  20.0802  20.3349  20.4760  20.5825  20.8424
    20.9483  20.9894  21.6823  22.3171  22.6861  22.7997  22.9800  23.1961
    23.6028

          k = 0.2000-0.4619 0.1808 (  5075 PWs)   bands (ev):

   -47.7616 -47.7604 -18.7867 -18.7850 -18.7599 -18.7468 -18.7412 -18.7331
   -17.1517 -16.9617 -16.8867 -16.6934 -16.6030 -16.5853  -0.1941  -0.0193
     0.1467   0.3056   0.4447   0.5887   0.8404   0.8853   1.1177   1.1646
     1.2628   1.3816   1.8187   1.8927   2.0251   2.1012   2.1708   2.3284
    15.6380  15.8117  15.9969  16.1007  16.1520  16.2641  16.4089  16.4747
    16.5267  16.6085  17.3303  17.4112  18.6556  18.7852  19.2001  19.2426
    19.4199  19.6313  19.7439  19.9128  20.2077  20.3196  20.6511  21.2919
    21.4230  21.6617  21.7340  22.3843  22.4600  22.5623  22.7341  23.0998
    23.2856

          k = 0.2000-0.4619 0.3616 (  5078 PWs)   bands (ev):

   -47.7620 -47.7603 -18.7984 -18.7970 -18.7535 -18.7418 -18.7388 -18.7345
   -17.0799 -16.9163 -16.8595 -16.7275 -16.6713 -16.6272  -0.1411  -0.0413
     0.0551   0.1626   0.3845   0.5039   0.8606   0.9190   1.1997   1.2497
     1.3391   1.5434   1.7874   1.9573   2.0557   2.0762   2.2087   2.2628
    15.7525  15.8375  15.9802  16.0585  16.1739  16.2713  16.3550  16.3763
    16.4333  16.5915  17.3504  17.5468  18.3489  18.7449  19.1649  19.1889
    19.3336  19.6280  19.8595  20.1190  20.2773  20.4472  20.9388  21.2378
    21.5013  21.6881  21.8827  21.9524  22.3039  22.3803  22.5391  23.3330
    23.5509

          k = 0.2000-0.4619 0.5424 (  5069 PWs)   bands (ev):

   -47.7609 -47.7601 -18.8040 -18.8028 -18.7453 -18.7399 -18.7366 -18.7354
   -16.9767 -16.8852 -16.8413 -16.7850 -16.7133 -16.6793  -0.1477  -0.0436
     0.0347   0.0984   0.3414   0.3739   0.9404   0.9479   1.2175   1.2435
     1.5471   1.6574   1.8011   1.8308   2.0626   2.1095   2.2063   2.2627
    15.8341  15.8874  15.9313  16.0268  16.1100  16.1795  16.2078  16.3221
    16.5639  16.6575  17.4198  17.5324  18.4711  18.7896  19.0245  19.1449
    19.5127  19.6388  19.9857  20.1052  20.2638  20.6366  20.6595  21.0529
    21.3620  21.5026  21.8568  21.9563  22.0663  22.2208  22.5078  23.1938
    23.8093

          k = 0.2000-0.2694 0.0000 (  5077 PWs)   bands (ev):

   -47.7616 -47.7605 -18.7821 -18.7785 -18.7573 -18.7500 -18.7386 -18.7313
   -17.2682 -16.9158 -16.8569 -16.7345 -16.5631 -16.5546  -0.3073  -0.3053
     0.2866   0.4418   0.4553   0.4787   0.5169   0.7503   0.9592   1.1880
     1.7157   1.7418   1.7981   1.8259   2.1363   2.1584   2.2792   2.3774
    15.4403  15.5735  15.6599  15.9245  15.9264  15.9392  16.2244  16.3621
    16.4453  16.5122  16.6992  17.0806  18.0002  18.8910  19.3438  19.4804
    19.9454  20.1769  20.3603  20.3746  20.4142  20.7477  20.9441  20.9869
    21.1368  21.1988  21.8395  22.2344  22.4114  22.4678  23.0384  24.0854
    24.3690

          k = 0.2000-0.2694 0.1808 (  5087 PWs)   bands (ev):

   -47.7624 -47.7606 -18.7882 -18.7879 -18.7562 -18.7465 -18.7383 -18.7319
   -17.2383 -16.9007 -16.8479 -16.7493 -16.5861 -16.5705  -0.2920  -0.2831
     0.1176   0.2448   0.3612   0.5593   0.7990   0.8335   0.8733   1.3128
     1.6304   1.6881   1.8782   1.9335   2.1562   2.2005   2.2599   2.2733
    15.4851  15.5923  15.6534  15.7641  15.9492  15.9798  16.1546  16.3660
    16.5867  16.6172  16.7041  16.8032  18.6303  18.8106  19.2788  19.5308
    19.6847  19.8391  19.8857  20.2197  20.4651  20.5286  20.7037  21.1174
    21.2183  22.0073  22.2199  22.3541  22.5494  22.6785  22.7859  23.7905
    24.2385

          k = 0.2000-0.2694 0.3616 (  5068 PWs)   bands (ev):

   -47.7617 -47.7594 -18.7983 -18.7920 -18.7475 -18.7412 -18.7355 -18.7321
   -17.1565 -16.8622 -16.8406 -16.7724 -16.6446 -16.6132  -0.2685  -0.2471
    -0.0311   0.0896   0.3081   0.4313   0.6572   1.0346   1.2854   1.5247
     1.6066   1.6512   1.8974   1.9954   2.0347   2.1450   2.2466   2.3076
    15.4857  15.5258  15.6915  15.8340  15.8878  16.0933  16.2107  16.3745
    16.4518  16.4794  16.7744  16.9785  18.2517  18.8578  19.2591  19.3610
    19.4965  19.8290  20.2035  20.2339  20.3525  20.4701  20.9026  21.0895
    21.3641  21.6142  21.8735  22.5177  22.7034  22.9557  23.4962  23.8680
    24.1282

          k = 0.2000-0.2694 0.5424 (  5058 PWs)   bands (ev):

   -47.7605 -47.7594 -18.8035 -18.8011 -18.7405 -18.7369 -18.7344 -18.7319
   -17.0426 -16.9263 -16.7933 -16.7423 -16.7111 -16.6716  -0.2477  -0.2254
    -0.0514   0.0029   0.1656   0.2465   0.9132   1.1786   1.3538   1.4688
     1.6227   1.7795   1.9212   1.9807   2.0124   2.1367   2.2311   2.2773
    15.5841  15.6144  15.7264  15.8907  15.9785  16.0146  16.1652  16.3163
    16.3486  16.4273  16.7299  16.7809  18.4568  18.7814  19.0456  19.1972
    19.5846  19.8264  20.2210  20.2393  20.4625  20.5962  21.0504  21.1152
    21.4807  21.5974  21.6810  22.3005  22.8978  23.0678  23.3221  23.7425
    24.2590

          k = 0.2000-0.0770 0.0000 (  5083 PWs)   bands (ev):

   -47.7620 -47.7605 -18.7860 -18.7803 -18.7497 -18.7452 -18.7357 -18.7330
   -17.3236 -16.8767 -16.8372 -16.7613 -16.5562 -16.5483  -0.4988  -0.3454
     0.1649   0.4050   0.4597   0.5032   0.5381   0.6743   0.7771   1.2952
     1.7634   1.8157   1.9881   2.1016   2.1785   2.2587   2.3281   2.3491
    15.2019  15.3592  15.4429  15.6778  15.7260  15.8064  16.1229  16.1537
    16.2516  16.4370  16.7152  16.8164  17.5277  18.8944  19.4518  19.7751
    19.9717  20.0236  20.3331  20.3854  20.6576  21.1340  21.1768  21.2041
    21.4860  21.6126  21.9915  22.1241  22.5586  22.5704  23.4136  24.8153
    25.0493

          k = 0.2000-0.0770 0.1808 (  5080 PWs)   bands (ev):

   -47.7619 -47.7603 -18.7886 -18.7874 -18.7466 -18.7433 -18.7360 -18.7318
   -17.2909 -16.8632 -16.8253 -16.7820 -16.5755 -16.5643  -0.4780  -0.3509
     0.1298   0.1980   0.2585   0.5314   0.6308   0.8803   0.8864   1.3708
     1.7716   1.8603   1.9953   2.1152   2.1831   2.2262   2.2691   2.3285
    15.2691  15.4224  15.5163  15.5535  15.5718  15.7305  16.0386  16.3118
    16.3841  16.4093  16.6667  16.6721  18.3403  18.5793  19.4723  19.7161
    19.8683  19.9905  20.2194  20.2355  20.4299  20.5138  20.7896  21.0548
    21.2036  22.2056  22.5333  22.6682  22.8697  23.0914  23.2316  24.6167
    24.7585

          k = 0.2000-0.0770 0.3616 (  5063 PWs)   bands (ev):

   -47.7614 -47.7589 -18.7978 -18.7907 -18.7423 -18.7396 -18.7342 -18.7291
   -17.2028 -16.8564 -16.8162 -16.7873 -16.6261 -16.6080  -0.4281  -0.3554
    -0.0431   0.0278   0.2573   0.3600   0.5243   1.2070   1.3209   1.6075
     1.6758   1.8484   1.9607   2.0366   2.1264   2.1987   2.2505   2.3488
    15.3110  15.3520  15.4959  15.6370  15.6802  15.7293  15.9159  16.3728
    16.4544  16.5029  16.5234  16.7726  17.8477  18.9198  19.2493  19.6469
    19.7269  19.8674  20.0992  20.1799  20.4028  20.5312  20.9384  21.1467
    21.1927  21.8231  22.4467  22.8041  23.3370  23.4906  24.0733  24.4169
    24.6708

          k = 0.2000-0.0770 0.5424 (  5055 PWs)   bands (ev):

   -47.7604 -47.7593 -18.8029 -18.7990 -18.7368 -18.7352 -18.7346 -18.7302
   -17.0812 -16.9559 -16.7612 -16.7335 -16.6928 -16.6691  -0.3792  -0.3567
    -0.0730   0.0019   0.0396   0.1285   0.8758   1.2926   1.4673   1.6861
     1.6914   1.8565   1.9217   2.0706   2.0967   2.1722   2.2224   2.3037
    15.4116  15.4541  15.5806  15.7289  15.7876  15.8770  16.0073  16.2370
    16.2533  16.2699  16.3954  16.4296  18.0259  18.4574  19.3448  19.5437
    19.8279  19.8906  20.1232  20.1904  20.3734  20.7665  20.8381  21.0935
    21.9272  22.0000  22.4178  23.0459  23.2168  23.2901  23.8775  24.1119
    24.7510

          k = 0.4000 0.2309 0.0000 (  5085 PWs)   bands (ev):

   -47.7623 -47.7607 -18.7843 -18.7796 -18.7651 -18.7519 -18.7389 -18.7323
   -17.2009 -16.9951 -16.8293 -16.7310 -16.5803 -16.5488  -0.2706  -0.1049
     0.2413   0.3947   0.5154   0.5868   0.6412   0.9310   1.0487   1.1781
     1.3229   1.5593   1.7116   1.7780   1.8488   2.1209   2.3647   2.4130
    15.4902  15.7191  15.8470  15.9306  16.1862  16.2509  16.3781  16.4229
    16.6477  16.7015  17.0133  17.5006  18.2929  18.5943  19.2416  19.3773
    19.9070  19.9153  20.0159  20.0589  20.1817  20.2847  20.5717  21.2344
    21.4524  21.5636  21.5773  22.1999  22.4170  22.6834  22.6864  23.5631
    24.0163

          k = 0.4000 0.2309 0.1808 (  5088 PWs)   bands (ev):

   -47.7622 -47.7610 -18.7883 -18.7878 -18.7593 -18.7510 -18.7387 -18.7326
   -17.1744 -16.9777 -16.8173 -16.7428 -16.6088 -16.5644  -0.2213  -0.1504
     0.1547   0.3423   0.3512   0.7671   0.7890   0.9024   0.9674   1.2648
     1.3101   1.4594   1.6940   1.8999   1.9741   2.1809   2.3113   2.3373
    15.5252  15.7208  15.8697  16.0016  16.1071  16.2431  16.2639  16.4936
    16.5724  16.7177  17.1465  17.2933  18.5001  18.7030  19.0232  19.4580
    19.6072  19.8038  19.9013  19.9025  20.1787  20.5173  20.6383  21.3070
    21.6636  21.7081  22.1059  22.1097  22.3246  22.5191  22.7382  23.4080
    24.0390

          k = 0.4000 0.2309 0.3616 (  5084 PWs)   bands (ev):

   -47.7622 -47.7605 -18.7997 -18.7958 -18.7513 -18.7464 -18.7399 -18.7317
   -17.0999 -16.9317 -16.7827 -16.7803 -16.6821 -16.6078  -0.2582  -0.1250
     0.1349   0.2079   0.2717   0.6448   0.7838   0.9209   1.0733   1.4250
     1.4516   1.4892   1.7122   2.0367   2.0549   2.0637   2.2520   2.3179
    15.5856  15.7272  15.8815  15.9430  16.1457  16.2628  16.2991  16.3991
    16.4030  16.8068  17.1309  17.4414  18.1585  18.7806  18.9122  19.2191
    19.6902  19.7031  19.9769  20.0946  20.2601  20.7106  20.9056  21.1730
    21.6025  21.7590  21.7898  22.0622  22.3912  22.4968  22.9594  23.5742
    23.7553

          k = 0.4000 0.2309 0.5424 (  5068 PWs)   bands (ev):

   -47.7610 -47.7599 -18.8038 -18.8006 -18.7455 -18.7419 -18.7375 -18.7321
   -16.9947 -16.9035 -16.8216 -16.7662 -16.7295 -16.6673  -0.2657  -0.1730
     0.1726   0.2042   0.2161   0.3714   0.9193   1.0641   1.1127   1.3234
     1.4687   1.6311   1.8533   2.0249   2.0362   2.1308   2.1735   2.2946
    15.6988  15.8009  15.8272  16.0068  16.0562  16.1114  16.1380  16.3267
    16.6028  16.7794  17.1995  17.3633  18.4058  18.7391  18.9082  19.1454
    19.2825  19.6871  19.9819  20.4967  20.6625  20.6718  20.8789  21.2336
    21.3092  21.5774  21.6421  21.8008  22.3801  22.5611  22.7480  23.2634
    23.8899

          k = 0.4000 0.4234 0.0000 (  5078 PWs)   bands (ev):

   -47.7614 -47.7610 -18.7818 -18.7791 -18.7652 -18.7520 -18.7424 -18.7326
   -17.1520 -17.0128 -16.8870 -16.6794 -16.5877 -16.5614  -0.2489   0.0744
     0.3134   0.3899   0.4817   0.6117   0.6983   0.8372   0.9983   1.1534
     1.3836   1.4450   1.7297   1.7769   1.8302   2.0194   2.2352   2.4334
    15.5443  15.7574  16.0884  16.0972  16.3136  16.3876  16.4209  16.4452
    16.6464  16.6695  17.5587  17.7355  18.0610  18.9159  19.1124  19.3738
    19.5247  19.5745  19.7514  19.9954  20.2398  20.3605  20.6404  20.9583
    20.9787  21.0472  21.7655  22.4440  22.5412  22.7224  22.8817  23.3174
    23.7257

          k = 0.4000 0.4234 0.1808 (  5071 PWs)   bands (ev):

   -47.7612 -47.7604 -18.7848 -18.7843 -18.7591 -18.7488 -18.7412 -18.7340
   -17.1276 -16.9943 -16.8750 -16.6884 -16.6143 -16.5802  -0.1777  -0.0267
     0.2760   0.3160   0.3341   0.6805   0.8509   0.9859   1.0422   1.1538
     1.2450   1.2833   1.7400   1.9099   1.9515   2.1026   2.2173   2.3352
    15.6548  15.7904  16.0949  16.1169  16.1703  16.3661  16.4210  16.4800
    16.5298  16.6505  17.5917  17.6175  18.3261  18.5478  19.2992  19.3793
    19.4233  19.5502  19.6991  19.7357  20.1921  20.4675  20.7422  21.1134
    21.4629  21.6291  21.7536  22.3673  22.3929  22.5775  22.6243  23.1787
    23.5004

          k = 0.4000 0.4234 0.3616 (  5075 PWs)   bands (ev):

   -47.7614 -47.7605 -18.7982 -18.7967 -18.7533 -18.7419 -18.7404 -18.7324
   -17.0578 -16.9470 -16.8460 -16.7117 -16.6945 -16.6233  -0.1644  -0.0307
     0.1486   0.2358   0.3076   0.5775   0.8922   0.9346   1.1234   1.1582
     1.3596   1.4809   1.7339   2.0002   2.0285   2.0773   2.2099   2.2694
    15.8006  15.8837  15.9874  16.1236  16.1889  16.2489  16.3254  16.3592
    16.5121  16.6964  17.5348  17.8050  18.0883  18.8025  18.9266  19.1275
    19.2759  19.5459  19.8959  20.1350  20.3191  20.8620  20.9710  21.2108
    21.3217  21.5708  21.7207  21.8477  22.3845  22.4148  22.5088  23.3529
    23.6569

          k = 0.4000 0.4234 0.5424 (  5077 PWs)   bands (ev):

   -47.7612 -47.7607 -18.8044 -18.8027 -18.7477 -18.7438 -18.7387 -18.7335
   -16.9556 -16.8967 -16.8304 -16.8030 -16.7175 -16.6771  -0.1801  -0.0726
     0.1359   0.2402   0.3030   0.3930   0.9269   0.9422   1.1540   1.1885
     1.5021   1.6080   1.8008   1.8572   2.0834   2.0997   2.1870   2.2714
    15.8931  15.9360  15.9429  16.0271  16.1275  16.1397  16.2276  16.2896
    16.6668  16.7602  17.6362  17.7646  18.2730  18.7812  18.8860  19.0945
    19.3187  19.5190  19.9938  20.2808  20.5226  20.7392  20.8446  21.0879
    21.1992  21.2719  21.5602  21.7513  22.1948  22.3486  22.3888  23.0733
    23.8025

          k = 0.4000 0.6158 0.0000 (  5071 PWs)   bands (ev):

   -47.7610 -47.7606 -18.7816 -18.7791 -18.7641 -18.7483 -18.7445 -18.7317
   -17.1393 -16.9867 -16.9372 -16.6460 -16.5993 -16.5697  -0.2422   0.1752
     0.4090   0.4356   0.4490   0.5241   0.6596   0.7447   0.9722   1.0830
     1.4859   1.5174   1.7581   1.8026   1.8911   1.9514   2.0698   2.4405
    15.4825  16.0183  16.1897  16.2322  16.2917  16.3579  16.3744  16.4629
    16.5950  16.6462  17.5888  17.6818  18.4551  18.7837  19.1628  19.1673
    19.5670  19.7174  19.7740  19.9568  20.1602  20.4099  20.4179  20.6794
    20.7877  21.2037  21.5315  22.0932  22.3678  22.9474  23.0453  23.6593
    23.8082

          k = 0.4000 0.6158 0.1808 (  5066 PWs)   bands (ev):

   -47.7609 -47.7602 -18.7844 -18.7839 -18.7604 -18.7457 -18.7426 -18.7331
   -17.1154 -16.9699 -16.9234 -16.6567 -16.6141 -16.5988  -0.1647   0.1033
     0.2010   0.3002   0.4257   0.5617   0.8915   0.9419   1.0378   1.0775
     1.2809   1.3258   1.8521   1.9158   1.9783   2.0404   2.0703   2.3438
    15.6218  16.0247  16.1457  16.2004  16.2760  16.3519  16.4392  16.4548
    16.4926  16.5408  17.5889  17.6057  18.6337  18.7037  19.1677  19.1892
    19.4494  19.5163  19.6242  19.6974  20.3492  20.4256  20.6323  20.9471
    21.1776  21.7302  21.7422  22.1635  22.1949  22.5491  22.5643  23.4790
    23.6282

          k = 0.4000 0.6158 0.3616 (  5090 PWs)   bands (ev):

   -47.7621 -47.7616 -18.7998 -18.7993 -18.7537 -18.7427 -18.7422 -18.7373
   -17.0466 -16.9262 -16.8886 -16.6967 -16.6771 -16.6449  -0.0556   0.0204
     0.0668   0.2440   0.3340   0.4412   0.9467   1.0112   1.0900   1.1534
     1.3336   1.4588   1.7887   1.9580   1.9937   2.0844   2.1984   2.2332
    15.8630  16.0169  16.0620  16.1954  16.2370  16.2704  16.3090  16.3926
    16.4821  16.5288  17.5812  17.7297  18.3976  18.6994  18.9168  19.1612
    19.3875  19.5485  19.9590  20.0131  20.3622  20.5571  20.8882  21.1399
    21.3510  21.4267  21.6263  21.6916  22.2344  22.4285  22.4720  23.5734
    23.6974

          k = 0.4000 0.6158 0.5424 (  5076 PWs)   bands (ev):

   -47.7612 -47.7605 -18.8035 -18.8026 -18.7459 -18.7420 -18.7393 -18.7379
   -16.9432 -16.8779 -16.8582 -16.8054 -16.7060 -16.6888  -0.0755   0.0096
     0.0952   0.1709   0.2869   0.3289   0.9575   0.9766   1.1592   1.1926
     1.5593   1.6110   1.7287   1.7863   2.0724   2.0804   2.2151   2.2485
    15.9562  16.0034  16.0130  16.0517  16.1390  16.1584  16.3010  16.3192
    16.6294  16.6768  17.6815  17.7634  18.4293  18.7469  18.8951  19.0374
    19.7313  19.8797  19.9715  20.0499  20.3307  20.5313  20.5823  20.9111
    20.9390  21.0555  21.5399  21.7319  22.1182  22.4305  22.4958  23.0672
    24.0720

          k = 0.4000-0.3464 0.0000 (  5079 PWs)   bands (ev):

   -47.7616 -47.7609 -18.7819 -18.7795 -18.7637 -18.7522 -18.7413 -18.7333
   -17.1694 -17.0146 -16.8541 -16.7059 -16.5841 -16.5539  -0.2566  -0.0065
     0.2612   0.3852   0.5012   0.6270   0.6845   0.9316   1.0225   1.2136
     1.3046   1.4134   1.7157   1.7478   1.8437   2.0759   2.3168   2.4258
    15.6151  15.6191  15.9692  15.9928  16.2744  16.3896  16.4054  16.4574
    16.6541  16.6878  17.3572  17.7029  18.0600  18.9149  19.0379  19.3001
    19.6220  19.7384  19.8896  20.0195  20.2278  20.2385  20.7160  21.1249
    21.1695  21.2714  21.7583  22.4696  22.5058  22.7534  22.9683  23.0480
    23.7170

          k = 0.4000-0.3464 0.1808 (  5074 PWs)   bands (ev):

   -47.7612 -47.7606 -18.7861 -18.7846 -18.7593 -18.7501 -18.7400 -18.7319
   -17.1443 -16.9960 -16.8427 -16.7152 -16.6132 -16.5702  -0.1939  -0.0911
     0.2133   0.3233   0.3728   0.7228   0.8371   0.9507   1.0797   1.1782
     1.2469   1.3097   1.6919   1.8926   1.9645   2.1467   2.2922   2.3259
    15.6352  15.7105  15.9829  16.0439  16.1414  16.3152  16.4155  16.4819
    16.5536  16.7007  17.4434  17.5502  18.2951  18.5642  19.1638  19.4359
    19.5344  19.6275  19.7325  19.8646  20.1524  20.4398  20.8111  21.2959
    21.4905  21.7046  21.8555  22.2866  22.3557  22.7116  22.8702  23.0114
    23.4202

          k = 0.4000-0.3464 0.3616 (  5081 PWs)   bands (ev):

   -47.7619 -47.7606 -18.7986 -18.7970 -18.7542 -18.7441 -18.7406 -18.7309
   -17.0732 -16.9479 -16.8169 -16.7389 -16.6918 -16.6133  -0.2208  -0.0744
     0.1762   0.1997   0.3260   0.6410   0.8621   0.8867   1.0720   1.2538
     1.3976   1.4827   1.7202   2.0176   2.0408   2.0721   2.2386   2.2930
    15.7010  15.8090  15.9410  16.0329  16.1713  16.2658  16.3212  16.3549
    16.4957  16.7766  17.4167  17.7223  18.0322  18.7750  18.8951  19.1286
    19.3920  19.6604  19.8855  20.1269  20.2937  20.8436  21.0306  21.1750
    21.5061  21.6771  21.8010  22.0297  22.3729  22.4657  22.5775  23.3555
    23.5303

          k = 0.4000-0.3464 0.5424 (  5079 PWs)   bands (ev):

   -47.7611 -47.7610 -18.8036 -18.8025 -18.7481 -18.7432 -18.7392 -18.7343
   -16.9710 -16.9011 -16.8238 -16.7907 -16.7240 -16.6709  -0.2335  -0.1309
     0.1689   0.2300   0.3124   0.4083   0.9144   0.9537   1.1258   1.2337
     1.4629   1.6245   1.8207   1.9385   2.0759   2.1154   2.1791   2.2835
    15.8055  15.8739  15.8893  16.0147  16.1063  16.1345  16.1611  16.3091
    16.6651  16.7947  17.4995  17.6508  18.2808  18.8060  18.8496  19.1030
    19.2095  19.4925  20.0058  20.4584  20.5116  20.7924  20.8704  21.1721
    21.3600  21.4359  21.8637  21.8903  22.0479  22.2967  22.4115  23.1019
    23.6898

          k = 0.4000-0.1540 0.0000 (  5078 PWs)   bands (ev):

   -47.7618 -47.7605 -18.7811 -18.7789 -18.7625 -18.7516 -18.7389 -18.7324
   -17.2180 -16.9736 -16.8410 -16.7269 -16.5764 -16.5509  -0.2783  -0.1488
     0.2657   0.4096   0.5135   0.5373   0.5971   0.8589   1.0653   1.1399
     1.4289   1.6272   1.7200   1.8420   1.8787   2.1201   2.3418   2.4064
    15.4809  15.6738  15.9058  15.9541  16.0227  16.1986  16.3682  16.3853
    16.5979  16.6984  16.8674  17.3715  18.4266  18.4903  19.2886  19.5211
    19.7571  20.0578  20.1233  20.1887  20.2703  20.3920  20.5021  21.1896
    21.2756  21.4132  21.6702  22.2744  22.3458  22.6142  22.7899  23.6216
    24.1816

          k = 0.4000-0.1540 0.1808 (  5082 PWs)   bands (ev):

   -47.7622 -47.7605 -18.7877 -18.7866 -18.7584 -18.7494 -18.7382 -18.7318
   -17.1907 -16.9568 -16.8299 -16.7391 -16.6031 -16.5668  -0.2350  -0.1680
     0.1351   0.3040   0.3724   0.6996   0.7964   0.8715   0.9425   1.2694
     1.4054   1.5159   1.7585   1.9169   1.9937   2.1789   2.3044   2.3169
    15.5186  15.6864  15.8523  16.0116  16.0719  16.1294  16.2282  16.4945
    16.5718  16.6775  17.0118  17.1376  18.6803  18.7746  18.9993  19.4595
    19.6507  19.7991  19.8448  20.0907  20.2015  20.4475  20.6413  21.2636
    21.4916  21.8114  22.0673  22.3004  22.3272  22.5113  22.6831  23.4432
    23.9505

          k = 0.4000-0.1540 0.3616 (  5080 PWs)   bands (ev):

   -47.7619 -47.7604 -18.7980 -18.7961 -18.7505 -18.7458 -18.7378 -18.7321
   -17.1146 -16.9137 -16.8092 -16.7668 -16.6713 -16.6098  -0.2503  -0.1423
     0.0827   0.1591   0.2895   0.5785   0.7598   0.9382   1.1492   1.4519
     1.4639   1.5722   1.7278   2.0332   2.0395   2.0926   2.2382   2.3158
    15.5656  15.6838  15.8444  15.9281  16.1277  16.2284  16.2770  16.3729
    16.4196  16.7197  17.0192  17.2847  18.2797  18.7480  19.0424  19.3113
    19.5234  19.8935  19.9789  20.1816  20.2782  20.5098  20.8724  21.1119
    21.5943  21.6572  21.8634  22.1695  22.4562  22.5187  23.0551  23.6177
    23.8158

          k = 0.4000-0.1540 0.5424 (  5062 PWs)   bands (ev):

   -47.7608 -47.7595 -18.8036 -18.8001 -18.7428 -18.7392 -18.7378 -18.7324
   -17.0072 -16.9055 -16.8184 -16.7574 -16.7260 -16.6688  -0.2529  -0.1692
     0.1021   0.1117   0.2316   0.3415   0.9250   1.0735   1.2032   1.3463
     1.5394   1.6396   1.8637   1.9955   2.0398   2.1452   2.1726   2.2922
    15.6728  15.7639  15.8113  15.9936  16.0410  16.0966  16.1532  16.3285
    16.5274  16.6972  17.0623  17.1963  18.5046  18.7444  18.9608  19.1470
    19.4090  19.8018  19.9779  20.4184  20.4838  20.6739  20.8954  21.2228
    21.3089  21.5512  21.5752  21.9147  22.5560  22.6224  22.9106  23.4050
    24.0050

          k = 0.4000 0.0385 0.0000 (  5079 PWs)   bands (ev):

   -47.7626 -47.7597 -18.7811 -18.7799 -18.7627 -18.7488 -18.7406 -18.7312
   -17.2327 -16.9405 -16.8732 -16.7143 -16.5675 -16.5600  -0.2852  -0.1802
     0.3401   0.4314   0.4892   0.4905   0.5019   0.8091   1.0843   1.1060
     1.5388   1.6600   1.7363   1.8274   2.0657   2.1085   2.2378   2.4005
    15.5844  15.6107  15.7354  15.9990  16.0712  16.1654  16.2947  16.3574
    16.5172  16.6867  16.7712  17.2799  18.2892  18.7973  19.2760  19.3529
    19.7796  20.0788  20.1995  20.2875  20.4945  20.6164  20.7026  20.9045
    21.0107  21.0705  21.8170  22.3108  22.4108  22.5602  22.9813  23.7128
    23.9053

          k = 0.4000 0.0385 0.1808 (  5082 PWs)   bands (ev):

   -47.7618 -47.7608 -18.7871 -18.7867 -18.7570 -18.7472 -18.7398 -18.7331
   -17.2039 -16.9249 -16.8634 -16.7274 -16.5919 -16.5762  -0.2447  -0.1751
     0.1159   0.2708   0.4182   0.5741   0.8150   0.8556   0.9375   1.2664
     1.5066   1.5306   1.8555   1.8978   2.1119   2.1596   2.2192   2.2995
    15.5972  15.6632  15.7705  15.8915  16.0466  16.2030  16.2150  16.3999
    16.5774  16.6167  16.9204  17.0366  18.7498  18.9544  19.1217  19.3780
    19.5570  19.6428  19.9077  20.1480  20.2927  20.5103  20.5867  21.2060
    21.3800  21.8372  22.0996  22.3573  22.5093  22.5619  22.6078  23.3620
    23.8296

          k = 0.4000 0.0385 0.3616 (  5063 PWs)   bands (ev):

   -47.7613 -47.7593 -18.7980 -18.7934 -18.7483 -18.7402 -18.7356 -18.7325
   -17.1263 -16.8817 -16.8476 -16.7569 -16.6549 -16.6179  -0.2063  -0.1565
    -0.0113   0.1181   0.3560   0.4626   0.7602   0.9391   1.2653   1.4407
     1.4537   1.6217   1.8510   1.9606   2.0451   2.1205   2.2311   2.2869
    15.5948  15.6484  15.8093  15.9453  16.0013  16.2392  16.3132  16.3920
    16.4275  16.4865  16.9922  17.1717  18.4518  18.6933  19.2038  19.3732
    19.4755  19.7320  20.0428  20.2453  20.2867  20.3025  20.9523  21.1283
    21.5165  21.6679  21.9129  22.1688  22.4852  22.7509  22.9306  23.6816
    23.7674

          k = 0.4000 0.0385 0.5424 (  5064 PWs)   bands (ev):

   -47.7604 -47.7601 -18.8044 -18.8023 -18.7404 -18.7392 -18.7359 -18.7341
   -17.0174 -16.9081 -16.8138 -16.7570 -16.7141 -16.6742  -0.1941  -0.1416
    -0.0194   0.0101   0.2536   0.3154   0.9287   1.0662   1.3197   1.3489
     1.5869   1.7369   1.8589   1.9092   2.0332   2.1324   2.2219   2.2682
    15.6868  15.7223  15.8141  15.9634  16.0540  16.0834  16.1953  16.3333
    16.4267  16.5238  16.9978  17.0732  18.6618  18.7594  19.0461  19.1057
    19.4972  19.8160  20.0298  20.2343  20.2928  20.6184  20.9785  21.2567
    21.3469  21.4698  21.6475  22.0459  22.6662  22.7518  22.9003  23.4759
    23.9355

     the Fermi energy is    20.7944 ev

!    total energy              =    -866.23755107 Ry
     Harris-Foulkes estimate   =    -866.23755356 Ry
     estimated scf accuracy    <       0.00000271 Ry

     The total energy is the sum of the following terms:

     one-electron contribution =     -58.77993945 Ry
     hartree contribution      =     103.59654457 Ry
     xc contribution           =    -101.67647288 Ry
     ewald contribution        =    -808.82201998 Ry
     smearing contrib. (-TS)   =      -0.55566333 Ry

     convergence has been achieved in  12 iterations

     Forces acting on atoms (Ry/au):

     atom    1 type  1   force =    -0.00762270   -0.00440097    0.00000000
     atom    2 type  1   force =    -0.00762270    0.00440097    0.00000000
     atom    3 type  1   force =     0.00762270    0.00440097    0.00000000
     atom    4 type  1   force =     0.00762270   -0.00440097    0.00000000
     atom    5 type  1   force =     0.00000000    0.00880193    0.00000000
     atom    6 type  1   force =     0.00000000   -0.00880193    0.00000000
     atom    7 type  2   force =     0.00000000    0.00000000    0.00000000
     atom    8 type  2   force =     0.00000000    0.00000000    0.00000000

     Total force =     0.021560     Total SCF correction =     0.000000


     entering subroutine stress ...

          total   stress  (Ry/bohr**3)                   (kbar)     P=  180.60
   0.00117539   0.00000000   0.00000000        172.91      0.00      0.00
   0.00000000   0.00117539   0.00000000          0.00    172.91      0.00
   0.00000000   0.00000000   0.00133238          0.00      0.00    196.00


     BFGS Geometry Optimization

     number of scf cycles    =   1
     number of bfgs steps    =   0

     enthalpy new            =    -866.2375510679 Ry

     new trust radius        =       0.2295547519 bohr
     new conv_thr            =       0.0001000000 Ry

     new unit-cell volume =   1300.05413 a.u.^3 (   192.64814 Ang^3 )

CELL_PARAMETERS (alat= 12.01680127)
   1.029384705   0.000000000   0.000000000
  -0.514692353   0.891473305   0.000000000
   0.000000000   0.000000000   0.816410809

ATOMIC_POSITIONS (crystal)
Mg       0.663012218   0.831506109   0.250000000
Mg       0.831506109   0.168493891   0.750000000
Mg       0.336987782   0.168493891   0.750000000
Mg       0.168493891   0.831506109   0.250000000
Mg       0.168493891   0.336987782   0.250000000
Mg       0.831506109   0.663012218   0.750000000
Cd       0.666667000   0.333333000   0.250000000
Cd       0.333333000   0.666667000   0.750000000



     Writing output data file Prototype-La-hP8-Mg3Cd.save
     NEW-OLD atomic charge density approx. for the potential
     NEW k-points:
        k(    1) = (   0.0000000   0.0000000   0.0000000), wk =   0.0095238
        k(    2) = (   0.0000000   0.0000000   0.1749819), wk =   0.0190476
        k(    3) = (   0.0000000   0.0000000   0.3499639), wk =   0.0190476
        k(    4) = (   0.0000000   0.0000000   0.5249458), wk =   0.0190476
        k(    5) = (   0.0000000   0.1869564   0.0000000), wk =   0.0190476
        k(    6) = (   0.0000000   0.1869564   0.1749819), wk =   0.0380952
        k(    7) = (   0.0000000   0.1869564   0.3499639), wk =   0.0380952
        k(    8) = (   0.0000000   0.1869564   0.5249458), wk =   0.0380952
        k(    9) = (   0.0000000   0.3739129   0.0000000), wk =   0.0190476
        k(   10) = (   0.0000000   0.3739129   0.1749819), wk =   0.0380952
        k(   11) = (   0.0000000   0.3739129   0.3499639), wk =   0.0380952
        k(   12) = (   0.0000000   0.3739129   0.5249458), wk =   0.0380952
        k(   13) = (   0.0000000  -0.5608693   0.0000000), wk =   0.0095238
        k(   14) = (   0.0000000  -0.5608693   0.1749819), wk =   0.0190476
        k(   15) = (   0.0000000  -0.5608693   0.3499639), wk =   0.0190476
        k(   16) = (   0.0000000  -0.5608693   0.5249458), wk =   0.0190476
        k(   17) = (   0.1942908   0.1121739   0.0000000), wk =   0.0190476
        k(   18) = (   0.1942908   0.1121739   0.1749819), wk =   0.0380952
        k(   19) = (   0.1942908   0.1121739   0.3499639), wk =   0.0380952
        k(   20) = (   0.1942908   0.1121739   0.5249458), wk =   0.0380952
        k(   21) = (   0.1942908   0.2991303   0.0000000), wk =   0.0190476
        k(   22) = (   0.1942908   0.2991303   0.1749819), wk =   0.0380952
        k(   23) = (   0.1942908   0.2991303   0.3499639), wk =   0.0380952
        k(   24) = (   0.1942908   0.2991303   0.5249458), wk =   0.0380952
        k(   25) = (   0.1942908   0.4860867   0.0000000), wk =   0.0190476
        k(   26) = (   0.1942908   0.4860867   0.1749819), wk =   0.0380952
        k(   27) = (   0.1942908   0.4860867   0.3499639), wk =   0.0380952
        k(   28) = (   0.1942908   0.4860867   0.5249458), wk =   0.0380952
        k(   29) = (   0.1942908  -0.4486954   0.0000000), wk =   0.0190476
        k(   30) = (   0.1942908  -0.4486954   0.1749819), wk =   0.0380952
        k(   31) = (   0.1942908  -0.4486954   0.3499639), wk =   0.0380952
        k(   32) = (   0.1942908  -0.4486954   0.5249458), wk =   0.0380952
        k(   33) = (   0.1942908  -0.2617390   0.0000000), wk =   0.0190476
        k(   34) = (   0.1942908  -0.2617390   0.1749819), wk =   0.0380952
        k(   35) = (   0.1942908  -0.2617390   0.3499639), wk =   0.0380952
        k(   36) = (   0.1942908  -0.2617390   0.5249458), wk =   0.0380952
        k(   37) = (   0.1942908  -0.0747826   0.0000000), wk =   0.0190476
        k(   38) = (   0.1942908  -0.0747826   0.1749819), wk =   0.0380952
        k(   39) = (   0.1942908  -0.0747826   0.3499639), wk =   0.0380952
        k(   40) = (   0.1942908  -0.0747826   0.5249458), wk =   0.0380952
        k(   41) = (   0.3885816   0.2243477   0.0000000), wk =   0.0190476
        k(   42) = (   0.3885816   0.2243477   0.1749819), wk =   0.0380952
        k(   43) = (   0.3885816   0.2243477   0.3499639), wk =   0.0380952
        k(   44) = (   0.3885816   0.2243477   0.5249458), wk =   0.0380952
        k(   45) = (   0.3885816   0.4113041   0.0000000), wk =   0.0190476
        k(   46) = (   0.3885816   0.4113041   0.1749819), wk =   0.0380952
        k(   47) = (   0.3885816   0.4113041   0.3499639), wk =   0.0380952
        k(   48) = (   0.3885816   0.4113041   0.5249458), wk =   0.0380952
        k(   49) = (   0.3885816   0.5982606   0.0000000), wk =   0.0190476
        k(   50) = (   0.3885816   0.5982606   0.1749819), wk =   0.0380952
        k(   51) = (   0.3885816   0.5982606   0.3499639), wk =   0.0380952
        k(   52) = (   0.3885816   0.5982606   0.5249458), wk =   0.0380952
        k(   53) = (   0.3885816  -0.3365216   0.0000000), wk =   0.0190476
        k(   54) = (   0.3885816  -0.3365216   0.1749819), wk =   0.0380952
        k(   55) = (   0.3885816  -0.3365216   0.3499639), wk =   0.0380952
        k(   56) = (   0.3885816  -0.3365216   0.5249458), wk =   0.0380952
        k(   57) = (   0.3885816  -0.1495651   0.0000000), wk =   0.0190476
        k(   58) = (   0.3885816  -0.1495651   0.1749819), wk =   0.0380952
        k(   59) = (   0.3885816  -0.1495651   0.3499639), wk =   0.0380952
        k(   60) = (   0.3885816  -0.1495651   0.5249458), wk =   0.0380952
        k(   61) = (   0.3885816   0.0373913   0.0000000), wk =   0.0190476
        k(   62) = (   0.3885816   0.0373913   0.1749819), wk =   0.0380952
        k(   63) = (   0.3885816   0.0373913   0.3499639), wk =   0.0380952
        k(   64) = (   0.3885816   0.0373913   0.5249458), wk =   0.0380952

     total cpu time spent up to now is      684.9 secs

     Self-consistent Calculation

     iteration #  1     ecut=    40.00 Ry     beta=0.70
     CG style diagonalization
     c_bands:  2 eigenvalues not converged
     c_bands:  3 eigenvalues not converged
     c_bands:  2 eigenvalues not converged
     c_bands:  1 eigenvalues not converged
     c_bands:  1 eigenvalues not converged
     c_bands:  4 eigenvalues not converged
     c_bands:  2 eigenvalues not converged
     c_bands:  4 eigenvalues not converged
     c_bands:  2 eigenvalues not converged
     c_bands:  4 eigenvalues not converged
     c_bands:  3 eigenvalues not converged
     c_bands:  4 eigenvalues not converged
     c_bands:  5 eigenvalues not converged
     c_bands:  5 eigenvalues not converged
     c_bands:  5 eigenvalues not converged
     c_bands:  5 eigenvalues not converged
     c_bands:  4 eigenvalues not converged
     c_bands:  5 eigenvalues not converged
     c_bands:  5 eigenvalues not converged
     c_bands:  5 eigenvalues not converged
     c_bands:  4 eigenvalues not converged
     c_bands:  2 eigenvalues not converged
     c_bands:  1 eigenvalues not converged
     c_bands:  5 eigenvalues not converged
     c_bands:  3 eigenvalues not converged
     c_bands:  2 eigenvalues not converged
     c_bands:  1 eigenvalues not converged
     c_bands:  4 eigenvalues not converged
     c_bands:  3 eigenvalues not converged
     c_bands:  2 eigenvalues not converged
     c_bands:  4 eigenvalues not converged
     c_bands:  5 eigenvalues not converged
     c_bands:  3 eigenvalues not converged
     c_bands:  5 eigenvalues not converged
     c_bands:  5 eigenvalues not converged
     ethr =  1.00E-06,  avg # of iterations = 14.1

     total cpu time spent up to now is      805.2 secs

     total energy              =    -865.04511315 Ry
     Harris-Foulkes estimate   =    -867.16148556 Ry
     estimated scf accuracy    <       2.63692871 Ry

     iteration #  2     ecut=    40.00 Ry     beta=0.70
     CG style diagonalization
     ethr =  2.44E-03,  avg # of iterations =  4.4

     total cpu time spent up to now is      843.5 secs

     total energy              =    -862.11987642 Ry
     Harris-Foulkes estimate   =    -868.61378076 Ry
     estimated scf accuracy    <      23.79585911 Ry

     iteration #  3     ecut=    40.00 Ry     beta=0.70
     CG style diagonalization
     ethr =  2.44E-03,  avg # of iterations =  4.4

     total cpu time spent up to now is      882.9 secs

     total energy              =    -866.22917348 Ry
     Harris-Foulkes estimate   =    -866.43046734 Ry
     estimated scf accuracy    <       0.71432350 Ry

     iteration #  4     ecut=    40.00 Ry     beta=0.70
     CG style diagonalization
     ethr =  6.61E-04,  avg # of iterations =  3.4

     total cpu time spent up to now is      912.7 secs

     total energy              =    -866.29658169 Ry
     Harris-Foulkes estimate   =    -866.33956932 Ry
     estimated scf accuracy    <       0.20260566 Ry

     iteration #  5     ecut=    40.00 Ry     beta=0.70
     CG style diagonalization
     ethr =  1.88E-04,  avg # of iterations =  3.3

     total cpu time spent up to now is      941.2 secs

     total energy              =    -866.28795768 Ry
     Harris-Foulkes estimate   =    -866.31411478 Ry
     estimated scf accuracy    <       0.09589978 Ry

     iteration #  6     ecut=    40.00 Ry     beta=0.70
     CG style diagonalization
     ethr =  8.88E-05,  avg # of iterations =  3.4

     total cpu time spent up to now is      970.7 secs

     total energy              =    -866.29994685 Ry
     Harris-Foulkes estimate   =    -866.30236625 Ry
     estimated scf accuracy    <       0.00684758 Ry

     iteration #  7     ecut=    40.00 Ry     beta=0.70
     CG style diagonalization
     ethr =  6.34E-06,  avg # of iterations =  4.4

     total cpu time spent up to now is     1010.1 secs

     total energy              =    -866.30280258 Ry
     Harris-Foulkes estimate   =    -866.30310661 Ry
     estimated scf accuracy    <       0.00058746 Ry

     iteration #  8     ecut=    40.00 Ry     beta=0.70
     CG style diagonalization
     ethr =  5.44E-07,  avg # of iterations =  4.2

     total cpu time spent up to now is     1048.7 secs

     total energy              =    -866.30304507 Ry
     Harris-Foulkes estimate   =    -866.30308839 Ry
     estimated scf accuracy    <       0.00013006 Ry

     iteration #  9     ecut=    40.00 Ry     beta=0.70
     CG style diagonalization
     ethr =  1.20E-07,  avg # of iterations =  3.8

     total cpu time spent up to now is     1078.2 secs

     End of self-consistent calculation

          k = 0.0000 0.0000 0.0000 (  5047 PWs)   bands (ev):

   -49.5621 -49.5609 -20.5160 -20.5086 -20.4709 -20.4709 -20.4684 -20.4684
   -19.3448 -18.9629 -18.9628 -18.9229 -18.7566 -18.7566  -2.3331  -2.1065
    -1.7865  -1.4811  -1.4811  -1.3572  -1.3571  -1.3096  -1.3096  -0.7230
    -0.3688  -0.3688  -0.0193  -0.0192  -0.0169   0.0178   0.0179   0.0702
    13.5396  13.6116  13.6116  13.8581  13.9584  14.1062  14.1063  14.3709
    14.3709  14.8954  15.0117  15.0117  15.3962  16.9128  17.6783  17.7467
    17.7467  18.0903  18.0903  18.8128  18.9652  18.9652  19.0086  19.6072
    19.6073  19.6767  19.6767  20.2111  20.4139  20.4140  21.9283  22.8488
    22.8504

          k = 0.0000 0.0000 0.1750 (  5065 PWs)   bands (ev):

   -49.5643 -49.5625 -20.5165 -20.5147 -20.4763 -20.4763 -20.4700 -20.4699
   -19.3208 -18.9541 -18.9540 -18.9409 -18.7678 -18.7677  -2.3184  -2.1345
    -1.6885  -1.6873  -1.6873  -1.4069  -1.4068  -1.0773  -1.0772  -0.6860
    -0.3263  -0.3262  -0.1274  -0.0245  -0.0245   0.0263   0.0292   0.0292
    13.6528  13.6788  13.6788  13.8465  13.8465  13.9102  14.1479  14.3276
    14.5759  14.5759  14.9791  14.9791  16.2808  16.5162  17.5280  17.9402
    17.9402  18.0466  18.0466  18.4263  18.5546  18.5547  18.9422  18.9422
    19.0291  20.3470  20.3470  20.9292  20.9292  21.1973  21.4305  22.7880
    22.7881

          k = 0.0000 0.0000 0.3500 (  5047 PWs)   bands (ev):

   -49.5632 -49.5600 -20.5184 -20.5112 -20.4726 -20.4726 -20.4704 -20.4704
   -19.2550 -18.9921 -18.9278 -18.9277 -18.7987 -18.7986  -2.2758  -2.1671
    -1.8355  -1.8355  -1.6045  -1.6045  -1.4577  -0.7236  -0.7235  -0.5842
    -0.4143  -0.2712  -0.2711  -0.0917  -0.0320  -0.0320   0.0396   0.0396
    13.6535  13.6535  13.8433  13.8433  13.8787  13.9491  14.0659  14.6529
    14.6739  14.6739  14.7937  14.7937  15.6835  16.7544  17.9079  17.9079
    18.0009  18.0258  18.0720  18.0720  18.2218  18.2218  18.8329  18.8329
    19.6628  20.2880  20.4378  20.4378  22.0844  22.0848  22.4134  22.4145
    22.4295

          k = 0.0000 0.0000 0.5249 (  5041 PWs)   bands (ev):

   -49.5626 -49.5597 -20.5262 -20.5188 -20.4692 -20.4692 -20.4670 -20.4670
   -19.1642 -19.0711 -18.8881 -18.8880 -18.8423 -18.8422  -2.2266  -2.1924
    -1.8650  -1.8650  -1.7784  -1.7784  -1.1472  -0.7810  -0.4323  -0.4301
    -0.4301  -0.2813  -0.2812  -0.2562  -0.0315  -0.0314   0.0072   0.0072
    13.7267  13.7267  13.9219  13.9219  14.0308  14.0810  14.1721  14.5356
    14.5469  14.5469  14.6003  14.6003  15.6873  16.2574  17.8968  17.8969
    18.0826  18.0826  18.1492  18.2020  18.2020  18.5979  18.5979  18.8991
    19.7532  20.6720  21.1164  21.1165  21.4605  22.0000  22.1034  22.1047
    22.1080

          k = 0.0000 0.1870 0.0000 (  5083 PWs)   bands (ev):

   -49.5663 -49.5639 -20.5190 -20.5133 -20.4821 -20.4779 -20.4752 -20.4728
   -19.3203 -18.9858 -18.9613 -18.9171 -18.7616 -18.7570  -2.2364  -2.0833
    -1.7107  -1.4885  -1.4518  -1.3893  -1.3651  -1.2891  -1.2211  -0.7651
    -0.3985  -0.3606  -0.1946  -0.0945  -0.0898  -0.0100   0.0178   0.0481
    13.6785  13.8103  13.8153  14.0298  14.1142  14.1311  14.1690  14.4298
    14.5109  14.8304  15.0040  15.0090  15.7563  16.9573  17.5039  17.7999
    17.8568  18.0334  18.2698  18.5177  18.6544  19.0837  19.1145  19.1468
    19.3084  19.5108  19.7725  19.9228  20.3188  20.3537  21.0816  22.4905
    22.7336

          k = 0.0000 0.1870 0.1750 (  5077 PWs)   bands (ev):

   -49.5663 -49.5629 -20.5196 -20.5154 -20.4807 -20.4782 -20.4747 -20.4709
   -19.2970 -18.9764 -18.9523 -18.9323 -18.7746 -18.7682  -2.2209  -2.0930
    -1.6986  -1.6539  -1.6323  -1.3954  -1.3301  -1.1002  -1.0966  -0.7098
    -0.3881  -0.3295  -0.1944  -0.1007  -0.0881  -0.0478  -0.0104   0.0370
    13.7436  13.8639  13.8938  13.9409  13.9451  14.0724  14.3118  14.4262
    14.6401  14.6678  14.9536  14.9582  16.4620  16.6259  17.5413  17.7312
    17.9445  17.9634  18.1851  18.2605  18.4274  18.4850  18.8176  19.0188
    19.1552  20.0521  20.3342  20.4338  20.6094  20.7667  20.8835  22.3793
    22.3868

          k = 0.0000 0.1870 0.3500 (  5061 PWs)   bands (ev):

   -49.5650 -49.5610 -20.5221 -20.5128 -20.4797 -20.4778 -20.4730 -20.4672
   -19.2338 -18.9842 -18.9438 -18.9264 -18.8093 -18.7987  -2.1831  -2.1066
    -1.8404  -1.7923  -1.6049  -1.5352  -1.4159  -0.8297  -0.7557  -0.5359
    -0.4698  -0.3317  -0.2565  -0.1725  -0.1157  -0.0570  -0.0286   0.0494
    13.7408  13.7593  13.9190  14.0418  14.0461  14.0972  14.2786  14.6684
    14.7518  14.7865  14.7923  14.8033  15.8884  16.9744  17.4026  17.8038
    17.8552  17.9004  18.1416  18.1742  18.3472  18.4690  18.8747  19.0082
    19.2393  19.6959  20.2445  20.5312  21.1188  21.2358  21.7506  22.1002
    22.2651

          k = 0.0000 0.1870 0.5249 (  5050 PWs)   bands (ev):

   -49.5633 -49.5607 -20.5238 -20.5173 -20.4747 -20.4741 -20.4739 -20.4665
   -19.1467 -19.0569 -18.9039 -18.8873 -18.8559 -18.8418  -2.1433  -2.1184
    -1.8663  -1.8131  -1.7792  -1.7182  -1.1232  -0.7804  -0.6222  -0.4701
    -0.4477  -0.3301  -0.3037  -0.1643  -0.1401  -0.0624  -0.0558   0.0126
    13.8180  13.8410  13.9786  14.0731  14.1486  14.2284  14.3695  14.5817
    14.5869  14.6177  14.6846  14.6998  15.9454  16.4826  17.5306  17.7092
    17.9500  17.9684  18.1852  18.1924  18.3968  18.6998  18.7087  18.8748
    19.7780  19.9549  20.2788  20.8977  21.0018  21.0263  21.4917  21.8511
    22.3289

          k = 0.0000 0.3739 0.0000 (  5079 PWs)   bands (ev):

   -49.5670 -49.5630 -20.5137 -20.5085 -20.4933 -20.4821 -20.4769 -20.4745
   -19.2552 -19.0490 -18.9574 -18.8989 -18.7742 -18.7575  -2.0294  -1.9926
[...]
    19.7264  19.8628  20.1436  20.7552  20.9485  21.0133  21.4455  21.8198
    22.3188

          k = 0.3893 0.2247 0.0000 (  5528 PWs)   bands (ev):

   -49.5702 -49.5680 -20.5475 -20.5467 -20.5294 -20.5220 -20.5130 -20.5092
   -19.2111 -19.0703 -18.9413 -18.8901 -18.7717 -18.7490  -1.9827  -1.8977
    -1.6417  -1.4719  -1.3622  -1.3416  -1.3004  -1.0797  -0.9599  -0.8488
    -0.7492  -0.5524  -0.4572  -0.4124  -0.3365  -0.1153   0.0661   0.0825
    13.9520  14.1359  14.2980  14.3132  14.5184  14.5465  14.6629  14.7152
    14.8919  14.9833  14.9858  15.6172  16.3323  16.7528  17.3129  17.4315
    17.7571  17.9238  18.0744  18.1598  18.1915  18.3347  18.4319  19.2118
    19.2445  19.4238  19.4543  19.9979  20.1816  20.3018  20.4902  21.2604
    21.8060

          k = 0.3893 0.2247 0.1744 (  5543 PWs)   bands (ev):

   -49.5706 -49.5689 -20.5519 -20.5502 -20.5271 -20.5237 -20.5146 -20.5123
   -19.1922 -19.0584 -18.9333 -18.8982 -18.7911 -18.7596  -1.9526  -1.9269
    -1.6875  -1.5276  -1.5019  -1.1979  -1.1939  -1.0975  -1.0254  -0.7800
    -0.7518  -0.6359  -0.4808  -0.3142  -0.2333  -0.0793   0.0056   0.0473
    13.9794  14.1194  14.2594  14.3822  14.4659  14.5660  14.5702  14.7671
    14.8605  14.9659  15.1372  15.4911  16.5111  16.7969  17.1074  17.5501
    17.6948  17.7903  17.8897  17.9072  18.1936  18.5596  18.5798  19.2533
    19.4649  19.5294  19.8569  19.9265  20.0167  20.2738  20.5274  21.1171
    21.7053

          k = 0.3893 0.2247 0.3488 (  5548 PWs)   bands (ev):

   -49.5707 -49.5691 -20.5621 -20.5604 -20.5229 -20.5185 -20.5127 -20.5126
   -19.1407 -19.0283 -18.9222 -18.9090 -18.8412 -18.7888  -2.0033  -1.9023
    -1.6873  -1.6062  -1.5756  -1.2671  -1.2129  -1.0806  -0.9688  -0.6695
    -0.6482  -0.6452  -0.4397  -0.2070  -0.1876  -0.1630  -0.0238   0.0204
    14.0252  14.1039  14.2542  14.2948  14.4970  14.5997  14.6008  14.7010
    14.7115  15.0516  15.3106  15.5479  16.3165  16.8358  17.0309  17.3256
    17.6522  17.8070  18.0178  18.0947  18.2024  18.6238  18.9055  19.1542
    19.3482  19.5853  19.6397  19.8555  20.1897  20.3595  20.5851  21.2399
    21.4715

          k = 0.3893 0.2247 0.5232 (  5546 PWs)   bands (ev):

   -49.5704 -49.5691 -20.5684 -20.5673 -20.5168 -20.5154 -20.5142 -20.5113
   -19.0697 -19.0124 -18.9424 -18.9016 -18.8723 -18.8297  -2.0116  -1.9471
    -1.6509  -1.6255  -1.6001  -1.4792  -1.1097  -0.9843  -0.9334  -0.7736
    -0.6314  -0.5244  -0.3343  -0.2212  -0.1983  -0.1061  -0.0770  -0.0057
    14.1179  14.1635  14.2137  14.3436  14.3825  14.4547  14.5027  14.6278
    14.8780  15.0277  15.4296  15.5645  16.5070  16.8311  16.9847  17.1614
    17.4240  17.7566  18.0797  18.5538  18.5887  18.6339  18.7454  19.1451
    19.1902  19.3098  19.5455  19.6584  20.1416  20.4188  20.4363  21.0524
    21.6000

          k = 0.3893 0.4120 0.0000 (  5524 PWs)   bands (ev):

   -49.5693 -49.5687 -20.5459 -20.5458 -20.5311 -20.5226 -20.5155 -20.5087
   -19.1702 -19.0872 -18.9907 -18.8464 -18.7777 -18.7579  -1.9621  -1.7463
    -1.5875  -1.4765  -1.3922  -1.3187  -1.2658  -1.1311  -0.9902  -0.8867
    -0.7003  -0.6507  -0.4420  -0.4086  -0.3538  -0.1942  -0.0352   0.1004
    14.0309  14.1785  14.4539  14.4772  14.6173  14.6857  14.7027  14.7132
    14.8828  14.9588  15.4939  15.7049  16.1674  17.0588  17.2146  17.3788
    17.4844  17.6280  17.7979  18.0969  18.2393  18.3778  18.5041  18.9308
    18.9475  18.9967  19.5897  20.2144  20.3362  20.4191  20.5035  21.0407
    21.4250

          k = 0.3893 0.4120 0.1744 (  5556 PWs)   bands (ev):

   -49.5708 -49.5700 -20.5535 -20.5526 -20.5323 -20.5240 -20.5173 -20.5115
   -19.1534 -19.0750 -18.9835 -18.8522 -18.7954 -18.7713  -1.9105  -1.8190
    -1.6017  -1.5381  -1.5155  -1.2858  -1.1338  -1.0295  -0.9580  -0.8793
    -0.8105  -0.7755  -0.4341  -0.3080  -0.2500  -0.1454  -0.0473   0.0247
    14.0990  14.2071  14.4575  14.4762  14.4978  14.6555  14.7030  14.7559
    14.8249  14.9119  15.5718  15.6667  16.4048  16.7061  17.3563  17.4191
    17.4822  17.6262  17.6812  17.7881  18.2319  18.4986  18.6529  18.9753
    19.3056  19.4937  19.6299  20.1016  20.1465  20.3253  20.4209  20.9149
    21.1894

          k = 0.3893 0.4120 0.3488 (  5551 PWs)   bands (ev):

   -49.5707 -49.5694 -20.5615 -20.5614 -20.5270 -20.5197 -20.5145 -20.5102
   -19.1045 -19.0432 -18.9655 -18.8650 -18.8491 -18.8004  -1.9218  -1.8144
    -1.6599  -1.6091  -1.5438  -1.3339  -1.1117  -1.0830  -0.9205  -0.8844
    -0.7296  -0.6429  -0.4220  -0.2164  -0.2020  -0.1667  -0.0561  -0.0300
    14.1942  14.2636  14.3501  14.4431  14.5213  14.5761  14.6302  14.6807
    14.7868  14.9773  15.6634  15.8258  16.2991  16.8858  17.0748  17.2387
    17.3208  17.6684  17.9173  18.0123  18.2752  18.7566  18.9103  19.1414
    19.2291  19.2927  19.5600  19.6932  20.1925  20.2624  20.3847  21.0464
    21.2791

          k = 0.3893 0.4120 0.5232 (  5551 PWs)   bands (ev):

   -49.5704 -49.5698 -20.5687 -20.5682 -20.5194 -20.5159 -20.5143 -20.5127
   -19.0361 -19.0092 -18.9563 -18.9233 -18.8644 -18.8366  -1.9358  -1.8592
    -1.6710  -1.5976  -1.5311  -1.4568  -1.1065  -1.0947  -0.9000  -0.8750
    -0.6120  -0.5480  -0.3711  -0.3403  -0.1510  -0.1388  -0.0758  -0.0288
    14.2645  14.3065  14.3155  14.3758  14.4571  14.4836  14.5596  14.5885
    14.9246  15.0213  15.7799  15.9040  16.4378  16.9257  16.9750  17.1651
    17.3505  17.6196  18.0994  18.3041  18.5070  18.5837  18.7238  18.9190
    19.0010  19.1283  19.5070  19.6738  20.0829  20.1743  20.2052  20.8769
    21.4896

          k = 0.3893 0.5993 0.0000 (  5546 PWs)   bands (ev):

   -49.5701 -49.5699 -20.5466 -20.5461 -20.5359 -20.5246 -20.5201 -20.5100
   -19.1603 -19.0677 -19.0309 -18.8210 -18.7863 -18.7645  -1.9560  -1.6614
    -1.4888  -1.4588  -1.4220  -1.4080  -1.2862  -1.2053  -1.0041  -0.9421
    -0.6238  -0.5987  -0.4176  -0.3778  -0.3097  -0.2487  -0.1688   0.1060
    13.9865  14.3989  14.5287  14.5862  14.6043  14.6666  14.6916  14.7435
    14.8238  14.9414  15.5129  15.6607  16.4937  16.8620  17.1118  17.2999
    17.6041  17.7948  17.8069  17.9906  18.1578  18.3688  18.3882  18.7460
    18.8250  19.1105  19.3882  19.9597  20.1151  20.5951  20.6589  21.3369
    21.4922

          k = 0.3893 0.5993 0.1744 (  5554 PWs)   bands (ev):

   -49.5705 -49.5702 -20.5530 -20.5521 -20.5338 -20.5228 -20.5188 -20.5100
   -19.1435 -19.0565 -19.0221 -18.8280 -18.7961 -18.7840  -1.8979  -1.7098
    -1.6273  -1.5431  -1.4884  -1.3853  -1.0984  -1.0590  -0.9599  -0.9441
    -0.7848  -0.7452  -0.3393  -0.2909  -0.2347  -0.2010  -0.1651   0.0312
    14.0841  14.3999  14.4954  14.5502  14.5901  14.6579  14.7132  14.7421
    14.7963  14.8128  15.5779  15.6452  16.6937  16.8258  17.1562  17.2682
    17.5302  17.5526  17.6295  17.7858  18.3792  18.4183  18.6007  18.8414
    19.0530  19.6045  19.6236  19.9909  20.0578  20.2302  20.2722  21.1796
    21.2941

          k = 0.3893 0.5993 0.3488 (  5560 PWs)   bands (ev):

   -49.5708 -49.5703 -20.5626 -20.5618 -20.5290 -20.5192 -20.5174 -20.5107
   -19.0948 -19.0268 -18.9995 -18.8514 -18.8388 -18.8161  -1.8275  -1.7622
    -1.7240  -1.6100  -1.5299  -1.4547  -1.0675  -1.0172  -0.9413  -0.8847
    -0.7580  -0.6568  -0.3824  -0.2456  -0.2121  -0.1638  -0.0791  -0.0584
    14.2445  14.3767  14.4067  14.5205  14.5676  14.5804  14.6271  14.6962
    14.7636  14.8510  15.7026  15.7791  16.5603  16.8065  17.0214  17.3110
    17.5064  17.6157  17.8153  17.9720  18.3202  18.4594  18.8924  19.0196
    19.1597  19.3464  19.4909  19.5131  20.0880  20.2753  20.3338  21.2137
    21.3169

          k = 0.3893 0.5993 0.5232 (  5542 PWs)   bands (ev):

   -49.5696 -49.5694 -20.5671 -20.5665 -20.5199 -20.5154 -20.5128 -20.5126
   -19.0249 -18.9949 -18.9786 -18.9246 -18.8567 -18.8446  -1.8450  -1.7761
    -1.7193  -1.6572  -1.5496  -1.5144  -1.0783  -1.0646  -0.8954  -0.8644
    -0.5843  -0.5441  -0.4266  -0.3799  -0.1589  -0.1486  -0.0648  -0.0451
    14.3180  14.3564  14.3676  14.4058  14.4718  14.4977  14.6124  14.6355
    14.8920  14.9590  15.8174  15.8803  16.6273  16.8331  16.9810  17.1873
    17.7441  17.8855  18.0167  18.0862  18.2595  18.4231  18.5263  18.7135
    18.9152  18.9905  19.4129  19.6476  20.0251  20.2671  20.3106  20.8771
    21.7035

          k = 0.3893-0.3371 0.0000 (  5534 PWs)   bands (ev):

   -49.5703 -49.5687 -20.5475 -20.5460 -20.5317 -20.5233 -20.5147 -20.5111
   -19.1854 -19.0872 -18.9640 -18.8678 -18.7749 -18.7527  -1.9696  -1.8149
    -1.6276  -1.4808  -1.3745  -1.3022  -1.2753  -1.0636  -0.9717  -0.8528
    -0.7444  -0.6771  -0.4542  -0.4351  -0.3416  -0.1504   0.0288   0.0935
    14.0567  14.0817  14.3696  14.3857  14.5856  14.6581  14.6932  14.7168
    14.9028  14.9719  15.3178  15.7370  16.1338  17.0337  17.1513  17.4034
    17.5941  17.7041  17.8855  18.1364  18.2639  18.2657  18.5513  19.0060
    19.1335  19.1959  19.5822  20.2111  20.2648  20.3790  20.7533  20.7721
    21.4349

          k = 0.3893-0.3371 0.1744 (  5544 PWs)   bands (ev):

   -49.5707 -49.5689 -20.5527 -20.5514 -20.5308 -20.5210 -20.5155 -20.5112
   -19.1678 -19.0746 -18.9572 -18.8733 -18.7942 -18.7639  -1.9259  -1.8743
    -1.6512  -1.5322  -1.4831  -1.2442  -1.1496  -1.0565  -0.9368  -0.8538
    -0.8065  -0.7517  -0.4774  -0.3218  -0.2414  -0.1078   0.0122   0.0171
    14.0707  14.1333  14.3588  14.4274  14.4775  14.6175  14.6813  14.7610
    14.8439  14.9571  15.4241  15.6647  16.3505  16.7043  17.2421  17.5182
    17.5781  17.6483  17.8043  17.8371  18.1794  18.4869  18.7128  19.1465
    19.3486  19.5284  19.7068  20.0211  20.0698  20.4578  20.6849  20.7431
    21.1449

          k = 0.3893-0.3371 0.3488 (  5547 PWs)   bands (ev):

   -49.5706 -49.5691 -20.5616 -20.5603 -20.5249 -20.5192 -20.5135 -20.5112
   -19.1182 -19.0421 -18.9430 -18.8845 -18.8475 -18.7930  -1.9699  -1.8566
    -1.6516  -1.6206  -1.5247  -1.2748  -1.1393  -1.1215  -0.9664  -0.8072
    -0.6981  -0.6421  -0.4324  -0.2170  -0.1922  -0.1654  -0.0302  -0.0073
    14.1226  14.1802  14.3156  14.3644  14.5074  14.5870  14.6418  14.6656
    14.7746  15.0351  15.5624  15.7712  16.2334  16.8656  17.0198  17.2439
    17.4154  17.7649  17.9445  18.0369  18.2312  18.7516  18.9956  19.1426
    19.3199  19.3999  19.6347  19.8379  20.2147  20.2995  20.3694  21.0900
    21.1839

          k = 0.3893-0.3371 0.5232 (  5548 PWs)   bands (ev):

   -49.5702 -49.5697 -20.5686 -20.5680 -20.5182 -20.5163 -20.5132 -20.5121
   -19.0498 -19.0111 -18.9476 -18.9172 -18.8688 -18.8322  -1.9820  -1.9095
    -1.6438  -1.6039  -1.5230  -1.4439  -1.1181  -1.0824  -0.9246  -0.8416
    -0.6385  -0.5323  -0.3581  -0.2821  -0.1661  -0.1219  -0.0731  -0.0190
    14.2084  14.2331  14.2727  14.3583  14.4286  14.4745  14.5134  14.6082
    14.9248  15.0444  15.6778  15.8150  16.4234  16.9088  16.9829  17.0845
    17.3235  17.6107  18.1113  18.4456  18.5360  18.6537  18.7315  19.0624
    19.1353  19.2638  19.7256  19.7694  19.9117  20.0969  20.2650  20.8996
    21.4121

          k = 0.3893-0.1498 0.0000 (  5546 PWs)   bands (ev):

   -49.5709 -49.5690 -20.5483 -20.5460 -20.5320 -20.5227 -20.5176 -20.5111
   -19.2246 -19.0532 -18.9527 -18.8853 -18.7691 -18.7507  -1.9905  -1.9343
    -1.6223  -1.4587  -1.3837  -1.3646  -1.3379  -1.1333  -0.9569  -0.8771
    -0.6615  -0.5056  -0.4496  -0.3417  -0.3256  -0.1169   0.0485   0.0768
    13.9463  14.1079  14.3208  14.3270  14.3932  14.5124  14.6392  14.7162
    14.8244  14.8467  14.9836  15.5115  16.5266  16.6063  17.3358  17.5186
    17.7123  18.0765  18.1025  18.2101  18.2815  18.3848  18.4497  19.1402
    19.1925  19.3087  19.4657  20.0447  20.1200  20.4002  20.4293  21.3303
    21.8406

          k = 0.3893-0.1498 0.1744 (  5542 PWs)   bands (ev):

   -49.5702 -49.5691 -20.5514 -20.5508 -20.5276 -20.5215 -20.5152 -20.5114
   -19.2050 -19.0420 -18.9461 -18.8923 -18.7870 -18.7614  -1.9650  -1.9451
    -1.6928  -1.5508  -1.5068  -1.2579  -1.1763  -1.1161  -1.0527  -0.7750
    -0.6763  -0.5986  -0.4249  -0.2963  -0.2200  -0.0813   0.0000   0.0317
    13.9756  14.0932  14.2338  14.3748  14.4333  14.4961  14.5461  14.7603
    14.8581  14.9331  15.0067  15.3607  16.6703  16.8553  17.0786  17.5528
    17.7028  17.7885  17.8844  18.0484  18.1979  18.4952  18.6248  19.2145
    19.3839  19.5861  19.8415  20.0357  20.0910  20.2023  20.4800  21.1736
    21.6381

          k = 0.3893-0.1498 0.3488 (  5546 PWs)   bands (ev):

   -49.5704 -49.5691 -20.5610 -20.5602 -20.5222 -20.5193 -20.5135 -20.5104
   -19.1524 -19.0140 -18.9389 -18.9014 -18.8339 -18.7905  -1.9987  -1.9180
    -1.7268  -1.6551  -1.5583  -1.3320  -1.2211  -1.0680  -0.9044  -0.6589
    -0.6449  -0.5607  -0.4292  -0.2025  -0.1950  -0.1478  -0.0353   0.0183
    14.0038  14.0681  14.2191  14.2857  14.4842  14.5774  14.5803  14.6889
    14.7169  14.9793  15.2143  15.3934  16.4036  16.8039  17.1487  17.4122
    17.5645  17.9395  18.0107  18.1340  18.2472  18.4787  18.8707  19.0949
    19.3565  19.5262  19.6752  19.9609  20.2573  20.3458  20.6648  21.2926
    21.4993

          k = 0.3893-0.1498 0.5232 (  5551 PWs)   bands (ev):

   -49.5706 -49.5694 -20.5696 -20.5679 -20.5176 -20.5161 -20.5136 -20.5101
   -19.0796 -19.0138 -18.9400 -18.8951 -18.8702 -18.8308  -2.0029  -1.9460
    -1.7116  -1.6976  -1.5932  -1.5052  -1.1016  -0.9729  -0.8615  -0.7506
    -0.5859  -0.5151  -0.3237  -0.2363  -0.1961  -0.0981  -0.0825  -0.0056
    14.0889  14.1331  14.1943  14.3315  14.3711  14.4393  14.5214  14.6343
    14.8183  14.9626  15.3047  15.4114  16.5540  16.8520  16.9949  17.2200
    17.5228  17.8604  18.0632  18.4129  18.4863  18.6854  18.7753  19.1155
    19.2228  19.3326  19.4657  19.7109  20.2931  20.4855  20.5661  21.1833
    21.6746

          k = 0.3893 0.0375 0.0000 (  5560 PWs)   bands (ev):

   -49.5710 -49.5702 -20.5489 -20.5488 -20.5316 -20.5239 -20.5194 -20.5120
   -19.2356 -19.0264 -18.9815 -18.8739 -18.7627 -18.7573  -1.9974  -1.9606
    -1.5656  -1.4391  -1.4294  -1.4183  -1.3756  -1.1679  -0.9531  -0.8980
    -0.5749  -0.4813  -0.4353  -0.3540  -0.1732  -0.1269  -0.0336   0.0718
    14.0384  14.0628  14.1608  14.3688  14.4112  14.4851  14.5909  14.7198
    14.7213  14.7654  14.9781  15.4290  16.4865  16.8254  17.2452  17.3987
    17.7763  18.0888  18.2204  18.2328  18.3752  18.5717  18.6919  18.8603
    18.9958  19.0795  19.5725  20.0978  20.1421  20.3824  20.5763  21.4327
    21.5851

          k = 0.3893 0.0375 0.1744 (  5538 PWs)   bands (ev):

   -49.5701 -49.5689 -20.5514 -20.5487 -20.5270 -20.5207 -20.5160 -20.5108
   -19.2155 -19.0153 -18.9758 -18.8808 -18.7787 -18.7682  -1.9723  -1.9560
    -1.6949  -1.5759  -1.4998  -1.3410  -1.1635  -1.1235  -1.0614  -0.7762
    -0.6055  -0.5853  -0.3396  -0.3061  -0.1341  -0.0961  -0.0437  -0.0038
    14.0314  14.0917  14.1901  14.2585  14.3852  14.5278  14.5740  14.6807
    14.8412  14.8875  14.9354  15.2662  16.7859  16.9600  17.1805  17.4091
    17.6285  17.7050  17.9223  18.1974  18.2380  18.5199  18.5908  19.1655
    19.2762  19.6606  19.8370  20.1552  20.1722  20.2410  20.4101  21.1455
    21.4990

          k = 0.3893 0.0375 0.3488 (  5552 PWs)   bands (ev):

   -49.5703 -49.5698 -20.5626 -20.5612 -20.5221 -20.5182 -20.5135 -20.5116
   -19.1618 -18.9884 -18.9691 -18.8943 -18.8224 -18.7964  -1.9624  -1.9358
    -1.7948  -1.6966  -1.5033  -1.4336  -1.2142  -1.0688  -0.8136  -0.6612
    -0.6597  -0.5159  -0.3344  -0.2573  -0.1918  -0.1184  -0.0439  -0.0095
    14.0071  14.0494  14.2036  14.3063  14.3679  14.5566  14.6398  14.7047
    14.7234  14.7913  15.2092  15.2507  16.4895  16.8058  17.3112  17.4494
    17.5373  17.7811  18.0367  18.2214  18.2853  18.3283  18.9522  19.0444
    19.2945  19.5427  19.7707  19.9734  20.2768  20.4761  20.5831  21.3585
    21.4322

          k = 0.3893 0.0375 0.5232 (  5558 PWs)   bands (ev):

   -49.5704 -49.5703 -20.5692 -20.5684 -20.5176 -20.5161 -20.5140 -20.5131
   -19.0875 -19.0154 -18.9368 -18.8937 -18.8626 -18.8346  -1.9574  -1.9280
    -1.8086  -1.7815  -1.5766  -1.5270  -1.0958  -0.9781  -0.7672  -0.7442
    -0.5646  -0.4386  -0.3213  -0.2900  -0.2011  -0.1087  -0.0504  -0.0244
    14.0830  14.1082  14.1910  14.3094  14.3894  14.4146  14.5696  14.6556
    14.7309  14.8153  15.2429  15.2900  16.5990  16.9150  17.0606  17.1911
    17.6544  17.9304  18.0528  18.2003  18.3326  18.6564  18.8423  19.0825
    19.2915  19.3792  19.5315  19.7830  20.4403  20.4873  20.5915  21.2505
    21.6000

     the Fermi energy is    18.7413 ev

!    total energy              =    -866.40640571 Ry
     Harris-Foulkes estimate   =    -866.40640924 Ry
     estimated scf accuracy    <       0.00000382 Ry

     The total energy is the sum of the following terms:

     one-electron contribution =     -93.15678417 Ry
     hartree contribution      =     112.62512044 Ry
     xc contribution           =    -100.81847594 Ry
     ewald contribution        =    -784.45101325 Ry
     smearing contrib. (-TS)   =      -0.60525279 Ry

     convergence has been achieved in  17 iterations

     Forces acting on atoms (Ry/au):

     atom    1 type  1   force =    -0.00606734   -0.00350298    0.00000000
     atom    2 type  1   force =    -0.00606734    0.00350298    0.00000000
     atom    3 type  1   force =     0.00606734    0.00350298    0.00000000
     atom    4 type  1   force =     0.00606734   -0.00350298    0.00000000
     atom    5 type  1   force =     0.00000000    0.00700596    0.00000000
     atom    6 type  1   force =     0.00000000   -0.00700596    0.00000000
     atom    7 type  2   force =     0.00000000    0.00000000    0.00000000
     atom    8 type  2   force =     0.00000000    0.00000000    0.00000000

     Total force =     0.017161     Total SCF correction =     0.000000


     entering subroutine stress ...

          total   stress  (Ry/bohr**3)                   (kbar)     P=   39.92
   0.00023763   0.00000000   0.00000000         34.96      0.00      0.00
   0.00000000   0.00023763   0.00000000          0.00     34.96      0.00
   0.00000000   0.00000000   0.00033893          0.00      0.00     49.86


     Writing output data file Prototype-La-hP8-Mg3Cd.save
 
     init_run     :     10.01s CPU     12.68s WALL (       2 calls)
     electrons    :   2244.18s CPU   2702.73s WALL (       5 calls)
     update_pot   :      2.58s CPU      2.63s WALL (       3 calls)
     forces       :     10.08s CPU     10.87s WALL (       5 calls)
     stress       :     29.12s CPU     30.41s WALL (       5 calls)

     Called by init_run:
     wfcinit      :      9.05s CPU     11.50s WALL (       2 calls)
     potinit      :      0.43s CPU      0.43s WALL (       2 calls)

     Called by electrons:
     c_bands      :   2166.45s CPU   2576.70s WALL (      50 calls)
     sum_band     :     77.18s CPU    103.45s WALL (      50 calls)
     v_of_rho     :      0.11s CPU      0.13s WALL (      55 calls)
     mix_rho      :      0.12s CPU      0.16s WALL (      50 calls)

     Called by c_bands:
     init_us_2    :      8.14s CPU      9.75s WALL (    7168 calls)
     ccgdiagg     :   1939.08s CPU   2284.21s WALL (    3438 calls)
     wfcrot       :    229.40s CPU    291.54s WALL (    3502 calls)

     Called by *cgdiagg:
     h_psi        :   1579.28s CPU   1950.86s WALL ( 1042044 calls)
     cdiaghg      :      5.97s CPU      6.37s WALL (    3502 calls)

     Called by h_psi:
     add_vuspsi   :    213.71s CPU    237.45s WALL ( 1042044 calls)

     General routines
     calbec       :    569.68s CPU    597.27s WALL ( 2081226 calls)
     fft          :      0.15s CPU      0.18s WALL (     243 calls)
     fftw         :    980.20s CPU   1241.71s WALL ( 2740344 calls)
     davcio       :      3.93s CPU      9.81s WALL (   10368 calls)
 
     Parallel routines
     fft_scatter  :    371.50s CPU    485.84s WALL ( 2740587 calls)
 
     PWSCF        : 38m16.88s CPU    46m 3.09s WALL

 
   This run was terminated on:   1:21:24  22Mar2018            

=------------------------------------------------------------------------------=
   JOB DONE.
=------------------------------------------------------------------------------=
