
     Program PWSCF v.5.0.2 starts on 23Mar2018 at  1: 2:31 

     This program is part of the open-source Quantum ESPRESSO suite
     for quantum simulation of materials; please cite
         "P. Giannozzi et al., J. Phys.:Condens. Matter 21 395502 (2009);
          URL http://www.quantum-espresso.org", 
     in publications or presentations arising from this work. More details at
     http://www.quantum-espresso.org/quote.php

     Parallel version (MPI), running on     4 processors
     R & G space division:  proc/nbgrp/npool/nimage =       4

     Current dimensions of program PWSCF are:
     Max number of different atomic species (ntypx) = 10
     Max number of k-points (npk) =  40000
     Max angular momentum in pseudopotentials (lmaxx) =  3
     Waiting for input...
     Reading input from standard input

     Subspace diagonalization in iterative solution of the eigenvalue problem:
     a serial algorithm will be used

 
     Parallelization info
     --------------------
     sticks:   dense  smooth     PW     G-vecs:    dense   smooth      PW
     Min         162     162     52                 2693     2693     497
     Max         163     163     54                 2695     2695     498
     Sum         649     649    211                10777    10777    1989
 


     bravais-lattice index     =            0
     lattice parameter (alat)  =       7.6055  a.u.
     unit-cell volume          =     311.0722 (a.u.)^3
     number of atoms/cell      =            2
     number of atomic types    =            2
     number of electrons       =        45.00
     number of Kohn-Sham states=           28
     kinetic-energy cutoff     =      40.0000  Ry
     charge density cutoff     =     160.0000  Ry
     convergence threshold     =      1.0E-04
     mixing beta               =       0.7000
     number of iterations used =            8  plain     mixing
     Exchange-correlation      = SLA-PZ-NOGX-NOGC ( 1 1 0 0 0)
     EXX-fraction              =        0.00
     nstep                     =           50


     celldm(1)=   7.605458  celldm(2)=   0.000000  celldm(3)=   0.000000
     celldm(4)=   0.000000  celldm(5)=   0.000000  celldm(6)=   0.000000

     crystal axes: (cart. coord. in units of alat)
               a(1) = (   1.000000   0.000000   0.000000 )  
               a(2) = (   0.500000   0.866025   0.000000 )  
               a(3) = (   0.500000   0.288675   0.816497 )  

     reciprocal axes: (cart. coord. in units 2 pi/alat)
               b(1) = (  1.000000 -0.577350 -0.408248 )  
               b(2) = (  0.000000  1.154701 -0.408248 )  
               b(3) = (  0.000000  0.000000  1.224745 )  


     PseudoPot. # 1 for Ho read from file:
     /home/cwx6513/pp.La/Ho.UPF
     MD5 check sum: f307ee11bce99f5b724fa279e3790763
     Pseudo is Norm-conserving, Zval = 21.0
     Generated in analytical, separable form
     Using radial grid of 1265 points,  6 beta functions with: 
                l(1) =   0
                l(2) =   0
                l(3) =   1
                l(4) =   1
                l(5) =   2
                l(6) =   3

     PseudoPot. # 2 for Yb read from file:
     /home/cwx6513/pp.La/Yb.UPF
     MD5 check sum: 3e859b81cc28c53ec6aa3a2e888efcdf
     Pseudo is Norm-conserving, Zval = 24.0
     Generated in analytical, separable form
     Using radial grid of 1269 points,  6 beta functions with: 
                l(1) =   0
                l(2) =   0
                l(3) =   1
                l(4) =   1
                l(5) =   2
                l(6) =   3

     atomic species   valence    mass     pseudopotential
        Na            21.00    22.98970     Ho( 1.00)
        Cl            24.00    35.45300     Yb( 1.00)

     12 Sym. Ops., with inversion, found



   Cartesian axes

     site n.     atom                  positions (alat units)
         1           Na  tau(   1) = (   0.0000000   0.0000000   0.0000000  )
         2           Cl  tau(   2) = (   1.0000000   0.5773503   0.4082483  )

     number of k points=   496  gaussian smearing, width (Ry)=  0.1000

     Number of k-points >= 100: set verbosity='high' to print them.

     Dense  grid:    10777 G-vectors     FFT dimensions: (  32,  32,  32)

     Largest allocated arrays     est. size (Mb)     dimensions
        Kohn-Sham Wavefunctions         0.15 Mb     (    343,   28)
        NL pseudopotentials             0.21 Mb     (    343,   40)
        Each V/rho on FFT grid          0.12 Mb     (   8192)
        Each G-vector array             0.02 Mb     (   2694)
        G-vector shells                 0.02 Mb     (   2694)
     Largest temporary arrays     est. size (Mb)     dimensions
        Each subspace H/S matrix        0.01 Mb     (  28,  28)
        Each <psi_i|beta_j> matrix      0.02 Mb     (     40,   28)
        Arrays for rho mixing           1.00 Mb     (   8192,   8)

     Initial potential from superposition of free atoms

     Starting from uniform charge
     Starting wfc are    0 randomized atomic wfcs

     total cpu time spent up to now is        5.4 secs

     Self-consistent Calculation

     iteration #  1     ecut=    40.00 Ry     beta=0.70
     CG style diagonalization
     c_bands:  2 eigenvalues not converged
     c_bands:  5 eigenvalues not converged
     c_bands:  3 eigenvalues not converged
     c_bands:  3 eigenvalues not converged
     c_bands:  3 eigenvalues not converged
     c_bands:  5 eigenvalues not converged
     c_bands:  5 eigenvalues not converged
     c_bands:  4 eigenvalues not converged
     c_bands:  5 eigenvalues not converged
     c_bands:  4 eigenvalues not converged
     c_bands:  5 eigenvalues not converged
     c_bands:  5 eigenvalues not converged
     c_bands:  4 eigenvalues not converged
     c_bands:  4 eigenvalues not converged
     c_bands:  2 eigenvalues not converged
     c_bands:  4 eigenvalues not converged
     c_bands:  4 eigenvalues not converged
     c_bands:  4 eigenvalues not converged
     c_bands:  4 eigenvalues not converged
     c_bands:  4 eigenvalues not converged
     c_bands:  5 eigenvalues not converged
     c_bands:  3 eigenvalues not converged
     c_bands:  3 eigenvalues not converged
     c_bands:  5 eigenvalues not converged
     c_bands:  4 eigenvalues not converged
     c_bands:  3 eigenvalues not converged
     c_bands:  3 eigenvalues not converged
     c_bands:  4 eigenvalues not converged
     c_bands:  4 eigenvalues not converged
     c_bands:  4 eigenvalues not converged
     c_bands:  3 eigenvalues not converged
     c_bands:  3 eigenvalues not converged
     c_bands:  5 eigenvalues not converged
     c_bands:  5 eigenvalues not converged
     c_bands:  5 eigenvalues not converged
     c_bands:  3 eigenvalues not converged
     c_bands:  4 eigenvalues not converged
     c_bands:  3 eigenvalues not converged
     c_bands:  3 eigenvalues not converged
     c_bands:  5 eigenvalues not converged
     c_bands:  1 eigenvalues not converged
     c_bands:  5 eigenvalues not converged
     c_bands:  3 eigenvalues not converged
     c_bands:  5 eigenvalues not converged
     c_bands:  5 eigenvalues not converged
     c_bands:  2 eigenvalues not converged
     c_bands:  2 eigenvalues not converged
     c_bands:  4 eigenvalues not converged
     c_bands:  2 eigenvalues not converged
     c_bands:  4 eigenvalues not converged
     c_bands:  2 eigenvalues not converged
     c_bands:  4 eigenvalues not converged
     c_bands:  5 eigenvalues not converged
     c_bands:  4 eigenvalues not converged
     c_bands:  2 eigenvalues not converged
     c_bands:  5 eigenvalues not converged
     c_bands:  4 eigenvalues not converged
     c_bands:  5 eigenvalues not converged
     c_bands:  4 eigenvalues not converged
     c_bands:  3 eigenvalues not converged
     c_bands:  4 eigenvalues not converged
     c_bands:  4 eigenvalues not converged
     c_bands:  4 eigenvalues not converged
     c_bands:  4 eigenvalues not converged
     c_bands:  4 eigenvalues not converged
     c_bands:  4 eigenvalues not converged
     c_bands:  2 eigenvalues not converged
     c_bands:  4 eigenvalues not converged
     c_bands:  5 eigenvalues not converged
     c_bands:  3 eigenvalues not converged
     c_bands:  4 eigenvalues not converged
     c_bands:  3 eigenvalues not converged
     c_bands:  5 eigenvalues not converged
     c_bands:  2 eigenvalues not converged
     c_bands:  5 eigenvalues not converged
     c_bands:  5 eigenvalues not converged
     c_bands:  3 eigenvalues not converged
     c_bands:  2 eigenvalues not converged
     c_bands:  4 eigenvalues not converged
     c_bands:  1 eigenvalues not converged
     c_bands:  3 eigenvalues not converged
     c_bands:  3 eigenvalues not converged
     c_bands:  4 eigenvalues not converged
     c_bands:  3 eigenvalues not converged
     c_bands:  4 eigenvalues not converged
     c_bands:  4 eigenvalues not converged
     c_bands:  5 eigenvalues not converged
     c_bands:  4 eigenvalues not converged
     c_bands:  5 eigenvalues not converged
     c_bands:  5 eigenvalues not converged
     c_bands:  4 eigenvalues not converged
     c_bands:  4 eigenvalues not converged
     c_bands:  4 eigenvalues not converged
     c_bands:  5 eigenvalues not converged
     c_bands:  3 eigenvalues not converged
     c_bands:  3 eigenvalues not converged
     c_bands:  3 eigenvalues not converged
     c_bands:  3 eigenvalues not converged
     c_bands:  4 eigenvalues not converged
     c_bands:  5 eigenvalues not converged
     c_bands:  4 eigenvalues not converged
     c_bands:  5 eigenvalues not converged
     c_bands:  5 eigenvalues not converged
     c_bands:  4 eigenvalues not converged
     c_bands:  3 eigenvalues not converged
     c_bands:  4 eigenvalues not converged
     c_bands:  5 eigenvalues not converged
     c_bands:  3 eigenvalues not converged
     c_bands:  2 eigenvalues not converged
     c_bands:  5 eigenvalues not converged
     c_bands:  4 eigenvalues not converged
     c_bands:  3 eigenvalues not converged
     c_bands:  4 eigenvalues not converged
     c_bands:  4 eigenvalues not converged
     c_bands:  5 eigenvalues not converged
     c_bands:  5 eigenvalues not converged
     c_bands:  5 eigenvalues not converged
     c_bands:  4 eigenvalues not converged
     c_bands:  5 eigenvalues not converged
     c_bands:  4 eigenvalues not converged
     c_bands:  3 eigenvalues not converged
     c_bands:  4 eigenvalues not converged
     c_bands:  4 eigenvalues not converged
     c_bands:  3 eigenvalues not converged
     c_bands:  5 eigenvalues not converged
     c_bands:  2 eigenvalues not converged
     c_bands:  5 eigenvalues not converged
     c_bands:  3 eigenvalues not converged
     c_bands:  5 eigenvalues not converged
     c_bands:  3 eigenvalues not converged
     c_bands:  4 eigenvalues not converged
     c_bands:  5 eigenvalues not converged
     c_bands:  3 eigenvalues not converged
     c_bands:  5 eigenvalues not converged
     c_bands:  5 eigenvalues not converged
     c_bands:  5 eigenvalues not converged
     c_bands:  3 eigenvalues not converged
     c_bands:  3 eigenvalues not converged
     c_bands:  3 eigenvalues not converged
     c_bands:  4 eigenvalues not converged
     c_bands:  4 eigenvalues not converged
     c_bands:  5 eigenvalues not converged
     c_bands:  5 eigenvalues not converged
     c_bands:  5 eigenvalues not converged
     c_bands:  4 eigenvalues not converged
     c_bands:  4 eigenvalues not converged
     c_bands:  4 eigenvalues not converged
     c_bands:  3 eigenvalues not converged
     c_bands:  4 eigenvalues not converged
     c_bands:  5 eigenvalues not converged
     c_bands:  4 eigenvalues not converged
     c_bands:  3 eigenvalues not converged
     c_bands:  4 eigenvalues not converged
     c_bands:  5 eigenvalues not converged
     c_bands:  3 eigenvalues not converged
     c_bands:  3 eigenvalues not converged
     c_bands:  4 eigenvalues not converged
     c_bands:  4 eigenvalues not converged
     c_bands:  4 eigenvalues not converged
     c_bands:  5 eigenvalues not converged
     c_bands:  4 eigenvalues not converged
     c_bands:  4 eigenvalues not converged
     c_bands:  2 eigenvalues not converged
     c_bands:  4 eigenvalues not converged
     c_bands:  4 eigenvalues not converged
     c_bands:  3 eigenvalues not converged
     c_bands:  4 eigenvalues not converged
     c_bands:  2 eigenvalues not converged
     c_bands:  4 eigenvalues not converged
     c_bands:  3 eigenvalues not converged
     c_bands:  5 eigenvalues not converged
     c_bands:  5 eigenvalues not converged
     c_bands:  3 eigenvalues not converged
     c_bands:  4 eigenvalues not converged
     c_bands:  3 eigenvalues not converged
     c_bands:  4 eigenvalues not converged
     c_bands:  5 eigenvalues not converged
     c_bands:  4 eigenvalues not converged
     c_bands:  4 eigenvalues not converged
     c_bands:  5 eigenvalues not converged
     c_bands:  4 eigenvalues not converged
     c_bands:  4 eigenvalues not converged
     c_bands:  5 eigenvalues not converged
     c_bands:  5 eigenvalues not converged
     c_bands:  3 eigenvalues not converged
     c_bands:  5 eigenvalues not converged
     c_bands:  3 eigenvalues not converged
     c_bands:  3 eigenvalues not converged
     c_bands:  2 eigenvalues not converged
     c_bands:  3 eigenvalues not converged
     c_bands:  5 eigenvalues not converged
     c_bands:  3 eigenvalues not converged
     c_bands:  3 eigenvalues not converged
     c_bands:  4 eigenvalues not converged
     c_bands:  5 eigenvalues not converged
     c_bands:  4 eigenvalues not converged
     c_bands:  3 eigenvalues not converged
     c_bands:  3 eigenvalues not converged
     c_bands:  3 eigenvalues not converged
     c_bands:  5 eigenvalues not converged
     c_bands:  5 eigenvalues not converged
     c_bands:  3 eigenvalues not converged
     c_bands:  3 eigenvalues not converged
     c_bands:  4 eigenvalues not converged
     c_bands:  4 eigenvalues not converged
     c_bands:  3 eigenvalues not converged
     c_bands:  5 eigenvalues not converged
     c_bands:  4 eigenvalues not converged
     c_bands:  5 eigenvalues not converged
     c_bands:  2 eigenvalues not converged
     c_bands:  4 eigenvalues not converged
     c_bands:  4 eigenvalues not converged
     c_bands:  4 eigenvalues not converged
     c_bands:  3 eigenvalues not converged
     c_bands:  4 eigenvalues not converged
     c_bands:  4 eigenvalues not converged
     c_bands:  4 eigenvalues not converged
     c_bands:  4 eigenvalues not converged
     c_bands:  2 eigenvalues not converged
     c_bands:  4 eigenvalues not converged
     c_bands:  5 eigenvalues not converged
     c_bands:  4 eigenvalues not converged
     c_bands:  3 eigenvalues not converged
     c_bands:  5 eigenvalues not converged
     c_bands:  3 eigenvalues not converged
     c_bands:  4 eigenvalues not converged
     c_bands:  2 eigenvalues not converged
     c_bands:  4 eigenvalues not converged
     c_bands:  5 eigenvalues not converged
     c_bands:  3 eigenvalues not converged
     c_bands:  4 eigenvalues not converged
     c_bands:  3 eigenvalues not converged
     c_bands:  4 eigenvalues not converged
     c_bands:  5 eigenvalues not converged
     c_bands:  4 eigenvalues not converged
     c_bands:  5 eigenvalues not converged
     c_bands:  4 eigenvalues not converged
     c_bands:  4 eigenvalues not converged
     c_bands:  5 eigenvalues not converged
     c_bands:  5 eigenvalues not converged
     c_bands:  3 eigenvalues not converged
     c_bands:  3 eigenvalues not converged
     c_bands:  5 eigenvalues not converged
     c_bands:  3 eigenvalues not converged
     c_bands:  2 eigenvalues not converged
     c_bands:  3 eigenvalues not converged
     c_bands:  3 eigenvalues not converged
     c_bands:  3 eigenvalues not converged
     c_bands:  4 eigenvalues not converged
     c_bands:  5 eigenvalues not converged
     c_bands:  4 eigenvalues not converged
     c_bands:  2 eigenvalues not converged
     c_bands:  3 eigenvalues not converged
     c_bands:  4 eigenvalues not converged
     c_bands:  5 eigenvalues not converged
     c_bands:  4 eigenvalues not converged
     c_bands:  2 eigenvalues not converged
     c_bands:  1 eigenvalues not converged
     c_bands:  5 eigenvalues not converged
     c_bands:  3 eigenvalues not converged
     c_bands:  3 eigenvalues not converged
     c_bands:  4 eigenvalues not converged
     c_bands:  3 eigenvalues not converged
     c_bands:  4 eigenvalues not converged
     c_bands:  4 eigenvalues not converged
     c_bands:  4 eigenvalues not converged
     c_bands:  2 eigenvalues not converged
     c_bands:  2 eigenvalues not converged
     c_bands:  3 eigenvalues not converged
     c_bands:  5 eigenvalues not converged
     c_bands:  2 eigenvalues not converged
     c_bands:  5 eigenvalues not converged
     c_bands:  5 eigenvalues not converged
     c_bands:  2 eigenvalues not converged
     c_bands:  1 eigenvalues not converged
     c_bands:  1 eigenvalues not converged
     c_bands:  4 eigenvalues not converged
     c_bands:  5 eigenvalues not converged
     c_bands:  1 eigenvalues not converged
     c_bands:  5 eigenvalues not converged
     c_bands:  4 eigenvalues not converged
     c_bands:  3 eigenvalues not converged
     c_bands:  3 eigenvalues not converged
     c_bands:  5 eigenvalues not converged
     c_bands:  5 eigenvalues not converged
     c_bands:  4 eigenvalues not converged
     c_bands:  3 eigenvalues not converged
     c_bands:  2 eigenvalues not converged
     c_bands:  5 eigenvalues not converged
     c_bands:  4 eigenvalues not converged
     c_bands:  3 eigenvalues not converged
     c_bands:  5 eigenvalues not converged
     c_bands:  5 eigenvalues not converged
     c_bands:  4 eigenvalues not converged
     c_bands:  4 eigenvalues not converged
     c_bands:  4 eigenvalues not converged
     c_bands:  4 eigenvalues not converged
     c_bands:  5 eigenvalues not converged
     c_bands:  4 eigenvalues not converged
     c_bands:  4 eigenvalues not converged
     c_bands:  3 eigenvalues not converged
     c_bands:  4 eigenvalues not converged
     c_bands:  5 eigenvalues not converged
     c_bands:  4 eigenvalues not converged
     c_bands:  4 eigenvalues not converged
     c_bands:  5 eigenvalues not converged
     c_bands:  4 eigenvalues not converged
     c_bands:  5 eigenvalues not converged
     c_bands:  5 eigenvalues not converged
     c_bands:  4 eigenvalues not converged
     c_bands:  5 eigenvalues not converged
     c_bands:  5 eigenvalues not converged
     c_bands:  2 eigenvalues not converged
     c_bands:  5 eigenvalues not converged
     c_bands:  4 eigenvalues not converged
     c_bands:  1 eigenvalues not converged
     c_bands:  3 eigenvalues not converged
     c_bands:  4 eigenvalues not converged
     c_bands:  5 eigenvalues not converged
     c_bands:  3 eigenvalues not converged
     c_bands:  3 eigenvalues not converged
     c_bands:  3 eigenvalues not converged
     c_bands:  5 eigenvalues not converged
     c_bands:  2 eigenvalues not converged
     c_bands:  4 eigenvalues not converged
     c_bands:  5 eigenvalues not converged
     c_bands:  1 eigenvalues not converged
     c_bands:  3 eigenvalues not converged
     c_bands:  4 eigenvalues not converged
     c_bands:  4 eigenvalues not converged
     c_bands:  2 eigenvalues not converged
     c_bands:  4 eigenvalues not converged
     c_bands:  5 eigenvalues not converged
     c_bands:  3 eigenvalues not converged
     c_bands:  2 eigenvalues not converged
     c_bands:  4 eigenvalues not converged
     c_bands:  5 eigenvalues not converged
     c_bands:  4 eigenvalues not converged
     c_bands:  4 eigenvalues not converged
     c_bands:  4 eigenvalues not converged
     c_bands:  5 eigenvalues not converged
     c_bands:  3 eigenvalues not converged
     c_bands:  2 eigenvalues not converged
     c_bands:  4 eigenvalues not converged
     c_bands:  3 eigenvalues not converged
     c_bands:  4 eigenvalues not converged
     c_bands:  2 eigenvalues not converged
     c_bands:  3 eigenvalues not converged
     c_bands:  4 eigenvalues not converged
     c_bands:  5 eigenvalues not converged
     c_bands:  5 eigenvalues not converged
     c_bands:  4 eigenvalues not converged
     c_bands:  4 eigenvalues not converged
     c_bands:  3 eigenvalues not converged
     c_bands:  4 eigenvalues not converged
     c_bands:  3 eigenvalues not converged
     c_bands:  3 eigenvalues not converged
     c_bands:  4 eigenvalues not converged
     c_bands:  4 eigenvalues not converged
     c_bands:  5 eigenvalues not converged
     c_bands:  5 eigenvalues not converged
     c_bands:  3 eigenvalues not converged
     c_bands:  4 eigenvalues not converged
     c_bands:  5 eigenvalues not converged
     c_bands:  3 eigenvalues not converged
     c_bands:  5 eigenvalues not converged
     c_bands:  5 eigenvalues not converged
     c_bands:  4 eigenvalues not converged
     c_bands:  5 eigenvalues not converged
     c_bands:  3 eigenvalues not converged
     c_bands:  5 eigenvalues not converged
     c_bands:  3 eigenvalues not converged
     c_bands:  2 eigenvalues not converged
     c_bands:  3 eigenvalues not converged
     c_bands:  4 eigenvalues not converged
     c_bands:  5 eigenvalues not converged
     c_bands:  4 eigenvalues not converged
     c_bands:  5 eigenvalues not converged
     c_bands:  4 eigenvalues not converged
     c_bands:  3 eigenvalues not converged
     c_bands:  2 eigenvalues not converged
     c_bands:  4 eigenvalues not converged
     c_bands:  3 eigenvalues not converged
     c_bands:  5 eigenvalues not converged
     c_bands:  1 eigenvalues not converged
     c_bands:  3 eigenvalues not converged
     c_bands:  5 eigenvalues not converged
     c_bands:  5 eigenvalues not converged
     c_bands:  2 eigenvalues not converged
     c_bands:  4 eigenvalues not converged
     c_bands:  4 eigenvalues not converged
     c_bands:  3 eigenvalues not converged
     c_bands:  4 eigenvalues not converged
     c_bands:  4 eigenvalues not converged
     c_bands:  4 eigenvalues not converged
     c_bands:  4 eigenvalues not converged
     c_bands:  4 eigenvalues not converged
     c_bands:  3 eigenvalues not converged
     c_bands:  4 eigenvalues not converged
     c_bands:  5 eigenvalues not converged
     c_bands:  4 eigenvalues not converged
     c_bands:  2 eigenvalues not converged
     c_bands:  5 eigenvalues not converged
     c_bands:  4 eigenvalues not converged
     c_bands:  4 eigenvalues not converged
     c_bands:  2 eigenvalues not converged
     c_bands:  2 eigenvalues not converged
     c_bands:  2 eigenvalues not converged
     c_bands:  4 eigenvalues not converged
     c_bands:  5 eigenvalues not converged
     c_bands:  4 eigenvalues not converged
     c_bands:  4 eigenvalues not converged
     c_bands:  5 eigenvalues not converged
     c_bands:  3 eigenvalues not converged
     c_bands:  2 eigenvalues not converged
     c_bands:  5 eigenvalues not converged
     c_bands:  4 eigenvalues not converged
     c_bands:  4 eigenvalues not converged
     c_bands:  4 eigenvalues not converged
     c_bands:  2 eigenvalues not converged
     c_bands:  4 eigenvalues not converged
     c_bands:  4 eigenvalues not converged
     c_bands:  5 eigenvalues not converged
     c_bands:  3 eigenvalues not converged
     c_bands:  4 eigenvalues not converged
     c_bands:  5 eigenvalues not converged
     c_bands:  4 eigenvalues not converged
     c_bands:  5 eigenvalues not converged
     c_bands:  4 eigenvalues not converged
     c_bands:  3 eigenvalues not converged
     c_bands:  2 eigenvalues not converged
     c_bands:  4 eigenvalues not converged
     c_bands:  3 eigenvalues not converged
     c_bands:  3 eigenvalues not converged
     c_bands:  4 eigenvalues not converged
     c_bands:  4 eigenvalues not converged
     c_bands:  3 eigenvalues not converged
     c_bands:  4 eigenvalues not converged
     c_bands:  4 eigenvalues not converged
     c_bands:  4 eigenvalues not converged
     c_bands:  5 eigenvalues not converged
     c_bands:  2 eigenvalues not converged
     c_bands:  4 eigenvalues not converged
     c_bands:  5 eigenvalues not converged
     c_bands:  4 eigenvalues not converged
     c_bands:  3 eigenvalues not converged
     c_bands:  3 eigenvalues not converged
     c_bands:  4 eigenvalues not converged
     c_bands:  3 eigenvalues not converged
     c_bands:  4 eigenvalues not converged
     c_bands:  3 eigenvalues not converged
     c_bands:  5 eigenvalues not converged
     c_bands:  4 eigenvalues not converged
     c_bands:  5 eigenvalues not converged
     c_bands:  4 eigenvalues not converged
     c_bands:  5 eigenvalues not converged
     c_bands:  3 eigenvalues not converged
     c_bands:  3 eigenvalues not converged
     ethr =  1.00E-02,  avg # of iterations = 15.1

     total cpu time spent up to now is       91.9 secs

     total energy              =    -580.52777285 Ry
     Harris-Foulkes estimate   =    -924.06758947 Ry
     estimated scf accuracy    <     423.00179079 Ry

     iteration #  2     ecut=    40.00 Ry     beta=0.70
     CG style diagonalization
     c_bands:  1 eigenvalues not converged
     c_bands:  1 eigenvalues not converged
     c_bands:  1 eigenvalues not converged
     c_bands:  1 eigenvalues not converged
     ethr =  1.00E-02,  avg # of iterations =  9.0

     total cpu time spent up to now is      143.2 secs

     total energy              =    -621.33072691 Ry
     Harris-Foulkes estimate   =    -763.75720954 Ry
     estimated scf accuracy    <     225.12392155 Ry

     iteration #  3     ecut=    40.00 Ry     beta=0.70
     CG style diagonalization
     c_bands:  1 eigenvalues not converged
     c_bands:  1 eigenvalues not converged
     c_bands:  1 eigenvalues not converged
     ethr =  1.00E-02,  avg # of iterations =  9.3

     total cpu time spent up to now is      195.5 secs

     total energy              =    -680.85915549 Ry
     Harris-Foulkes estimate   =    -720.24143493 Ry
     estimated scf accuracy    <      89.37940356 Ry

     iteration #  4     ecut=    40.00 Ry     beta=0.70
     CG style diagonalization
     ethr =  1.00E-02,  avg # of iterations =  6.4

     total cpu time spent up to now is      235.4 secs

     total energy              =    -702.94888480 Ry
     Harris-Foulkes estimate   =    -703.26681570 Ry
     estimated scf accuracy    <       0.62377527 Ry

     iteration #  5     ecut=    40.00 Ry     beta=0.70
     CG style diagonalization
     ethr =  1.39E-03,  avg # of iterations =  3.7

     total cpu time spent up to now is      257.6 secs

     total energy              =    -703.01321423 Ry
     Harris-Foulkes estimate   =    -703.04706988 Ry
     estimated scf accuracy    <       0.07054391 Ry

     iteration #  6     ecut=    40.00 Ry     beta=0.70
     CG style diagonalization
     c_bands:  1 eigenvalues not converged
     c_bands:  1 eigenvalues not converged
     c_bands:  1 eigenvalues not converged
     ethr =  1.57E-04,  avg # of iterations =  4.0

     total cpu time spent up to now is      281.4 secs

     total energy              =    -703.02418343 Ry
     Harris-Foulkes estimate   =    -703.02774903 Ry
     estimated scf accuracy    <       0.00621112 Ry

     iteration #  7     ecut=    40.00 Ry     beta=0.70
     CG style diagonalization
     c_bands:  1 eigenvalues not converged
     c_bands:  1 eigenvalues not converged
     c_bands:  1 eigenvalues not converged
     c_bands:  1 eigenvalues not converged
     c_bands:  1 eigenvalues not converged
     c_bands:  1 eigenvalues not converged
     c_bands:  1 eigenvalues not converged
     c_bands:  1 eigenvalues not converged
     c_bands:  1 eigenvalues not converged
     c_bands:  1 eigenvalues not converged
     c_bands:  1 eigenvalues not converged
     c_bands:  1 eigenvalues not converged
     c_bands:  1 eigenvalues not converged
     c_bands:  1 eigenvalues not converged
     c_bands:  1 eigenvalues not converged
     ethr =  1.38E-05,  avg # of iterations =  4.0

     total cpu time spent up to now is      307.4 secs

     total energy              =    -703.02537792 Ry
     Harris-Foulkes estimate   =    -703.02554101 Ry
     estimated scf accuracy    <       0.00027295 Ry

     iteration #  8     ecut=    40.00 Ry     beta=0.70
     CG style diagonalization
     c_bands:  1 eigenvalues not converged
     c_bands:  1 eigenvalues not converged
     c_bands:  1 eigenvalues not converged
     ethr =  6.07E-07,  avg # of iterations =  4.5

     total cpu time spent up to now is      334.8 secs

     End of self-consistent calculation

     Number of k-points >= 100: set verbosity='high' to print the bands.

     the Fermi energy is    25.8821 ev

!    total energy              =    -703.02551485 Ry
     Harris-Foulkes estimate   =    -703.02551731 Ry
     estimated scf accuracy    <       0.00000332 Ry

     The total energy is the sum of the following terms:

     one-electron contribution =    -252.66382897 Ry
     hartree contribution      =     143.14001513 Ry
     xc contribution           =     -57.81041559 Ry
     ewald contribution        =    -535.64463150 Ry
     smearing contrib. (-TS)   =      -0.04665393 Ry

     convergence has been achieved in   8 iterations

     Forces acting on atoms (Ry/au):

     atom    1 type  1   force =     0.00000000    0.00000000    0.00000000
     atom    2 type  2   force =     0.00000000    0.00000000    0.00000000

     Total force =     0.000000     Total SCF correction =     0.000000


     entering subroutine stress ...

          total   stress  (Ry/bohr**3)                   (kbar)     P=   52.11
   0.00035336   0.00000000   0.00000000         51.98      0.00      0.00
   0.00000000   0.00035336   0.00000000          0.00     51.98      0.00
   0.00000000   0.00000000   0.00035600          0.00      0.00     52.37


     BFGS Geometry Optimization

     number of scf cycles    =   1
     number of bfgs steps    =   0

     enthalpy new            =    -703.0255148475 Ry

     new trust radius        =       0.0313940730 bohr
     new conv_thr            =       0.0001000000 Ry

     new unit-cell volume =    319.41008 a.u.^3 (    47.33169 Ang^3 )

CELL_PARAMETERS (alat=  7.60545813)
   1.008833955   0.000000000   0.000000000
   0.504416978   0.873675833   0.000000000
   0.504416978   0.291225278   0.823763352

ATOMIC_POSITIONS (crystal)
Na       0.000000000   0.000000000   0.000000000
Cl       0.500000000   0.500000000   0.500000000



     Writing output data file Prototype-La-cF8-NaCl.save
     NEW-OLD atomic charge density approx. for the potential
     NEW k-points: (use verbosity='high' to print them)

     total cpu time spent up to now is      339.4 secs

     Self-consistent Calculation

     iteration #  1     ecut=    40.00 Ry     beta=0.70
     CG style diagonalization
     c_bands:  1 eigenvalues not converged
     c_bands:  1 eigenvalues not converged
     c_bands:  1 eigenvalues not converged
     c_bands:  1 eigenvalues not converged
     c_bands:  1 eigenvalues not converged
     c_bands:  1 eigenvalues not converged
     ethr =  1.00E-06,  avg # of iterations =  7.4

     total cpu time spent up to now is      384.0 secs

     total energy              =    -702.97893069 Ry
     Harris-Foulkes estimate   =    -703.08326259 Ry
     estimated scf accuracy    <       0.12877580 Ry

     iteration #  2     ecut=    40.00 Ry     beta=0.70
     CG style diagonalization
     ethr =  2.86E-04,  avg # of iterations =  3.8

     total cpu time spent up to now is      406.7 secs

     total energy              =    -703.02026390 Ry
     Harris-Foulkes estimate   =    -703.03418825 Ry
     estimated scf accuracy    <       0.02083042 Ry

     iteration #  3     ecut=    40.00 Ry     beta=0.70
     CG style diagonalization
     ethr =  4.63E-05,  avg # of iterations =  3.7

     total cpu time spent up to now is      427.3 secs

     End of self-consistent calculation

     Number of k-points >= 100: set verbosity='high' to print the bands.

     the Fermi energy is    25.0665 ev

!    total energy              =    -703.02509768 Ry
     Harris-Foulkes estimate   =    -703.02515794 Ry
     estimated scf accuracy    <       0.00006799 Ry

     The total energy is the sum of the following terms:

     one-electron contribution =    -259.82299612 Ry
     hartree contribution      =     145.51956019 Ry
     xc contribution           =     -57.73285581 Ry
     ewald contribution        =    -530.94263045 Ry
     smearing contrib. (-TS)   =      -0.04617550 Ry

     convergence has been achieved in   3 iterations

     Forces acting on atoms (Ry/au):

     atom    1 type  1   force =     0.00000000    0.00000000    0.00000000
     atom    2 type  2   force =     0.00000000    0.00000000    0.00000000

     Total force =     0.000000     Total SCF correction =     0.000000


     entering subroutine stress ...

          total   stress  (Ry/bohr**3)                   (kbar)     P=  -96.88
  -0.00065944   0.00000000   0.00000000        -97.01      0.00      0.00
   0.00000000  -0.00065944   0.00000000          0.00    -97.01      0.00
   0.00000000   0.00000000  -0.00065675          0.00      0.00    -96.61


     number of scf cycles    =   2
     number of bfgs steps    =   1

     enthalpy old            =    -703.0255148475 Ry
     enthalpy new            =    -703.0250976804 Ry

     CASE: enthalpy_new > enthalpy_old

     new trust radius        =       0.0137993919 bohr

     trust_radius < trust_radius_min

     resetting bfgs history

     new conv_thr            =       0.0001000000 Ry

     new unit-cell volume =    319.33625 a.u.^3 (    47.32075 Ang^3 )

CELL_PARAMETERS (alat=  7.60545813)
   1.008756027   0.000000000   0.000000000
   0.504378013   0.873608346   0.000000000
   0.504378013   0.291202782   0.823700191

ATOMIC_POSITIONS (crystal)
Na       0.000000000   0.000000000   0.000000000
Cl       0.500000000   0.500000000   0.500000000



     Writing output data file Prototype-La-cF8-NaCl.save
     NEW-OLD atomic charge density approx. for the potential
     NEW k-points: (use verbosity='high' to print them)

     total cpu time spent up to now is      432.5 secs

     Self-consistent Calculation

     iteration #  1     ecut=    40.00 Ry     beta=0.70
     CG style diagonalization
     ethr =  1.00E-06,  avg # of iterations =  4.0

     total cpu time spent up to now is      455.3 secs

     total energy              =    -703.02520483 Ry
     Harris-Foulkes estimate   =    -703.02531247 Ry
     estimated scf accuracy    <       0.00012621 Ry

     iteration #  2     ecut=    40.00 Ry     beta=0.70
     CG style diagonalization
     ethr =  2.80E-07,  avg # of iterations =  3.6

     total cpu time spent up to now is      477.2 secs

     End of self-consistent calculation

     Number of k-points >= 100: set verbosity='high' to print the bands.

     the Fermi energy is    25.0723 ev

!    total energy              =    -703.02523629 Ry
     Harris-Foulkes estimate   =    -703.02528048 Ry
     estimated scf accuracy    <       0.00004632 Ry

     The total energy is the sum of the following terms:

     one-electron contribution =    -259.81942640 Ry
     hartree contribution      =     145.56454141 Ry
     xc contribution           =     -57.74064234 Ry
     ewald contribution        =    -530.98354543 Ry
     smearing contrib. (-TS)   =      -0.04616352 Ry

     convergence has been achieved in   2 iterations

     Forces acting on atoms (Ry/au):

     atom    1 type  1   force =     0.00000000    0.00000000    0.00000000
     atom    2 type  2   force =     0.00000000    0.00000000    0.00000000

     Total force =     0.000000     Total SCF correction =     0.000000


     entering subroutine stress ...

          total   stress  (Ry/bohr**3)                   (kbar)     P=  -60.90
  -0.00041469   0.00000000   0.00000000        -61.00      0.00      0.00
   0.00000000  -0.00041469   0.00000000          0.00    -61.00      0.00
   0.00000000   0.00000000  -0.00041252          0.00      0.00    -60.68


     number of scf cycles    =   3
     number of bfgs steps    =   1

     enthalpy old            =    -703.0255148475 Ry
     enthalpy new            =    -703.0252362883 Ry

     CASE: enthalpy_new > enthalpy_old

     new trust radius        =       0.0142593036 bohr

     trust_radius < trust_radius_min

     resetting bfgs history

     Message from routine bfgs:
     history already reset at previous step: stopping
     new conv_thr            =       0.0001000000 Ry

     new unit-cell volume =    319.33689 a.u.^3 (    47.32084 Ang^3 )

CELL_PARAMETERS (alat=  7.60545813)
   1.008756698   0.000000000   0.000000000
   0.504378349   0.873608927   0.000000000
   0.504378349   0.291202976   0.823700751

ATOMIC_POSITIONS (crystal)
Na       0.000000000   0.000000000   0.000000000
Cl       0.500000000   0.500000000   0.500000000



     Writing output data file Prototype-La-cF8-NaCl.save
     NEW-OLD atomic charge density approx. for the potential
     NEW k-points: (use verbosity='high' to print them)

     total cpu time spent up to now is      482.0 secs

     Self-consistent Calculation

     iteration #  1     ecut=    40.00 Ry     beta=0.70
     CG style diagonalization
     ethr =  1.00E-06,  avg # of iterations =  3.3

     total cpu time spent up to now is      501.9 secs

     End of self-consistent calculation

     Number of k-points >= 100: set verbosity='high' to print the bands.

     the Fermi energy is    25.0741 ev

!    total energy              =    -703.02522343 Ry
     Harris-Foulkes estimate   =    -703.02529293 Ry
     estimated scf accuracy    <       0.00007302 Ry

     The total energy is the sum of the following terms:

     one-electron contribution =    -259.81770624 Ry
     hartree contribution      =     145.55954775 Ry
     xc contribution           =     -57.73774469 Ry
     ewald contribution        =    -530.98318936 Ry
     smearing contrib. (-TS)   =      -0.04613088 Ry

     convergence has been achieved in   1 iterations

     Forces acting on atoms (Ry/au):

     atom    1 type  1   force =     0.00000000    0.00000000    0.00000000
     atom    2 type  2   force =     0.00000000    0.00000000    0.00000000

     Total force =     0.000000     Total SCF correction =     0.000000


     entering subroutine stress ...

          total   stress  (Ry/bohr**3)                   (kbar)     P=  -69.21
  -0.00047117   0.00000000   0.00000000        -69.31      0.00      0.00
   0.00000000  -0.00047117   0.00000000          0.00    -69.31      0.00
   0.00000000   0.00000000  -0.00046907          0.00      0.00    -69.00


     The maximum number of steps has been reached.

     End of BFGS Geometry Optimization
Begin final coordinates
     new unit-cell volume =    319.33689 a.u.^3 (    47.32084 Ang^3 )

CELL_PARAMETERS (alat=  7.60545813)
   1.008756698   0.000000000   0.000000000
   0.504378349   0.873608927   0.000000000
   0.504378349   0.291202976   0.823700751

ATOMIC_POSITIONS (crystal)
Na       0.000000000   0.000000000   0.000000000
Cl       0.500000000   0.500000000   0.500000000
End final coordinates



     A final scf calculation at the relaxed structure.
     The G-vectors are recalculated for the final unit cell
     Results may differ from those at the preceding step.
 
     Parallelization info
     --------------------
     sticks:   dense  smooth     PW     G-vecs:    dense   smooth      PW
     Min         162     162     52                 2741     2741     520
     Max         163     163     53                 2745     2745     522
     Sum         649     649    211                10969    10969    2085
 


     bravais-lattice index     =            0
     lattice parameter (alat)  =       7.6055  a.u.
     unit-cell volume          =     319.3369 (a.u.)^3
     number of atoms/cell      =            2
     number of atomic types    =            2
     number of electrons       =        45.00
     number of Kohn-Sham states=           28
     kinetic-energy cutoff     =      40.0000  Ry
     charge density cutoff     =     160.0000  Ry
     convergence threshold     =      1.0E-04
     mixing beta               =       0.7000
     number of iterations used =            8  plain     mixing
     Exchange-correlation      = SLA-PZ-NOGX-NOGC ( 1 1 0 0 0)
     EXX-fraction              =        0.00

     celldm(1)=   7.605458  celldm(2)=   0.000000  celldm(3)=   0.000000
     celldm(4)=   0.000000  celldm(5)=   0.000000  celldm(6)=   0.000000

     crystal axes: (cart. coord. in units of alat)
               a(1) = (   1.008757   0.000000   0.000000 )  
               a(2) = (   0.504378   0.873609   0.000000 )  
               a(3) = (   0.504378   0.291203   0.823701 )  

     reciprocal axes: (cart. coord. in units 2 pi/alat)
               b(1) = (  0.991319 -0.572338 -0.404678 )  
               b(2) = (  0.000000  1.144677 -0.404678 )  
               b(3) = (  0.000000  0.000000  1.214033 )  


     PseudoPot. # 1 for Ho read from file:
     /home/cwx6513/pp.La/Ho.UPF
     MD5 check sum: f307ee11bce99f5b724fa279e3790763
     Pseudo is Norm-conserving, Zval = 21.0
     Generated in analytical, separable form
     Using radial grid of 1265 points,  6 beta functions with: 
                l(1) =   0
                l(2) =   0
                l(3) =   1
                l(4) =   1
                l(5) =   2
                l(6) =   3

     PseudoPot. # 2 for Yb read from file:
     /home/cwx6513/pp.La/Yb.UPF
     MD5 check sum: 3e859b81cc28c53ec6aa3a2e888efcdf
     Pseudo is Norm-conserving, Zval = 24.0
     Generated in analytical, separable form
     Using radial grid of 1269 points,  6 beta functions with: 
                l(1) =   0
                l(2) =   0
                l(3) =   1
                l(4) =   1
                l(5) =   2
                l(6) =   3

     atomic species   valence    mass     pseudopotential
        Na            21.00    22.98970     Ho( 1.00)
        Cl            24.00    35.45300     Yb( 1.00)

     12 Sym. Ops., with inversion, found



   Cartesian axes

     site n.     atom                  positions (alat units)
         1           Na  tau(   1) = (   0.0000000   0.0000000   0.0000000  )
         2           Cl  tau(   2) = (   1.0087567   0.5824060   0.4118504  )

     number of k points=   496  gaussian smearing, width (Ry)=  0.1000

     Number of k-points >= 100: set verbosity='high' to print them.

     Dense  grid:    10969 G-vectors     FFT dimensions: (  32,  32,  32)

     Largest allocated arrays     est. size (Mb)     dimensions
        Kohn-Sham Wavefunctions         0.15 Mb     (    348,   28)
        NL pseudopotentials             0.21 Mb     (    348,   40)
        Each V/rho on FFT grid          0.12 Mb     (   8192)
        Each G-vector array             0.02 Mb     (   2742)
        G-vector shells                 0.01 Mb     (    818)
     Largest temporary arrays     est. size (Mb)     dimensions
        Each subspace H/S matrix        0.01 Mb     (  28,  28)
        Each <psi_i|beta_j> matrix      0.02 Mb     (     40,   28)
        Arrays for rho mixing           1.00 Mb     (   8192,   8)

     Initial potential from superposition of free atoms

     Starting from uniform charge
     Starting wfc are    0 randomized atomic wfcs

     Writing output data file Prototype-La-cF8-NaCl.save

     total cpu time spent up to now is      512.8 secs

     Self-consistent Calculation

     iteration #  1     ecut=    40.00 Ry     beta=0.70
     CG style diagonalization
     c_bands:  1 eigenvalues not converged
     c_bands:  1 eigenvalues not converged
     c_bands:  2 eigenvalues not converged
     c_bands:  2 eigenvalues not converged
     c_bands:  5 eigenvalues not converged
     c_bands:  1 eigenvalues not converged
     c_bands:  2 eigenvalues not converged
     c_bands:  2 eigenvalues not converged
     c_bands:  1 eigenvalues not converged
     c_bands:  2 eigenvalues not converged
     c_bands:  2 eigenvalues not converged
     c_bands:  4 eigenvalues not converged
     c_bands:  2 eigenvalues not converged
     c_bands:  1 eigenvalues not converged
     c_bands:  1 eigenvalues not converged
     c_bands:  1 eigenvalues not converged
     c_bands:  2 eigenvalues not converged
     c_bands:  2 eigenvalues not converged
     c_bands:  4 eigenvalues not converged
     c_bands:  1 eigenvalues not converged
     c_bands:  1 eigenvalues not converged
     c_bands:  4 eigenvalues not converged
     c_bands:  1 eigenvalues not converged
     c_bands:  3 eigenvalues not converged
     c_bands:  1 eigenvalues not converged
     c_bands:  3 eigenvalues not converged
     c_bands:  2 eigenvalues not converged
     c_bands:  1 eigenvalues not converged
     c_bands:  2 eigenvalues not converged
     c_bands:  1 eigenvalues not converged
     c_bands:  5 eigenvalues not converged
     c_bands:  4 eigenvalues not converged
     c_bands:  1 eigenvalues not converged
     c_bands:  3 eigenvalues not converged
     c_bands:  4 eigenvalues not converged
     c_bands:  1 eigenvalues not converged
     c_bands:  2 eigenvalues not converged
     c_bands:  2 eigenvalues not converged
     c_bands:  2 eigenvalues not converged
     c_bands:  1 eigenvalues not converged
     c_bands:  1 eigenvalues not converged
     c_bands:  2 eigenvalues not converged
     c_bands:  1 eigenvalues not converged
     c_bands:  2 eigenvalues not converged
     c_bands:  1 eigenvalues not converged
     c_bands:  5 eigenvalues not converged
     c_bands:  3 eigenvalues not converged
     c_bands:  2 eigenvalues not converged
     c_bands:  1 eigenvalues not converged
     c_bands:  5 eigenvalues not converged
     c_bands:  2 eigenvalues not converged
     c_bands:  3 eigenvalues not converged
     c_bands:  5 eigenvalues not converged
     c_bands:  1 eigenvalues not converged
     c_bands:  1 eigenvalues not converged
     c_bands:  1 eigenvalues not converged
     c_bands:  2 eigenvalues not converged
     c_bands:  1 eigenvalues not converged
     c_bands:  1 eigenvalues not converged
     c_bands:  1 eigenvalues not converged
     c_bands:  2 eigenvalues not converged
     c_bands:  4 eigenvalues not converged
     c_bands:  4 eigenvalues not converged
     c_bands:  3 eigenvalues not converged
     c_bands:  1 eigenvalues not converged
     c_bands:  3 eigenvalues not converged
     c_bands:  2 eigenvalues not converged
     c_bands:  4 eigenvalues not converged
     c_bands:  2 eigenvalues not converged
     c_bands:  1 eigenvalues not converged
     c_bands:  2 eigenvalues not converged
     c_bands:  2 eigenvalues not converged
     c_bands:  2 eigenvalues not converged
     c_bands:  2 eigenvalues not converged
     c_bands:  3 eigenvalues not converged
     c_bands:  2 eigenvalues not converged
     c_bands:  5 eigenvalues not converged
     c_bands:  1 eigenvalues not converged
     c_bands:  1 eigenvalues not converged
     c_bands:  1 eigenvalues not converged
     c_bands:  2 eigenvalues not converged
     c_bands:  4 eigenvalues not converged
     c_bands:  1 eigenvalues not converged
     c_bands:  1 eigenvalues not converged
     c_bands:  1 eigenvalues not converged
     c_bands:  1 eigenvalues not converged
     c_bands:  1 eigenvalues not converged
     c_bands:  1 eigenvalues not converged
     c_bands:  5 eigenvalues not converged
     c_bands:  5 eigenvalues not converged
     c_bands:  5 eigenvalues not converged
     c_bands:  1 eigenvalues not converged
     c_bands:  2 eigenvalues not converged
     c_bands:  1 eigenvalues not converged
     c_bands:  3 eigenvalues not converged
     c_bands:  1 eigenvalues not converged
     c_bands:  4 eigenvalues not converged
     c_bands:  1 eigenvalues not converged
     c_bands:  3 eigenvalues not converged
     c_bands:  1 eigenvalues not converged
     c_bands:  1 eigenvalues not converged
     c_bands:  1 eigenvalues not converged
     c_bands:  2 eigenvalues not converged
     c_bands:  1 eigenvalues not converged
     c_bands:  1 eigenvalues not converged
     c_bands:  1 eigenvalues not converged
     c_bands:  4 eigenvalues not converged
     c_bands:  2 eigenvalues not converged
     c_bands:  3 eigenvalues not converged
     c_bands:  1 eigenvalues not converged
     c_bands:  1 eigenvalues not converged
     c_bands:  2 eigenvalues not converged
     c_bands:  2 eigenvalues not converged
     c_bands:  2 eigenvalues not converged
     c_bands:  2 eigenvalues not converged
     c_bands:  4 eigenvalues not converged
     c_bands:  1 eigenvalues not converged
     c_bands:  2 eigenvalues not converged
     c_bands:  1 eigenvalues not converged
     c_bands:  1 eigenvalues not converged
     c_bands:  2 eigenvalues not converged
     c_bands:  2 eigenvalues not converged
     c_bands:  4 eigenvalues not converged
     c_bands:  1 eigenvalues not converged
     c_bands:  1 eigenvalues not converged
     c_bands:  1 eigenvalues not converged
     c_bands:  3 eigenvalues not converged
     c_bands:  2 eigenvalues not converged
     c_bands:  1 eigenvalues not converged
     c_bands:  4 eigenvalues not converged
     c_bands:  1 eigenvalues not converged
     c_bands:  4 eigenvalues not converged
     c_bands:  2 eigenvalues not converged
     c_bands:  1 eigenvalues not converged
     c_bands:  1 eigenvalues not converged
     c_bands:  2 eigenvalues not converged
     c_bands:  5 eigenvalues not converged
     c_bands:  4 eigenvalues not converged
     c_bands:  2 eigenvalues not converged
     c_bands:  1 eigenvalues not converged
     c_bands:  2 eigenvalues not converged
     c_bands:  1 eigenvalues not converged
     c_bands:  1 eigenvalues not converged
     c_bands:  4 eigenvalues not converged
     c_bands:  1 eigenvalues not converged
     c_bands:  1 eigenvalues not converged
     c_bands:  2 eigenvalues not converged
     c_bands:  2 eigenvalues not converged
     c_bands:  1 eigenvalues not converged
     c_bands:  4 eigenvalues not converged
     c_bands:  1 eigenvalues not converged
     c_bands:  3 eigenvalues not converged
     c_bands:  2 eigenvalues not converged
     c_bands:  1 eigenvalues not converged
     c_bands:  3 eigenvalues not converged
     c_bands:  1 eigenvalues not converged
     c_bands:  2 eigenvalues not converged
     c_bands:  3 eigenvalues not converged
     c_bands:  1 eigenvalues not converged
     c_bands:  2 eigenvalues not converged
     ethr =  1.00E-06,  avg # of iterations = 43.7

     total cpu time spent up to now is      746.7 secs

     total energy              =    -558.13438153 Ry
     Harris-Foulkes estimate   =    -928.11977692 Ry
     estimated scf accuracy    <     453.29721479 Ry

     iteration #  2     ecut=    40.00 Ry     beta=0.70
     CG style diagonalization
     c_bands:  1 eigenvalues not converged
     c_bands:  1 eigenvalues not converged
     c_bands:  1 eigenvalues not converged
     c_bands:  1 eigenvalues not converged
     c_bands:  1 eigenvalues not converged
     c_bands:  1 eigenvalues not converged
     c_bands:  1 eigenvalues not converged
     c_bands:  1 eigenvalues not converged
     c_bands:  1 eigenvalues not converged
     c_bands:  1 eigenvalues not converged
     ethr =  1.00E-02,  avg # of iterations =  9.6

     total cpu time spent up to now is      803.9 secs

     total energy              =    -580.20529778 Ry
     Harris-Foulkes estimate   =    -799.04965737 Ry
     estimated scf accuracy    <     380.32553096 Ry

     iteration #  3     ecut=    40.00 Ry     beta=0.70
     CG style diagonalization
     c_bands:  1 eigenvalues not converged
     c_bands:  1 eigenvalues not converged
     ethr =  1.00E-02,  avg # of iterations =  8.9

     total cpu time spent up to now is      853.6 secs

     total energy              =    -684.72013785 Ry
     Harris-Foulkes estimate   =    -719.77380317 Ry
     estimated scf accuracy    <      75.37727456 Ry

     iteration #  4     ecut=    40.00 Ry     beta=0.70
     CG style diagonalization
     ethr =  1.00E-02,  avg # of iterations =  6.3

     total cpu time spent up to now is      888.6 secs

     total energy              =    -702.97725646 Ry
     Harris-Foulkes estimate   =    -703.30184751 Ry
     estimated scf accuracy    <       0.59730429 Ry

     iteration #  5     ecut=    40.00 Ry     beta=0.70
     CG style diagonalization
     ethr =  1.33E-03,  avg # of iterations =  3.6

     total cpu time spent up to now is      909.5 secs

     total energy              =    -703.06349243 Ry
     Harris-Foulkes estimate   =    -703.07929105 Ry
     estimated scf accuracy    <       0.03780807 Ry

     iteration #  6     ecut=    40.00 Ry     beta=0.70
     CG style diagonalization
     c_bands:  1 eigenvalues not converged
     c_bands:  1 eigenvalues not converged
     c_bands:  1 eigenvalues not converged
     c_bands:  1 eigenvalues not converged
     c_bands:  1 eigenvalues not converged
     c_bands:  1 eigenvalues not converged
     c_bands:  1 eigenvalues not converged
     c_bands:  1 eigenvalues not converged
     c_bands:  1 eigenvalues not converged
     c_bands:  1 eigenvalues not converged
     ethr =  8.40E-05,  avg # of iterations =  4.4

     total cpu time spent up to now is      935.8 secs

     total energy              =    -703.07269874 Ry
     Harris-Foulkes estimate   =    -703.07589311 Ry
     estimated scf accuracy    <       0.00568475 Ry

     iteration #  7     ecut=    40.00 Ry     beta=0.70
     CG style diagonalization
     c_bands:  1 eigenvalues not converged
     c_bands:  1 eigenvalues not converged
     c_bands:  1 eigenvalues not converged
     c_bands:  1 eigenvalues not converged
     c_bands:  1 eigenvalues not converged
     c_bands:  1 eigenvalues not converged
     c_bands:  1 eigenvalues not converged
     c_bands:  1 eigenvalues not converged
     c_bands:  1 eigenvalues not converged
     c_bands:  1 eigenvalues not converged
     ethr =  1.26E-05,  avg # of iterations =  3.8

     total cpu time spent up to now is      957.6 secs

     total energy              =    -703.07365950 Ry
     Harris-Foulkes estimate   =    -703.07385087 Ry
     estimated scf accuracy    <       0.00033856 Ry

     iteration #  8     ecut=    40.00 Ry     beta=0.70
     CG style diagonalization
     c_bands:  1 eigenvalues not converged
     c_bands:  1 eigenvalues not converged
     c_bands:  1 eigenvalues not converged
     c_bands:  1 eigenvalues not converged
     c_bands:  1 eigenvalues not converged
     c_bands:  1 eigenvalues not converged
     c_bands:  1 eigenvalues not converged
     c_bands:  1 eigenvalues not converged
     ethr =  7.52E-07,  avg # of iterations =  4.4

     total cpu time spent up to now is      983.8 secs

     End of self-consistent calculation

     Number of k-points >= 100: set verbosity='high' to print the bands.

     the Fermi energy is    25.0626 ev

!    total energy              =    -703.07371883 Ry
     Harris-Foulkes estimate   =    -703.07378264 Ry
     estimated scf accuracy    <       0.00007601 Ry

     The total energy is the sum of the following terms:

     one-electron contribution =    -259.91964715 Ry
     hartree contribution      =     145.62558021 Ry
     xc contribution           =     -57.75030515 Ry
     ewald contribution        =    -530.98318935 Ry
     smearing contrib. (-TS)   =      -0.04615739 Ry

     convergence has been achieved in   8 iterations

     Forces acting on atoms (Ry/au):

     atom    1 type  1   force =     0.00000000    0.00000000    0.00000000
     atom    2 type  2   force =     0.00000000    0.00000000    0.00000000

     Total force =     0.000000     Total SCF correction =     0.000000


     entering subroutine stress ...

          total   stress  (Ry/bohr**3)                   (kbar)     P=   -9.84
  -0.00006692   0.00000000   0.00000000         -9.84      0.00      0.00
   0.00000000  -0.00006692   0.00000000          0.00     -9.84      0.00
   0.00000000   0.00000000  -0.00006688          0.00      0.00     -9.84


     Writing output data file Prototype-La-cF8-NaCl.save
 
     init_run     :      9.34s CPU     10.72s WALL (       2 calls)
     electrons    :    766.42s CPU    952.91s WALL (       5 calls)
     update_pot   :      0.73s CPU      0.83s WALL (       3 calls)
     forces       :      3.16s CPU      3.38s WALL (       5 calls)
     stress       :     10.80s CPU     11.04s WALL (       5 calls)

     Called by init_run:
     wfcinit      :      8.98s CPU     10.30s WALL (       2 calls)
     potinit      :      0.14s CPU      0.14s WALL (       2 calls)

     Called by electrons:
     c_bands      :    726.65s CPU    906.37s WALL (      22 calls)
     sum_band     :     39.40s CPU     41.79s WALL (      22 calls)
     v_of_rho     :      0.02s CPU      0.02s WALL (      27 calls)
     mix_rho      :      0.10s CPU      0.10s WALL (      22 calls)

     Called by c_bands:
     init_us_2    :      4.52s CPU      4.88s WALL (   27776 calls)
     ccgdiagg     :    622.85s CPU    786.67s WALL (   11946 calls)
     wfcrot       :    109.20s CPU    119.15s WALL (   12442 calls)

     Called by *cgdiagg:
     h_psi        :    582.83s CPU    731.40s WALL ( 1980688 calls)
     cdiaghg      :      3.53s CPU      4.20s WALL (   12442 calls)

     Called by h_psi:
     add_vuspsi   :     22.63s CPU     30.88s WALL ( 1980688 calls)

     General routines
     calbec       :     76.71s CPU     94.86s WALL ( 3953894 calls)
     fft          :      0.08s CPU      0.08s WALL (     131 calls)
     fftw         :    503.57s CPU    619.32s WALL ( 4938780 calls)
     davcio       :      2.17s CPU      9.06s WALL (   38688 calls)
 
     Parallel routines
     fft_scatter  :    249.79s CPU    296.37s WALL ( 4938911 calls)
 
     PWSCF        : 13m14.00s CPU    16m28.77s WALL

 
   This run was terminated on:   1:19: 0  23Mar2018            

=------------------------------------------------------------------------------=
   JOB DONE.
=------------------------------------------------------------------------------=
