
     Program PWSCF v.5.0.2 starts on 22Mar2018 at 18:45:34 

     This program is part of the open-source Quantum ESPRESSO suite
     for quantum simulation of materials; please cite
         "P. Giannozzi et al., J. Phys.:Condens. Matter 21 395502 (2009);
          URL http://www.quantum-espresso.org", 
     in publications or presentations arising from this work. More details at
     http://www.quantum-espresso.org/quote.php

     Parallel version (MPI), running on     4 processors
     R & G space division:  proc/nbgrp/npool/nimage =       4

     Current dimensions of program PWSCF are:
     Max number of different atomic species (ntypx) = 10
     Max number of k-points (npk) =  40000
     Max angular momentum in pseudopotentials (lmaxx) =  3
     Waiting for input...
     Reading input from standard input

     Subspace diagonalization in iterative solution of the eigenvalue problem:
     a serial algorithm will be used

 
     Parallelization info
     --------------------
     sticks:   dense  smooth     PW     G-vecs:    dense   smooth      PW
     Min          93      93     30                 1717     1717     310
     Max          94      94     31                 1720     1720     313
     Sum         373     373    121                 6871     6871    1247
 


     bravais-lattice index     =            0
     lattice parameter (alat)  =       5.4125  a.u.
     unit-cell volume          =     202.7222 (a.u.)^3
     number of atoms/cell      =            2
     number of atomic types    =            2
     number of electrons       =        30.00
     number of Kohn-Sham states=           19
     kinetic-energy cutoff     =      40.0000  Ry
     charge density cutoff     =     160.0000  Ry
     convergence threshold     =      1.0E-04
     mixing beta               =       0.7000
     number of iterations used =            8  plain     mixing
     Exchange-correlation      = SLA-PZ-NOGX-NOGC ( 1 1 0 0 0)
     EXX-fraction              =        0.00
     nstep                     =           50


     celldm(1)=   5.412493  celldm(2)=   0.000000  celldm(3)=   0.000000
     celldm(4)=   0.000000  celldm(5)=   0.000000  celldm(6)=   0.000000

     crystal axes: (cart. coord. in units of alat)
               a(1) = (   1.000000   0.000000   0.000000 )  
               a(2) = (   0.000000   1.000000   0.000000 )  
               a(3) = (   0.000000   0.000000   1.278525 )  

     reciprocal axes: (cart. coord. in units 2 pi/alat)
               b(1) = (  1.000000  0.000000  0.000000 )  
               b(2) = (  0.000000  1.000000  0.000000 )  
               b(3) = (  0.000000  0.000000  0.782151 )  


     PseudoPot. # 1 for Sm read from file:
     /home/cwx6513/pp.La/Sm.UPF
     MD5 check sum: 5079e8b144a06bfcdbc14fb02b96ab09
     Pseudo is Norm-conserving, Zval = 16.0
     Generated in analytical, separable form
     Using radial grid of 1259 points,  6 beta functions with: 
                l(1) =   0
                l(2) =   0
                l(3) =   1
                l(4) =   1
                l(5) =   2
                l(6) =   3

     PseudoPot. # 2 for Nd read from file:
     /home/cwx6513/pp.La/Nd.UPF
     MD5 check sum: c66c5b6abe7b5840ced9b1e244e3bed6
     Pseudo is Norm-conserving, Zval = 14.0
     Generated in analytical, separable form
     Using radial grid of 1257 points,  6 beta functions with: 
                l(1) =   0
                l(2) =   0
                l(3) =   1
                l(4) =   1
                l(5) =   2
                l(6) =   3

     atomic species   valence    mass     pseudopotential
        Cu            16.00    63.54600     Sm( 1.00)
        Au            14.00   196.96600     Nd( 1.00)

     16 Sym. Ops., with inversion, found



   Cartesian axes

     site n.     atom                  positions (alat units)
         1           Cu  tau(   1) = (   0.5000000   0.5000000   0.6392626  )
         2           Au  tau(   2) = (   0.0000000   0.0000000   0.0000000  )

     number of k points=   100  gaussian smearing, width (Ry)=  0.1000

     Number of k-points >= 100: set verbosity='high' to print them.

     Dense  grid:     6871 G-vectors     FFT dimensions: (  24,  24,  27)

     Largest allocated arrays     est. size (Mb)     dimensions
        Kohn-Sham Wavefunctions         0.07 Mb     (    228,   19)
        NL pseudopotentials             0.14 Mb     (    228,   40)
        Each V/rho on FFT grid          0.06 Mb     (   4032)
        Each G-vector array             0.01 Mb     (   1720)
        G-vector shells                 0.01 Mb     (   1720)
     Largest temporary arrays     est. size (Mb)     dimensions
        Each subspace H/S matrix        0.01 Mb     (  19,  19)
        Each <psi_i|beta_j> matrix      0.01 Mb     (     40,   19)
        Arrays for rho mixing           0.49 Mb     (   4032,   8)

     Initial potential from superposition of free atoms

     Starting from uniform charge
     Starting wfc are    0 randomized atomic wfcs

     total cpu time spent up to now is        0.8 secs

     Self-consistent Calculation

     iteration #  1     ecut=    40.00 Ry     beta=0.70
     CG style diagonalization
     c_bands:  1 eigenvalues not converged
     ethr =  1.00E-02,  avg # of iterations = 10.3

     total cpu time spent up to now is        5.5 secs

     total energy              =    -240.26621731 Ry
     Harris-Foulkes estimate   =    -286.81772571 Ry
     estimated scf accuracy    <      61.78665862 Ry

     iteration #  2     ecut=    40.00 Ry     beta=0.70
     CG style diagonalization
     ethr =  1.00E-02,  avg # of iterations =  8.3

     total cpu time spent up to now is        9.2 secs

     total energy              =    -250.81930513 Ry
     Harris-Foulkes estimate   =    -274.63991349 Ry
     estimated scf accuracy    <      40.17325499 Ry

     iteration #  3     ecut=    40.00 Ry     beta=0.70
     CG style diagonalization
     ethr =  1.00E-02,  avg # of iterations =  6.9

     total cpu time spent up to now is       11.7 secs

     total energy              =    -260.71227422 Ry
     Harris-Foulkes estimate   =    -263.20666403 Ry
     estimated scf accuracy    <       5.16153790 Ry

     iteration #  4     ecut=    40.00 Ry     beta=0.70
     CG style diagonalization
     ethr =  1.00E-02,  avg # of iterations =  3.7

     total cpu time spent up to now is       13.0 secs

     total energy              =    -261.65750653 Ry
     Harris-Foulkes estimate   =    -261.70427859 Ry
     estimated scf accuracy    <       0.07573325 Ry

     iteration #  5     ecut=    40.00 Ry     beta=0.70
     CG style diagonalization
     c_bands:  1 eigenvalues not converged
     c_bands:  1 eigenvalues not converged
     c_bands:  1 eigenvalues not converged
     c_bands:  1 eigenvalues not converged
     c_bands:  1 eigenvalues not converged
     c_bands:  1 eigenvalues not converged
     c_bands:  1 eigenvalues not converged
     c_bands:  1 eigenvalues not converged
     ethr =  2.52E-04,  avg # of iterations =  5.5

     total cpu time spent up to now is       15.0 secs

     total energy              =    -261.71119203 Ry
     Harris-Foulkes estimate   =    -261.72574959 Ry
     estimated scf accuracy    <       0.03078683 Ry

     iteration #  6     ecut=    40.00 Ry     beta=0.70
     CG style diagonalization
     c_bands:  1 eigenvalues not converged
     ethr =  1.03E-04,  avg # of iterations =  3.6

     total cpu time spent up to now is       16.4 secs

     total energy              =    -261.71807272 Ry
     Harris-Foulkes estimate   =    -261.71876034 Ry
     estimated scf accuracy    <       0.00144085 Ry

     iteration #  7     ecut=    40.00 Ry     beta=0.70
     CG style diagonalization
     c_bands:  1 eigenvalues not converged
     c_bands:  1 eigenvalues not converged
     c_bands:  1 eigenvalues not converged
     c_bands:  1 eigenvalues not converged
     c_bands:  1 eigenvalues not converged
     c_bands:  1 eigenvalues not converged
     c_bands:  1 eigenvalues not converged
     c_bands:  1 eigenvalues not converged
     c_bands:  1 eigenvalues not converged
     ethr =  4.80E-06,  avg # of iterations =  4.6

     total cpu time spent up to now is       18.1 secs

     total energy              =    -261.71828483 Ry
     Harris-Foulkes estimate   =    -261.71851159 Ry
     estimated scf accuracy    <       0.00039606 Ry

     iteration #  8     ecut=    40.00 Ry     beta=0.70
     CG style diagonalization
     c_bands:  1 eigenvalues not converged
     ethr =  1.32E-06,  avg # of iterations =  3.7

     total cpu time spent up to now is       19.4 secs

     End of self-consistent calculation

     Number of k-points >= 100: set verbosity='high' to print the bands.

     the Fermi energy is    32.5999 ev

!    total energy              =    -261.71838034 Ry
     Harris-Foulkes estimate   =    -261.71843068 Ry
     estimated scf accuracy    <       0.00005471 Ry

     The total energy is the sum of the following terms:

     one-electron contribution =      31.27611211 Ry
     hartree contribution      =      17.02341955 Ry
     xc contribution           =     -30.53080968 Ry
     ewald contribution        =    -279.39011135 Ry
     smearing contrib. (-TS)   =      -0.09699097 Ry

     convergence has been achieved in   8 iterations

     Forces acting on atoms (Ry/au):

     atom    1 type  1   force =     0.00000000    0.00000000    0.00000000
     atom    2 type  2   force =     0.00000000    0.00000000    0.00000000

     Total force =     0.000000     Total SCF correction =     0.000000


     entering subroutine stress ...

          total   stress  (Ry/bohr**3)                   (kbar)     P= 1410.59
   0.00903338   0.00000000   0.00000000       1328.86      0.00      0.00
   0.00000000   0.00903338   0.00000000          0.00   1328.86      0.00
   0.00000000   0.00000000   0.01070014          0.00      0.00   1574.04


     BFGS Geometry Optimization

     number of scf cycles    =   1
     number of bfgs steps    =   0

     enthalpy new            =    -261.7183803371 Ry

     new trust radius        =       0.5000000000 bohr
     new conv_thr            =       0.0001000000 Ry

     new unit-cell volume =    314.20776 a.u.^3 (    46.56078 Ang^3 )

CELL_PARAMETERS (alat=  5.41249258)
   1.148234733   0.000000000   0.000000000
   0.000000000   1.148234733   0.000000000
   0.000000000   0.000000000   1.503015978

ATOMIC_POSITIONS (crystal)
Cu       0.500000000   0.500000000   0.500000000
Au       0.000000000   0.000000000   0.000000000



     Writing output data file Prototype-La-tP2-AuCu.save
     NEW-OLD atomic charge density approx. for the potential
     NEW k-points: (use verbosity='high' to print them)

     total cpu time spent up to now is       20.1 secs

     Self-consistent Calculation

     iteration #  1     ecut=    40.00 Ry     beta=0.70
     CG style diagonalization
     c_bands:  3 eigenvalues not converged
     c_bands:  1 eigenvalues not converged
     c_bands:  3 eigenvalues not converged
     c_bands:  1 eigenvalues not converged
     c_bands:  3 eigenvalues not converged
     c_bands:  1 eigenvalues not converged
     c_bands:  3 eigenvalues not converged
     c_bands:  3 eigenvalues not converged
     c_bands:  2 eigenvalues not converged
     c_bands:  3 eigenvalues not converged
     c_bands:  2 eigenvalues not converged
     c_bands:  2 eigenvalues not converged
     c_bands:  2 eigenvalues not converged
     c_bands:  2 eigenvalues not converged
     c_bands:  5 eigenvalues not converged
     c_bands:  1 eigenvalues not converged
     c_bands:  1 eigenvalues not converged
     c_bands:  1 eigenvalues not converged
     c_bands:  2 eigenvalues not converged
     c_bands:  2 eigenvalues not converged
     c_bands:  1 eigenvalues not converged
     c_bands:  3 eigenvalues not converged
     c_bands:  5 eigenvalues not converged
     c_bands:  2 eigenvalues not converged
     c_bands:  2 eigenvalues not converged
     c_bands:  4 eigenvalues not converged
     c_bands:  4 eigenvalues not converged
     c_bands:  3 eigenvalues not converged
     c_bands:  5 eigenvalues not converged
     c_bands:  2 eigenvalues not converged
     c_bands:  2 eigenvalues not converged
     c_bands:  1 eigenvalues not converged
     c_bands:  3 eigenvalues not converged
     c_bands:  3 eigenvalues not converged
     c_bands:  1 eigenvalues not converged
     c_bands:  3 eigenvalues not converged
     c_bands:  3 eigenvalues not converged
     c_bands:  4 eigenvalues not converged
     c_bands:  2 eigenvalues not converged
     c_bands:  4 eigenvalues not converged
     c_bands:  5 eigenvalues not converged
     c_bands:  3 eigenvalues not converged
     c_bands:  5 eigenvalues not converged
     c_bands:  5 eigenvalues not converged
     c_bands:  1 eigenvalues not converged
     c_bands:  2 eigenvalues not converged
     c_bands:  2 eigenvalues not converged
     c_bands:  2 eigenvalues not converged
     c_bands:  3 eigenvalues not converged
     c_bands:  2 eigenvalues not converged
     c_bands:  2 eigenvalues not converged
     c_bands:  2 eigenvalues not converged
     c_bands:  2 eigenvalues not converged
     c_bands:  5 eigenvalues not converged
     c_bands:  2 eigenvalues not converged
     c_bands:  5 eigenvalues not converged
     c_bands:  3 eigenvalues not converged
     c_bands:  4 eigenvalues not converged
     c_bands:  5 eigenvalues not converged
     c_bands:  2 eigenvalues not converged
     c_bands:  3 eigenvalues not converged
     c_bands:  5 eigenvalues not converged
     c_bands:  5 eigenvalues not converged
     c_bands:  1 eigenvalues not converged
     c_bands:  1 eigenvalues not converged
     c_bands:  1 eigenvalues not converged
     c_bands:  2 eigenvalues not converged
     ethr =  1.00E-06,  avg # of iterations = 16.0

     total cpu time spent up to now is       25.9 secs

     total energy              =    -255.60230808 Ry
     Harris-Foulkes estimate   =    -266.76930381 Ry
     estimated scf accuracy    <      14.39978475 Ry

     iteration #  2     ecut=    40.00 Ry     beta=0.70
     CG style diagonalization
     ethr =  1.00E-02,  avg # of iterations =  4.8

     total cpu time spent up to now is       27.8 secs

     total energy              =    -256.75454998 Ry
     Harris-Foulkes estimate   =    -268.18787505 Ry
     estimated scf accuracy    <      24.38950682 Ry

     iteration #  3     ecut=    40.00 Ry     beta=0.70
     CG style diagonalization
     ethr =  1.00E-02,  avg # of iterations =  5.0

     total cpu time spent up to now is       29.6 secs

     total energy              =    -261.24396216 Ry
     Harris-Foulkes estimate   =    -262.68360258 Ry
     estimated scf accuracy    <       3.55828793 Ry

     iteration #  4     ecut=    40.00 Ry     beta=0.70
     CG style diagonalization
     ethr =  1.00E-02,  avg # of iterations =  3.4

     total cpu time spent up to now is       30.8 secs

     total energy              =    -261.71807985 Ry
     Harris-Foulkes estimate   =    -261.77766188 Ry
     estimated scf accuracy    <       0.12616561 Ry

     iteration #  5     ecut=    40.00 Ry     beta=0.70
     CG style diagonalization
     ethr =  4.21E-04,  avg # of iterations =  4.5

     total cpu time spent up to now is       32.4 secs

     total energy              =    -261.75916616 Ry
     Harris-Foulkes estimate   =    -261.78848778 Ry
     estimated scf accuracy    <       0.06658103 Ry

     iteration #  6     ecut=    40.00 Ry     beta=0.70
     CG style diagonalization
     ethr =  2.22E-04,  avg # of iterations =  3.7

     total cpu time spent up to now is       33.7 secs

     total energy              =    -261.77050855 Ry
     Harris-Foulkes estimate   =    -261.79217746 Ry
     estimated scf accuracy    <       0.06359593 Ry

     iteration #  7     ecut=    40.00 Ry     beta=0.70
     CG style diagonalization
     ethr =  2.12E-04,  avg # of iterations =  3.1

     total cpu time spent up to now is       34.9 secs

     total energy              =    -261.77731846 Ry
     Harris-Foulkes estimate   =    -261.77802384 Ry
     estimated scf accuracy    <       0.00101588 Ry

     iteration #  8     ecut=    40.00 Ry     beta=0.70
     CG style diagonalization
     ethr =  3.39E-06,  avg # of iterations =  4.8

     total cpu time spent up to now is       36.6 secs

     total energy              =    -261.77822632 Ry
     Harris-Foulkes estimate   =    -261.77849755 Ry
     estimated scf accuracy    <       0.00083165 Ry

     iteration #  9     ecut=    40.00 Ry     beta=0.70
     CG style diagonalization
     ethr =  2.77E-06,  avg # of iterations =  3.1

     total cpu time spent up to now is       37.7 secs

     End of self-consistent calculation

     Number of k-points >= 100: set verbosity='high' to print the bands.

     the Fermi energy is    19.4946 ev

!    total energy              =    -261.77829669 Ry
     Harris-Foulkes estimate   =    -261.77831645 Ry
     estimated scf accuracy    <       0.00002335 Ry

     The total energy is the sum of the following terms:

     one-electron contribution =     -19.58561187 Ry
     hartree contribution      =      28.41961599 Ry
     xc contribution           =     -29.03390829 Ry
     ewald contribution        =    -241.41721025 Ry
     smearing contrib. (-TS)   =      -0.16118226 Ry

     convergence has been achieved in   9 iterations

     Forces acting on atoms (Ry/au):

     atom    1 type  1   force =     0.00000000    0.00000000    0.00000000
     atom    2 type  2   force =     0.00000000    0.00000000    0.00000000

     Total force =     0.000000     Total SCF correction =     0.000000


     entering subroutine stress ...

          total   stress  (Ry/bohr**3)                   (kbar)     P= -692.09
  -0.00471174   0.00000000   0.00000000       -693.12      0.00      0.00
   0.00000000  -0.00471174   0.00000000          0.00   -693.12      0.00
   0.00000000   0.00000000  -0.00469069          0.00      0.00   -690.02


     number of scf cycles    =   2
     number of bfgs steps    =   1

     enthalpy old            =    -261.7183803371 Ry
     enthalpy new            =    -261.7782966875 Ry

     CASE: enthalpy_new < enthalpy_old

     small trust_radius: resetting bfgs history

     new trust radius        =       0.4175990920 bohr
     new conv_thr            =       0.0000010000 Ry

     new unit-cell volume =    215.86725 a.u.^3 (    31.98823 Ang^3 )

CELL_PARAMETERS (alat=  5.41249258)
   1.012980214   0.000000000   0.000000000
   0.000000000   1.012980214   0.000000000
   0.000000000   0.000000000   1.326761569

ATOMIC_POSITIONS (crystal)
Cu       0.500000000   0.500000000   0.500000000
Au       0.000000000   0.000000000   0.000000000



     Writing output data file Prototype-La-tP2-AuCu.save
     NEW-OLD atomic charge density approx. for the potential
     NEW k-points: (use verbosity='high' to print them)

     total cpu time spent up to now is       38.5 secs

     Self-consistent Calculation

     iteration #  1     ecut=    40.00 Ry     beta=0.70
     CG style diagonalization
     c_bands:  1 eigenvalues not converged
     c_bands:  5 eigenvalues not converged
     c_bands:  1 eigenvalues not converged
     c_bands:  1 eigenvalues not converged
     c_bands:  2 eigenvalues not converged
     c_bands:  1 eigenvalues not converged
     c_bands:  1 eigenvalues not converged
     c_bands:  2 eigenvalues not converged
     c_bands:  3 eigenvalues not converged
     c_bands:  3 eigenvalues not converged
     c_bands:  2 eigenvalues not converged
     c_bands:  1 eigenvalues not converged
     c_bands:  3 eigenvalues not converged
     c_bands:  3 eigenvalues not converged
     c_bands:  1 eigenvalues not converged
     c_bands:  5 eigenvalues not converged
     c_bands:  2 eigenvalues not converged
     c_bands:  3 eigenvalues not converged
     c_bands:  3 eigenvalues not converged
     c_bands:  3 eigenvalues not converged
     c_bands:  1 eigenvalues not converged
     c_bands:  4 eigenvalues not converged
     c_bands:  3 eigenvalues not converged
     c_bands:  5 eigenvalues not converged
     c_bands:  2 eigenvalues not converged
     c_bands:  4 eigenvalues not converged
     c_bands:  3 eigenvalues not converged
     c_bands:  2 eigenvalues not converged
     c_bands:  2 eigenvalues not converged
     c_bands:  4 eigenvalues not converged
     c_bands:  1 eigenvalues not converged
     c_bands:  4 eigenvalues not converged
     c_bands:  3 eigenvalues not converged
     c_bands:  3 eigenvalues not converged
     c_bands:  4 eigenvalues not converged
     c_bands:  2 eigenvalues not converged
     c_bands:  5 eigenvalues not converged
     c_bands:  4 eigenvalues not converged
     c_bands:  2 eigenvalues not converged
     c_bands:  2 eigenvalues not converged
     c_bands:  5 eigenvalues not converged
     c_bands:  4 eigenvalues not converged
     c_bands:  5 eigenvalues not converged
     c_bands:  1 eigenvalues not converged
     c_bands:  1 eigenvalues not converged
     c_bands:  1 eigenvalues not converged
     c_bands:  1 eigenvalues not converged
     c_bands:  2 eigenvalues not converged
     c_bands:  3 eigenvalues not converged
     c_bands:  2 eigenvalues not converged
     c_bands:  5 eigenvalues not converged
     c_bands:  3 eigenvalues not converged
     c_bands:  3 eigenvalues not converged
     c_bands:  5 eigenvalues not converged
     c_bands:  5 eigenvalues not converged
     c_bands:  3 eigenvalues not converged
     c_bands:  5 eigenvalues not converged
     c_bands:  5 eigenvalues not converged
     c_bands:  3 eigenvalues not converged
     c_bands:  5 eigenvalues not converged
     c_bands:  5 eigenvalues not converged
     c_bands:  3 eigenvalues not converged
     c_bands:  1 eigenvalues not converged
     c_bands:  1 eigenvalues not converged
     c_bands:  1 eigenvalues not converged
     ethr =  1.00E-06,  avg # of iterations = 15.1

     total cpu time spent up to now is       43.9 secs

     total energy              =    -260.01241704 Ry
     Harris-Foulkes estimate   =    -265.11904177 Ry
     estimated scf accuracy    <       6.65610501 Ry

     iteration #  2     ecut=    40.00 Ry     beta=0.70
     CG style diagonalization
     ethr =  1.00E-02,  avg # of iterations =  4.1

     total cpu time spent up to now is       45.4 secs

     total energy              =    -260.80066116 Ry
     Harris-Foulkes estimate   =    -262.56122602 Ry
     estimated scf accuracy    <       2.78190188 Ry

     iteration #  3     ecut=    40.00 Ry     beta=0.70
     CG style diagonalization
     ethr =  9.27E-03,  avg # of iterations =  3.5

     total cpu time spent up to now is       46.6 secs

     total energy              =    -261.43512833 Ry
     Harris-Foulkes estimate   =    -262.24305254 Ry
     estimated scf accuracy    <       2.07129339 Ry

     iteration #  4     ecut=    40.00 Ry     beta=0.70
     CG style diagonalization
     ethr =  6.90E-03,  avg # of iterations =  3.1

     total cpu time spent up to now is       47.7 secs

     total energy              =    -261.81399647 Ry
     Harris-Foulkes estimate   =    -261.82054327 Ry
     estimated scf accuracy    <       0.01270974 Ry

     iteration #  5     ecut=    40.00 Ry     beta=0.70
     CG style diagonalization
     ethr =  4.24E-05,  avg # of iterations =  4.7

     total cpu time spent up to now is       49.4 secs

     total energy              =    -261.82653110 Ry
     Harris-Foulkes estimate   =    -261.82968537 Ry
     estimated scf accuracy    <       0.00988680 Ry

     iteration #  6     ecut=    40.00 Ry     beta=0.70
     CG style diagonalization
     ethr =  3.30E-05,  avg # of iterations =  3.0

     total cpu time spent up to now is       50.5 secs

     total energy              =    -261.82703995 Ry
     Harris-Foulkes estimate   =    -261.82740751 Ry
     estimated scf accuracy    <       0.00110687 Ry

     iteration #  7     ecut=    40.00 Ry     beta=0.70
     CG style diagonalization
     ethr =  3.69E-06,  avg # of iterations =  3.9

     total cpu time spent up to now is       51.9 secs

     total energy              =    -261.82733485 Ry
     Harris-Foulkes estimate   =    -261.82733688 Ry
     estimated scf accuracy    <       0.00000363 Ry

     iteration #  8     ecut=    40.00 Ry     beta=0.70
     CG style diagonalization
     ethr =  1.21E-08,  avg # of iterations =  5.2

     total cpu time spent up to now is       53.7 secs

     End of self-consistent calculation

     Number of k-points >= 100: set verbosity='high' to print the bands.

     the Fermi energy is    30.3557 ev

!    total energy              =    -261.82734418 Ry
     Harris-Foulkes estimate   =    -261.82734420 Ry
     estimated scf accuracy    <       0.00000003 Ry

     The total energy is the sum of the following terms:

     one-electron contribution =      23.62728920 Ry
     hartree contribution      =      18.51688367 Ry
     xc contribution           =     -30.27229442 Ry
     ewald contribution        =    -273.59710009 Ry
     smearing contrib. (-TS)   =      -0.10212254 Ry

     convergence has been achieved in   8 iterations

     Forces acting on atoms (Ry/au):

     atom    1 type  1   force =     0.00000000    0.00000000    0.00000000
     atom    2 type  2   force =     0.00000000    0.00000000    0.00000000

     Total force =     0.000000     Total SCF correction =     0.000000


     entering subroutine stress ...

          total   stress  (Ry/bohr**3)                   (kbar)     P=  931.80
   0.00600519   0.00000000   0.00000000        883.39      0.00      0.00
   0.00000000   0.00600519   0.00000000          0.00    883.39      0.00
   0.00000000   0.00000000   0.00699243          0.00      0.00   1028.62


     number of scf cycles    =   3
     number of bfgs steps    =   2

     enthalpy old            =    -261.7782966875 Ry
     enthalpy new            =    -261.8273441817 Ry

     CASE: enthalpy_new < enthalpy_old

     Message from routine bfgs:
     history already reset at previous step: stopping
     small trust_radius: resetting bfgs history

     new trust radius        =       0.5136784194 bohr
     new conv_thr            =       0.0000010000 Ry

     new unit-cell volume =    335.46589 a.u.^3 (    49.71092 Ang^3 )

CELL_PARAMETERS (alat=  5.41249258)
   1.165058765   0.000000000   0.000000000
   0.000000000   1.165058765   0.000000000
   0.000000000   0.000000000   1.558693657

ATOMIC_POSITIONS (crystal)
Cu       0.500000000   0.500000000   0.500000000
Au       0.000000000   0.000000000   0.000000000



     Writing output data file Prototype-La-tP2-AuCu.save
     NEW-OLD atomic charge density approx. for the potential
     NEW k-points: (use verbosity='high' to print them)

     total cpu time spent up to now is       54.5 secs

     Self-consistent Calculation

     iteration #  1     ecut=    40.00 Ry     beta=0.70
     CG style diagonalization
     c_bands:  1 eigenvalues not converged
     c_bands:  2 eigenvalues not converged
     c_bands:  2 eigenvalues not converged
     c_bands:  3 eigenvalues not converged
     c_bands:  3 eigenvalues not converged
     c_bands:  1 eigenvalues not converged
     c_bands:  4 eigenvalues not converged
     c_bands:  5 eigenvalues not converged
     c_bands:  3 eigenvalues not converged
     c_bands:  3 eigenvalues not converged
     c_bands:  2 eigenvalues not converged
     c_bands:  2 eigenvalues not converged
     c_bands:  3 eigenvalues not converged
     c_bands:  2 eigenvalues not converged
     c_bands:  3 eigenvalues not converged
     c_bands:  1 eigenvalues not converged
     c_bands:  1 eigenvalues not converged
     c_bands:  1 eigenvalues not converged
     c_bands:  1 eigenvalues not converged
     c_bands:  1 eigenvalues not converged
     c_bands:  1 eigenvalues not converged
     c_bands:  2 eigenvalues not converged
     c_bands:  2 eigenvalues not converged
     c_bands:  3 eigenvalues not converged
     c_bands:  1 eigenvalues not converged
     c_bands:  5 eigenvalues not converged
     c_bands:  5 eigenvalues not converged
     c_bands:  4 eigenvalues not converged
     c_bands:  3 eigenvalues not converged
     c_bands:  4 eigenvalues not converged
     c_bands:  4 eigenvalues not converged
     c_bands:  1 eigenvalues not converged
     c_bands:  2 eigenvalues not converged
     c_bands:  1 eigenvalues not converged
     c_bands:  2 eigenvalues not converged
     c_bands:  4 eigenvalues not converged
     c_bands:  1 eigenvalues not converged
     c_bands:  1 eigenvalues not converged
     c_bands:  3 eigenvalues not converged
     c_bands:  2 eigenvalues not converged
     c_bands:  5 eigenvalues not converged
     c_bands:  2 eigenvalues not converged
     c_bands:  5 eigenvalues not converged
     c_bands:  5 eigenvalues not converged
     c_bands:  3 eigenvalues not converged
     c_bands:  5 eigenvalues not converged
     c_bands:  5 eigenvalues not converged
     c_bands:  1 eigenvalues not converged
     c_bands:  3 eigenvalues not converged
     c_bands:  2 eigenvalues not converged
     c_bands:  3 eigenvalues not converged
     c_bands:  3 eigenvalues not converged
     c_bands:  2 eigenvalues not converged
     c_bands:  2 eigenvalues not converged
     c_bands:  2 eigenvalues not converged
     c_bands:  3 eigenvalues not converged
     c_bands:  5 eigenvalues not converged
     c_bands:  3 eigenvalues not converged
     c_bands:  1 eigenvalues not converged
     c_bands:  4 eigenvalues not converged
     c_bands:  5 eigenvalues not converged
     c_bands:  4 eigenvalues not converged
     c_bands:  5 eigenvalues not converged
     c_bands:  1 eigenvalues not converged
     c_bands:  2 eigenvalues not converged
     c_bands:  2 eigenvalues not converged
     c_bands:  2 eigenvalues not converged
     ethr =  1.00E-06,  avg # of iterations = 15.8

     total cpu time spent up to now is       60.8 secs

     total energy              =    -255.10168330 Ry
     Harris-Foulkes estimate   =    -266.91041659 Ry
     estimated scf accuracy    <      15.19616688 Ry

     iteration #  2     ecut=    40.00 Ry     beta=0.70
     CG style diagonalization
     ethr =  1.00E-02,  avg # of iterations =  4.9

     total cpu time spent up to now is       62.6 secs

     total energy              =    -256.32399752 Ry
     Harris-Foulkes estimate   =    -268.63923293 Ry
     estimated scf accuracy    <      26.44426249 Ry

     iteration #  3     ecut=    40.00 Ry     beta=0.70
     CG style diagonalization
     ethr =  1.00E-02,  avg # of iterations =  5.1

     total cpu time spent up to now is       64.4 secs

     total energy              =    -261.02325369 Ry
     Harris-Foulkes estimate   =    -262.78357493 Ry
     estimated scf accuracy    <       4.49393579 Ry

     iteration #  4     ecut=    40.00 Ry     beta=0.70
     CG style diagonalization
     ethr =  1.00E-02,  avg # of iterations =  3.5

     total cpu time spent up to now is       65.7 secs

     total energy              =    -261.60584175 Ry
     Harris-Foulkes estimate   =    -261.68082318 Ry
     estimated scf accuracy    <       0.16700288 Ry

     iteration #  5     ecut=    40.00 Ry     beta=0.70
     CG style diagonalization
     ethr =  5.57E-04,  avg # of iterations =  4.4

     total cpu time spent up to now is       67.2 secs

     total energy              =    -261.64222265 Ry
     Harris-Foulkes estimate   =    -261.68205714 Ry
     estimated scf accuracy    <       0.08674791 Ry

     iteration #  6     ecut=    40.00 Ry     beta=0.70
     CG style diagonalization
     ethr =  2.89E-04,  avg # of iterations =  3.8

     total cpu time spent up to now is       68.6 secs

     total energy              =    -261.65551728 Ry
     Harris-Foulkes estimate   =    -261.69512825 Ry
     estimated scf accuracy    <       0.13395575 Ry

     iteration #  7     ecut=    40.00 Ry     beta=0.70
     CG style diagonalization
     ethr =  2.89E-04,  avg # of iterations =  3.2

     total cpu time spent up to now is       69.8 secs

     total energy              =    -261.66887752 Ry
     Harris-Foulkes estimate   =    -261.66989975 Ry
     estimated scf accuracy    <       0.00155267 Ry

     iteration #  8     ecut=    40.00 Ry     beta=0.70
     CG style diagonalization
     c_bands:  1 eigenvalues not converged
     ethr =  5.18E-06,  avg # of iterations =  4.8

     total cpu time spent up to now is       71.5 secs

     total energy              =    -261.67011412 Ry
     Harris-Foulkes estimate   =    -261.67035183 Ry
     estimated scf accuracy    <       0.00093892 Ry

     iteration #  9     ecut=    40.00 Ry     beta=0.70
     CG style diagonalization
     ethr =  3.13E-06,  avg # of iterations =  3.0

     total cpu time spent up to now is       72.5 secs

     total energy              =    -261.67013426 Ry
     Harris-Foulkes estimate   =    -261.67017994 Ry
     estimated scf accuracy    <       0.00010833 Ry

     iteration # 10     ecut=    40.00 Ry     beta=0.70
     CG style diagonalization
     ethr =  3.61E-07,  avg # of iterations =  4.1

     total cpu time spent up to now is       74.0 secs

     total energy              =    -261.67016871 Ry
     Harris-Foulkes estimate   =    -261.67017382 Ry
     estimated scf accuracy    <       0.00001429 Ry

     iteration # 11     ecut=    40.00 Ry     beta=0.70
     CG style diagonalization
     ethr =  4.76E-08,  avg # of iterations =  3.5

     total cpu time spent up to now is       75.2 secs

     End of self-consistent calculation

     Number of k-points >= 100: set verbosity='high' to print the bands.

     the Fermi energy is    17.9457 ev

!    total energy              =    -261.67019222 Ry
     Harris-Foulkes estimate   =    -261.67019282 Ry
     estimated scf accuracy    <       0.00000066 Ry

     The total energy is the sum of the following terms:

     one-electron contribution =     -26.80406307 Ry
     hartree contribution      =      30.39036991 Ry
     xc contribution           =     -28.87625381 Ry
     ewald contribution        =    -236.20364004 Ry
     smearing contrib. (-TS)   =      -0.17660521 Ry

     convergence has been achieved in  11 iterations

     Forces acting on atoms (Ry/au):

     atom    1 type  1   force =     0.00000000    0.00000000    0.00000000
     atom    2 type  2   force =     0.00000000    0.00000000    0.00000000

     Total force =     0.000000     Total SCF correction =     0.000000


     entering subroutine stress ...

          total   stress  (Ry/bohr**3)                   (kbar)     P= -801.80
  -0.00531071   0.00000000   0.00000000       -781.23      0.00      0.00
   0.00000000  -0.00531071   0.00000000          0.00   -781.23      0.00
   0.00000000   0.00000000  -0.00573012          0.00      0.00   -842.93


     The maximum number of steps has been reached.

     End of BFGS Geometry Optimization
Begin final coordinates
     new unit-cell volume =    335.46589 a.u.^3 (    49.71092 Ang^3 )

CELL_PARAMETERS (alat=  5.41249258)
   1.165058765   0.000000000   0.000000000
   0.000000000   1.165058765   0.000000000
   0.000000000   0.000000000   1.558693657

ATOMIC_POSITIONS (crystal)
Cu       0.500000000   0.500000000   0.500000000
Au       0.000000000   0.000000000   0.000000000
End final coordinates



     A final scf calculation at the relaxed structure.
     The G-vectors are recalculated for the final unit cell
     Results may differ from those at the preceding step.
 
     Parallelization info
     --------------------
     sticks:   dense  smooth     PW     G-vecs:    dense   smooth      PW
     Min         126     126     39                 2862     2862     496
     Max         127     127     41                 2863     2863     497
     Sum         505     505    161                11449    11449    1987
 


     bravais-lattice index     =            0
     lattice parameter (alat)  =       5.4125  a.u.
     unit-cell volume          =     335.4659 (a.u.)^3
     number of atoms/cell      =            2
     number of atomic types    =            2
     number of electrons       =        30.00
     number of Kohn-Sham states=           19
     kinetic-energy cutoff     =      40.0000  Ry
     charge density cutoff     =     160.0000  Ry
     convergence threshold     =      1.0E-06
     mixing beta               =       0.7000
     number of iterations used =            8  plain     mixing
     Exchange-correlation      = SLA-PZ-NOGX-NOGC ( 1 1 0 0 0)
     EXX-fraction              =        0.00

     celldm(1)=   5.412493  celldm(2)=   0.000000  celldm(3)=   0.000000
     celldm(4)=   0.000000  celldm(5)=   0.000000  celldm(6)=   0.000000

     crystal axes: (cart. coord. in units of alat)
               a(1) = (   1.165059   0.000000   0.000000 )  
               a(2) = (   0.000000   1.165059   0.000000 )  
               a(3) = (   0.000000   0.000000   1.558694 )  

     reciprocal axes: (cart. coord. in units 2 pi/alat)
               b(1) = (  0.858326  0.000000  0.000000 )  
               b(2) = (  0.000000  0.858326  0.000000 )  
               b(3) = (  0.000000  0.000000  0.641563 )  


     PseudoPot. # 1 for Sm read from file:
     /home/cwx6513/pp.La/Sm.UPF
     MD5 check sum: 5079e8b144a06bfcdbc14fb02b96ab09
     Pseudo is Norm-conserving, Zval = 16.0
     Generated in analytical, separable form
     Using radial grid of 1259 points,  6 beta functions with: 
                l(1) =   0
                l(2) =   0
                l(3) =   1
                l(4) =   1
                l(5) =   2
                l(6) =   3

     PseudoPot. # 2 for Nd read from file:
     /home/cwx6513/pp.La/Nd.UPF
     MD5 check sum: c66c5b6abe7b5840ced9b1e244e3bed6
     Pseudo is Norm-conserving, Zval = 14.0
     Generated in analytical, separable form
     Using radial grid of 1257 points,  6 beta functions with: 
                l(1) =   0
                l(2) =   0
                l(3) =   1
                l(4) =   1
                l(5) =   2
                l(6) =   3

     atomic species   valence    mass     pseudopotential
        Cu            16.00    63.54600     Sm( 1.00)
        Au            14.00   196.96600     Nd( 1.00)

     16 Sym. Ops., with inversion, found



   Cartesian axes

     site n.     atom                  positions (alat units)
         1           Cu  tau(   1) = (   0.5825294   0.5825294   0.7793468  )
         2           Au  tau(   2) = (   0.0000000   0.0000000   0.0000000  )

     number of k points=   100  gaussian smearing, width (Ry)=  0.1000

     Number of k-points >= 100: set verbosity='high' to print them.

     Dense  grid:    11449 G-vectors     FFT dimensions: (  25,  25,  36)

     Largest allocated arrays     est. size (Mb)     dimensions
        Kohn-Sham Wavefunctions         0.11 Mb     (    369,   19)
        NL pseudopotentials             0.23 Mb     (    369,   40)
        Each V/rho on FFT grid          0.09 Mb     (   5625)
        Each G-vector array             0.02 Mb     (   2862)
        G-vector shells                 0.01 Mb     (    746)
     Largest temporary arrays     est. size (Mb)     dimensions
        Each subspace H/S matrix        0.01 Mb     (  19,  19)
        Each <psi_i|beta_j> matrix      0.01 Mb     (     40,   19)
        Arrays for rho mixing           0.69 Mb     (   5625,   8)

     Initial potential from superposition of free atoms

     Starting from uniform charge
     Starting wfc are    0 randomized atomic wfcs

     Writing output data file Prototype-La-tP2-AuCu.save

     total cpu time spent up to now is       76.7 secs

     Self-consistent Calculation

     iteration #  1     ecut=    40.00 Ry     beta=0.70
     CG style diagonalization
     c_bands:  4 eigenvalues not converged
     c_bands:  4 eigenvalues not converged
     c_bands:  5 eigenvalues not converged
     c_bands:  5 eigenvalues not converged
     c_bands:  5 eigenvalues not converged
     c_bands:  1 eigenvalues not converged
     c_bands:  1 eigenvalues not converged
     c_bands:  5 eigenvalues not converged
     c_bands:  5 eigenvalues not converged
     c_bands:  2 eigenvalues not converged
     c_bands:  5 eigenvalues not converged
     c_bands:  2 eigenvalues not converged
     c_bands:  2 eigenvalues not converged
     c_bands:  4 eigenvalues not converged
     c_bands:  1 eigenvalues not converged
     c_bands:  1 eigenvalues not converged
     c_bands:  1 eigenvalues not converged
     c_bands:  1 eigenvalues not converged
     c_bands:  4 eigenvalues not converged
     c_bands:  5 eigenvalues not converged
     c_bands:  5 eigenvalues not converged
     c_bands:  5 eigenvalues not converged
     c_bands:  1 eigenvalues not converged
     c_bands:  5 eigenvalues not converged
     c_bands:  5 eigenvalues not converged
     c_bands:  1 eigenvalues not converged
     c_bands:  4 eigenvalues not converged
     c_bands:  5 eigenvalues not converged
     c_bands:  1 eigenvalues not converged
     c_bands:  2 eigenvalues not converged
     c_bands:  5 eigenvalues not converged
     c_bands:  1 eigenvalues not converged
     c_bands:  1 eigenvalues not converged
     c_bands:  5 eigenvalues not converged
     c_bands:  5 eigenvalues not converged
     ethr =  1.00E-06,  avg # of iterations = 40.6

     total cpu time spent up to now is       95.9 secs

     total energy              =    -209.88785436 Ry
     Harris-Foulkes estimate   =    -312.21523008 Ry
     estimated scf accuracy    <     130.81928643 Ry

     iteration #  2     ecut=    40.00 Ry     beta=0.70
     CG style diagonalization
     c_bands:  1 eigenvalues not converged
     c_bands:  1 eigenvalues not converged
     c_bands:  1 eigenvalues not converged
     c_bands:  1 eigenvalues not converged
     c_bands:  1 eigenvalues not converged
     c_bands:  1 eigenvalues not converged
     c_bands:  1 eigenvalues not converged
     c_bands:  1 eigenvalues not converged
     c_bands:  1 eigenvalues not converged
     c_bands:  1 eigenvalues not converged
     c_bands:  1 eigenvalues not converged
     c_bands:  1 eigenvalues not converged
     c_bands:  1 eigenvalues not converged
     c_bands:  1 eigenvalues not converged
     c_bands:  1 eigenvalues not converged
     ethr =  1.00E-02,  avg # of iterations = 11.4

     total cpu time spent up to now is      103.1 secs

     total energy              =    -220.36788526 Ry
     Harris-Foulkes estimate   =    -306.83930556 Ry
     estimated scf accuracy    <     169.26427318 Ry

     iteration #  3     ecut=    40.00 Ry     beta=0.70
     CG style diagonalization
     c_bands:  1 eigenvalues not converged
     ethr =  1.00E-02,  avg # of iterations = 10.1

     total cpu time spent up to now is      108.4 secs

     total energy              =    -260.03596121 Ry
     Harris-Foulkes estimate   =    -266.61560069 Ry
     estimated scf accuracy    <      14.08909227 Ry

     iteration #  4     ecut=    40.00 Ry     beta=0.70
     CG style diagonalization
     ethr =  1.00E-02,  avg # of iterations =  4.4

     total cpu time spent up to now is      111.9 secs

     total energy              =    -261.87315132 Ry
     Harris-Foulkes estimate   =    -262.12152228 Ry
     estimated scf accuracy    <       0.42858254 Ry

     iteration #  5     ecut=    40.00 Ry     beta=0.70
     CG style diagonalization
     ethr =  1.43E-03,  avg # of iterations =  4.5

     total cpu time spent up to now is      114.5 secs

     total energy              =    -261.99620565 Ry
     Harris-Foulkes estimate   =    -262.05600495 Ry
     estimated scf accuracy    <       0.13499573 Ry

     iteration #  6     ecut=    40.00 Ry     beta=0.70
     CG style diagonalization
     ethr =  4.50E-04,  avg # of iterations =  3.8

     total cpu time spent up to now is      116.5 secs

     total energy              =    -262.03198576 Ry
     Harris-Foulkes estimate   =    -262.05173726 Ry
     estimated scf accuracy    <       0.08185994 Ry

     iteration #  7     ecut=    40.00 Ry     beta=0.70
     CG style diagonalization
     ethr =  2.73E-04,  avg # of iterations =  3.0

     total cpu time spent up to now is      118.2 secs

     total energy              =    -262.03535871 Ry
     Harris-Foulkes estimate   =    -262.03853070 Ry
     estimated scf accuracy    <       0.00656112 Ry

     iteration #  8     ecut=    40.00 Ry     beta=0.70
     CG style diagonalization
     c_bands:  1 eigenvalues not converged
     ethr =  2.19E-05,  avg # of iterations =  4.4

     total cpu time spent up to now is      121.5 secs

     total energy              =    -262.03777883 Ry
     Harris-Foulkes estimate   =    -262.03800115 Ry
     estimated scf accuracy    <       0.00051735 Ry

     iteration #  9     ecut=    40.00 Ry     beta=0.70
     CG style diagonalization
     c_bands:  1 eigenvalues not converged
     c_bands:  1 eigenvalues not converged
     ethr =  1.72E-06,  avg # of iterations =  4.3

     total cpu time spent up to now is      124.1 secs

     total energy              =    -262.03795278 Ry
     Harris-Foulkes estimate   =    -262.03795865 Ry
     estimated scf accuracy    <       0.00001712 Ry

     iteration # 10     ecut=    40.00 Ry     beta=0.70
     CG style diagonalization
     ethr =  5.71E-08,  avg # of iterations =  4.7

     total cpu time spent up to now is      126.7 secs

     total energy              =    -262.03796445 Ry
     Harris-Foulkes estimate   =    -262.03796543 Ry
     estimated scf accuracy    <       0.00000273 Ry

     iteration # 11     ecut=    40.00 Ry     beta=0.70
     CG style diagonalization
     ethr =  9.10E-09,  avg # of iterations =  3.7

     total cpu time spent up to now is      128.7 secs

     End of self-consistent calculation

     Number of k-points >= 100: set verbosity='high' to print the bands.

     the Fermi energy is    17.9284 ev

!    total energy              =    -262.03796475 Ry
     Harris-Foulkes estimate   =    -262.03796533 Ry
     estimated scf accuracy    <       0.00000064 Ry

     The total energy is the sum of the following terms:

     one-electron contribution =     -27.32209559 Ry
     hartree contribution      =      30.58225810 Ry
     xc contribution           =     -28.91848434 Ry
     ewald contribution        =    -236.20362584 Ry
     smearing contrib. (-TS)   =      -0.17601708 Ry

     convergence has been achieved in  11 iterations

     Forces acting on atoms (Ry/au):

     atom    1 type  1   force =     0.00000000    0.00000000    0.00000000
     atom    2 type  2   force =     0.00000000    0.00000000    0.00000000

     Total force =     0.000000     Total SCF correction =     0.000000


     entering subroutine stress ...

          total   stress  (Ry/bohr**3)                   (kbar)     P= -323.84
  -0.00225637   0.00000000   0.00000000       -331.92      0.00      0.00
   0.00000000  -0.00225637   0.00000000          0.00   -331.92      0.00
   0.00000000   0.00000000  -0.00209148          0.00      0.00   -307.67


     Writing output data file Prototype-La-tP2-AuCu.save
 
     init_run     :      1.10s CPU      1.39s WALL (       2 calls)
     electrons    :    111.82s CPU    124.19s WALL (       5 calls)
     update_pot   :      0.39s CPU      0.40s WALL (       3 calls)
     forces       :      0.52s CPU      0.54s WALL (       5 calls)
     stress       :      1.27s CPU      1.31s WALL (       5 calls)

     Called by init_run:
     wfcinit      :      0.88s CPU      1.14s WALL (       2 calls)
     potinit      :      0.09s CPU      0.09s WALL (       2 calls)

     Called by electrons:
     c_bands      :    106.21s CPU    113.43s WALL (      47 calls)
     sum_band     :      5.51s CPU      5.80s WALL (      47 calls)
     v_of_rho     :      0.02s CPU      0.02s WALL (      52 calls)
     mix_rho      :      0.02s CPU      0.02s WALL (      47 calls)

     Called by c_bands:
     init_us_2    :      1.03s CPU      1.02s WALL (   10600 calls)
     ccgdiagg     :     91.30s CPU     96.75s WALL (    4941 calls)
     wfcrot       :     14.84s CPU     16.41s WALL (    5041 calls)

     Called by *cgdiagg:
     h_psi        :     73.92s CPU     80.33s WALL (  458372 calls)
     cdiaghg      :      0.64s CPU      0.90s WALL (    5041 calls)

     Called by h_psi:
     add_vuspsi   :      3.79s CPU      4.67s WALL (  458372 calls)

     General routines
     calbec       :     15.31s CPU     16.67s WALL (  912703 calls)
     fft          :      0.04s CPU      0.04s WALL (     231 calls)
     fftw         :     60.12s CPU     62.77s WALL ( 1187520 calls)
     davcio       :      0.53s CPU      0.93s WALL (   15300 calls)
 
     Parallel routines
     fft_scatter  :     21.70s CPU     23.40s WALL ( 1187751 calls)
 
     PWSCF        :  1m55.82s CPU     2m 9.56s WALL

 
   This run was terminated on:  18:47:44  22Mar2018            

=------------------------------------------------------------------------------=
   JOB DONE.
=------------------------------------------------------------------------------=
