
     Program PWSCF v.5.0.2 starts on 23Mar2018 at  2:18:19 

     This program is part of the open-source Quantum ESPRESSO suite
     for quantum simulation of materials; please cite
         "P. Giannozzi et al., J. Phys.:Condens. Matter 21 395502 (2009);
          URL http://www.quantum-espresso.org", 
     in publications or presentations arising from this work. More details at
     http://www.quantum-espresso.org/quote.php

     Parallel version (MPI), running on     4 processors
     R & G space division:  proc/nbgrp/npool/nimage =       4

     Current dimensions of program PWSCF are:
     Max number of different atomic species (ntypx) = 10
     Max number of k-points (npk) =  40000
     Max angular momentum in pseudopotentials (lmaxx) =  3
     Waiting for input...
     Reading input from standard input

     Subspace diagonalization in iterative solution of the eigenvalue problem:
     a serial algorithm will be used

 
     Parallelization info
     --------------------
     sticks:   dense  smooth     PW     G-vecs:    dense   smooth      PW
     Min         256     256     78                 5240     5240     876
     Max         257     257     79                 5243     5243     879
     Sum        1027    1027    313                20965    20965    3509
 


     bravais-lattice index     =            0
     lattice parameter (alat)  =       9.6483  a.u.
     unit-cell volume          =     613.3683 (a.u.)^3
     number of atoms/cell      =            6
     number of atomic types    =            2
     number of electrons       =       145.00
     number of Kohn-Sham states=           88
     kinetic-energy cutoff     =      40.0000  Ry
     charge density cutoff     =     160.0000  Ry
     convergence threshold     =      1.0E-04
     mixing beta               =       0.7000
     number of iterations used =            8  plain     mixing
     Exchange-correlation      = SLA-PZ-NOGX-NOGC ( 1 1 0 0 0)
     EXX-fraction              =        0.00
     nstep                     =           50


     celldm(1)=   9.648295  celldm(2)=   0.000000  celldm(3)=   0.000000
     celldm(4)=   0.000000  celldm(5)=   0.000000  celldm(6)=   0.000000

     crystal axes: (cart. coord. in units of alat)
               a(1) = (   1.000000   0.000000   0.000000 )  
               a(2) = (  -0.500000   0.866025   0.000000 )  
               a(3) = (   0.000000   0.000000   0.788568 )  

     reciprocal axes: (cart. coord. in units 2 pi/alat)
               b(1) = (  1.000000  0.577350  0.000000 )  
               b(2) = (  0.000000  1.154701  0.000000 )  
               b(3) = (  0.000000  0.000000  1.268122 )  


     PseudoPot. # 1 for Dy read from file:
     /home/cwx6513/pp.La/Dy.UPF
     MD5 check sum: 9597327bec62616a94a14d07f3fd9936
     Pseudo is Norm-conserving, Zval = 20.0
     Generated in analytical, separable form
     Using radial grid of 1265 points,  6 beta functions with: 
                l(1) =   0
                l(2) =   0
                l(3) =   1
                l(4) =   1
                l(5) =   2
                l(6) =   3

     PseudoPot. # 2 for Lu read from file:
     /home/cwx6513/pp.La/La.UPF
     MD5 check sum: 4fc038260c66a0bf25fb4835376efb80
     Pseudo is Norm-conserving, Zval = 25.0
     Generated in analytical, separable form
     Using radial grid of 1271 points,  6 beta functions with: 
                l(1) =   0
                l(2) =   0
                l(3) =   1
                l(4) =   1
                l(5) =   2
                l(6) =   3

     atomic species   valence    mass     pseudopotential
        Ca            20.00    40.07800     Dy( 1.00)
        Cu            25.00    63.54600     Lu( 1.00)

     24 Sym. Ops., with inversion, found



   Cartesian axes

     site n.     atom                  positions (alat units)
         1           Ca  tau(   1) = (   0.0000000   0.0000000   0.0000000  )
         2           Cu  tau(   2) = (  -0.0000005   0.5773506   0.0000000  )
         3           Cu  tau(   3) = (   0.5000005   0.2886748   0.0000000  )
         4           Cu  tau(   4) = (   0.5000000   0.0000000   0.3942838  )
         5           Cu  tau(   5) = (   0.2500000   0.4330127   0.3942838  )
         6           Cu  tau(   6) = (  -0.2500000   0.4330127   0.3942838  )

     number of k points=   110  gaussian smearing, width (Ry)=  0.1000

     Number of k-points >= 100: set verbosity='high' to print them.

     Dense  grid:    20965 G-vectors     FFT dimensions: (  40,  40,  32)

     Largest allocated arrays     est. size (Mb)     dimensions
        Kohn-Sham Wavefunctions         0.90 Mb     (    670,   88)
        NL pseudopotentials             1.23 Mb     (    670,  120)
        Each V/rho on FFT grid          0.20 Mb     (  12800)
        Each G-vector array             0.04 Mb     (   5243)
        G-vector shells                 0.04 Mb     (   5243)
     Largest temporary arrays     est. size (Mb)     dimensions
        Each subspace H/S matrix        0.12 Mb     (  88,  88)
        Each <psi_i|beta_j> matrix      0.16 Mb     (    120,   88)
        Arrays for rho mixing           1.56 Mb     (  12800,   8)

     Initial potential from superposition of free atoms

     Starting from uniform charge
     Starting wfc are    0 randomized atomic wfcs

     total cpu time spent up to now is        7.6 secs

     Self-consistent Calculation

     iteration #  1     ecut=    40.00 Ry     beta=0.70
     CG style diagonalization
     c_bands:  1 eigenvalues not converged
     c_bands:  5 eigenvalues not converged
     c_bands:  3 eigenvalues not converged
     c_bands:  5 eigenvalues not converged
     c_bands:  5 eigenvalues not converged
     c_bands:  1 eigenvalues not converged
     c_bands:  3 eigenvalues not converged
     c_bands:  5 eigenvalues not converged
     c_bands:  4 eigenvalues not converged
     c_bands:  5 eigenvalues not converged
     c_bands:  4 eigenvalues not converged
     c_bands:  3 eigenvalues not converged
     c_bands:  1 eigenvalues not converged
     c_bands:  4 eigenvalues not converged
     c_bands:  5 eigenvalues not converged
     c_bands:  5 eigenvalues not converged
     c_bands:  4 eigenvalues not converged
     c_bands:  1 eigenvalues not converged
     c_bands:  1 eigenvalues not converged
     c_bands:  1 eigenvalues not converged
     c_bands:  3 eigenvalues not converged
     c_bands:  5 eigenvalues not converged
     c_bands:  3 eigenvalues not converged
     c_bands:  4 eigenvalues not converged
     c_bands:  1 eigenvalues not converged
     c_bands:  1 eigenvalues not converged
     c_bands:  4 eigenvalues not converged
     c_bands:  1 eigenvalues not converged
     c_bands:  5 eigenvalues not converged
     c_bands:  5 eigenvalues not converged
     c_bands:  4 eigenvalues not converged
     c_bands:  1 eigenvalues not converged
     c_bands:  4 eigenvalues not converged
     c_bands:  1 eigenvalues not converged
     c_bands:  4 eigenvalues not converged
     c_bands:  1 eigenvalues not converged
     c_bands:  4 eigenvalues not converged
     c_bands:  1 eigenvalues not converged
     c_bands:  1 eigenvalues not converged
     c_bands:  5 eigenvalues not converged
     c_bands:  3 eigenvalues not converged
     c_bands:  1 eigenvalues not converged
     c_bands:  5 eigenvalues not converged
     c_bands:  1 eigenvalues not converged
     c_bands:  4 eigenvalues not converged
     c_bands:  4 eigenvalues not converged
     c_bands:  1 eigenvalues not converged
     c_bands:  3 eigenvalues not converged
     c_bands:  1 eigenvalues not converged
     c_bands:  1 eigenvalues not converged
     c_bands:  1 eigenvalues not converged
     c_bands:  4 eigenvalues not converged
     c_bands:  5 eigenvalues not converged
     c_bands:  4 eigenvalues not converged
     c_bands:  4 eigenvalues not converged
     c_bands:  1 eigenvalues not converged
     c_bands:  1 eigenvalues not converged
     c_bands:  5 eigenvalues not converged
     c_bands:  1 eigenvalues not converged
     c_bands:  5 eigenvalues not converged
     c_bands:  4 eigenvalues not converged
     c_bands:  2 eigenvalues not converged
     c_bands:  1 eigenvalues not converged
     c_bands:  5 eigenvalues not converged
     c_bands:  4 eigenvalues not converged
     c_bands:  5 eigenvalues not converged
     c_bands:  5 eigenvalues not converged
     c_bands:  1 eigenvalues not converged
     c_bands:  1 eigenvalues not converged
     c_bands:  1 eigenvalues not converged
     c_bands:  5 eigenvalues not converged
     c_bands:  1 eigenvalues not converged
     c_bands:  2 eigenvalues not converged
     c_bands:  1 eigenvalues not converged
     c_bands:  1 eigenvalues not converged
     c_bands:  1 eigenvalues not converged
     ethr =  1.00E-02,  avg # of iterations = 26.0

     total cpu time spent up to now is      255.5 secs

     total energy              =   -1941.82911268 Ry
     Harris-Foulkes estimate   =   -3321.50098205 Ry
     estimated scf accuracy    <    1658.16203984 Ry

     iteration #  2     ecut=    40.00 Ry     beta=0.70
     CG style diagonalization
     c_bands:  3 eigenvalues not converged
     c_bands:  4 eigenvalues not converged
     c_bands:  5 eigenvalues not converged
     c_bands:  5 eigenvalues not converged
     c_bands:  4 eigenvalues not converged
     c_bands:  4 eigenvalues not converged
     c_bands:  5 eigenvalues not converged
     c_bands:  4 eigenvalues not converged
     c_bands:  5 eigenvalues not converged
     c_bands:  2 eigenvalues not converged
     c_bands:  4 eigenvalues not converged
     c_bands:  5 eigenvalues not converged
     c_bands:  5 eigenvalues not converged
     c_bands:  5 eigenvalues not converged
     c_bands:  3 eigenvalues not converged
     c_bands:  5 eigenvalues not converged
     c_bands:  3 eigenvalues not converged
     c_bands:  5 eigenvalues not converged
     c_bands:  5 eigenvalues not converged
     c_bands:  5 eigenvalues not converged
     c_bands:  5 eigenvalues not converged
     c_bands:  3 eigenvalues not converged
     c_bands:  5 eigenvalues not converged
     c_bands:  5 eigenvalues not converged
     c_bands:  4 eigenvalues not converged
     c_bands:  5 eigenvalues not converged
     c_bands:  4 eigenvalues not converged
     c_bands:  4 eigenvalues not converged
     c_bands:  5 eigenvalues not converged
     c_bands:  5 eigenvalues not converged
     c_bands:  5 eigenvalues not converged
     c_bands:  4 eigenvalues not converged
     c_bands:  4 eigenvalues not converged
     c_bands:  3 eigenvalues not converged
     c_bands:  4 eigenvalues not converged
     c_bands:  5 eigenvalues not converged
     c_bands:  5 eigenvalues not converged
     c_bands:  3 eigenvalues not converged
     c_bands:  4 eigenvalues not converged
     c_bands:  3 eigenvalues not converged
     c_bands:  3 eigenvalues not converged
     c_bands:  5 eigenvalues not converged
     c_bands:  5 eigenvalues not converged
     c_bands:  4 eigenvalues not converged
     c_bands:  3 eigenvalues not converged
     c_bands:  5 eigenvalues not converged
     c_bands:  5 eigenvalues not converged
     c_bands:  5 eigenvalues not converged
     c_bands:  5 eigenvalues not converged
     c_bands:  5 eigenvalues not converged
     c_bands:  5 eigenvalues not converged
     c_bands:  5 eigenvalues not converged
     c_bands:  4 eigenvalues not converged
     c_bands:  3 eigenvalues not converged
     c_bands:  4 eigenvalues not converged
     c_bands:  4 eigenvalues not converged
     c_bands:  4 eigenvalues not converged
     c_bands:  4 eigenvalues not converged
     c_bands:  4 eigenvalues not converged
     c_bands:  4 eigenvalues not converged
     c_bands:  5 eigenvalues not converged
     c_bands:  3 eigenvalues not converged
     c_bands:  4 eigenvalues not converged
     c_bands:  4 eigenvalues not converged
     c_bands:  4 eigenvalues not converged
     c_bands:  2 eigenvalues not converged
     c_bands:  5 eigenvalues not converged
     c_bands:  3 eigenvalues not converged
     c_bands:  4 eigenvalues not converged
     c_bands:  2 eigenvalues not converged
     c_bands:  4 eigenvalues not converged
     c_bands:  5 eigenvalues not converged
     c_bands:  4 eigenvalues not converged
     c_bands:  4 eigenvalues not converged
     c_bands:  3 eigenvalues not converged
     c_bands:  3 eigenvalues not converged
     c_bands:  4 eigenvalues not converged
     c_bands:  4 eigenvalues not converged
     c_bands:  4 eigenvalues not converged
     c_bands:  5 eigenvalues not converged
     c_bands:  2 eigenvalues not converged
     c_bands:  3 eigenvalues not converged
     c_bands:  4 eigenvalues not converged
     c_bands:  4 eigenvalues not converged
     c_bands:  5 eigenvalues not converged
     c_bands:  4 eigenvalues not converged
     c_bands:  5 eigenvalues not converged
     c_bands:  5 eigenvalues not converged
     c_bands:  5 eigenvalues not converged
     c_bands:  5 eigenvalues not converged
     c_bands:  5 eigenvalues not converged
     c_bands:  4 eigenvalues not converged
     c_bands:  4 eigenvalues not converged
     c_bands:  5 eigenvalues not converged
     c_bands:  3 eigenvalues not converged
     c_bands:  3 eigenvalues not converged
     c_bands:  5 eigenvalues not converged
     c_bands:  4 eigenvalues not converged
     ethr =  1.00E-02,  avg # of iterations = 14.1

     total cpu time spent up to now is      385.3 secs

     total energy              =   -1681.03816565 Ry
     Harris-Foulkes estimate   =   -3020.30985068 Ry
     estimated scf accuracy    <    2788.42643017 Ry

     iteration #  3     ecut=    40.00 Ry     beta=0.70
     CG style diagonalization
     c_bands:  4 eigenvalues not converged
     c_bands:  5 eigenvalues not converged
     c_bands:  3 eigenvalues not converged
     c_bands:  5 eigenvalues not converged
     c_bands:  4 eigenvalues not converged
     c_bands:  4 eigenvalues not converged
     c_bands:  5 eigenvalues not converged
     c_bands:  4 eigenvalues not converged
     c_bands:  3 eigenvalues not converged
     c_bands:  5 eigenvalues not converged
     c_bands:  4 eigenvalues not converged
     c_bands:  5 eigenvalues not converged
     c_bands:  1 eigenvalues not converged
     c_bands:  5 eigenvalues not converged
     c_bands:  4 eigenvalues not converged
     c_bands:  5 eigenvalues not converged
     c_bands:  4 eigenvalues not converged
     c_bands:  4 eigenvalues not converged
     c_bands:  5 eigenvalues not converged
     c_bands:  2 eigenvalues not converged
     c_bands:  5 eigenvalues not converged
     c_bands:  4 eigenvalues not converged
     c_bands:  3 eigenvalues not converged
     c_bands:  5 eigenvalues not converged
     c_bands:  3 eigenvalues not converged
     c_bands:  5 eigenvalues not converged
     c_bands:  4 eigenvalues not converged
     c_bands:  2 eigenvalues not converged
     c_bands:  5 eigenvalues not converged
     c_bands:  4 eigenvalues not converged
     c_bands:  3 eigenvalues not converged
     c_bands:  2 eigenvalues not converged
     c_bands:  4 eigenvalues not converged
     c_bands:  3 eigenvalues not converged
     c_bands:  3 eigenvalues not converged
     c_bands:  1 eigenvalues not converged
     c_bands:  3 eigenvalues not converged
     c_bands:  2 eigenvalues not converged
     c_bands:  5 eigenvalues not converged
     c_bands:  5 eigenvalues not converged
     c_bands:  5 eigenvalues not converged
     c_bands:  5 eigenvalues not converged
     c_bands:  4 eigenvalues not converged
     c_bands:  5 eigenvalues not converged
     c_bands:  5 eigenvalues not converged
     c_bands:  5 eigenvalues not converged
     c_bands:  2 eigenvalues not converged
     c_bands:  4 eigenvalues not converged
     c_bands:  5 eigenvalues not converged
     c_bands:  3 eigenvalues not converged
     c_bands:  5 eigenvalues not converged
     c_bands:  4 eigenvalues not converged
     c_bands:  4 eigenvalues not converged
     ethr =  1.00E-02,  avg # of iterations = 14.9

     total cpu time spent up to now is      943.1 secs

     total energy              =   -2502.07827553 Ry
     Harris-Foulkes estimate   =   -2661.84237482 Ry
     estimated scf accuracy    <     412.20421201 Ry

     iteration #  4     ecut=    40.00 Ry     beta=0.70
     CG style diagonalization
     c_bands:  1 eigenvalues not converged
     c_bands:  1 eigenvalues not converged
     ethr =  1.00E-02,  avg # of iterations =  6.0

     total cpu time spent up to now is     1228.0 secs

     total energy              =   -2515.99019401 Ry
     Harris-Foulkes estimate   =   -2538.64075720 Ry
     estimated scf accuracy    <      76.32652740 Ry

     iteration #  5     ecut=    40.00 Ry     beta=0.70
     CG style diagonalization
     ethr =  1.00E-02,  avg # of iterations =  4.6

     total cpu time spent up to now is     1408.5 secs

     total energy              =   -2518.71310775 Ry
     Harris-Foulkes estimate   =   -2524.87268340 Ry
     estimated scf accuracy    <      15.15921361 Ry

     iteration #  6     ecut=    40.00 Ry     beta=0.70
     CG style diagonalization
     ethr =  1.00E-02,  avg # of iterations =  3.4

     total cpu time spent up to now is     1558.3 secs

     total energy              =   -2521.89824620 Ry
     Harris-Foulkes estimate   =   -2522.06544525 Ry
     estimated scf accuracy    <       0.30039783 Ry

     iteration #  7     ecut=    40.00 Ry     beta=0.70
     CG style diagonalization
     c_bands:  1 eigenvalues not converged
     c_bands:  1 eigenvalues not converged
     c_bands:  1 eigenvalues not converged
     c_bands:  1 eigenvalues not converged
     c_bands:  1 eigenvalues not converged
     c_bands:  2 eigenvalues not converged
     c_bands:  2 eigenvalues not converged
     c_bands:  2 eigenvalues not converged
     c_bands:  1 eigenvalues not converged
     c_bands:  2 eigenvalues not converged
     c_bands:  1 eigenvalues not converged
     c_bands:  1 eigenvalues not converged
     c_bands:  1 eigenvalues not converged
     c_bands:  1 eigenvalues not converged
     c_bands:  3 eigenvalues not converged
     c_bands:  1 eigenvalues not converged
     c_bands:  1 eigenvalues not converged
     c_bands:  1 eigenvalues not converged
     c_bands:  1 eigenvalues not converged
     c_bands:  1 eigenvalues not converged
     c_bands:  1 eigenvalues not converged
     c_bands:  2 eigenvalues not converged
     c_bands:  1 eigenvalues not converged
     c_bands:  3 eigenvalues not converged
     c_bands:  1 eigenvalues not converged
     c_bands:  3 eigenvalues not converged
     c_bands:  1 eigenvalues not converged
     c_bands:  2 eigenvalues not converged
     c_bands:  1 eigenvalues not converged
     c_bands:  2 eigenvalues not converged
     c_bands:  1 eigenvalues not converged
     c_bands:  1 eigenvalues not converged
     c_bands:  1 eigenvalues not converged
     c_bands:  2 eigenvalues not converged
     c_bands:  1 eigenvalues not converged
     c_bands:  1 eigenvalues not converged
     c_bands:  1 eigenvalues not converged
     c_bands:  2 eigenvalues not converged
     c_bands:  3 eigenvalues not converged
     c_bands:  2 eigenvalues not converged
     c_bands:  2 eigenvalues not converged
     c_bands:  2 eigenvalues not converged
     c_bands:  2 eigenvalues not converged
     c_bands:  2 eigenvalues not converged
     c_bands:  1 eigenvalues not converged
     c_bands:  2 eigenvalues not converged
     c_bands:  1 eigenvalues not converged
     c_bands:  1 eigenvalues not converged
     c_bands:  1 eigenvalues not converged
     c_bands:  1 eigenvalues not converged
     c_bands:  1 eigenvalues not converged
     c_bands:  1 eigenvalues not converged
     c_bands:  1 eigenvalues not converged
     c_bands:  1 eigenvalues not converged
     ethr =  2.07E-04,  avg # of iterations =  5.2

     total cpu time spent up to now is     1774.1 secs

     total energy              =   -2521.96134696 Ry
     Harris-Foulkes estimate   =   -2522.12421968 Ry
     estimated scf accuracy    <       0.25331134 Ry

     iteration #  8     ecut=    40.00 Ry     beta=0.70
     CG style diagonalization
     c_bands:  1 eigenvalues not converged
     c_bands:  1 eigenvalues not converged
     ethr =  1.75E-04,  avg # of iterations =  3.7

     total cpu time spent up to now is     1912.6 secs

     total energy              =   -2522.04133153 Ry
     Harris-Foulkes estimate   =   -2522.08290239 Ry
     estimated scf accuracy    <       0.09848512 Ry

     iteration #  9     ecut=    40.00 Ry     beta=0.70
     CG style diagonalization
     c_bands:  1 eigenvalues not converged
     c_bands:  1 eigenvalues not converged
     c_bands:  1 eigenvalues not converged
     ethr =  6.79E-05,  avg # of iterations =  3.3

     total cpu time spent up to now is     2068.3 secs

     total energy              =   -2522.05718382 Ry
     Harris-Foulkes estimate   =   -2522.05761425 Ry
     estimated scf accuracy    <       0.00144978 Ry

     iteration # 10     ecut=    40.00 Ry     beta=0.70
     CG style diagonalization
     c_bands:  1 eigenvalues not converged
     c_bands:  1 eigenvalues not converged
     c_bands:  1 eigenvalues not converged
     c_bands:  1 eigenvalues not converged
     c_bands:  1 eigenvalues not converged
     c_bands:  2 eigenvalues not converged
     c_bands:  1 eigenvalues not converged
     c_bands:  1 eigenvalues not converged
     c_bands:  1 eigenvalues not converged
     c_bands:  1 eigenvalues not converged
     c_bands:  1 eigenvalues not converged
     c_bands:  1 eigenvalues not converged
     c_bands:  1 eigenvalues not converged
     c_bands:  1 eigenvalues not converged
     c_bands:  1 eigenvalues not converged
     c_bands:  1 eigenvalues not converged
     c_bands:  1 eigenvalues not converged
     c_bands:  1 eigenvalues not converged
     c_bands:  1 eigenvalues not converged
     c_bands:  1 eigenvalues not converged
     c_bands:  2 eigenvalues not converged
     c_bands:  1 eigenvalues not converged
     c_bands:  1 eigenvalues not converged
     c_bands:  1 eigenvalues not converged
     c_bands:  1 eigenvalues not converged
     c_bands:  1 eigenvalues not converged
     c_bands:  1 eigenvalues not converged
     c_bands:  1 eigenvalues not converged
     c_bands:  1 eigenvalues not converged
     c_bands:  1 eigenvalues not converged
     c_bands:  2 eigenvalues not converged
     ethr =  1.00E-06,  avg # of iterations =  4.7

     total cpu time spent up to now is     2249.9 secs

     total energy              =   -2522.05767925 Ry
     Harris-Foulkes estimate   =   -2522.05783759 Ry
     estimated scf accuracy    <       0.00030672 Ry

     iteration # 11     ecut=    40.00 Ry     beta=0.70
     CG style diagonalization
     c_bands:  1 eigenvalues not converged
     c_bands:  1 eigenvalues not converged
     c_bands:  1 eigenvalues not converged
     c_bands:  1 eigenvalues not converged
     c_bands:  1 eigenvalues not converged
     ethr =  2.12E-07,  avg # of iterations =  3.4

     total cpu time spent up to now is     2394.8 secs

     End of self-consistent calculation

     Number of k-points >= 100: set verbosity='high' to print the bands.

     the Fermi energy is    41.8751 ev

!    total energy              =   -2522.05775849 Ry
     Harris-Foulkes estimate   =   -2522.05776429 Ry
     estimated scf accuracy    <       0.00000649 Ry

     The total energy is the sum of the following terms:

     one-electron contribution =    -695.28354904 Ry
     hartree contribution      =     454.54751541 Ry
     xc contribution           =    -199.18260536 Ry
     ewald contribution        =   -2081.87980729 Ry
     smearing contrib. (-TS)   =      -0.25931221 Ry

     convergence has been achieved in  11 iterations

     Forces acting on atoms (Ry/au):

     atom    1 type  1   force =     0.00000000    0.00000000    0.00000000
     atom    2 type  2   force =     0.00000000    0.00000000    0.00000000
     atom    3 type  2   force =     0.00000000    0.00000000    0.00000000
     atom    4 type  2   force =     0.00000000    0.00000000    0.00000000
     atom    5 type  2   force =     0.00000000    0.00000000    0.00000000
     atom    6 type  2   force =     0.00000000    0.00000000    0.00000000

     Total force =     0.000000     Total SCF correction =     0.000000


     entering subroutine stress ...

          total   stress  (Ry/bohr**3)                   (kbar)     P= 2341.55
   0.01273210   0.00000000   0.00000000       1872.96      0.00      0.00
   0.00000000   0.01273210   0.00000000          0.00   1872.96      0.00
   0.00000000   0.00000000   0.02228841          0.00      0.00   3278.74


     BFGS Geometry Optimization

     number of scf cycles    =   1
     number of bfgs steps    =   0

     enthalpy new            =   -2522.0577584920 Ry

     new trust radius        =       0.5000000000 bohr
     new conv_thr            =       0.0001000000 Ry

     new unit-cell volume =    755.40765 a.u.^3 (   111.93986 Ang^3 )

CELL_PARAMETERS (alat=  9.64829493)
   1.057663396   0.000000000   0.000000000
  -0.528831698   0.915963370   0.000000000
   0.000000000   0.000000000   0.868168629

ATOMIC_POSITIONS (crystal)
Ca       0.000000000   0.000000000   0.000000000
Cu       0.333333000   0.666667000   0.000000000
Cu       0.666667000   0.333333000   0.000000000
Cu       0.500000000   0.000000000   0.500000000
Cu       0.500000000   0.500000000   0.500000000
Cu       0.000000000   0.500000000   0.500000000



     Writing output data file Prototype-La-hP6-CaCu5.save
     NEW-OLD atomic charge density approx. for the potential
     NEW k-points: (use verbosity='high' to print them)

     total cpu time spent up to now is     2415.0 secs

     Self-consistent Calculation

     iteration #  1     ecut=    40.00 Ry     beta=0.70
     CG style diagonalization
     c_bands:  5 eigenvalues not converged
     c_bands:  1 eigenvalues not converged
     c_bands:  2 eigenvalues not converged
     c_bands:  1 eigenvalues not converged
     c_bands:  1 eigenvalues not converged
     c_bands:  1 eigenvalues not converged
     c_bands:  1 eigenvalues not converged
     c_bands:  1 eigenvalues not converged
     c_bands:  2 eigenvalues not converged
     c_bands:  1 eigenvalues not converged
     c_bands:  1 eigenvalues not converged
     c_bands:  1 eigenvalues not converged
     c_bands:  1 eigenvalues not converged
     c_bands:  1 eigenvalues not converged
     c_bands:  2 eigenvalues not converged
     c_bands:  1 eigenvalues not converged
     c_bands:  1 eigenvalues not converged
     c_bands:  1 eigenvalues not converged
     c_bands:  1 eigenvalues not converged
     c_bands:  2 eigenvalues not converged
     c_bands:  1 eigenvalues not converged
     c_bands:  1 eigenvalues not converged
     c_bands:  1 eigenvalues not converged
     c_bands:  1 eigenvalues not converged
     c_bands:  1 eigenvalues not converged
     c_bands:  1 eigenvalues not converged
     c_bands:  1 eigenvalues not converged
     c_bands:  1 eigenvalues not converged
     c_bands:  1 eigenvalues not converged
     c_bands:  2 eigenvalues not converged
     c_bands:  1 eigenvalues not converged
     c_bands:  1 eigenvalues not converged
     c_bands:  1 eigenvalues not converged
     c_bands:  1 eigenvalues not converged
     c_bands:  1 eigenvalues not converged
     c_bands:  1 eigenvalues not converged
     c_bands:  1 eigenvalues not converged
     c_bands:  2 eigenvalues not converged
     c_bands:  1 eigenvalues not converged
     c_bands:  1 eigenvalues not converged
     c_bands:  1 eigenvalues not converged
     c_bands:  1 eigenvalues not converged
     c_bands:  2 eigenvalues not converged
     c_bands:  2 eigenvalues not converged
     c_bands:  1 eigenvalues not converged
     c_bands:  1 eigenvalues not converged
     c_bands:  1 eigenvalues not converged
     ethr =  1.00E-06,  avg # of iterations = 21.3

     total cpu time spent up to now is     3299.7 secs

     total energy              =   -2515.88196397 Ry
     Harris-Foulkes estimate   =   -2534.09626812 Ry
     estimated scf accuracy    <      22.52885738 Ry

     iteration #  2     ecut=    40.00 Ry     beta=0.70
     CG style diagonalization
     ethr =  1.00E-02,  avg # of iterations =  3.9

     total cpu time spent up to now is     3466.9 secs

     total energy              =   -2522.35368111 Ry
     Harris-Foulkes estimate   =   -2524.17172858 Ry
     estimated scf accuracy    <       2.63013018 Ry

     iteration #  3     ecut=    40.00 Ry     beta=0.70
     CG style diagonalization
     ethr =  1.81E-03,  avg # of iterations =  3.7

     total cpu time spent up to now is     3615.8 secs

     total energy              =   -2523.08536197 Ry
     Harris-Foulkes estimate   =   -2523.16064299 Ry
     estimated scf accuracy    <       0.12905173 Ry

     iteration #  4     ecut=    40.00 Ry     beta=0.70
     CG style diagonalization
     c_bands:  1 eigenvalues not converged
     c_bands:  1 eigenvalues not converged
     c_bands:  1 eigenvalues not converged
     c_bands:  2 eigenvalues not converged
     c_bands:  1 eigenvalues not converged
     c_bands:  1 eigenvalues not converged
     c_bands:  1 eigenvalues not converged
     ethr =  8.90E-05,  avg # of iterations =  3.8

     total cpu time spent up to now is     3771.1 secs

     total energy              =   -2523.12664150 Ry
     Harris-Foulkes estimate   =   -2523.13240478 Ry
     estimated scf accuracy    <       0.00983454 Ry

     iteration #  5     ecut=    40.00 Ry     beta=0.70
     CG style diagonalization
     c_bands:  1 eigenvalues not converged
     c_bands:  1 eigenvalues not converged
     c_bands:  1 eigenvalues not converged
     c_bands:  1 eigenvalues not converged
     c_bands:  1 eigenvalues not converged
     c_bands:  1 eigenvalues not converged
     c_bands:  1 eigenvalues not converged
     c_bands:  2 eigenvalues not converged
     c_bands:  1 eigenvalues not converged
     c_bands:  1 eigenvalues not converged
     c_bands:  1 eigenvalues not converged
     c_bands:  1 eigenvalues not converged
     c_bands:  1 eigenvalues not converged
     c_bands:  1 eigenvalues not converged
     c_bands:  1 eigenvalues not converged
     c_bands:  1 eigenvalues not converged
     c_bands:  1 eigenvalues not converged
     c_bands:  1 eigenvalues not converged
     ethr =  6.78E-06,  avg # of iterations =  3.9

     total cpu time spent up to now is     3928.3 secs

     total energy              =   -2523.13012585 Ry
     Harris-Foulkes estimate   =   -2523.13096825 Ry
     estimated scf accuracy    <       0.00167900 Ry

     iteration #  6     ecut=    40.00 Ry     beta=0.70
     CG style diagonalization
     c_bands:  1 eigenvalues not converged
     c_bands:  1 eigenvalues not converged
     c_bands:  1 eigenvalues not converged
     c_bands:  1 eigenvalues not converged
     ethr =  1.16E-06,  avg # of iterations =  3.4

     total cpu time spent up to now is     4058.6 secs

     End of self-consistent calculation

     Number of k-points >= 100: set verbosity='high' to print the bands.

     the Fermi energy is    33.8287 ev

!    total energy              =   -2523.13044942 Ry
     Harris-Foulkes estimate   =   -2523.13048296 Ry
     estimated scf accuracy    <       0.00006130 Ry

     The total energy is the sum of the following terms:

     one-electron contribution =    -888.77021713 Ry
     hartree contribution      =     509.30837832 Ry
     xc contribution           =    -196.11961863 Ry
     ewald contribution        =   -1947.31968751 Ry
     smearing contrib. (-TS)   =      -0.22930447 Ry

     convergence has been achieved in   6 iterations

     Forces acting on atoms (Ry/au):

     atom    1 type  1   force =     0.00000000    0.00000000    0.00000000
     atom    2 type  2   force =     0.00000000    0.00000000    0.00000000
     atom    3 type  2   force =     0.00000000    0.00000000    0.00000000
     atom    4 type  2   force =     0.00000000    0.00000000    0.00000000
     atom    5 type  2   force =     0.00000000    0.00000000    0.00000000
     atom    6 type  2   force =     0.00000000    0.00000000    0.00000000

     Total force =     0.000000     Total SCF correction =     0.000000


     entering subroutine stress ...

          total   stress  (Ry/bohr**3)                   (kbar)     P=  -54.61
  -0.00100694   0.00000000   0.00000000       -148.13      0.00      0.00
   0.00000000  -0.00100694   0.00000000          0.00   -148.13      0.00
   0.00000000   0.00000000   0.00090025          0.00      0.00    132.43


     number of scf cycles    =   2
     number of bfgs steps    =   1

     enthalpy old            =   -2522.0577584920 Ry
     enthalpy new            =   -2523.1304494216 Ry

     CASE: enthalpy_new < enthalpy_old

     small trust_radius: resetting bfgs history

     new trust radius        =       0.1383771825 bohr
     new conv_thr            =       0.0000010000 Ry

     new unit-cell volume =    734.00995 a.u.^3 (   108.76905 Ang^3 )

CELL_PARAMETERS (alat=  9.64829493)
   1.031038294   0.000000000   0.000000000
  -0.515519147   0.892905355   0.000000000
   0.000000000   0.000000000   0.887707752

ATOMIC_POSITIONS (crystal)
Ca       0.000000000   0.000000000   0.000000000
Cu       0.333333000   0.666667000   0.000000000
Cu       0.666667000   0.333333000   0.000000000
Cu       0.500000000   0.000000000   0.500000000
Cu       0.500000000   0.500000000   0.500000000
Cu       0.000000000   0.500000000   0.500000000



     Writing output data file Prototype-La-hP6-CaCu5.save
     NEW-OLD atomic charge density approx. for the potential
     NEW k-points: (use verbosity='high' to print them)

     total cpu time spent up to now is     4078.4 secs

     Self-consistent Calculation

     iteration #  1     ecut=    40.00 Ry     beta=0.70
     CG style diagonalization
     c_bands:  2 eigenvalues not converged
     c_bands:  1 eigenvalues not converged
     c_bands:  2 eigenvalues not converged
     c_bands:  1 eigenvalues not converged
     c_bands:  4 eigenvalues not converged
     c_bands:  1 eigenvalues not converged
     c_bands:  1 eigenvalues not converged
     c_bands:  5 eigenvalues not converged
     c_bands:  1 eigenvalues not converged
     c_bands:  1 eigenvalues not converged
     c_bands:  2 eigenvalues not converged
     c_bands:  1 eigenvalues not converged
     c_bands:  1 eigenvalues not converged
     c_bands:  1 eigenvalues not converged
     c_bands:  5 eigenvalues not converged
     c_bands:  2 eigenvalues not converged
     c_bands:  1 eigenvalues not converged
     c_bands:  1 eigenvalues not converged
     c_bands:  2 eigenvalues not converged
     c_bands:  2 eigenvalues not converged
     c_bands:  4 eigenvalues not converged
     c_bands:  2 eigenvalues not converged
     c_bands:  4 eigenvalues not converged
     c_bands:  5 eigenvalues not converged
     c_bands:  1 eigenvalues not converged
     c_bands:  2 eigenvalues not converged
     c_bands:  1 eigenvalues not converged
     c_bands:  2 eigenvalues not converged
     c_bands:  2 eigenvalues not converged
     c_bands:  4 eigenvalues not converged
     c_bands:  1 eigenvalues not converged
     c_bands:  4 eigenvalues not converged
     c_bands:  1 eigenvalues not converged
     c_bands:  3 eigenvalues not converged
     c_bands:  2 eigenvalues not converged
     c_bands:  5 eigenvalues not converged
     c_bands:  2 eigenvalues not converged
     c_bands:  2 eigenvalues not converged
     c_bands:  2 eigenvalues not converged
     c_bands:  4 eigenvalues not converged
     c_bands:  3 eigenvalues not converged
     c_bands:  1 eigenvalues not converged
     c_bands:  1 eigenvalues not converged
     c_bands:  2 eigenvalues not converged
     c_bands:  1 eigenvalues not converged
     c_bands:  3 eigenvalues not converged
     c_bands:  4 eigenvalues not converged
     c_bands:  3 eigenvalues not converged
     c_bands:  1 eigenvalues not converged
     c_bands:  1 eigenvalues not converged
     c_bands:  1 eigenvalues not converged
     c_bands:  2 eigenvalues not converged
     c_bands:  1 eigenvalues not converged
     c_bands:  3 eigenvalues not converged
     c_bands:  3 eigenvalues not converged
     c_bands:  2 eigenvalues not converged
     c_bands:  2 eigenvalues not converged
     c_bands:  4 eigenvalues not converged
     c_bands:  2 eigenvalues not converged
     c_bands:  3 eigenvalues not converged
     c_bands:  5 eigenvalues not converged
     c_bands:  5 eigenvalues not converged
     c_bands:  2 eigenvalues not converged
     c_bands:  2 eigenvalues not converged
     c_bands:  2 eigenvalues not converged
     c_bands:  1 eigenvalues not converged
     c_bands:  2 eigenvalues not converged
     c_bands:  3 eigenvalues not converged
     c_bands:  3 eigenvalues not converged
     c_bands:  2 eigenvalues not converged
     c_bands:  2 eigenvalues not converged
     c_bands:  4 eigenvalues not converged
     c_bands:  3 eigenvalues not converged
     c_bands:  4 eigenvalues not converged
     c_bands:  2 eigenvalues not converged
     c_bands:  3 eigenvalues not converged
     c_bands:  1 eigenvalues not converged
     ethr =  1.00E-06,  avg # of iterations = 10.4

     total cpu time spent up to now is     4481.3 secs

     total energy              =   -2522.74008441 Ry
     Harris-Foulkes estimate   =   -2523.74531853 Ry
     estimated scf accuracy    <       1.30448771 Ry

     iteration #  2     ecut=    40.00 Ry     beta=0.70
     CG style diagonalization
     ethr =  9.00E-04,  avg # of iterations =  3.8

     total cpu time spent up to now is     4610.8 secs

     total energy              =   -2523.02025684 Ry
     Harris-Foulkes estimate   =   -2523.19906725 Ry
     estimated scf accuracy    <       0.26351357 Ry

     iteration #  3     ecut=    40.00 Ry     beta=0.70
     CG style diagonalization
     ethr =  1.82E-04,  avg # of iterations =  3.5

     total cpu time spent up to now is     4701.4 secs

     total energy              =   -2523.10135736 Ry
     Harris-Foulkes estimate   =   -2523.13866943 Ry
     estimated scf accuracy    <       0.06999985 Ry

     iteration #  4     ecut=    40.00 Ry     beta=0.70
     CG style diagonalization
     c_bands:  1 eigenvalues not converged
     ethr =  4.83E-05,  avg # of iterations =  3.4

     total cpu time spent up to now is     4795.6 secs

     total energy              =   -2523.11913347 Ry
     Harris-Foulkes estimate   =   -2523.11991039 Ry
     estimated scf accuracy    <       0.00128346 Ry

     iteration #  5     ecut=    40.00 Ry     beta=0.70
     CG style diagonalization
     c_bands:  1 eigenvalues not converged
     c_bands:  1 eigenvalues not converged
     c_bands:  1 eigenvalues not converged
     c_bands:  1 eigenvalues not converged
     c_bands:  1 eigenvalues not converged
     c_bands:  1 eigenvalues not converged
     c_bands:  1 eigenvalues not converged
     c_bands:  1 eigenvalues not converged
     c_bands:  1 eigenvalues not converged
     c_bands:  1 eigenvalues not converged
     c_bands:  1 eigenvalues not converged
     c_bands:  1 eigenvalues not converged
     c_bands:  1 eigenvalues not converged
     c_bands:  1 eigenvalues not converged
     ethr =  8.85E-07,  avg # of iterations =  4.8

     total cpu time spent up to now is     4913.3 secs

     total energy              =   -2523.12012155 Ry
     Harris-Foulkes estimate   =   -2523.12027303 Ry
     estimated scf accuracy    <       0.00025504 Ry

     iteration #  6     ecut=    40.00 Ry     beta=0.70
     CG style diagonalization
     c_bands:  1 eigenvalues not converged
     c_bands:  1 eigenvalues not converged
     ethr =  1.76E-07,  avg # of iterations =  3.4

     total cpu time spent up to now is     4997.6 secs

     total energy              =   -2523.12017395 Ry
     Harris-Foulkes estimate   =   -2523.12020596 Ry
     estimated scf accuracy    <       0.00005795 Ry

     iteration #  7     ecut=    40.00 Ry     beta=0.70
     CG style diagonalization
     ethr =  4.00E-08,  avg # of iterations =  3.3

     total cpu time spent up to now is     5087.5 secs

     total energy              =   -2523.12018760 Ry
     Harris-Foulkes estimate   =   -2523.12019111 Ry
     estimated scf accuracy    <       0.00000714 Ry

     iteration #  8     ecut=    40.00 Ry     beta=0.70
     CG style diagonalization
     ethr =  4.92E-09,  avg # of iterations =  3.6

     total cpu time spent up to now is     5182.5 secs

     End of self-consistent calculation

     Number of k-points >= 100: set verbosity='high' to print the bands.

     the Fermi energy is    34.8922 ev

!    total energy              =   -2523.12018922 Ry
     Harris-Foulkes estimate   =   -2523.12018956 Ry
     estimated scf accuracy    <       0.00000040 Ry

     The total energy is the sum of the following terms:

     one-electron contribution =    -851.36444554 Ry
     hartree contribution      =     496.02793198 Ry
     xc contribution           =    -196.43082808 Ry
     ewald contribution        =   -1971.11998887 Ry
     smearing contrib. (-TS)   =      -0.23285871 Ry

     convergence has been achieved in   8 iterations

     Forces acting on atoms (Ry/au):

     atom    1 type  1   force =     0.00000000    0.00000000    0.00000000
     atom    2 type  2   force =     0.00000000    0.00000000    0.00000000
     atom    3 type  2   force =     0.00000000    0.00000000    0.00000000
     atom    4 type  2   force =     0.00000000    0.00000000    0.00000000
     atom    5 type  2   force =     0.00000000    0.00000000    0.00000000
     atom    6 type  2   force =     0.00000000    0.00000000    0.00000000

     Total force =     0.000000     Total SCF correction =     0.000000


     entering subroutine stress ...

          total   stress  (Ry/bohr**3)                   (kbar)     P=  133.32
   0.00175417   0.00000000   0.00000000        258.05      0.00      0.00
   0.00000000   0.00175417   0.00000000          0.00    258.05      0.00
   0.00000000   0.00000000  -0.00078938          0.00      0.00   -116.12


     number of scf cycles    =   3
     number of bfgs steps    =   2

     enthalpy old            =   -2523.1304494216 Ry
     enthalpy new            =   -2523.1201892202 Ry

     CASE: enthalpy_new > enthalpy_old

     new trust radius        =       0.0587224752 bohr

     trust_radius < trust_radius_min

     resetting bfgs history

     Message from routine bfgs:
     history already reset at previous step: stopping
     new conv_thr            =       0.0000010000 Ry

     new unit-cell volume =    736.07383 a.u.^3 (   109.07489 Ang^3 )

CELL_PARAMETERS (alat=  9.64829493)
   1.031624333   0.000000000   0.000000000
  -0.515812167   0.893412880   0.000000000
   0.000000000   0.000000000   0.889192677

ATOMIC_POSITIONS (crystal)
Ca       0.000000000   0.000000000   0.000000000
Cu       0.333333000   0.666667000   0.000000000
Cu       0.666667000   0.333333000   0.000000000
Cu       0.500000000   0.000000000   0.500000000
Cu       0.500000000   0.500000000   0.500000000
Cu       0.000000000   0.500000000   0.500000000



     Writing output data file Prototype-La-hP6-CaCu5.save
     NEW-OLD atomic charge density approx. for the potential
     NEW k-points: (use verbosity='high' to print them)

     total cpu time spent up to now is     5197.2 secs

     Self-consistent Calculation

     iteration #  1     ecut=    40.00 Ry     beta=0.70
     CG style diagonalization
     ethr =  1.00E-06,  avg # of iterations =  4.8

     total cpu time spent up to now is     5331.2 secs

     total energy              =   -2523.11894503 Ry
     Harris-Foulkes estimate   =   -2523.12259196 Ry
     estimated scf accuracy    <       0.00452264 Ry

     iteration #  2     ecut=    40.00 Ry     beta=0.70
     CG style diagonalization
     ethr =  3.12E-06,  avg # of iterations =  3.8

     total cpu time spent up to now is     5434.8 secs

     total energy              =   -2523.12027081 Ry
     Harris-Foulkes estimate   =   -2523.12062859 Ry
     estimated scf accuracy    <       0.00051368 Ry

     iteration #  3     ecut=    40.00 Ry     beta=0.70
     CG style diagonalization
     ethr =  3.54E-07,  avg # of iterations =  3.6

     total cpu time spent up to now is     5539.6 secs

     total energy              =   -2523.12040532 Ry
     Harris-Foulkes estimate   =   -2523.12042111 Ry
     estimated scf accuracy    <       0.00002412 Ry

     iteration #  4     ecut=    40.00 Ry     beta=0.70
     CG style diagonalization
     ethr =  1.66E-08,  avg # of iterations =  3.5

     total cpu time spent up to now is     5637.4 secs

     total energy              =   -2523.12041382 Ry
     Harris-Foulkes estimate   =   -2523.12041577 Ry
     estimated scf accuracy    <       0.00000324 Ry

     iteration #  5     ecut=    40.00 Ry     beta=0.70
     CG style diagonalization
     ethr =  2.24E-09,  avg # of iterations =  3.4

     total cpu time spent up to now is     5732.6 secs

     End of self-consistent calculation

     Number of k-points >= 100: set verbosity='high' to print the bands.

     the Fermi energy is    34.7884 ev

!    total energy              =   -2523.12041469 Ry
     Harris-Foulkes estimate   =   -2523.12041509 Ry
     estimated scf accuracy    <       0.00000045 Ry

     The total energy is the sum of the following terms:

     one-electron contribution =    -853.85466179 Ry
     hartree contribution      =     496.73624564 Ry
     xc contribution           =    -196.39128911 Ry
     ewald contribution        =   -1969.37800687 Ry
     smearing contrib. (-TS)   =      -0.23270255 Ry

     convergence has been achieved in   5 iterations

     Forces acting on atoms (Ry/au):

     atom    1 type  1   force =     0.00000000    0.00000000    0.00000000
     atom    2 type  2   force =     0.00000000    0.00000000    0.00000000
     atom    3 type  2   force =     0.00000000    0.00000000    0.00000000
     atom    4 type  2   force =     0.00000000    0.00000000    0.00000000
     atom    5 type  2   force =     0.00000000    0.00000000    0.00000000
     atom    6 type  2   force =     0.00000000    0.00000000    0.00000000

     Total force =     0.000000     Total SCF correction =     0.000000


     entering subroutine stress ...

          total   stress  (Ry/bohr**3)                   (kbar)     P=  102.93
   0.00159976   0.00000000   0.00000000        235.33      0.00      0.00
   0.00000000   0.00159976   0.00000000          0.00    235.33      0.00
   0.00000000   0.00000000  -0.00110040          0.00      0.00   -161.87


     The maximum number of steps has been reached.

     End of BFGS Geometry Optimization
Begin final coordinates
     new unit-cell volume =    736.07383 a.u.^3 (   109.07489 Ang^3 )

CELL_PARAMETERS (alat=  9.64829493)
   1.031624333   0.000000000   0.000000000
  -0.515812167   0.893412880   0.000000000
   0.000000000   0.000000000   0.889192677

ATOMIC_POSITIONS (crystal)
Ca       0.000000000   0.000000000   0.000000000
Cu       0.333333000   0.666667000   0.000000000
Cu       0.666667000   0.333333000   0.000000000
Cu       0.500000000   0.000000000   0.500000000
Cu       0.500000000   0.500000000   0.500000000
Cu       0.000000000   0.500000000   0.500000000
End final coordinates



     A final scf calculation at the relaxed structure.
     The G-vectors are recalculated for the final unit cell
     Results may differ from those at the preceding step.
 
     Parallelization info
     --------------------
     sticks:   dense  smooth     PW     G-vecs:    dense   smooth      PW
     Min         274     274     78                 6286     6286    1030
     Max         276     276     79                 6287     6287    1033
     Sum        1099    1099    313                25145    25145    4123
 


     bravais-lattice index     =            0
     lattice parameter (alat)  =       9.6483  a.u.
     unit-cell volume          =     736.0738 (a.u.)^3
     number of atoms/cell      =            6
     number of atomic types    =            2
     number of electrons       =       145.00
     number of Kohn-Sham states=           88
     kinetic-energy cutoff     =      40.0000  Ry
     charge density cutoff     =     160.0000  Ry
     convergence threshold     =      1.0E-06
     mixing beta               =       0.7000
     number of iterations used =            8  plain     mixing
     Exchange-correlation      = SLA-PZ-NOGX-NOGC ( 1 1 0 0 0)
     EXX-fraction              =        0.00

     celldm(1)=   9.648295  celldm(2)=   0.000000  celldm(3)=   0.000000
     celldm(4)=   0.000000  celldm(5)=   0.000000  celldm(6)=   0.000000

     crystal axes: (cart. coord. in units of alat)
               a(1) = (   1.031624   0.000000   0.000000 )  
               a(2) = (  -0.515812   0.893413   0.000000 )  
               a(3) = (   0.000000   0.000000   0.889193 )  

     reciprocal axes: (cart. coord. in units 2 pi/alat)
               b(1) = (  0.969345  0.559652  0.000000 )  
               b(2) = (  0.000000  1.119303  0.000000 )  
               b(3) = (  0.000000  0.000000  1.124616 )  


     PseudoPot. # 1 for Dy read from file:
     /home/cwx6513/pp.La/Dy.UPF
     MD5 check sum: 9597327bec62616a94a14d07f3fd9936
     Pseudo is Norm-conserving, Zval = 20.0
     Generated in analytical, separable form
     Using radial grid of 1265 points,  6 beta functions with: 
                l(1) =   0
                l(2) =   0
                l(3) =   1
                l(4) =   1
                l(5) =   2
                l(6) =   3

     PseudoPot. # 2 for Lu read from file:
     /home/cwx6513/pp.La/La.UPF
     MD5 check sum: 4fc038260c66a0bf25fb4835376efb80
     Pseudo is Norm-conserving, Zval = 25.0
     Generated in analytical, separable form
     Using radial grid of 1271 points,  6 beta functions with: 
                l(1) =   0
                l(2) =   0
                l(3) =   1
                l(4) =   1
                l(5) =   2
                l(6) =   3

     atomic species   valence    mass     pseudopotential
        Ca            20.00    40.07800     Dy( 1.00)
        Cu            25.00    63.54600     Lu( 1.00)

     24 Sym. Ops., with inversion, found



   Cartesian axes

     site n.     atom                  positions (alat units)
         1           Ca  tau(   1) = (   0.0000000   0.0000000   0.0000000  )
         2           Cu  tau(   2) = (  -0.0000005   0.5956089   0.0000000  )
         3           Cu  tau(   3) = (   0.5158127   0.2978040   0.0000000  )
         4           Cu  tau(   4) = (   0.5158122   0.0000000   0.4445963  )
         5           Cu  tau(   5) = (   0.2579061   0.4467064   0.4445963  )
         6           Cu  tau(   6) = (  -0.2579061   0.4467064   0.4445963  )

     number of k points=   110  gaussian smearing, width (Ry)=  0.1000

     Number of k-points >= 100: set verbosity='high' to print them.

     Dense  grid:    25145 G-vectors     FFT dimensions: (  45,  45,  36)

     Largest allocated arrays     est. size (Mb)     dimensions
        Kohn-Sham Wavefunctions         1.07 Mb     (    795,   88)
        NL pseudopotentials             1.46 Mb     (    795,  120)
        Each V/rho on FFT grid          0.28 Mb     (  18225)
        Each G-vector array             0.05 Mb     (   6287)
        G-vector shells                 0.01 Mb     (   1156)
     Largest temporary arrays     est. size (Mb)     dimensions
        Each subspace H/S matrix        0.12 Mb     (  88,  88)
        Each <psi_i|beta_j> matrix      0.16 Mb     (    120,   88)
        Arrays for rho mixing           2.22 Mb     (  18225,   8)

     Initial potential from superposition of free atoms

     Starting from uniform charge
     Starting wfc are    0 randomized atomic wfcs

     Writing output data file Prototype-La-hP6-CaCu5.save

     total cpu time spent up to now is     5775.0 secs

     Self-consistent Calculation

     iteration #  1     ecut=    40.00 Ry     beta=0.70
     CG style diagonalization
     c_bands:  1 eigenvalues not converged
     c_bands:  4 eigenvalues not converged
     c_bands:  1 eigenvalues not converged
     c_bands:  2 eigenvalues not converged
     c_bands:  2 eigenvalues not converged
     c_bands:  2 eigenvalues not converged
     c_bands:  1 eigenvalues not converged
     c_bands:  2 eigenvalues not converged
     c_bands:  2 eigenvalues not converged
     c_bands:  5 eigenvalues not converged
     c_bands:  1 eigenvalues not converged
     c_bands:  2 eigenvalues not converged
     c_bands:  2 eigenvalues not converged
     c_bands:  2 eigenvalues not converged
     c_bands:  2 eigenvalues not converged
     c_bands:  2 eigenvalues not converged
     c_bands:  1 eigenvalues not converged
     c_bands:  5 eigenvalues not converged
     c_bands:  1 eigenvalues not converged
     c_bands:  2 eigenvalues not converged
     c_bands:  2 eigenvalues not converged
     c_bands:  2 eigenvalues not converged
     c_bands:  1 eigenvalues not converged
     c_bands:  3 eigenvalues not converged
     c_bands:  3 eigenvalues not converged
     c_bands:  2 eigenvalues not converged
     c_bands:  2 eigenvalues not converged
     c_bands:  5 eigenvalues not converged
     c_bands:  2 eigenvalues not converged
     c_bands:  2 eigenvalues not converged
     c_bands:  2 eigenvalues not converged
     c_bands:  2 eigenvalues not converged
     c_bands:  1 eigenvalues not converged
     c_bands:  3 eigenvalues not converged
     c_bands:  2 eigenvalues not converged
     c_bands:  3 eigenvalues not converged
     c_bands:  5 eigenvalues not converged
     c_bands:  2 eigenvalues not converged
     c_bands:  1 eigenvalues not converged
     c_bands:  2 eigenvalues not converged
     c_bands:  2 eigenvalues not converged
     c_bands:  2 eigenvalues not converged
     c_bands:  4 eigenvalues not converged
     c_bands:  2 eigenvalues not converged
     c_bands:  2 eigenvalues not converged
     c_bands:  1 eigenvalues not converged
     c_bands:  1 eigenvalues not converged
     c_bands:  1 eigenvalues not converged
     c_bands:  1 eigenvalues not converged
     c_bands:  1 eigenvalues not converged
     c_bands:  1 eigenvalues not converged
     c_bands:  1 eigenvalues not converged
     c_bands:  4 eigenvalues not converged
     c_bands:  2 eigenvalues not converged
     c_bands:  1 eigenvalues not converged
     c_bands:  2 eigenvalues not converged
     c_bands:  2 eigenvalues not converged
     c_bands:  4 eigenvalues not converged
     c_bands:  2 eigenvalues not converged
     c_bands:  4 eigenvalues not converged
     c_bands:  2 eigenvalues not converged
     c_bands:  1 eigenvalues not converged
     c_bands:  2 eigenvalues not converged
     c_bands:  2 eigenvalues not converged
     c_bands:  1 eigenvalues not converged
     c_bands:  1 eigenvalues not converged
     c_bands:  2 eigenvalues not converged
     c_bands:  3 eigenvalues not converged
     c_bands:  5 eigenvalues not converged
     c_bands:  2 eigenvalues not converged
     c_bands:  2 eigenvalues not converged
     c_bands:  2 eigenvalues not converged
     c_bands:  2 eigenvalues not converged
     c_bands:  2 eigenvalues not converged
     c_bands:  2 eigenvalues not converged
     c_bands:  2 eigenvalues not converged
     c_bands:  2 eigenvalues not converged
     c_bands:  1 eigenvalues not converged
     c_bands:  2 eigenvalues not converged
     c_bands:  3 eigenvalues not converged
     c_bands:  2 eigenvalues not converged
     c_bands:  5 eigenvalues not converged
     c_bands:  2 eigenvalues not converged
     c_bands:  1 eigenvalues not converged
     c_bands:  2 eigenvalues not converged
     c_bands:  2 eigenvalues not converged
     c_bands:  2 eigenvalues not converged
     c_bands:  2 eigenvalues not converged
     c_bands:  2 eigenvalues not converged
     c_bands:  3 eigenvalues not converged
     c_bands:  2 eigenvalues not converged
     c_bands:  1 eigenvalues not converged
     c_bands:  2 eigenvalues not converged
     c_bands:  2 eigenvalues not converged
     c_bands:  4 eigenvalues not converged
     c_bands:  5 eigenvalues not converged
     c_bands:  2 eigenvalues not converged
     c_bands:  2 eigenvalues not converged
     c_bands:  4 eigenvalues not converged
     c_bands:  2 eigenvalues not converged
     c_bands:  3 eigenvalues not converged
     ethr =  1.00E-06,  avg # of iterations = 68.6

     total cpu time spent up to now is     8325.2 secs

     total energy              =   -1960.62443342 Ry
     Harris-Foulkes estimate   =   -3378.46092851 Ry
     estimated scf accuracy    <    1709.74069581 Ry

     iteration #  2     ecut=    40.00 Ry     beta=0.70
     CG style diagonalization
     c_bands:  5 eigenvalues not converged
     c_bands:  4 eigenvalues not converged
     ethr =  1.00E-02,  avg # of iterations = 17.7

     total cpu time spent up to now is     8877.9 secs

     total energy              =   -1727.96258520 Ry
     Harris-Foulkes estimate   =   -3011.83032416 Ry
     estimated scf accuracy    <    2590.52072638 Ry

     iteration #  3     ecut=    40.00 Ry     beta=0.70
     CG style diagonalization
     c_bands:  4 eigenvalues not converged
     c_bands:  5 eigenvalues not converged
     c_bands:  4 eigenvalues not converged
     c_bands:  5 eigenvalues not converged
     c_bands:  4 eigenvalues not converged
     c_bands:  5 eigenvalues not converged
     c_bands:  2 eigenvalues not converged
     c_bands:  5 eigenvalues not converged
     c_bands:  2 eigenvalues not converged
     c_bands:  4 eigenvalues not converged
     c_bands:  4 eigenvalues not converged
     c_bands:  4 eigenvalues not converged
     c_bands:  4 eigenvalues not converged
     c_bands:  4 eigenvalues not converged
     c_bands:  3 eigenvalues not converged
     c_bands:  5 eigenvalues not converged
     c_bands:  4 eigenvalues not converged
     c_bands:  4 eigenvalues not converged
     c_bands:  5 eigenvalues not converged
     c_bands:  2 eigenvalues not converged
     c_bands:  5 eigenvalues not converged
     c_bands:  3 eigenvalues not converged
     c_bands:  5 eigenvalues not converged
     c_bands:  2 eigenvalues not converged
     c_bands:  4 eigenvalues not converged
     c_bands:  4 eigenvalues not converged
     c_bands:  4 eigenvalues not converged
     c_bands:  5 eigenvalues not converged
     c_bands:  4 eigenvalues not converged
     c_bands:  4 eigenvalues not converged
     c_bands:  4 eigenvalues not converged
     c_bands:  4 eigenvalues not converged
     c_bands:  4 eigenvalues not converged
     c_bands:  4 eigenvalues not converged
     c_bands:  4 eigenvalues not converged
     c_bands:  2 eigenvalues not converged
     c_bands:  5 eigenvalues not converged
     ethr =  1.00E-02,  avg # of iterations = 15.2

     total cpu time spent up to now is     9048.9 secs

     total energy              =   -2498.15964468 Ry
     Harris-Foulkes estimate   =   -2675.38921357 Ry
     estimated scf accuracy    <     448.01823639 Ry

     iteration #  4     ecut=    40.00 Ry     beta=0.70
     CG style diagonalization
     c_bands:  1 eigenvalues not converged
     ethr =  1.00E-02,  avg # of iterations =  6.7

     total cpu time spent up to now is     9127.6 secs

     total energy              =   -2518.63501916 Ry
     Harris-Foulkes estimate   =   -2539.57092131 Ry
     estimated scf accuracy    <      67.80026648 Ry

     iteration #  5     ecut=    40.00 Ry     beta=0.70
     CG style diagonalization
     ethr =  1.00E-02,  avg # of iterations =  4.7

     total cpu time spent up to now is     9181.6 secs

     total energy              =   -2522.95820867 Ry
     Harris-Foulkes estimate   =   -2527.17080398 Ry
     estimated scf accuracy    <       9.51159349 Ry

     iteration #  6     ecut=    40.00 Ry     beta=0.70
     CG style diagonalization
     ethr =  6.56E-03,  avg # of iterations =  3.5

     total cpu time spent up to now is     9220.9 secs

     total energy              =   -2524.82938124 Ry
     Harris-Foulkes estimate   =   -2525.04605615 Ry
     estimated scf accuracy    <       0.37161008 Ry

     iteration #  7     ecut=    40.00 Ry     beta=0.70
     CG style diagonalization
     c_bands:  1 eigenvalues not converged
     c_bands:  2 eigenvalues not converged
     c_bands:  1 eigenvalues not converged
     c_bands:  1 eigenvalues not converged
     c_bands:  1 eigenvalues not converged
     c_bands:  2 eigenvalues not converged
     c_bands:  1 eigenvalues not converged
     c_bands:  1 eigenvalues not converged
     c_bands:  1 eigenvalues not converged
     c_bands:  1 eigenvalues not converged
     c_bands:  1 eigenvalues not converged
     c_bands:  1 eigenvalues not converged
     c_bands:  1 eigenvalues not converged
     c_bands:  1 eigenvalues not converged
     c_bands:  2 eigenvalues not converged
     c_bands:  2 eigenvalues not converged
     c_bands:  2 eigenvalues not converged
     c_bands:  1 eigenvalues not converged
     c_bands:  1 eigenvalues not converged
     ethr =  2.56E-04,  avg # of iterations =  4.6

     total cpu time spent up to now is     9273.2 secs

     total energy              =   -2524.97218021 Ry
     Harris-Foulkes estimate   =   -2525.01154268 Ry
     estimated scf accuracy    <       0.06298052 Ry

     iteration #  8     ecut=    40.00 Ry     beta=0.70
     CG style diagonalization
     c_bands:  1 eigenvalues not converged
     c_bands:  1 eigenvalues not converged
     c_bands:  1 eigenvalues not converged
     c_bands:  1 eigenvalues not converged
     c_bands:  1 eigenvalues not converged
     c_bands:  1 eigenvalues not converged
     c_bands:  1 eigenvalues not converged
     c_bands:  1 eigenvalues not converged
     c_bands:  1 eigenvalues not converged
     c_bands:  2 eigenvalues not converged
     c_bands:  1 eigenvalues not converged
     c_bands:  1 eigenvalues not converged
     c_bands:  1 eigenvalues not converged
     ethr =  4.34E-05,  avg # of iterations =  4.0

     total cpu time spent up to now is     9317.7 secs

     total energy              =   -2524.99283715 Ry
     Harris-Foulkes estimate   =   -2525.00445387 Ry
     estimated scf accuracy    <       0.02395325 Ry

     iteration #  9     ecut=    40.00 Ry     beta=0.70
     CG style diagonalization
     c_bands:  1 eigenvalues not converged
     c_bands:  1 eigenvalues not converged
     c_bands:  1 eigenvalues not converged
     c_bands:  1 eigenvalues not converged
     c_bands:  1 eigenvalues not converged
     c_bands:  1 eigenvalues not converged
     ethr =  1.65E-05,  avg # of iterations =  3.5

     total cpu time spent up to now is     9355.8 secs

     total energy              =   -2524.99851749 Ry
     Harris-Foulkes estimate   =   -2524.99884420 Ry
     estimated scf accuracy    <       0.00066109 Ry

     iteration # 10     ecut=    40.00 Ry     beta=0.70
     CG style diagonalization
     c_bands:  1 eigenvalues not converged
     c_bands:  1 eigenvalues not converged
     c_bands:  1 eigenvalues not converged
     c_bands:  1 eigenvalues not converged
     c_bands:  1 eigenvalues not converged
     c_bands:  1 eigenvalues not converged
     c_bands:  1 eigenvalues not converged
     c_bands:  1 eigenvalues not converged
     c_bands:  1 eigenvalues not converged
     c_bands:  1 eigenvalues not converged
     c_bands:  2 eigenvalues not converged
     c_bands:  1 eigenvalues not converged
     c_bands:  1 eigenvalues not converged
     c_bands:  1 eigenvalues not converged
     c_bands:  1 eigenvalues not converged
     c_bands:  1 eigenvalues not converged
     c_bands:  1 eigenvalues not converged
     c_bands:  1 eigenvalues not converged
     c_bands:  1 eigenvalues not converged
     c_bands:  1 eigenvalues not converged
     c_bands:  2 eigenvalues not converged
     c_bands:  1 eigenvalues not converged
     ethr =  4.56E-07,  avg # of iterations =  4.9

     total cpu time spent up to now is     9406.0 secs

     total energy              =   -2524.99888288 Ry
     Harris-Foulkes estimate   =   -2524.99917850 Ry
     estimated scf accuracy    <       0.00055565 Ry

     iteration # 11     ecut=    40.00 Ry     beta=0.70
     CG style diagonalization
     c_bands:  1 eigenvalues not converged
     c_bands:  1 eigenvalues not converged
     c_bands:  1 eigenvalues not converged
     c_bands:  1 eigenvalues not converged
     ethr =  3.83E-07,  avg # of iterations =  3.3

     total cpu time spent up to now is     9440.0 secs

     total energy              =   -2524.99901272 Ry
     Harris-Foulkes estimate   =   -2524.99901652 Ry
     estimated scf accuracy    <       0.00000743 Ry

     iteration # 12     ecut=    40.00 Ry     beta=0.70
     CG style diagonalization
     c_bands:  1 eigenvalues not converged
     ethr =  5.12E-09,  avg # of iterations =  4.1

     total cpu time spent up to now is     9481.7 secs

     End of self-consistent calculation

     Number of k-points >= 100: set verbosity='high' to print the bands.

     the Fermi energy is    34.7241 ev

!    total energy              =   -2524.99901759 Ry
     Harris-Foulkes estimate   =   -2524.99901765 Ry
     estimated scf accuracy    <       0.00000010 Ry

     The total energy is the sum of the following terms:

     one-electron contribution =    -857.05039450 Ry
     hartree contribution      =     498.31117511 Ry
     xc contribution           =    -196.64595845 Ry
     ewald contribution        =   -1969.37800658 Ry
     smearing contrib. (-TS)   =      -0.23583317 Ry

     convergence has been achieved in  12 iterations

     Forces acting on atoms (Ry/au):

     atom    1 type  1   force =     0.00000000    0.00000000    0.00000000
     atom    2 type  2   force =     0.00000000    0.00000000    0.00000000
     atom    3 type  2   force =     0.00000000    0.00000000    0.00000000
     atom    4 type  2   force =     0.00000000    0.00000000    0.00000000
     atom    5 type  2   force =     0.00000000    0.00000000    0.00000000
     atom    6 type  2   force =     0.00000000    0.00000000    0.00000000

     Total force =     0.000000     Total SCF correction =     0.000000


     entering subroutine stress ...

          total   stress  (Ry/bohr**3)                   (kbar)     P=  754.50
   0.00440657   0.00000000   0.00000000        648.23      0.00      0.00
   0.00000000   0.00440657   0.00000000          0.00    648.23      0.00
   0.00000000   0.00000000   0.00657390          0.00      0.00    967.05


     Writing output data file Prototype-La-hP6-CaCu5.save
 
     init_run     :     25.55s CPU     34.43s WALL (       2 calls)
     electrons    :   6542.73s CPU   9377.00s WALL (       5 calls)
     update_pot   :      1.83s CPU      3.57s WALL (       3 calls)
     forces       :     11.39s CPU     17.07s WALL (       5 calls)
     stress       :     34.87s CPU     47.53s WALL (       5 calls)

     Called by init_run:
     wfcinit      :     24.63s CPU     33.20s WALL (       2 calls)
     potinit      :      0.41s CPU      0.44s WALL (       2 calls)

     Called by electrons:
     c_bands      :   6308.32s CPU   9019.44s WALL (      42 calls)
     sum_band     :    232.04s CPU    343.06s WALL (      42 calls)
     v_of_rho     :      0.23s CPU      0.41s WALL (      47 calls)
     mix_rho      :      0.27s CPU      0.50s WALL (      42 calls)

     Called by c_bands:
     init_us_2    :      3.88s CPU      7.15s WALL (   10560 calls)
     ccgdiagg     :   5643.29s CPU   7982.50s WALL (    5574 calls)
     wfcrot       :    684.54s CPU   1058.13s WALL (    5684 calls)

     Called by *cgdiagg:
     h_psi        :   4102.12s CPU   5872.70s WALL ( 2641946 calls)
     cdiaghg      :     29.51s CPU     40.83s WALL (    5684 calls)

     Called by h_psi:
     add_vuspsi   :    148.71s CPU    209.21s WALL ( 2641946 calls)

     General routines
     calbec       :   1298.87s CPU   1797.91s WALL ( 5279308 calls)
     fft          :      0.93s CPU      1.57s WALL (     211 calls)
     fftw         :   3228.24s CPU   4634.80s WALL ( 6679468 calls)
     davcio       :      3.92s CPU      9.10s WALL (   15180 calls)
 
     Parallel routines
     fft_scatter  :   2510.12s CPU   3587.89s WALL ( 6679679 calls)
 
     PWSCF        :     1h50m CPU        2h38m WALL

 
   This run was terminated on:   4:56:28  23Mar2018            

=------------------------------------------------------------------------------=
   JOB DONE.
=------------------------------------------------------------------------------=
