
     Program PWSCF v.5.0.2 starts on 22Mar2018 at 12:13:47 

     This program is part of the open-source Quantum ESPRESSO suite
     for quantum simulation of materials; please cite
         "P. Giannozzi et al., J. Phys.:Condens. Matter 21 395502 (2009);
          URL http://www.quantum-espresso.org", 
     in publications or presentations arising from this work. More details at
     http://www.quantum-espresso.org/quote.php

     Parallel version (MPI), running on     4 processors
     R & G space division:  proc/nbgrp/npool/nimage =       4

     Current dimensions of program PWSCF are:
     Max number of different atomic species (ntypx) = 10
     Max number of k-points (npk) =  40000
     Max angular momentum in pseudopotentials (lmaxx) =  3
     Waiting for input...
     Reading input from standard input

     Subspace diagonalization in iterative solution of the eigenvalue problem:
     a serial algorithm will be used

 
     Parallelization info
     --------------------
     sticks:   dense  smooth     PW     G-vecs:    dense   smooth      PW
     Min         521     521    161                11869    11869    2028
     Max         522     522    162                11872    11872    2030
     Sum        2087    2087    647                47485    47485    8117
 


     bravais-lattice index     =            0
     lattice parameter (alat)  =      12.8532  a.u.
     unit-cell volume          =    1390.2597 (a.u.)^3
     number of atoms/cell      =            6
     number of atomic types    =            2
     number of electrons       =       112.00
     number of Kohn-Sham states=           67
     kinetic-energy cutoff     =      40.0000  Ry
     charge density cutoff     =     160.0000  Ry
     convergence threshold     =      1.0E-04
     mixing beta               =       0.7000
     number of iterations used =            8  plain     mixing
     Exchange-correlation      = SLA-PZ-NOGX-NOGC ( 1 1 0 0 0)
     EXX-fraction              =        0.00
     nstep                     =           50


     celldm(1)=  12.853229  celldm(2)=   0.000000  celldm(3)=   0.000000
     celldm(4)=   0.000000  celldm(5)=   0.000000  celldm(6)=   0.000000

     crystal axes: (cart. coord. in units of alat)
               a(1) = (   1.000000   0.000000   0.000000 )  
               a(2) = (  -0.036574   0.999331   0.000000 )  
               a(3) = (  -0.266883  -0.706777   0.655164 )  

     reciprocal axes: (cart. coord. in units 2 pi/alat)
               b(1) = (  1.000000  0.036598  0.446834 )  
               b(2) = (  0.000000  1.000669  1.079502 )  
               b(3) = (  0.000000  0.000000  1.526336 )  


     PseudoPot. # 1 for Yb read from file:
     /home/jld5415/pp.La/Yb.UPF
     MD5 check sum: 3e859b81cc28c53ec6aa3a2e888efcdf
     Pseudo is Norm-conserving, Zval = 24.0
     Generated in analytical, separable form
     Using radial grid of 1269 points,  6 beta functions with: 
                l(1) =   0
                l(2) =   0
                l(3) =   1
                l(4) =   1
                l(5) =   2
                l(6) =   3

     PseudoPot. # 2 for Sm read from file:
     /home/jld5415/pp.La/Sm.UPF
     MD5 check sum: 5079e8b144a06bfcdbc14fb02b96ab09
     Pseudo is Norm-conserving, Zval = 16.0
     Generated in analytical, separable form
     Using radial grid of 1259 points,  6 beta functions with: 
                l(1) =   0
                l(2) =   0
                l(3) =   1
                l(4) =   1
                l(5) =   2
                l(6) =   3

     atomic species   valence    mass     pseudopotential
        K             24.00    39.09830     Yb( 1.00)
        Hg            16.00   200.59000     Sm( 1.00)

      2 Sym. Ops., with inversion, found



   Cartesian axes

     site n.     atom                  positions (alat units)
         1           K   tau(   1) = (  -0.0340766   0.4201429   0.4913727  )
         2           K   tau(   2) = (   0.7306201  -0.1275892   0.1637909  )
         3           Hg  tau(   3) = (   0.2308977  -0.0548727   0.3630373  )
         4           Hg  tau(   4) = (   0.4656458   0.3474265   0.2921263  )
         5           Hg  tau(   5) = (   0.5181090  -0.3317640   0.6197082  )
         6           Hg  tau(   6) = (   0.1784345   0.6243178   0.0354555  )

     number of k points=   253  gaussian smearing, width (Ry)=  0.1000

     Number of k-points >= 100: set verbosity='high' to print them.

     Dense  grid:    47485 G-vectors     FFT dimensions: (  54,  54,  54)

     Largest allocated arrays     est. size (Mb)     dimensions
        Kohn-Sham Wavefunctions         1.53 Mb     (   1500,   67)
        NL pseudopotentials             2.75 Mb     (   1500,  120)
        Each V/rho on FFT grid          0.62 Mb     (  40824)
        Each G-vector array             0.09 Mb     (  11872)
        G-vector shells                 0.09 Mb     (  11872)
     Largest temporary arrays     est. size (Mb)     dimensions
        Each subspace H/S matrix        0.07 Mb     (  67,  67)
        Each <psi_i|beta_j> matrix      0.12 Mb     (    120,   67)
        Arrays for rho mixing           4.98 Mb     (  40824,   8)

     Initial potential from superposition of free atoms

     Starting from uniform charge
     Starting wfc are    0 randomized atomic wfcs

     total cpu time spent up to now is       34.2 secs

     Self-consistent Calculation

     iteration #  1     ecut=    40.00 Ry     beta=0.70
     CG style diagonalization
     ethr =  1.00E-02,  avg # of iterations = 20.1

     total cpu time spent up to now is      952.2 secs

     total energy              =    -807.41024598 Ry
     Harris-Foulkes estimate   =   -2090.29641355 Ry
     estimated scf accuracy    <    1536.19795936 Ry

     iteration #  2     ecut=    40.00 Ry     beta=0.70
     CG style diagonalization
     ethr =  1.00E-02,  avg # of iterations = 18.0

     total cpu time spent up to now is     1753.5 secs

     total energy              =   -1177.24430392 Ry
     Harris-Foulkes estimate   =   -2057.42438460 Ry
     estimated scf accuracy    <    1595.62936480 Ry

     iteration #  3     ecut=    40.00 Ry     beta=0.70
     CG style diagonalization
     ethr =  1.00E-02,  avg # of iterations = 10.7

     total cpu time spent up to now is     2233.9 secs

     total energy              =   -1400.47416526 Ry
     Harris-Foulkes estimate   =   -1446.10596762 Ry
     estimated scf accuracy    <      74.14899608 Ry

     iteration #  4     ecut=    40.00 Ry     beta=0.70
     CG style diagonalization
     ethr =  1.00E-02,  avg # of iterations =  7.2

     total cpu time spent up to now is     2542.9 secs

     total energy              =   -1422.58505824 Ry
     Harris-Foulkes estimate   =   -1436.17812631 Ry
     estimated scf accuracy    <      41.66635116 Ry

     iteration #  5     ecut=    40.00 Ry     beta=0.70
     CG style diagonalization
     ethr =  1.00E-02,  avg # of iterations =  3.6

     total cpu time spent up to now is     2697.2 secs

     total energy              =   -1422.54791972 Ry
     Harris-Foulkes estimate   =   -1426.35077566 Ry
     estimated scf accuracy    <       6.83635433 Ry

     iteration #  6     ecut=    40.00 Ry     beta=0.70
     CG style diagonalization
     ethr =  6.10E-03,  avg # of iterations =  3.9

     total cpu time spent up to now is     2855.5 secs

     total energy              =   -1425.34015739 Ry
     Harris-Foulkes estimate   =   -1426.79594678 Ry
     estimated scf accuracy    <       5.24974084 Ry

     iteration #  7     ecut=    40.00 Ry     beta=0.70
     CG style diagonalization
     ethr =  4.69E-03,  avg # of iterations =  3.2

     total cpu time spent up to now is     2986.4 secs

     total energy              =   -1425.41286603 Ry
     Harris-Foulkes estimate   =   -1425.71144989 Ry
     estimated scf accuracy    <       1.23516581 Ry

     iteration #  8     ecut=    40.00 Ry     beta=0.70
     CG style diagonalization
     ethr =  1.10E-03,  avg # of iterations =  3.4

     total cpu time spent up to now is     3126.1 secs

     total energy              =   -1425.45588725 Ry
     Harris-Foulkes estimate   =   -1425.62656014 Ry
     estimated scf accuracy    <       0.84300808 Ry

     iteration #  9     ecut=    40.00 Ry     beta=0.70
     CG style diagonalization
     ethr =  7.53E-04,  avg # of iterations =  3.1

     total cpu time spent up to now is     3250.5 secs

     total energy              =   -1425.56281103 Ry
     Harris-Foulkes estimate   =   -1425.56570842 Ry
     estimated scf accuracy    <       0.03814029 Ry

     iteration # 10     ecut=    40.00 Ry     beta=0.70
     CG style diagonalization
     c_bands:  1 eigenvalues not converged
     c_bands:  1 eigenvalues not converged
     c_bands:  1 eigenvalues not converged
     c_bands:  1 eigenvalues not converged
     c_bands:  1 eigenvalues not converged
     c_bands:  1 eigenvalues not converged
     c_bands:  1 eigenvalues not converged
     c_bands:  1 eigenvalues not converged
     c_bands:  3 eigenvalues not converged
     c_bands:  1 eigenvalues not converged
     c_bands:  1 eigenvalues not converged
     c_bands:  1 eigenvalues not converged
     c_bands:  1 eigenvalues not converged
     c_bands:  1 eigenvalues not converged
     c_bands:  1 eigenvalues not converged
     c_bands:  1 eigenvalues not converged
     c_bands:  1 eigenvalues not converged
     c_bands:  1 eigenvalues not converged
     c_bands:  1 eigenvalues not converged
     c_bands:  1 eigenvalues not converged
     c_bands:  2 eigenvalues not converged
     c_bands:  1 eigenvalues not converged
     c_bands:  2 eigenvalues not converged
     ethr =  3.41E-05,  avg # of iterations =  4.2

     total cpu time spent up to now is     3423.5 secs

     total energy              =   -1425.54717209 Ry
     Harris-Foulkes estimate   =   -1425.57607227 Ry
     estimated scf accuracy    <       0.07765380 Ry

     iteration # 11     ecut=    40.00 Ry     beta=0.70
     CG style diagonalization
     ethr =  3.41E-05,  avg # of iterations =  3.4

     total cpu time spent up to now is     3562.3 secs

     total energy              =   -1425.56206474 Ry
     Harris-Foulkes estimate   =   -1425.56360303 Ry
     estimated scf accuracy    <       0.00380294 Ry

     iteration # 12     ecut=    40.00 Ry     beta=0.70
     CG style diagonalization
     c_bands:  1 eigenvalues not converged
     c_bands:  1 eigenvalues not converged
     c_bands:  1 eigenvalues not converged
     c_bands:  1 eigenvalues not converged
     c_bands:  1 eigenvalues not converged
     c_bands:  1 eigenvalues not converged
     c_bands:  1 eigenvalues not converged
     c_bands:  1 eigenvalues not converged
     c_bands:  1 eigenvalues not converged
     c_bands:  1 eigenvalues not converged
     c_bands:  1 eigenvalues not converged
     ethr =  3.40E-06,  avg # of iterations =  3.5

     total cpu time spent up to now is     3700.3 secs

     total energy              =   -1425.56294948 Ry
     Harris-Foulkes estimate   =   -1425.56298667 Ry
     estimated scf accuracy    <       0.00020125 Ry

     iteration # 13     ecut=    40.00 Ry     beta=0.70
     CG style diagonalization
     ethr =  1.80E-07,  avg # of iterations =  4.2

     total cpu time spent up to now is     3858.9 secs

     total energy              =   -1425.56298049 Ry
     Harris-Foulkes estimate   =   -1425.56301992 Ry
     estimated scf accuracy    <       0.00012101 Ry

     iteration # 14     ecut=    40.00 Ry     beta=0.70
     CG style diagonalization
     ethr =  1.08E-07,  avg # of iterations =  3.2

     total cpu time spent up to now is     3979.9 secs

     End of self-consistent calculation

     Number of k-points >= 100: set verbosity='high' to print the bands.

     the Fermi energy is    12.9229 ev

!    total energy              =   -1425.56299581 Ry
     Harris-Foulkes estimate   =   -1425.56299836 Ry
     estimated scf accuracy    <       0.00000314 Ry

     The total energy is the sum of the following terms:

     one-electron contribution =    -626.40502387 Ry
     hartree contribution      =     327.88516471 Ry
     xc contribution           =    -126.37002877 Ry
     ewald contribution        =   -1000.07108035 Ry
     smearing contrib. (-TS)   =      -0.60202752 Ry

     convergence has been achieved in  14 iterations

     Forces acting on atoms (Ry/au):

     atom    1 type  1   force =     0.00104430    0.00752894   -0.00287552
     atom    2 type  1   force =    -0.00104430   -0.00752894    0.00287552
     atom    3 type  2   force =     0.01189576   -0.01856137    0.01376041
     atom    4 type  2   force =    -0.01189576    0.01856137   -0.01376041
     atom    5 type  2   force =    -0.01456099    0.01479486   -0.01337865
     atom    6 type  2   force =     0.01456099   -0.01479486    0.01337865

     Total force =     0.051987     Total SCF correction =     0.000000


     entering subroutine stress ...

          total   stress  (Ry/bohr**3)                   (kbar)     P= -439.14
  -0.00297141  -0.00005837   0.00007494       -437.11     -8.59     11.02
  -0.00005837  -0.00297449  -0.00007306         -8.59   -437.56    -10.75
   0.00007494  -0.00007306  -0.00300975         11.02    -10.75   -442.75


     BFGS Geometry Optimization

     number of scf cycles    =   1
     number of bfgs steps    =   0

     enthalpy new            =   -1425.5629958081 Ry

     new trust radius        =       0.5000000000 bohr
     new conv_thr            =       0.0001000000 Ry

     new unit-cell volume =   1131.06610 a.u.^3 (   167.60670 Ang^3 )

CELL_PARAMETERS (alat= 12.85322937)
   0.933845109  -0.001299449   0.001668391
  -0.035452569   0.933199549  -0.001686610
  -0.247215856  -0.660691095   0.611966588

ATOMIC_POSITIONS (crystal)
K        0.200864423   0.951168927   0.749695902
K        0.799135577   0.048831073   0.250304098
Hg       0.392310159   0.336732297   0.555572218
Hg       0.607689841   0.663267703   0.444427782
Hg       0.781488446   0.337015116   0.944468155
Hg       0.218511554   0.662984884   0.055531845



     Writing output data file Prototype-La-oI12-KHg2.save
     NEW-OLD atomic charge density approx. for the potential
     NEW k-points: (use verbosity='high' to print them)

     total cpu time spent up to now is     4005.7 secs

     Self-consistent Calculation

     iteration #  1     ecut=    40.00 Ry     beta=0.70
     CG style diagonalization
     c_bands:  1 eigenvalues not converged
     c_bands:  1 eigenvalues not converged
     c_bands:  3 eigenvalues not converged
     c_bands:  1 eigenvalues not converged
     c_bands:  1 eigenvalues not converged
     c_bands:  1 eigenvalues not converged
     c_bands:  1 eigenvalues not converged
     c_bands:  1 eigenvalues not converged
     c_bands:  1 eigenvalues not converged
     c_bands:  1 eigenvalues not converged
     c_bands:  1 eigenvalues not converged
     c_bands:  1 eigenvalues not converged
     c_bands:  1 eigenvalues not converged
     c_bands:  1 eigenvalues not converged
     c_bands:  1 eigenvalues not converged
     c_bands:  1 eigenvalues not converged
     c_bands:  1 eigenvalues not converged
     ethr =  1.00E-06,  avg # of iterations = 23.2

     total cpu time spent up to now is     4841.9 secs

     total energy              =   -1419.90814891 Ry
     Harris-Foulkes estimate   =   -1433.73795563 Ry
     estimated scf accuracy    <      17.14939557 Ry

     iteration #  2     ecut=    40.00 Ry     beta=0.70
     CG style diagonalization
     ethr =  1.00E-02,  avg # of iterations =  4.4

     total cpu time spent up to now is     5006.4 secs

     total energy              =   -1424.62974035 Ry
     Harris-Foulkes estimate   =   -1427.98496771 Ry
     estimated scf accuracy    <       5.35151005 Ry

     iteration #  3     ecut=    40.00 Ry     beta=0.70
     CG style diagonalization
     ethr =  4.78E-03,  avg # of iterations =  3.6

     total cpu time spent up to now is     5144.7 secs

     total energy              =   -1425.22005003 Ry
     Harris-Foulkes estimate   =   -1426.96449541 Ry
     estimated scf accuracy    <       6.02292394 Ry

     iteration #  4     ecut=    40.00 Ry     beta=0.70
     CG style diagonalization
     ethr =  4.78E-03,  avg # of iterations =  3.3

     total cpu time spent up to now is     5269.1 secs

     total energy              =   -1426.03556270 Ry
     Harris-Foulkes estimate   =   -1426.42813456 Ry
     estimated scf accuracy    <       1.54245944 Ry

     iteration #  5     ecut=    40.00 Ry     beta=0.70
     CG style diagonalization
     ethr =  1.38E-03,  avg # of iterations =  3.0

     total cpu time spent up to now is     5384.3 secs

     total energy              =   -1426.20983320 Ry
     Harris-Foulkes estimate   =   -1426.21674675 Ry
     estimated scf accuracy    <       0.01156704 Ry

     iteration #  6     ecut=    40.00 Ry     beta=0.70
     CG style diagonalization
     c_bands:  1 eigenvalues not converged
     c_bands:  1 eigenvalues not converged
     c_bands:  1 eigenvalues not converged
     c_bands:  1 eigenvalues not converged
     c_bands:  2 eigenvalues not converged
     c_bands:  1 eigenvalues not converged
     c_bands:  1 eigenvalues not converged
     c_bands:  1 eigenvalues not converged
     c_bands:  1 eigenvalues not converged
     c_bands:  1 eigenvalues not converged
     c_bands:  1 eigenvalues not converged
     c_bands:  1 eigenvalues not converged
     c_bands:  1 eigenvalues not converged
     c_bands:  1 eigenvalues not converged
     c_bands:  1 eigenvalues not converged
     c_bands:  1 eigenvalues not converged
     c_bands:  1 eigenvalues not converged
     ethr =  1.03E-05,  avg # of iterations =  5.3

     total cpu time spent up to now is     5585.4 secs

     total energy              =   -1426.22080199 Ry
     Harris-Foulkes estimate   =   -1426.23435078 Ry
     estimated scf accuracy    <       0.04722862 Ry

     iteration #  7     ecut=    40.00 Ry     beta=0.70
     CG style diagonalization
     c_bands:  1 eigenvalues not converged
     ethr =  1.03E-05,  avg # of iterations =  3.6

     total cpu time spent up to now is     5721.4 secs

     total energy              =   -1426.22394819 Ry
     Harris-Foulkes estimate   =   -1426.22638720 Ry
     estimated scf accuracy    <       0.00844928 Ry

     iteration #  8     ecut=    40.00 Ry     beta=0.70
     CG style diagonalization
     ethr =  7.54E-06,  avg # of iterations =  3.1

     total cpu time spent up to now is     5837.6 secs

     total energy              =   -1426.22393947 Ry
     Harris-Foulkes estimate   =   -1426.22464090 Ry
     estimated scf accuracy    <       0.00154605 Ry

     iteration #  9     ecut=    40.00 Ry     beta=0.70
     CG style diagonalization
     c_bands:  1 eigenvalues not converged
     c_bands:  1 eigenvalues not converged
     c_bands:  1 eigenvalues not converged
     ethr =  1.38E-06,  avg # of iterations =  4.4

     total cpu time spent up to now is     6006.9 secs

     total energy              =   -1426.22461901 Ry
     Harris-Foulkes estimate   =   -1426.22469199 Ry
     estimated scf accuracy    <       0.00027663 Ry

     iteration # 10     ecut=    40.00 Ry     beta=0.70
     CG style diagonalization
     ethr =  2.47E-07,  avg # of iterations =  3.3

     total cpu time spent up to now is     6130.6 secs

     End of self-consistent calculation

     Number of k-points >= 100: set verbosity='high' to print the bands.

     the Fermi energy is    17.2337 ev

!    total energy              =   -1426.22457239 Ry
     Harris-Foulkes estimate   =   -1426.22465179 Ry
     estimated scf accuracy    <       0.00008693 Ry

     The total energy is the sum of the following terms:

     one-electron contribution =    -517.34888036 Ry
     hartree contribution      =     289.92896111 Ry
     xc contribution           =    -127.45076969 Ry
     ewald contribution        =   -1070.88399838 Ry
     smearing contrib. (-TS)   =      -0.46988506 Ry

     convergence has been achieved in  10 iterations

     Forces acting on atoms (Ry/au):

     atom    1 type  1   force =     0.03468074    0.04763522   -0.00521450
     atom    2 type  1   force =    -0.03468074   -0.04763522    0.00521450
     atom    3 type  2   force =     0.02719695   -0.02651457    0.02443857
     atom    4 type  2   force =    -0.02719695    0.02651457   -0.02443857
     atom    5 type  2   force =    -0.02759184    0.02682359   -0.02475502
     atom    6 type  2   force =     0.02759184   -0.02682359    0.02475502

     Total force =     0.123553     Total SCF correction =     0.000000


     entering subroutine stress ...

          total   stress  (Ry/bohr**3)                   (kbar)     P= -284.30
  -0.00193578  -0.00003593   0.00001961       -284.76     -5.29      2.88
  -0.00003593  -0.00193659  -0.00001985         -5.29   -284.88     -2.92
   0.00001961  -0.00001985  -0.00192556          2.88     -2.92   -283.26


     number of scf cycles    =   2
     number of bfgs steps    =   1

     enthalpy old            =   -1425.5629958081 Ry
     enthalpy new            =   -1426.2245723876 Ry

     CASE: enthalpy_new < enthalpy_old

     small trust_radius: resetting bfgs history

     new trust radius        =       0.3257240947 bohr
     new conv_thr            =       0.0000476352 Ry

     new unit-cell volume =    974.91225 a.u.^3 (   144.46709 Ang^3 )

CELL_PARAMETERS (alat= 12.85322937)
   0.888654118  -0.002076207   0.002046447
  -0.034575950   0.888051538  -0.002085788
  -0.234358531  -0.628785403   0.582713774

ATOMIC_POSITIONS (crystal)
K        0.203711938   0.954676270   0.749034868
K        0.796288062   0.045323730   0.250965132
Hg       0.395395809   0.336719758   0.558670733
Hg       0.604604191   0.663280242   0.441329267
Hg       0.778359172   0.337024953   0.941329521
Hg       0.221640828   0.662975047   0.058670479



     Writing output data file Prototype-La-oI12-KHg2.save
     NEW-OLD atomic charge density approx. for the potential
     NEW k-points: (use verbosity='high' to print them)

     total cpu time spent up to now is     6155.9 secs

     Self-consistent Calculation

     iteration #  1     ecut=    40.00 Ry     beta=0.70
     CG style diagonalization
     c_bands:  1 eigenvalues not converged
     c_bands:  1 eigenvalues not converged
     c_bands:  1 eigenvalues not converged
     c_bands:  1 eigenvalues not converged
     c_bands:  1 eigenvalues not converged
     c_bands:  1 eigenvalues not converged
     c_bands:  1 eigenvalues not converged
     c_bands:  1 eigenvalues not converged
     c_bands:  1 eigenvalues not converged
     c_bands:  1 eigenvalues not converged
     c_bands:  1 eigenvalues not converged
     c_bands:  1 eigenvalues not converged
     c_bands:  1 eigenvalues not converged
     c_bands:  1 eigenvalues not converged
     c_bands:  1 eigenvalues not converged
     c_bands:  1 eigenvalues not converged
     c_bands:  1 eigenvalues not converged
     c_bands:  1 eigenvalues not converged
     c_bands:  1 eigenvalues not converged
     c_bands:  1 eigenvalues not converged
     c_bands:  1 eigenvalues not converged
     c_bands:  1 eigenvalues not converged
     c_bands:  1 eigenvalues not converged
     c_bands:  1 eigenvalues not converged
     c_bands:  1 eigenvalues not converged
     c_bands:  1 eigenvalues not converged
     c_bands:  1 eigenvalues not converged
     c_bands:  2 eigenvalues not converged
     c_bands:  1 eigenvalues not converged
     c_bands:  1 eigenvalues not converged
     c_bands:  1 eigenvalues not converged
     c_bands:  1 eigenvalues not converged
     ethr =  1.00E-06,  avg # of iterations = 23.7

     total cpu time spent up to now is     7009.8 secs

     total energy              =   -1416.91409025 Ry
     Harris-Foulkes estimate   =   -1432.66332094 Ry
     estimated scf accuracy    <      19.02327122 Ry

     iteration #  2     ecut=    40.00 Ry     beta=0.70
     CG style diagonalization
     ethr =  1.00E-02,  avg # of iterations =  5.3

     total cpu time spent up to now is     7210.5 secs

     total energy              =   -1416.88089253 Ry
     Harris-Foulkes estimate   =   -1435.61261617 Ry
     estimated scf accuracy    <      42.61056712 Ry

     iteration #  3     ecut=    40.00 Ry     beta=0.70
     CG style diagonalization
     ethr =  1.00E-02,  avg # of iterations =  4.5

     total cpu time spent up to now is     7382.2 secs

     total energy              =   -1425.21444997 Ry
     Harris-Foulkes estimate   =   -1426.88013605 Ry
     estimated scf accuracy    <       3.86419918 Ry

     iteration #  4     ecut=    40.00 Ry     beta=0.70
     CG style diagonalization
     ethr =  3.45E-03,  avg # of iterations =  3.5

     total cpu time spent up to now is     7515.2 secs

     total energy              =   -1426.03733633 Ry
     Harris-Foulkes estimate   =   -1426.59318580 Ry
     estimated scf accuracy    <       1.80012440 Ry

     iteration #  5     ecut=    40.00 Ry     beta=0.70
     CG style diagonalization
     ethr =  1.61E-03,  avg # of iterations =  3.3

     total cpu time spent up to now is     7640.7 secs

     total energy              =   -1426.34532663 Ry
     Harris-Foulkes estimate   =   -1426.44617623 Ry
     estimated scf accuracy    <       0.35528961 Ry

     iteration #  6     ecut=    40.00 Ry     beta=0.70
     CG style diagonalization
     ethr =  3.17E-04,  avg # of iterations =  3.5

     total cpu time spent up to now is     7775.1 secs

     total energy              =   -1426.40936257 Ry
     Harris-Foulkes estimate   =   -1426.41685435 Ry
     estimated scf accuracy    <       0.01664036 Ry

     iteration #  7     ecut=    40.00 Ry     beta=0.70
     CG style diagonalization
     c_bands:  1 eigenvalues not converged
     c_bands:  1 eigenvalues not converged
     c_bands:  1 eigenvalues not converged
     c_bands:  1 eigenvalues not converged
     c_bands:  1 eigenvalues not converged
     c_bands:  1 eigenvalues not converged
     c_bands:  1 eigenvalues not converged
     c_bands:  1 eigenvalues not converged
     c_bands:  1 eigenvalues not converged
     c_bands:  2 eigenvalues not converged
     c_bands:  1 eigenvalues not converged
     c_bands:  2 eigenvalues not converged
     c_bands:  1 eigenvalues not converged
     c_bands:  1 eigenvalues not converged
     c_bands:  2 eigenvalues not converged
     c_bands:  1 eigenvalues not converged
     c_bands:  1 eigenvalues not converged
     c_bands:  1 eigenvalues not converged
     c_bands:  1 eigenvalues not converged
     c_bands:  1 eigenvalues not converged
     c_bands:  1 eigenvalues not converged
     c_bands:  1 eigenvalues not converged
     c_bands:  1 eigenvalues not converged
     c_bands:  1 eigenvalues not converged
     c_bands:  1 eigenvalues not converged
     c_bands:  1 eigenvalues not converged
     c_bands:  2 eigenvalues not converged
     ethr =  1.49E-05,  avg # of iterations =  5.4

     total cpu time spent up to now is     7979.6 secs

     total energy              =   -1426.42296213 Ry
     Harris-Foulkes estimate   =   -1426.42438040 Ry
     estimated scf accuracy    <       0.00255933 Ry

     iteration #  8     ecut=    40.00 Ry     beta=0.70
     CG style diagonalization
     c_bands:  1 eigenvalues not converged
     c_bands:  1 eigenvalues not converged
     c_bands:  1 eigenvalues not converged
     c_bands:  1 eigenvalues not converged
     c_bands:  1 eigenvalues not converged
     c_bands:  1 eigenvalues not converged
     c_bands:  1 eigenvalues not converged
     c_bands:  1 eigenvalues not converged
     ethr =  2.29E-06,  avg # of iterations =  4.3

     total cpu time spent up to now is     8141.6 secs

     total energy              =   -1426.42338437 Ry
     Harris-Foulkes estimate   =   -1426.42410563 Ry
     estimated scf accuracy    <       0.00143103 Ry

     iteration #  9     ecut=    40.00 Ry     beta=0.70
     CG style diagonalization
     c_bands:  1 eigenvalues not converged
     ethr =  1.28E-06,  avg # of iterations =  3.6

     total cpu time spent up to now is     8277.8 secs

     total energy              =   -1426.42375591 Ry
     Harris-Foulkes estimate   =   -1426.42379807 Ry
     estimated scf accuracy    <       0.00008918 Ry

     iteration # 10     ecut=    40.00 Ry     beta=0.70
     CG style diagonalization
     ethr =  7.96E-08,  avg # of iterations =  4.7

     total cpu time spent up to now is     8454.0 secs

     End of self-consistent calculation

     Number of k-points >= 100: set verbosity='high' to print the bands.

     the Fermi energy is    20.9091 ev

!    total energy              =   -1426.42379000 Ry
     Harris-Foulkes estimate   =   -1426.42380429 Ry
     estimated scf accuracy    <       0.00001737 Ry

     The total energy is the sum of the following terms:

     one-electron contribution =    -438.74973068 Ry
     hartree contribution      =     264.80806996 Ry
     xc contribution           =    -128.49555477 Ry
     ewald contribution        =   -1123.59632073 Ry
     smearing contrib. (-TS)   =      -0.39025378 Ry

     convergence has been achieved in  10 iterations

     Forces acting on atoms (Ry/au):

     atom    1 type  1   force =    -0.02132141   -0.03697703    0.00648098
     atom    2 type  1   force =     0.02132141    0.03697703   -0.00648098
     atom    3 type  2   force =     0.00050988    0.03060654   -0.01327039
     atom    4 type  2   force =    -0.00050988   -0.03060654    0.01327039
     atom    5 type  2   force =     0.02934389    0.00019140    0.01367920
     atom    6 type  2   force =    -0.02934389   -0.00019140   -0.01367920

     Total force =     0.089725     Total SCF correction =     0.000000


     entering subroutine stress ...

          total   stress  (Ry/bohr**3)                   (kbar)     P=  -69.15
  -0.00050529  -0.00004904  -0.00004799        -74.33     -7.21     -7.06
  -0.00004904  -0.00050787   0.00004593         -7.21    -74.71      6.76
  -0.00004799   0.00004593  -0.00039705         -7.06      6.76    -58.41


     number of scf cycles    =   3
     number of bfgs steps    =   2

     enthalpy old            =   -1426.2245723876 Ry
     enthalpy new            =   -1426.4237900039 Ry

     CASE: enthalpy_new < enthalpy_old

     Message from routine bfgs:
     history already reset at previous step: stopping
     small trust_radius: resetting bfgs history

     new trust radius        =       0.0799781275 bohr
     new conv_thr            =       0.0000369770 Ry

     new unit-cell volume =    940.93713 a.u.^3 (   139.43249 Ang^3 )

CELL_PARAMETERS (alat= 12.85322937)
   0.877428399  -0.003136962   0.000957492
  -0.035225398   0.876816202  -0.001003988
  -0.231326327  -0.619845543   0.576488814

ATOMIC_POSITIONS (crystal)
K        0.201970128   0.952043014   0.749896873
K        0.798029872   0.047956986   0.250103127
Hg       0.395030533   0.338150324   0.556905331
Hg       0.604969467   0.661849676   0.443094669
Hg       0.781459331   0.338337763   0.943149721
Hg       0.218540669   0.661662237   0.056850279



     Writing output data file Prototype-La-oI12-KHg2.save
     NEW-OLD atomic charge density approx. for the potential
     NEW k-points: (use verbosity='high' to print them)

     total cpu time spent up to now is     8478.8 secs

     Self-consistent Calculation

     iteration #  1     ecut=    40.00 Ry     beta=0.70
     CG style diagonalization
     c_bands:  3 eigenvalues not converged
     c_bands:  1 eigenvalues not converged
     c_bands:  1 eigenvalues not converged
     c_bands:  1 eigenvalues not converged
     c_bands:  1 eigenvalues not converged
     c_bands:  1 eigenvalues not converged
     c_bands:  1 eigenvalues not converged
     c_bands:  1 eigenvalues not converged
     c_bands:  1 eigenvalues not converged
     c_bands:  1 eigenvalues not converged
     c_bands:  1 eigenvalues not converged
     c_bands:  1 eigenvalues not converged
     c_bands:  1 eigenvalues not converged
     ethr =  1.00E-06,  avg # of iterations = 19.6

     total cpu time spent up to now is     9186.7 secs

     total energy              =   -1422.08285257 Ry
     Harris-Foulkes estimate   =   -1428.14350063 Ry
     estimated scf accuracy    <       7.18437942 Ry

     iteration #  2     ecut=    40.00 Ry     beta=0.70
     CG style diagonalization
     ethr =  6.41E-03,  avg # of iterations =  5.0

     total cpu time spent up to now is     9376.5 secs

     total energy              =   -1421.30499928 Ry
     Harris-Foulkes estimate   =   -1432.37097316 Ry
     estimated scf accuracy    <      29.20657257 Ry

     iteration #  3     ecut=    40.00 Ry     beta=0.70
     CG style diagonalization
     ethr =  6.41E-03,  avg # of iterations =  4.0

     total cpu time spent up to now is     9528.5 secs

     total energy              =   -1426.03862062 Ry
     Harris-Foulkes estimate   =   -1426.34770315 Ry
     estimated scf accuracy    <       0.67443758 Ry

     iteration #  4     ecut=    40.00 Ry     beta=0.70
     CG style diagonalization
     ethr =  6.02E-04,  avg # of iterations =  4.5

     total cpu time spent up to now is     9700.1 secs

     total energy              =   -1426.35779950 Ry
     Harris-Foulkes estimate   =   -1426.48353179 Ry
     estimated scf accuracy    <       0.44094818 Ry

     iteration #  5     ecut=    40.00 Ry     beta=0.70
     CG style diagonalization
     ethr =  3.94E-04,  avg # of iterations =  3.3

     total cpu time spent up to now is     9822.8 secs

     total energy              =   -1426.42677225 Ry
     Harris-Foulkes estimate   =   -1426.44061593 Ry
     estimated scf accuracy    <       0.03859608 Ry

     iteration #  6     ecut=    40.00 Ry     beta=0.70
     CG style diagonalization
     c_bands:  1 eigenvalues not converged
     c_bands:  1 eigenvalues not converged
     ethr =  3.45E-05,  avg # of iterations =  4.3

     total cpu time spent up to now is    10076.2 secs

     total energy              =   -1426.43725280 Ry
     Harris-Foulkes estimate   =   -1426.43951210 Ry
     estimated scf accuracy    <       0.00492447 Ry

     iteration #  7     ecut=    40.00 Ry     beta=0.70
     CG style diagonalization
     c_bands:  1 eigenvalues not converged
     c_bands:  1 eigenvalues not converged
     c_bands:  1 eigenvalues not converged
     c_bands:  1 eigenvalues not converged
     c_bands:  1 eigenvalues not converged
     ethr =  4.40E-06,  avg # of iterations =  4.3

     total cpu time spent up to now is    10393.9 secs

     total energy              =   -1426.43836258 Ry
     Harris-Foulkes estimate   =   -1426.43890281 Ry
     estimated scf accuracy    <       0.00104424 Ry

     iteration #  8     ecut=    40.00 Ry     beta=0.70
     CG style diagonalization
     ethr =  9.32E-07,  avg # of iterations =  4.0

     total cpu time spent up to now is    10618.2 secs

     total energy              =   -1426.43869683 Ry
     Harris-Foulkes estimate   =   -1426.43873184 Ry
     estimated scf accuracy    <       0.00007954 Ry

     iteration #  9     ecut=    40.00 Ry     beta=0.70
     CG style diagonalization
     ethr =  7.10E-08,  avg # of iterations =  5.0

     total cpu time spent up to now is    10807.8 secs

     End of self-consistent calculation

     Number of k-points >= 100: set verbosity='high' to print the bands.

     the Fermi energy is    21.8521 ev

!    total energy              =   -1426.43874636 Ry
     Harris-Foulkes estimate   =   -1426.43875709 Ry
     estimated scf accuracy    <       0.00001341 Ry

     The total energy is the sum of the following terms:

     one-electron contribution =    -416.39255908 Ry
     hartree contribution      =     257.31822355 Ry
     xc contribution           =    -128.75121194 Ry
     ewald contribution        =   -1138.23625470 Ry
     smearing contrib. (-TS)   =      -0.37694419 Ry

     convergence has been achieved in   9 iterations

     Forces acting on atoms (Ry/au):

     atom    1 type  1   force =     0.00255787   -0.00982732    0.00579573
     atom    2 type  1   force =    -0.00255787    0.00982732   -0.00579573
     atom    3 type  2   force =     0.00598752    0.01182991   -0.00253952
     atom    4 type  2   force =    -0.00598752   -0.01182991    0.00253952
     atom    5 type  2   force =     0.01409918    0.00537601    0.00410459
     atom    6 type  2   force =    -0.01409918   -0.00537601   -0.00410459

     Total force =     0.033571     Total SCF correction =     0.000000


     entering subroutine stress ...

          total   stress  (Ry/bohr**3)                   (kbar)     P=  -12.45
  -0.00010991   0.00001417  -0.00007062        -16.17      2.08    -10.39
   0.00001417  -0.00010948   0.00006785          2.08    -16.11      9.98
  -0.00007062   0.00006785  -0.00003458        -10.39      9.98     -5.09


     The maximum number of steps has been reached.

     End of BFGS Geometry Optimization
Begin final coordinates
     new unit-cell volume =    940.93713 a.u.^3 (   139.43249 Ang^3 )

CELL_PARAMETERS (alat= 12.85322937)
   0.877428399  -0.003136962   0.000957492
  -0.035225398   0.876816202  -0.001003988
  -0.231326327  -0.619845543   0.576488814

ATOMIC_POSITIONS (crystal)
K        0.201970128   0.952043014   0.749896873
K        0.798029872   0.047956986   0.250103127
Hg       0.395030533   0.338150324   0.556905331
Hg       0.604969467   0.661849676   0.443094669
Hg       0.781459331   0.338337763   0.943149721
Hg       0.218540669   0.661662237   0.056850279
End final coordinates



     A final scf calculation at the relaxed structure.
     The G-vectors are recalculated for the final unit cell
     Results may differ from those at the preceding step.
 
     Parallelization info
     --------------------
     sticks:   dense  smooth     PW     G-vecs:    dense   smooth      PW
     Min         403     403    125                 8034     8034    1423
     Max         404     404    126                 8035     8035    1426
     Sum        1615    1615    503                32139    32139    5699
 


     bravais-lattice index     =            0
     lattice parameter (alat)  =      12.8532  a.u.
     unit-cell volume          =     940.9371 (a.u.)^3
     number of atoms/cell      =            6
     number of atomic types    =            2
     number of electrons       =       112.00
     number of Kohn-Sham states=           67
     kinetic-energy cutoff     =      40.0000  Ry
     charge density cutoff     =     160.0000  Ry
     convergence threshold     =      3.7E-05
     mixing beta               =       0.7000
     number of iterations used =            8  plain     mixing
     Exchange-correlation      = SLA-PZ-NOGX-NOGC ( 1 1 0 0 0)
     EXX-fraction              =        0.00

     celldm(1)=  12.853229  celldm(2)=   0.000000  celldm(3)=   0.000000
     celldm(4)=   0.000000  celldm(5)=   0.000000  celldm(6)=   0.000000

     crystal axes: (cart. coord. in units of alat)
               a(1) = (   0.877428  -0.003137   0.000957 )  
               a(2) = (  -0.035225   0.876816  -0.001004 )  
               a(3) = (  -0.231326  -0.619846   0.576489 )  

     reciprocal axes: (cart. coord. in units 2 pi/alat)
               b(1) = (  1.139307  0.046351  0.507004 )  
               b(2) = (  0.002742  1.142007  1.228996 )  
               b(3) = ( -0.001888  0.001912  1.735937 )  


     PseudoPot. # 1 for Yb read from file:
     /home/jld5415/pp.La/Yb.UPF
     MD5 check sum: 3e859b81cc28c53ec6aa3a2e888efcdf
     Pseudo is Norm-conserving, Zval = 24.0
     Generated in analytical, separable form
     Using radial grid of 1269 points,  6 beta functions with: 
                l(1) =   0
                l(2) =   0
                l(3) =   1
                l(4) =   1
                l(5) =   2
                l(6) =   3

     PseudoPot. # 2 for Sm read from file:
     /home/jld5415/pp.La/Sm.UPF
     MD5 check sum: 5079e8b144a06bfcdbc14fb02b96ab09
     Pseudo is Norm-conserving, Zval = 16.0
     Generated in analytical, separable form
     Using radial grid of 1259 points,  6 beta functions with: 
                l(1) =   0
                l(2) =   0
                l(3) =   1
                l(4) =   1
                l(5) =   2
                l(6) =   3

     atomic species   valence    mass     pseudopotential
        K             24.00    39.09830     Yb( 1.00)
        Hg            16.00   200.59000     Sm( 1.00)

      2 Sym. Ops., with inversion, found



   Cartesian axes

     site n.     atom                  positions (alat units)
         1           K   tau(   1) = (  -0.0297927   0.3693129   0.4315447  )
         2           K   tau(   2) = (   0.6406693  -0.1154792   0.1448976  )
         3           Hg  tau(   3) = (   0.2058727  -0.0499388   0.3210884  )
         4           Hg  tau(   4) = (   0.4050040   0.3037725   0.2553539  )
         5           Hg  tau(   5) = (   0.4555812  -0.2903985   0.5441238  )
         6           Hg  tau(   6) = (   0.1552955   0.5442322   0.0323185  )

     number of k points=   253  gaussian smearing, width (Ry)=  0.1000

     Number of k-points >= 100: set verbosity='high' to print them.

     Dense  grid:    32139 G-vectors     FFT dimensions: (  45,  45,  45)

     Largest allocated arrays     est. size (Mb)     dimensions
        Kohn-Sham Wavefunctions         1.05 Mb     (   1027,   67)
        NL pseudopotentials             1.88 Mb     (   1027,  120)
        Each V/rho on FFT grid          0.37 Mb     (  24300)
        Each G-vector array             0.06 Mb     (   8034)
        G-vector shells                 0.06 Mb     (   7781)
     Largest temporary arrays     est. size (Mb)     dimensions
        Each subspace H/S matrix        0.07 Mb     (  67,  67)
        Each <psi_i|beta_j> matrix      0.12 Mb     (    120,   67)
        Arrays for rho mixing           2.97 Mb     (  24300,   8)

     Initial potential from superposition of free atoms

     Starting from uniform charge
     Starting wfc are    0 randomized atomic wfcs

     Writing output data file Prototype-La-oI12-KHg2.save

     total cpu time spent up to now is    10857.7 secs

     Self-consistent Calculation

     iteration #  1     ecut=    40.00 Ry     beta=0.70
     CG style diagonalization
     c_bands:  4 eigenvalues not converged
     c_bands:  4 eigenvalues not converged
     c_bands:  5 eigenvalues not converged
     c_bands:  5 eigenvalues not converged
     c_bands:  5 eigenvalues not converged
     c_bands:  2 eigenvalues not converged
     c_bands:  4 eigenvalues not converged
