
     Program PWSCF v.5.0.2 starts on 22Mar2018 at 17:36:40 

     This program is part of the open-source Quantum ESPRESSO suite
     for quantum simulation of materials; please cite
         "P. Giannozzi et al., J. Phys.:Condens. Matter 21 395502 (2009);
          URL http://www.quantum-espresso.org", 
     in publications or presentations arising from this work. More details at
     http://www.quantum-espresso.org/quote.php

     Parallel version (MPI), running on     4 processors
     R & G space division:  proc/nbgrp/npool/nimage =       4

     Current dimensions of program PWSCF are:
     Max number of different atomic species (ntypx) = 10
     Max number of k-points (npk) =  40000
     Max angular momentum in pseudopotentials (lmaxx) =  3
     Waiting for input...
     Reading input from standard input

     Subspace diagonalization in iterative solution of the eigenvalue problem:
     a serial algorithm will be used

 
     Parallelization info
     --------------------
     sticks:   dense  smooth     PW     G-vecs:    dense   smooth      PW
     Min         356     356    106                 9670     9670    1578
     Max         358     358    108                 9671     9671    1579
     Sum        1429    1429    427                38681    38681    6313
 


     bravais-lattice index     =            0
     lattice parameter (alat)  =      13.3930  a.u.
     unit-cell volume          =    1134.0956 (a.u.)^3
     number of atoms/cell      =            4
     number of atomic types    =            2
     number of electrons       =        66.00
     number of Kohn-Sham states=           40
     kinetic-energy cutoff     =      40.0000  Ry
     charge density cutoff     =     160.0000  Ry
     convergence threshold     =      1.0E-04
     mixing beta               =       0.7000
     number of iterations used =            8  plain     mixing
     Exchange-correlation      = SLA-PZ-NOGX-NOGC ( 1 1 0 0 0)
     EXX-fraction              =        0.00
     nstep                     =           50


     celldm(1)=  13.392972  celldm(2)=   0.000000  celldm(3)=   0.000000
     celldm(4)=   0.000000  celldm(5)=   0.000000  celldm(6)=   0.000000

     crystal axes: (cart. coord. in units of alat)
               a(1) = (   1.000000   0.000000   0.000000 )  
               a(2) = (  -0.776311   0.630350   0.000000 )  
               a(3) = (   0.000000   0.000000   0.748922 )  

     reciprocal axes: (cart. coord. in units 2 pi/alat)
               b(1) = (  1.000000  1.231554  0.000000 )  
               b(2) = (  0.000000  1.586419  0.000000 )  
               b(3) = (  0.000000  0.000000  1.335252 )  


     PseudoPot. # 1 for Tb read from file:
     /home/jld5415/pp.La/Tb.UPF
     MD5 check sum: 3d6088a3f0cf7fd2e110c43f7f8e95c2
     Pseudo is Norm-conserving, Zval = 19.0
     Generated in analytical, separable form
     Using radial grid of 1263 points,  6 beta functions with: 
                l(1) =   0
                l(2) =   0
                l(3) =   1
                l(4) =   1
                l(5) =   2
                l(6) =   3

     PseudoPot. # 2 for Nd read from file:
     /home/jld5415/pp.La/Nd.UPF
     MD5 check sum: c66c5b6abe7b5840ced9b1e244e3bed6
     Pseudo is Norm-conserving, Zval = 14.0
     Generated in analytical, separable form
     Using radial grid of 1257 points,  6 beta functions with: 
                l(1) =   0
                l(2) =   0
                l(3) =   1
                l(4) =   1
                l(5) =   2
                l(6) =   3

     atomic species   valence    mass     pseudopotential
        Tl            19.00   204.38300     Tb( 1.00)
        I             14.00   126.90400     Nd( 1.00)

      2 Sym. Ops., with inversion, found
          (note:  2 additional sym.ops. were found but ignored
           their fractional translations are incommensurate with FFT grid)


   Cartesian axes

     site n.     atom                  positions (alat units)
         1           Tl  tau(   1) = (  -0.0906317   0.3870269   0.5616917  )
         2           Tl  tau(   2) = (   0.3143210   0.2433234   0.1872306  )
         3           I   tau(   3) = (  -0.5408004   0.5467760   0.5616917  )
         4           I   tau(   4) = (   0.7644896   0.0835744   0.1872306  )

     number of k points=   106  gaussian smearing, width (Ry)=  0.1000

     Number of k-points >= 100: set verbosity='high' to print them.

     Dense  grid:    38681 G-vectors     FFT dimensions: (  54,  54,  45)

     Largest allocated arrays     est. size (Mb)     dimensions
        Kohn-Sham Wavefunctions         0.75 Mb     (   1230,   40)
        NL pseudopotentials             1.50 Mb     (   1230,   80)
        Each V/rho on FFT grid          0.53 Mb     (  34992)
        Each G-vector array             0.07 Mb     (   9671)
        G-vector shells                 0.07 Mb     (   9671)
     Largest temporary arrays     est. size (Mb)     dimensions
        Each subspace H/S matrix        0.02 Mb     (  40,  40)
        Each <psi_i|beta_j> matrix      0.05 Mb     (     80,   40)
        Arrays for rho mixing           4.27 Mb     (  34992,   8)

     Initial potential from superposition of free atoms

     Starting from uniform charge
     Starting wfc are    0 randomized atomic wfcs

     total cpu time spent up to now is        7.5 secs

     Self-consistent Calculation

     iteration #  1     ecut=    40.00 Ry     beta=0.70
     CG style diagonalization
     c_bands:  4 eigenvalues not converged
     c_bands:  5 eigenvalues not converged
     c_bands:  5 eigenvalues not converged
     c_bands:  4 eigenvalues not converged
     c_bands:  5 eigenvalues not converged
     c_bands:  4 eigenvalues not converged
     c_bands:  3 eigenvalues not converged
     c_bands:  4 eigenvalues not converged
     c_bands:  4 eigenvalues not converged
     c_bands:  3 eigenvalues not converged
     c_bands:  4 eigenvalues not converged
     c_bands:  4 eigenvalues not converged
     c_bands:  4 eigenvalues not converged
     c_bands:  3 eigenvalues not converged
     c_bands:  5 eigenvalues not converged
     c_bands:  5 eigenvalues not converged
     c_bands:  4 eigenvalues not converged
     c_bands:  3 eigenvalues not converged
     c_bands:  4 eigenvalues not converged
     c_bands:  3 eigenvalues not converged
     c_bands:  4 eigenvalues not converged
     c_bands:  3 eigenvalues not converged
     ethr =  1.00E-02,  avg # of iterations = 17.8

     total cpu time spent up to now is      132.1 secs

     total energy              =    -326.87491667 Ry
     Harris-Foulkes estimate   =    -953.86231125 Ry
     estimated scf accuracy    <     764.01377329 Ry

     iteration #  2     ecut=    40.00 Ry     beta=0.70
     CG style diagonalization
     c_bands:  1 eigenvalues not converged
     c_bands:  1 eigenvalues not converged
     c_bands:  3 eigenvalues not converged
     c_bands:  5 eigenvalues not converged
     c_bands:  2 eigenvalues not converged
     c_bands:  1 eigenvalues not converged
     c_bands:  3 eigenvalues not converged
     c_bands:  1 eigenvalues not converged
     c_bands:  4 eigenvalues not converged
     c_bands:  3 eigenvalues not converged
     c_bands:  2 eigenvalues not converged
     c_bands:  1 eigenvalues not converged
     c_bands:  2 eigenvalues not converged
     c_bands:  2 eigenvalues not converged
     c_bands:  2 eigenvalues not converged
     c_bands:  5 eigenvalues not converged
     c_bands:  1 eigenvalues not converged
     c_bands:  2 eigenvalues not converged
     c_bands:  2 eigenvalues not converged
     c_bands:  2 eigenvalues not converged
     c_bands:  1 eigenvalues not converged
     c_bands:  1 eigenvalues not converged
     c_bands:  1 eigenvalues not converged
     c_bands:  1 eigenvalues not converged
     c_bands:  1 eigenvalues not converged
     c_bands:  2 eigenvalues not converged
     c_bands:  4 eigenvalues not converged
     c_bands:  1 eigenvalues not converged
     c_bands:  2 eigenvalues not converged
     c_bands:  2 eigenvalues not converged
     c_bands:  3 eigenvalues not converged
     c_bands:  1 eigenvalues not converged
     c_bands:  1 eigenvalues not converged
     c_bands:  2 eigenvalues not converged
     c_bands:  1 eigenvalues not converged
     c_bands:  1 eigenvalues not converged
     c_bands:  2 eigenvalues not converged
     c_bands:  2 eigenvalues not converged
     c_bands:  1 eigenvalues not converged
     c_bands:  2 eigenvalues not converged
     c_bands:  2 eigenvalues not converged
     c_bands:  3 eigenvalues not converged
     c_bands:  2 eigenvalues not converged
     c_bands:  2 eigenvalues not converged
     c_bands:  4 eigenvalues not converged
     c_bands:  1 eigenvalues not converged
     c_bands:  1 eigenvalues not converged
     c_bands:  1 eigenvalues not converged
     c_bands:  1 eigenvalues not converged
     c_bands:  1 eigenvalues not converged
     c_bands:  1 eigenvalues not converged
     c_bands:  2 eigenvalues not converged
     c_bands:  1 eigenvalues not converged
     c_bands:  1 eigenvalues not converged
     c_bands:  1 eigenvalues not converged
     c_bands:  1 eigenvalues not converged
     c_bands:  2 eigenvalues not converged
     c_bands:  4 eigenvalues not converged
     c_bands:  1 eigenvalues not converged
     c_bands:  1 eigenvalues not converged
     c_bands:  3 eigenvalues not converged
     c_bands:  1 eigenvalues not converged
     c_bands:  1 eigenvalues not converged
     c_bands:  3 eigenvalues not converged
     c_bands:  1 eigenvalues not converged
     c_bands:  3 eigenvalues not converged
     c_bands:  1 eigenvalues not converged
     c_bands:  1 eigenvalues not converged
     c_bands:  5 eigenvalues not converged
     c_bands:  3 eigenvalues not converged
     c_bands:  2 eigenvalues not converged
     c_bands:  1 eigenvalues not converged
     c_bands:  2 eigenvalues not converged
     c_bands:  1 eigenvalues not converged
     c_bands:  2 eigenvalues not converged
     c_bands:  2 eigenvalues not converged
     c_bands:  2 eigenvalues not converged
     c_bands:  2 eigenvalues not converged
     c_bands:  1 eigenvalues not converged
     c_bands:  1 eigenvalues not converged
     c_bands:  2 eigenvalues not converged
     c_bands:  2 eigenvalues not converged
     c_bands:  1 eigenvalues not converged
     c_bands:  1 eigenvalues not converged
     ethr =  1.00E-02,  avg # of iterations = 13.9

     total cpu time spent up to now is      228.9 secs

     total energy              =    -500.84221634 Ry
     Harris-Foulkes estimate   =   -1055.84314814 Ry
     estimated scf accuracy    <    1132.78600382 Ry

     iteration #  3     ecut=    40.00 Ry     beta=0.70
     CG style diagonalization
     c_bands:  1 eigenvalues not converged
     ethr =  1.00E-02,  avg # of iterations = 11.1

     total cpu time spent up to now is      309.6 secs

     total energy              =    -672.76437802 Ry
     Harris-Foulkes estimate   =    -695.75898385 Ry
     estimated scf accuracy    <      37.81033215 Ry

     iteration #  4     ecut=    40.00 Ry     beta=0.70
     CG style diagonalization
     ethr =  1.00E-02,  avg # of iterations =  5.4

     total cpu time spent up to now is      348.8 secs

     total energy              =    -678.49537117 Ry
     Harris-Foulkes estimate   =    -680.17483787 Ry
     estimated scf accuracy    <       3.51731476 Ry

     iteration #  5     ecut=    40.00 Ry     beta=0.70
     CG style diagonalization
     ethr =  5.33E-03,  avg # of iterations =  3.8

     total cpu time spent up to now is      378.4 secs

     total energy              =    -678.70351640 Ry
     Harris-Foulkes estimate   =    -679.59727702 Ry
     estimated scf accuracy    <       1.81830748 Ry

     iteration #  6     ecut=    40.00 Ry     beta=0.70
     CG style diagonalization
     ethr =  2.76E-03,  avg # of iterations =  3.7

     total cpu time spent up to now is      407.8 secs

     total energy              =    -679.15456320 Ry
     Harris-Foulkes estimate   =    -679.26425172 Ry
     estimated scf accuracy    <       0.26501292 Ry

     iteration #  7     ecut=    40.00 Ry     beta=0.70
     CG style diagonalization
     ethr =  4.02E-04,  avg # of iterations =  3.6

     total cpu time spent up to now is      438.0 secs

     total energy              =    -679.19220805 Ry
     Harris-Foulkes estimate   =    -679.20254244 Ry
     estimated scf accuracy    <       0.02528452 Ry

     iteration #  8     ecut=    40.00 Ry     beta=0.70
     CG style diagonalization
     c_bands:  1 eigenvalues not converged
     c_bands:  1 eigenvalues not converged
     c_bands:  1 eigenvalues not converged
     c_bands:  1 eigenvalues not converged
     c_bands:  1 eigenvalues not converged
     c_bands:  1 eigenvalues not converged
     ethr =  3.83E-05,  avg # of iterations =  4.2

     total cpu time spent up to now is      471.2 secs

     total energy              =    -679.19956245 Ry
     Harris-Foulkes estimate   =    -679.20013842 Ry
     estimated scf accuracy    <       0.00118737 Ry

     iteration #  9     ecut=    40.00 Ry     beta=0.70
     CG style diagonalization
     c_bands:  1 eigenvalues not converged
     c_bands:  1 eigenvalues not converged
     c_bands:  1 eigenvalues not converged
     c_bands:  1 eigenvalues not converged
     ethr =  1.80E-06,  avg # of iterations =  4.5

     total cpu time spent up to now is      505.0 secs

     total energy              =    -679.19979449 Ry
     Harris-Foulkes estimate   =    -679.20003862 Ry
     estimated scf accuracy    <       0.00045165 Ry

     iteration # 10     ecut=    40.00 Ry     beta=0.70
     CG style diagonalization
     ethr =  6.84E-07,  avg # of iterations =  4.0

     total cpu time spent up to now is      537.0 secs

     total energy              =    -679.19989138 Ry
     Harris-Foulkes estimate   =    -679.20004035 Ry
     estimated scf accuracy    <       0.00035828 Ry

     iteration # 11     ecut=    40.00 Ry     beta=0.70
     CG style diagonalization
     ethr =  5.43E-07,  avg # of iterations =  3.3

     total cpu time spent up to now is      565.9 secs

     End of self-consistent calculation

     Number of k-points >= 100: set verbosity='high' to print the bands.

     the Fermi energy is     8.8084 ev

!    total energy              =    -679.19995412 Ry
     Harris-Foulkes estimate   =    -679.19995523 Ry
     estimated scf accuracy    <       0.00000183 Ry

     The total energy is the sum of the following terms:

     one-electron contribution =    -291.19730254 Ry
     hartree contribution      =     160.38938767 Ry
     xc contribution           =     -68.17128564 Ry
     ewald contribution        =    -479.71147167 Ry
     smearing contrib. (-TS)   =      -0.50928194 Ry

     convergence has been achieved in  11 iterations

     Forces acting on atoms (Ry/au):

     atom    1 type  1   force =    -0.00413701    0.00227830    0.00196010
     atom    2 type  1   force =     0.00413701   -0.00227830   -0.00196010
     atom    3 type  2   force =     0.00016291    0.00032779    0.00115387
     atom    4 type  2   force =    -0.00016291   -0.00032779   -0.00115387

     Total force =     0.007431     Total SCF correction =     0.000000


     entering subroutine stress ...

          total   stress  (Ry/bohr**3)                   (kbar)     P= -338.05
  -0.00229719   0.00000647   0.00000000       -337.93      0.95      0.00
   0.00000647  -0.00228116  -0.00000015          0.95   -335.57     -0.02
   0.00000000  -0.00000015  -0.00231572          0.00     -0.02   -340.65


     BFGS Geometry Optimization

     number of scf cycles    =   1
     number of bfgs steps    =   0

     enthalpy new            =    -679.1999541168 Ry

     new trust radius        =       0.3899251132 bohr
     new conv_thr            =       0.0001000000 Ry

     new unit-cell volume =    949.64658 a.u.^3 (   140.72310 Ang^3 )

CELL_PARAMETERS (alat= 13.39297219)
   0.942570373   0.000161655  -0.000000067
  -0.731625614   0.594276703  -0.000002258
  -0.000000050  -0.000002745   0.705564836

ATOMIC_POSITIONS (crystal)
Tl       0.385913607   0.614256868   0.750195418
Tl       0.614086393   0.385743132   0.249804582
I        0.132626306   0.867454827   0.750115039
I        0.867373694   0.132545173   0.249884961



     Writing output data file Prototype-La-oS8-TlI.save
     NEW-OLD atomic charge density approx. for the potential
     NEW k-points: (use verbosity='high' to print them)

     total cpu time spent up to now is      572.1 secs

     Self-consistent Calculation

     iteration #  1     ecut=    40.00 Ry     beta=0.70
     CG style diagonalization
     c_bands:  4 eigenvalues not converged
     c_bands:  1 eigenvalues not converged
     c_bands:  1 eigenvalues not converged
     c_bands:  1 eigenvalues not converged
     c_bands:  1 eigenvalues not converged
     c_bands:  1 eigenvalues not converged
     c_bands:  1 eigenvalues not converged
     ethr =  1.00E-06,  avg # of iterations = 21.2

     total cpu time spent up to now is      734.9 secs

     total energy              =    -673.41932405 Ry
     Harris-Foulkes estimate   =    -683.10036094 Ry
     estimated scf accuracy    <      11.86156223 Ry

     iteration #  2     ecut=    40.00 Ry     beta=0.70
     CG style diagonalization
     ethr =  1.00E-02,  avg # of iterations =  4.2

     total cpu time spent up to now is      768.1 secs

     total energy              =    -677.40758223 Ry
     Harris-Foulkes estimate   =    -684.36131242 Ry
     estimated scf accuracy    <      13.15568515 Ry

     iteration #  3     ecut=    40.00 Ry     beta=0.70
     CG style diagonalization
     ethr =  1.00E-02,  avg # of iterations =  3.6

     total cpu time spent up to now is      798.9 secs

     total energy              =    -679.35879226 Ry
     Harris-Foulkes estimate   =    -679.80016395 Ry
     estimated scf accuracy    <       0.90111009 Ry

     iteration #  4     ecut=    40.00 Ry     beta=0.70
     CG style diagonalization
     ethr =  1.37E-03,  avg # of iterations =  3.7

     total cpu time spent up to now is      832.4 secs

     total energy              =    -679.54867793 Ry
     Harris-Foulkes estimate   =    -679.65410974 Ry
     estimated scf accuracy    <       0.28127863 Ry

     iteration #  5     ecut=    40.00 Ry     beta=0.70
     CG style diagonalization
     ethr =  4.26E-04,  avg # of iterations =  3.6

     total cpu time spent up to now is      862.1 secs

     total energy              =    -679.57602824 Ry
     Harris-Foulkes estimate   =    -679.60065345 Ry
     estimated scf accuracy    <       0.03783088 Ry

     iteration #  6     ecut=    40.00 Ry     beta=0.70
     CG style diagonalization
     ethr =  5.73E-05,  avg # of iterations =  4.2

     total cpu time spent up to now is      895.9 secs

     total energy              =    -679.57934408 Ry
     Harris-Foulkes estimate   =    -679.60948611 Ry
     estimated scf accuracy    <       0.07147437 Ry

     iteration #  7     ecut=    40.00 Ry     beta=0.70
     CG style diagonalization
     ethr =  5.73E-05,  avg # of iterations =  3.5

     total cpu time spent up to now is      923.4 secs

     total energy              =    -679.59307665 Ry
     Harris-Foulkes estimate   =    -679.59313784 Ry
     estimated scf accuracy    <       0.00013871 Ry

     iteration #  8     ecut=    40.00 Ry     beta=0.70
     CG style diagonalization
     c_bands:  1 eigenvalues not converged
     c_bands:  1 eigenvalues not converged
     c_bands:  1 eigenvalues not converged
     c_bands:  1 eigenvalues not converged
     c_bands:  1 eigenvalues not converged
     c_bands:  1 eigenvalues not converged
     c_bands:  1 eigenvalues not converged
     ethr =  2.10E-07,  avg # of iterations =  5.4

     total cpu time spent up to now is      963.3 secs

     total energy              =    -679.59327974 Ry
     Harris-Foulkes estimate   =    -679.59337300 Ry
     estimated scf accuracy    <       0.00021092 Ry

     iteration #  9     ecut=    40.00 Ry     beta=0.70
     CG style diagonalization
     ethr =  2.10E-07,  avg # of iterations =  3.6

     total cpu time spent up to now is      989.8 secs

     End of self-consistent calculation

     Number of k-points >= 100: set verbosity='high' to print the bands.

     the Fermi energy is    11.4761 ev

!    total energy              =    -679.59332081 Ry
     Harris-Foulkes estimate   =    -679.59332912 Ry
     estimated scf accuracy    <       0.00001102 Ry

     The total energy is the sum of the following terms:

     one-electron contribution =    -244.83188111 Ry
     hartree contribution      =     143.09510265 Ry
     xc contribution           =     -68.45264666 Ry
     ewald contribution        =    -508.95012567 Ry
     smearing contrib. (-TS)   =      -0.45377003 Ry

     convergence has been achieved in   9 iterations

     Forces acting on atoms (Ry/au):

     atom    1 type  1   force =     0.00872516   -0.00252441    0.00638763
     atom    2 type  1   force =    -0.00872516    0.00252441   -0.00638763
     atom    3 type  2   force =    -0.00984653    0.00373087    0.00319239
     atom    4 type  2   force =     0.00984653   -0.00373087   -0.00319239

     Total force =     0.022107     Total SCF correction =     0.000000


     entering subroutine stress ...

          total   stress  (Ry/bohr**3)                   (kbar)     P= -285.92
  -0.00196567   0.00001198   0.00000007       -289.16      1.76      0.01
   0.00001198  -0.00193592   0.00000000          1.76   -284.78      0.00
   0.00000007   0.00000000  -0.00192930          0.01      0.00   -283.81


     number of scf cycles    =   2
     number of bfgs steps    =   1

     enthalpy old            =    -679.1999541168 Ry
     enthalpy new            =    -679.5933208110 Ry

     CASE: enthalpy_new < enthalpy_old

     small trust_radius: resetting bfgs history

     new trust radius        =       0.3028800856 bohr
     new conv_thr            =       0.0000098465 Ry

     new unit-cell volume =    817.83156 a.u.^3 (   121.19013 Ang^3 )

CELL_PARAMETERS (alat= 13.39297219)
   0.896250753   0.000436063   0.000001684
  -0.695494222   0.565295848  -0.000003538
   0.000001259  -0.000002651   0.671533595

ATOMIC_POSITIONS (crystal)
Tl       0.386358493   0.613939578   0.750871384
Tl       0.613641507   0.386060422   0.249128616
I        0.132210246   0.867923695   0.750452873
I        0.867789754   0.132076305   0.249547127



     Writing output data file Prototype-La-oS8-TlI.save
     NEW-OLD atomic charge density approx. for the potential
     NEW k-points: (use verbosity='high' to print them)

     total cpu time spent up to now is      995.8 secs

     Self-consistent Calculation

     iteration #  1     ecut=    40.00 Ry     beta=0.70
     CG style diagonalization
     c_bands:  3 eigenvalues not converged
     c_bands:  5 eigenvalues not converged
     c_bands:  1 eigenvalues not converged
     c_bands:  1 eigenvalues not converged
     c_bands:  1 eigenvalues not converged
     c_bands:  1 eigenvalues not converged
     c_bands:  1 eigenvalues not converged
     c_bands:  1 eigenvalues not converged
     c_bands:  1 eigenvalues not converged
     ethr =  1.00E-06,  avg # of iterations = 20.5

     total cpu time spent up to now is     1150.9 secs

     total energy              =    -676.24953744 Ry
     Harris-Foulkes estimate   =    -682.18723641 Ry
     estimated scf accuracy    <       7.32310739 Ry

     iteration #  2     ecut=    40.00 Ry     beta=0.70
     CG style diagonalization
     ethr =  1.00E-02,  avg # of iterations =  4.0

     total cpu time spent up to now is     1180.6 secs

     total energy              =    -678.48676427 Ry
     Harris-Foulkes estimate   =    -682.31728078 Ry
     estimated scf accuracy    <       7.10468351 Ry

     iteration #  3     ecut=    40.00 Ry     beta=0.70
     CG style diagonalization
     ethr =  1.00E-02,  avg # of iterations =  3.6

     total cpu time spent up to now is     1208.1 secs

     total energy              =    -679.74992120 Ry
     Harris-Foulkes estimate   =    -679.87277356 Ry
     estimated scf accuracy    <       0.22582614 Ry

     iteration #  4     ecut=    40.00 Ry     beta=0.70
     CG style diagonalization
     ethr =  3.42E-04,  avg # of iterations =  3.9

     total cpu time spent up to now is     1236.8 secs

     total energy              =    -679.80421966 Ry
     Harris-Foulkes estimate   =    -679.82726696 Ry
     estimated scf accuracy    <       0.04478854 Ry

     iteration #  5     ecut=    40.00 Ry     beta=0.70
     CG style diagonalization
     ethr =  6.79E-05,  avg # of iterations =  3.7

     total cpu time spent up to now is     1266.0 secs

     total energy              =    -679.81238754 Ry
     Harris-Foulkes estimate   =    -679.82193127 Ry
     estimated scf accuracy    <       0.02301415 Ry

     iteration #  6     ecut=    40.00 Ry     beta=0.70
     CG style diagonalization
     ethr =  3.49E-05,  avg # of iterations =  3.6

     total cpu time spent up to now is     1293.0 secs

     total energy              =    -679.81621827 Ry
     Harris-Foulkes estimate   =    -679.81953885 Ry
     estimated scf accuracy    <       0.00766036 Ry

     iteration #  7     ecut=    40.00 Ry     beta=0.70
     CG style diagonalization
     c_bands:  1 eigenvalues not converged
     ethr =  1.16E-05,  avg # of iterations =  3.4

     total cpu time spent up to now is     1319.9 secs

     total energy              =    -679.81742276 Ry
     Harris-Foulkes estimate   =    -679.81750143 Ry
     estimated scf accuracy    <       0.00014424 Ry

     iteration #  8     ecut=    40.00 Ry     beta=0.70
     CG style diagonalization
     c_bands:  1 eigenvalues not converged
     c_bands:  1 eigenvalues not converged
     ethr =  2.19E-07,  avg # of iterations =  5.1

     total cpu time spent up to now is     1356.7 secs

     total energy              =    -679.81754669 Ry
     Harris-Foulkes estimate   =    -679.81756733 Ry
     estimated scf accuracy    <       0.00004165 Ry

     iteration #  9     ecut=    40.00 Ry     beta=0.70
     CG style diagonalization
     ethr =  6.31E-08,  avg # of iterations =  3.9

     total cpu time spent up to now is     1384.0 secs

     End of self-consistent calculation

     Number of k-points >= 100: set verbosity='high' to print the bands.

     the Fermi energy is    14.1428 ev

!    total energy              =    -679.81755850 Ry
     Harris-Foulkes estimate   =    -679.81756042 Ry
     estimated scf accuracy    <       0.00000242 Ry

     The total energy is the sum of the following terms:

     one-electron contribution =    -204.64733618 Ry
     hartree contribution      =     128.96985607 Ry
     xc contribution           =     -68.80303095 Ry
     ewald contribution        =    -534.93429318 Ry
     smearing contrib. (-TS)   =      -0.40275426 Ry

     convergence has been achieved in   9 iterations

     Forces acting on atoms (Ry/au):

     atom    1 type  1   force =     0.02276260   -0.00792181    0.00354068
     atom    2 type  1   force =    -0.02276260    0.00792181   -0.00354068
     atom    3 type  2   force =    -0.02275885    0.00811240    0.00135108
     atom    4 type  2   force =     0.02275885   -0.00811240   -0.00135108

     Total force =     0.048560     Total SCF correction =     0.000000


     entering subroutine stress ...

          total   stress  (Ry/bohr**3)                   (kbar)     P= -209.63
  -0.00148885   0.00002389   0.00000000       -219.02      3.51      0.00
   0.00002389  -0.00142992   0.00000008          3.51   -210.35      0.01
   0.00000000   0.00000008  -0.00135639          0.00      0.01   -199.53


     number of scf cycles    =   3
     number of bfgs steps    =   2

     enthalpy old            =    -679.5933208110 Ry
     enthalpy new            =    -679.8175585023 Ry

     CASE: enthalpy_new < enthalpy_old

     Message from routine bfgs:
     history already reset at previous step: stopping
     small trust_radius: resetting bfgs history

     new trust radius        =       0.2129160010 bohr
     new conv_thr            =       0.0000227626 Ry

     new unit-cell volume =    733.49723 a.u.^3 (   108.69307 Ang^3 )

CELL_PARAMETERS (alat= 13.39297219)
   0.862891478   0.000955820   0.000001721
  -0.669269426   0.544672226  -0.000002417
   0.000001281  -0.000001279   0.648762075

ATOMIC_POSITIONS (crystal)
Tl       0.387442219   0.612892407   0.751265055
Tl       0.612557781   0.387107593   0.248734945
I        0.131146356   0.868996027   0.750603104
I        0.868853644   0.131003973   0.249396896



     Writing output data file Prototype-La-oS8-TlI.save
     NEW-OLD atomic charge density approx. for the potential
     NEW k-points: (use verbosity='high' to print them)

     total cpu time spent up to now is     1389.6 secs

     Self-consistent Calculation

     iteration #  1     ecut=    40.00 Ry     beta=0.70
     CG style diagonalization
     c_bands:  1 eigenvalues not converged
     c_bands:  2 eigenvalues not converged
     c_bands:  5 eigenvalues not converged
     c_bands:  3 eigenvalues not converged
     c_bands:  1 eigenvalues not converged
     c_bands:  5 eigenvalues not converged
     c_bands:  1 eigenvalues not converged
     c_bands:  1 eigenvalues not converged
     ethr =  1.00E-06,  avg # of iterations = 19.8

     total cpu time spent up to now is     1521.2 secs

     total energy              =    -677.51647162 Ry
     Harris-Foulkes estimate   =    -681.38629320 Ry
     estimated scf accuracy    <       4.74025361 Ry

     iteration #  2     ecut=    40.00 Ry     beta=0.70
     CG style diagonalization
     ethr =  7.18E-03,  avg # of iterations =  4.4

     total cpu time spent up to now is     1552.6 secs

     total energy              =    -678.18303359 Ry
     Harris-Foulkes estimate   =    -682.07138984 Ry
     estimated scf accuracy    <       8.31587969 Ry

     iteration #  3     ecut=    40.00 Ry     beta=0.70
     CG style diagonalization
     ethr =  7.18E-03,  avg # of iterations =  3.6

     total cpu time spent up to now is     1578.8 secs

     total energy              =    -679.74235375 Ry
     Harris-Foulkes estimate   =    -679.89701616 Ry
     estimated scf accuracy    <       0.28416148 Ry

     iteration #  4     ecut=    40.00 Ry     beta=0.70
     CG style diagonalization
     ethr =  4.31E-04,  avg # of iterations =  4.4

     total cpu time spent up to now is     1609.4 secs

     total energy              =    -679.89040559 Ry
     Harris-Foulkes estimate   =    -679.93893205 Ry
     estimated scf accuracy    <       0.11540903 Ry

     iteration #  5     ecut=    40.00 Ry     beta=0.70
     CG style diagonalization
     ethr =  1.75E-04,  avg # of iterations =  3.7

     total cpu time spent up to now is     1635.3 secs

     total energy              =    -679.91603364 Ry
     Harris-Foulkes estimate   =    -679.92141963 Ry
     estimated scf accuracy    <       0.01139477 Ry

     iteration #  6     ecut=    40.00 Ry     beta=0.70
     CG style diagonalization
     ethr =  1.73E-05,  avg # of iterations =  4.2

     total cpu time spent up to now is     1665.1 secs

     total energy              =    -679.91864309 Ry
     Harris-Foulkes estimate   =    -679.91933169 Ry
     estimated scf accuracy    <       0.00107103 Ry

     iteration #  7     ecut=    40.00 Ry     beta=0.70
     CG style diagonalization
     ethr =  1.62E-06,  avg # of iterations =  5.0

     total cpu time spent up to now is     1699.7 secs

     total energy              =    -679.91920019 Ry
     Harris-Foulkes estimate   =    -679.91927020 Ry
     estimated scf accuracy    <       0.00014188 Ry

     iteration #  8     ecut=    40.00 Ry     beta=0.70
     CG style diagonalization
     ethr =  2.15E-07,  avg # of iterations =  4.7

     total cpu time spent up to now is     1732.5 secs

     total energy              =    -679.91926730 Ry
     Harris-Foulkes estimate   =    -679.91928229 Ry
     estimated scf accuracy    <       0.00003481 Ry

     iteration #  9     ecut=    40.00 Ry     beta=0.70
     CG style diagonalization
     ethr =  5.27E-08,  avg # of iterations =  3.8

     total cpu time spent up to now is     1759.3 secs

     End of self-consistent calculation

     Number of k-points >= 100: set verbosity='high' to print the bands.

     the Fermi energy is    16.3570 ev

!    total energy              =    -679.91927100 Ry
     Harris-Foulkes estimate   =    -679.91927640 Ry
     estimated scf accuracy    <       0.00000676 Ry

     The total energy is the sum of the following terms:

     one-electron contribution =    -174.83099958 Ry
     hartree contribution      =     119.03562052 Ry
     xc contribution           =     -69.13003936 Ry
     ewald contribution        =    -554.62926003 Ry
     smearing contrib. (-TS)   =      -0.36459255 Ry

     convergence has been achieved in   9 iterations

     Forces acting on atoms (Ry/au):

     atom    1 type  1   force =     0.03012176   -0.01084297    0.00331157
     atom    2 type  1   force =    -0.03012176    0.01084297   -0.00331157
     atom    3 type  2   force =    -0.03393182    0.01191143    0.00143790
     atom    4 type  2   force =     0.03393182   -0.01191143   -0.00143790

     Total force =     0.068281     Total SCF correction =     0.000000


     entering subroutine stress ...

          total   stress  (Ry/bohr**3)                   (kbar)     P= -130.43
  -0.00101003   0.00004524  -0.00000006       -148.58      6.66     -0.01
   0.00004524  -0.00089880   0.00000013          6.66   -132.22      0.02
  -0.00000006   0.00000013  -0.00075107         -0.01      0.02   -110.49


     The maximum number of steps has been reached.

     End of BFGS Geometry Optimization
Begin final coordinates
     new unit-cell volume =    733.49723 a.u.^3 (   108.69307 Ang^3 )

CELL_PARAMETERS (alat= 13.39297219)
   0.862891478   0.000955820   0.000001721
  -0.669269426   0.544672226  -0.000002417
   0.000001281  -0.000001279   0.648762075

ATOMIC_POSITIONS (crystal)
Tl       0.387442219   0.612892407   0.751265055
Tl       0.612557781   0.387107593   0.248734945
I        0.131146356   0.868996027   0.750603104
I        0.868853644   0.131003973   0.249396896
End final coordinates



     A final scf calculation at the relaxed structure.
     The G-vectors are recalculated for the final unit cell
     Results may differ from those at the preceding step.
 
     Parallelization info
     --------------------
     sticks:   dense  smooth     PW     G-vecs:    dense   smooth      PW
     Min         270     270     81                 6279     6279    1057
     Max         271     271     82                 6280     6280    1060
     Sum        1081    1081    325                25119    25119    4231
 


     bravais-lattice index     =            0
     lattice parameter (alat)  =      13.3930  a.u.
     unit-cell volume          =     733.4972 (a.u.)^3
     number of atoms/cell      =            4
     number of atomic types    =            2
     number of electrons       =        66.00
     number of Kohn-Sham states=           40
     kinetic-energy cutoff     =      40.0000  Ry
     charge density cutoff     =     160.0000  Ry
     convergence threshold     =      2.3E-05
     mixing beta               =       0.7000
     number of iterations used =            8  plain     mixing
     Exchange-correlation      = SLA-PZ-NOGX-NOGC ( 1 1 0 0 0)
     EXX-fraction              =        0.00

     celldm(1)=  13.392972  celldm(2)=   0.000000  celldm(3)=   0.000000
     celldm(4)=   0.000000  celldm(5)=   0.000000  celldm(6)=   0.000000

     crystal axes: (cart. coord. in units of alat)
               a(1) = (   0.862891   0.000956   0.000002 )  
               a(2) = (  -0.669269   0.544672  -0.000002 )  
               a(3) = (   0.000001  -0.000001   0.648762 )  

     reciprocal axes: (cart. coord. in units 2 pi/alat)
               b(1) = (  1.157319  1.422063  0.000001 )  
               b(2) = ( -0.002031  1.833471  0.000004 )  
               b(3) = ( -0.000003  0.000003  1.541397 )  


     PseudoPot. # 1 for Tb read from file:
     /home/jld5415/pp.La/Tb.UPF
     MD5 check sum: 3d6088a3f0cf7fd2e110c43f7f8e95c2
     Pseudo is Norm-conserving, Zval = 19.0
     Generated in analytical, separable form
     Using radial grid of 1263 points,  6 beta functions with: 
                l(1) =   0
                l(2) =   0
                l(3) =   1
                l(4) =   1
                l(5) =   2
                l(6) =   3

     PseudoPot. # 2 for Nd read from file:
     /home/jld5415/pp.La/Nd.UPF
     MD5 check sum: c66c5b6abe7b5840ced9b1e244e3bed6
     Pseudo is Norm-conserving, Zval = 14.0
     Generated in analytical, separable form
     Using radial grid of 1257 points,  6 beta functions with: 
                l(1) =   0
                l(2) =   0
                l(3) =   1
                l(4) =   1
                l(5) =   2
                l(6) =   3

     atomic species   valence    mass     pseudopotential
        Tl            19.00   204.38300     Tb( 1.00)
        I             14.00   126.90400     Nd( 1.00)

      2 Sym. Ops., with inversion, found
          (note:  2 additional sym.ops. were found but ignored
           their fractional translations are incommensurate with FFT grid)


   Cartesian axes

     site n.     atom                  positions (alat units)
         1           Tl  tau(   1) = (  -0.0758686   0.3341948   0.4873915  )
         2           Tl  tau(   2) = (   0.2694919   0.2114319   0.1613699  )
         3           I   tau(   3) = (  -0.4684264   0.4734424   0.4869610  )
         4           I   tau(   4) = (   0.6620498   0.0721844   0.1618004  )

     number of k points=   106  gaussian smearing, width (Ry)=  0.1000

     Number of k-points >= 100: set verbosity='high' to print them.

     Dense  grid:    25119 G-vectors     FFT dimensions: (  48,  48,  36)

     Largest allocated arrays     est. size (Mb)     dimensions
        Kohn-Sham Wavefunctions         0.49 Mb     (    811,   40)
        NL pseudopotentials             0.99 Mb     (    811,   80)
        Each V/rho on FFT grid          0.32 Mb     (  20736)
        Each G-vector array             0.05 Mb     (   6280)
        G-vector shells                 0.05 Mb     (   6039)
     Largest temporary arrays     est. size (Mb)     dimensions
        Each subspace H/S matrix        0.02 Mb     (  40,  40)
        Each <psi_i|beta_j> matrix      0.05 Mb     (     80,   40)
        Arrays for rho mixing           2.53 Mb     (  20736,   8)

     Initial potential from superposition of free atoms

     Starting from uniform charge
     Starting wfc are    0 randomized atomic wfcs

     Writing output data file Prototype-La-oS8-TlI.save

     total cpu time spent up to now is     1770.4 secs

     Self-consistent Calculation

     iteration #  1     ecut=    40.00 Ry     beta=0.70
     CG style diagonalization
     c_bands:  2 eigenvalues not converged
     c_bands:  1 eigenvalues not converged
     c_bands:  1 eigenvalues not converged
     c_bands:  1 eigenvalues not converged
     c_bands:  1 eigenvalues not converged
     c_bands:  1 eigenvalues not converged
     c_bands:  1 eigenvalues not converged
     c_bands:  1 eigenvalues not converged
     c_bands:  1 eigenvalues not converged
     c_bands:  1 eigenvalues not converged
     c_bands:  1 eigenvalues not converged
     c_bands:  4 eigenvalues not converged
     c_bands:  1 eigenvalues not converged
     c_bands:  1 eigenvalues not converged
     c_bands:  2 eigenvalues not converged
     c_bands:  4 eigenvalues not converged
     c_bands:  2 eigenvalues not converged
     c_bands:  4 eigenvalues not converged
     c_bands:  2 eigenvalues not converged
     c_bands:  5 eigenvalues not converged
     c_bands:  4 eigenvalues not converged
     c_bands:  5 eigenvalues not converged
     c_bands:  1 eigenvalues not converged
     c_bands:  1 eigenvalues not converged
     c_bands:  4 eigenvalues not converged
     c_bands:  4 eigenvalues not converged
     c_bands:  3 eigenvalues not converged
     c_bands:  1 eigenvalues not converged
     c_bands:  3 eigenvalues not converged
     c_bands:  1 eigenvalues not converged
     c_bands:  2 eigenvalues not converged
     c_bands:  1 eigenvalues not converged
     c_bands:  2 eigenvalues not converged
     c_bands:  3 eigenvalues not converged
     c_bands:  2 eigenvalues not converged
     c_bands:  5 eigenvalues not converged
     c_bands:  3 eigenvalues not converged
     c_bands:  1 eigenvalues not converged
     c_bands:  2 eigenvalues not converged
     c_bands:  2 eigenvalues not converged
     c_bands:  5 eigenvalues not converged
     c_bands:  4 eigenvalues not converged
     c_bands:  2 eigenvalues not converged
     c_bands:  1 eigenvalues not converged
     c_bands:  2 eigenvalues not converged
     c_bands:  3 eigenvalues not converged
     c_bands:  3 eigenvalues not converged
     c_bands:  1 eigenvalues not converged
     c_bands:  3 eigenvalues not converged
     c_bands:  1 eigenvalues not converged
     c_bands:  5 eigenvalues not converged
     c_bands:  2 eigenvalues not converged
     c_bands:  1 eigenvalues not converged
     c_bands:  5 eigenvalues not converged
     c_bands:  4 eigenvalues not converged
     c_bands:  2 eigenvalues not converged
     c_bands:  4 eigenvalues not converged
     c_bands:  2 eigenvalues not converged
     c_bands:  1 eigenvalues not converged
     c_bands:  2 eigenvalues not converged
     c_bands:  2 eigenvalues not converged
     c_bands:  1 eigenvalues not converged
     c_bands:  2 eigenvalues not converged
     c_bands:  4 eigenvalues not converged
     ethr =  1.00E-06,  avg # of iterations = 47.4

     total cpu time spent up to now is     1950.4 secs

     total energy              =    -310.64770095 Ry
     Harris-Foulkes estimate   =    -893.91550086 Ry
     estimated scf accuracy    <     709.95630461 Ry

     iteration #  2     ecut=    40.00 Ry     beta=0.70
     CG style diagonalization
     c_bands:  1 eigenvalues not converged
     c_bands:  3 eigenvalues not converged
     c_bands:  1 eigenvalues not converged
     c_bands:  4 eigenvalues not converged
     c_bands:  1 eigenvalues not converged
     c_bands:  1 eigenvalues not converged
     c_bands:  2 eigenvalues not converged
     c_bands:  2 eigenvalues not converged
     c_bands:  2 eigenvalues not converged
     c_bands:  1 eigenvalues not converged
     c_bands:  1 eigenvalues not converged
     c_bands:  1 eigenvalues not converged
     c_bands:  1 eigenvalues not converged
     c_bands:  4 eigenvalues not converged
     c_bands:  1 eigenvalues not converged
     c_bands:  1 eigenvalues not converged
     c_bands:  2 eigenvalues not converged
     c_bands:  1 eigenvalues not converged
     c_bands:  1 eigenvalues not converged
     c_bands:  5 eigenvalues not converged
     c_bands:  1 eigenvalues not converged
     c_bands:  2 eigenvalues not converged
     c_bands:  1 eigenvalues not converged
     c_bands:  2 eigenvalues not converged
     c_bands:  1 eigenvalues not converged
     c_bands:  1 eigenvalues not converged
     c_bands:  3 eigenvalues not converged
     c_bands:  1 eigenvalues not converged
     c_bands:  3 eigenvalues not converged
     c_bands:  3 eigenvalues not converged
     c_bands:  1 eigenvalues not converged
     c_bands:  2 eigenvalues not converged
     c_bands:  1 eigenvalues not converged
     c_bands:  2 eigenvalues not converged
     c_bands:  1 eigenvalues not converged
     c_bands:  5 eigenvalues not converged
     c_bands:  3 eigenvalues not converged
     c_bands:  1 eigenvalues not converged
     c_bands:  1 eigenvalues not converged
     c_bands:  4 eigenvalues not converged
     c_bands:  2 eigenvalues not converged
     c_bands:  2 eigenvalues not converged
     c_bands:  2 eigenvalues not converged
     c_bands:  1 eigenvalues not converged
     c_bands:  2 eigenvalues not converged
     c_bands:  1 eigenvalues not converged
     c_bands:  1 eigenvalues not converged
     c_bands:  1 eigenvalues not converged
     c_bands:  1 eigenvalues not converged
     c_bands:  1 eigenvalues not converged
     c_bands:  1 eigenvalues not converged
     c_bands:  1 eigenvalues not converged
     c_bands:  1 eigenvalues not converged
     c_bands:  1 eigenvalues not converged
     c_bands:  1 eigenvalues not converged
     c_bands:  1 eigenvalues not converged
     c_bands:  2 eigenvalues not converged
     c_bands:  2 eigenvalues not converged
     c_bands:  1 eigenvalues not converged
     c_bands:  2 eigenvalues not converged
     c_bands:  1 eigenvalues not converged
     c_bands:  1 eigenvalues not converged
     c_bands:  4 eigenvalues not converged
     c_bands:  1 eigenvalues not converged
     c_bands:  3 eigenvalues not converged
     c_bands:  2 eigenvalues not converged
     c_bands:  1 eigenvalues not converged
     c_bands:  2 eigenvalues not converged
     c_bands:  3 eigenvalues not converged
     c_bands:  5 eigenvalues not converged
     c_bands:  3 eigenvalues not converged
     c_bands:  2 eigenvalues not converged
     c_bands:  3 eigenvalues not converged
     c_bands:  2 eigenvalues not converged
     c_bands:  2 eigenvalues not converged
     ethr =  1.00E-02,  avg # of iterations = 12.6

     total cpu time spent up to now is     2000.8 secs

     total energy              =    -524.39292019 Ry
     Harris-Foulkes estimate   =   -1041.98786273 Ry
     estimated scf accuracy    <    1063.80037341 Ry

     iteration #  3     ecut=    40.00 Ry     beta=0.70
     CG style diagonalization
     c_bands:  1 eigenvalues not converged
     c_bands:  1 eigenvalues not converged
     ethr =  1.00E-02,  avg # of iterations = 10.8

     total cpu time spent up to now is     2044.3 secs

     total energy              =    -674.21442607 Ry
     Harris-Foulkes estimate   =    -695.90588202 Ry
     estimated scf accuracy    <      36.92241100 Ry

     iteration #  4     ecut=    40.00 Ry     beta=0.70
     CG style diagonalization
     ethr =  1.00E-02,  avg # of iterations =  4.8

     total cpu time spent up to now is     2064.6 secs

     total energy              =    -679.23058639 Ry
     Harris-Foulkes estimate   =    -680.47960150 Ry
     estimated scf accuracy    <       3.35426794 Ry

     iteration #  5     ecut=    40.00 Ry     beta=0.70
     CG style diagonalization
     ethr =  5.08E-03,  avg # of iterations =  3.6

     negative rho (up, down):  0.329E-03 0.000E+00

     total cpu time spent up to now is     2079.6 secs

     total energy              =    -679.47325050 Ry
     Harris-Foulkes estimate   =    -679.80780741 Ry
     estimated scf accuracy    <       0.94238861 Ry

     iteration #  6     ecut=    40.00 Ry     beta=0.70
     CG style diagonalization
     ethr =  1.43E-03,  avg # of iterations =  4.3

     total cpu time spent up to now is     2097.2 secs

     total energy              =    -679.26043161 Ry
     Harris-Foulkes estimate   =    -680.32604487 Ry
     estimated scf accuracy    <       2.26798375 Ry

     iteration #  7     ecut=    40.00 Ry     beta=0.70
     CG style diagonalization
     ethr =  1.43E-03,  avg # of iterations =  3.7

     total cpu time spent up to now is     2112.7 secs

     total energy              =    -679.52262241 Ry
     Harris-Foulkes estimate   =    -679.54627525 Ry
     estimated scf accuracy    <       0.05090699 Ry

     iteration #  8     ecut=    40.00 Ry     beta=0.70
     CG style diagonalization
     c_bands:  1 eigenvalues not converged
     c_bands:  1 eigenvalues not converged
     c_bands:  1 eigenvalues not converged
     c_bands:  1 eigenvalues not converged
     c_bands:  1 eigenvalues not converged
     c_bands:  1 eigenvalues not converged
     ethr =  7.71E-05,  avg # of iterations =  4.2

     total cpu time spent up to now is     2130.9 secs

     total energy              =    -679.54362180 Ry
     Harris-Foulkes estimate   =    -679.54665833 Ry
     estimated scf accuracy    <       0.01202637 Ry

     iteration #  9     ecut=    40.00 Ry     beta=0.70
     CG style diagonalization
     c_bands:  1 eigenvalues not converged
     c_bands:  1 eigenvalues not converged
     c_bands:  1 eigenvalues not converged
     ethr =  1.82E-05,  avg # of iterations =  3.4

     total cpu time spent up to now is     2145.0 secs

     total energy              =    -679.54335016 Ry
     Harris-Foulkes estimate   =    -679.54512620 Ry
     estimated scf accuracy    <       0.00480766 Ry

     iteration # 10     ecut=    40.00 Ry     beta=0.70
     CG style diagonalization
     c_bands:  1 eigenvalues not converged
     c_bands:  1 eigenvalues not converged
     ethr =  7.28E-06,  avg # of iterations =  3.2

     total cpu time spent up to now is     2158.6 secs

     total energy              =    -679.54370371 Ry
     Harris-Foulkes estimate   =    -679.54387739 Ry
     estimated scf accuracy    <       0.00036722 Ry

     iteration # 11     ecut=    40.00 Ry     beta=0.70
     CG style diagonalization
     ethr =  5.56E-07,  avg # of iterations =  4.3

     total cpu time spent up to now is     2176.2 secs

     End of self-consistent calculation

     Number of k-points >= 100: set verbosity='high' to print the bands.

     the Fermi energy is    16.3795 ev

!    total energy              =    -679.54383360 Ry
     Harris-Foulkes estimate   =    -679.54385146 Ry
     estimated scf accuracy    <       0.00001982 Ry

     The total energy is the sum of the following terms:

     one-electron contribution =    -174.34292563 Ry
     hartree contribution      =     118.89524001 Ry
     xc contribution           =     -69.10268934 Ry
     ewald contribution        =    -554.62926004 Ry
     smearing contrib. (-TS)   =      -0.36419860 Ry

     convergence has been achieved in  11 iterations

     Forces acting on atoms (Ry/au):

     atom    1 type  1   force =     0.04657380   -0.01682711    0.00549511
     atom    2 type  1   force =    -0.04657380    0.01682711   -0.00549511
     atom    3 type  2   force =    -0.03968369    0.01384204    0.00176431
     atom    4 type  2   force =     0.03968369   -0.01384204   -0.00176431

     Total force =     0.092217     Total SCF correction =     0.000000


     entering subroutine stress ...

          total   stress  (Ry/bohr**3)                   (kbar)     P= -362.32
  -0.00259468   0.00004782   0.00000005       -381.69      7.03      0.01
   0.00004782  -0.00247760   0.00000011          7.03   -364.47      0.02
   0.00000005   0.00000011  -0.00231677          0.01      0.02   -340.81


     Writing output data file Prototype-La-oS8-TlI.save
 
     init_run     :      9.85s CPU     13.44s WALL (       2 calls)
     electrons    :   1657.17s CPU   2139.75s WALL (       5 calls)
     update_pot   :      2.58s CPU      2.61s WALL (       3 calls)
     forces       :      5.07s CPU      5.54s WALL (       5 calls)
     stress       :     15.33s CPU     16.52s WALL (       5 calls)

     Called by init_run:
     wfcinit      :      8.63s CPU     12.16s WALL (       2 calls)
     potinit      :      0.60s CPU      0.60s WALL (       2 calls)

     Called by electrons:
     c_bands      :   1567.67s CPU   2017.97s WALL (      49 calls)
     sum_band     :     88.97s CPU    120.44s WALL (      49 calls)
     v_of_rho     :      0.12s CPU      0.15s WALL (      54 calls)
     mix_rho      :      0.10s CPU      0.13s WALL (      49 calls)

     Called by c_bands:
     init_us_2    :      6.93s CPU      9.71s WALL (   11660 calls)
     ccgdiagg     :   1341.42s CPU   1708.99s WALL (    5820 calls)
     wfcrot       :    229.00s CPU    306.03s WALL (    5926 calls)

     Called by *cgdiagg:
     h_psi        :   1287.75s CPU   1694.30s WALL ( 1189798 calls)
     cdiaghg      :      4.97s CPU      5.23s WALL (    5926 calls)

     Called by h_psi:
     add_vuspsi   :     50.41s CPU     72.45s WALL ( 1189798 calls)

     General routines
     calbec       :    179.35s CPU    203.65s WALL ( 2374730 calls)
     fft          :      0.14s CPU      0.19s WALL (     239 calls)
     fftw         :   1132.20s CPU   1471.97s WALL ( 3049584 calls)
     davcio       :      3.21s CPU     11.71s WALL (   16854 calls)
 
     Parallel routines
     fft_scatter  :    432.99s CPU    589.24s WALL ( 3049823 calls)
 
     PWSCF        : 28m10.83s CPU    36m19.30s WALL

 
   This run was terminated on:  18:12:59  22Mar2018            

=------------------------------------------------------------------------------=
   JOB DONE.
=------------------------------------------------------------------------------=
