
     Program PWSCF v.5.0.2 starts on 22Mar2018 at 17:36:35 

     This program is part of the open-source Quantum ESPRESSO suite
     for quantum simulation of materials; please cite
         "P. Giannozzi et al., J. Phys.:Condens. Matter 21 395502 (2009);
          URL http://www.quantum-espresso.org", 
     in publications or presentations arising from this work. More details at
     http://www.quantum-espresso.org/quote.php

     Parallel version (MPI), running on     4 processors
     R & G space division:  proc/nbgrp/npool/nimage =       4

     Current dimensions of program PWSCF are:
     Max number of different atomic species (ntypx) = 10
     Max number of k-points (npk) =  40000
     Max angular momentum in pseudopotentials (lmaxx) =  3
     Waiting for input...
     Reading input from standard input

     Subspace diagonalization in iterative solution of the eigenvalue problem:
     a serial algorithm will be used

 
     Parallelization info
     --------------------
     sticks:   dense  smooth     PW     G-vecs:    dense   smooth      PW
     Min         164     164     48                 3132     3132     524
     Max         165     165     49                 3135     3135     527
     Sum         657     657    193                12533    12533    2103
 


     bravais-lattice index     =            0
     lattice parameter (alat)  =       7.1317  a.u.
     unit-cell volume          =     362.7211 (a.u.)^3
     number of atoms/cell      =            4
     number of atomic types    =            2
     number of electrons       =        71.00
     number of Kohn-Sham states=           43
     kinetic-energy cutoff     =      40.0000  Ry
     charge density cutoff     =     160.0000  Ry
     convergence threshold     =      1.0E-04
     mixing beta               =       0.7000
     number of iterations used =            8  plain     mixing
     Exchange-correlation      = SLA-PZ-NOGX-NOGC ( 1 1 0 0 0)
     EXX-fraction              =        0.00
     nstep                     =           50


     celldm(1)=   7.131665  celldm(2)=   0.000000  celldm(3)=   0.000000
     celldm(4)=   0.000000  celldm(5)=   0.000000  celldm(6)=   0.000000

     crystal axes: (cart. coord. in units of alat)
               a(1) = (   1.000000   0.000000   0.000000 )  
               a(2) = (   0.000000   1.000000   0.000000 )  
               a(3) = (   0.000000   0.000000   1.000000 )  

     reciprocal axes: (cart. coord. in units 2 pi/alat)
               b(1) = (  1.000000  0.000000  0.000000 )  
               b(2) = (  0.000000  1.000000  0.000000 )  
               b(3) = (  0.000000  0.000000  1.000000 )  


     PseudoPot. # 1 for Tb read from file:
     /home/cwx6513/pp.La/Tb.UPF
     MD5 check sum: 3d6088a3f0cf7fd2e110c43f7f8e95c2
     Pseudo is Norm-conserving, Zval = 19.0
     Generated in analytical, separable form
     Using radial grid of 1263 points,  6 beta functions with: 
                l(1) =   0
                l(2) =   0
                l(3) =   1
                l(4) =   1
                l(5) =   2
                l(6) =   3

     PseudoPot. # 2 for Nd read from file:
     /home/cwx6513/pp.La/Nd.UPF
     MD5 check sum: c66c5b6abe7b5840ced9b1e244e3bed6
     Pseudo is Norm-conserving, Zval = 14.0
     Generated in analytical, separable form
     Using radial grid of 1257 points,  6 beta functions with: 
                l(1) =   0
                l(2) =   0
                l(3) =   1
                l(4) =   1
                l(5) =   2
                l(6) =   3

     atomic species   valence    mass     pseudopotential
        Cu            19.00    63.54600     Tb( 1.00)
        Au            14.00   196.96600     Nd( 1.00)

     48 Sym. Ops., with inversion, found



   Cartesian axes

     site n.     atom                  positions (alat units)
         1           Cu  tau(   1) = (   0.0000000   0.5000000   0.5000000  )
         2           Cu  tau(   2) = (   0.5000000   0.5000000   0.0000000  )
         3           Cu  tau(   3) = (   0.5000000   0.0000000   0.5000000  )
         4           Au  tau(   4) = (   0.0000000   0.0000000   0.0000000  )

     number of k points=   100  gaussian smearing, width (Ry)=  0.1000

     Number of k-points >= 100: set verbosity='high' to print them.

     Dense  grid:    12533 G-vectors     FFT dimensions: (  30,  30,  30)

     Largest allocated arrays     est. size (Mb)     dimensions
        Kohn-Sham Wavefunctions         0.26 Mb     (    400,   43)
        NL pseudopotentials             0.49 Mb     (    400,   80)
        Each V/rho on FFT grid          0.11 Mb     (   7200)
        Each G-vector array             0.02 Mb     (   3134)
        G-vector shells                 0.02 Mb     (   3134)
     Largest temporary arrays     est. size (Mb)     dimensions
        Each subspace H/S matrix        0.03 Mb     (  43,  43)
        Each <psi_i|beta_j> matrix      0.05 Mb     (     80,   43)
        Arrays for rho mixing           0.88 Mb     (   7200,   8)

     Initial potential from superposition of free atoms

     Starting from uniform charge
     Starting wfc are    0 randomized atomic wfcs

     total cpu time spent up to now is        1.9 secs

     Self-consistent Calculation

     iteration #  1     ecut=    40.00 Ry     beta=0.70
     CG style diagonalization
     c_bands:  1 eigenvalues not converged
     c_bands:  4 eigenvalues not converged
     c_bands:  2 eigenvalues not converged
     c_bands:  2 eigenvalues not converged
     c_bands:  2 eigenvalues not converged
     c_bands:  2 eigenvalues not converged
     c_bands:  1 eigenvalues not converged
     c_bands:  2 eigenvalues not converged
     c_bands:  2 eigenvalues not converged
     c_bands:  1 eigenvalues not converged
     c_bands:  1 eigenvalues not converged
     c_bands:  1 eigenvalues not converged
     c_bands:  1 eigenvalues not converged
     c_bands:  1 eigenvalues not converged
     c_bands:  4 eigenvalues not converged
     c_bands:  2 eigenvalues not converged
     c_bands:  3 eigenvalues not converged
     c_bands:  1 eigenvalues not converged
     c_bands:  1 eigenvalues not converged
     c_bands:  3 eigenvalues not converged
     c_bands:  1 eigenvalues not converged
     c_bands:  1 eigenvalues not converged
     c_bands:  2 eigenvalues not converged
     c_bands:  1 eigenvalues not converged
     c_bands:  2 eigenvalues not converged
     c_bands:  1 eigenvalues not converged
     c_bands:  1 eigenvalues not converged
     c_bands:  2 eigenvalues not converged
     c_bands:  2 eigenvalues not converged
     c_bands:  2 eigenvalues not converged
     c_bands:  2 eigenvalues not converged
     c_bands:  3 eigenvalues not converged
     c_bands:  1 eigenvalues not converged
     c_bands:  1 eigenvalues not converged
     c_bands:  1 eigenvalues not converged
     c_bands:  2 eigenvalues not converged
     ethr =  1.00E-02,  avg # of iterations = 11.9

     total cpu time spent up to now is       20.5 secs

     total energy              =    -669.96359448 Ry
     Harris-Foulkes estimate   =    -911.69162459 Ry
     estimated scf accuracy    <     307.34867974 Ry

     iteration #  2     ecut=    40.00 Ry     beta=0.70
     CG style diagonalization
     c_bands:  1 eigenvalues not converged
     c_bands:  1 eigenvalues not converged
     c_bands:  1 eigenvalues not converged
     c_bands:  1 eigenvalues not converged
     c_bands:  1 eigenvalues not converged
     c_bands:  1 eigenvalues not converged
     c_bands:  1 eigenvalues not converged
     c_bands:  2 eigenvalues not converged
     ethr =  1.00E-02,  avg # of iterations = 11.6

     total cpu time spent up to now is       38.9 secs

     total energy              =    -687.41523780 Ry
     Harris-Foulkes estimate   =    -881.78631463 Ry
     estimated scf accuracy    <     378.77349582 Ry

     iteration #  3     ecut=    40.00 Ry     beta=0.70
     CG style diagonalization
     c_bands:  1 eigenvalues not converged
     c_bands:  1 eigenvalues not converged
     c_bands:  1 eigenvalues not converged
     c_bands:  1 eigenvalues not converged
     c_bands:  1 eigenvalues not converged
     c_bands:  1 eigenvalues not converged
     c_bands:  1 eigenvalues not converged
     c_bands:  1 eigenvalues not converged
     c_bands:  1 eigenvalues not converged
     c_bands:  1 eigenvalues not converged
     c_bands:  1 eigenvalues not converged
     c_bands:  1 eigenvalues not converged
     c_bands:  1 eigenvalues not converged
     c_bands:  1 eigenvalues not converged
     c_bands:  1 eigenvalues not converged
     c_bands:  1 eigenvalues not converged
     c_bands:  1 eigenvalues not converged
     c_bands:  1 eigenvalues not converged
     c_bands:  1 eigenvalues not converged
     c_bands:  1 eigenvalues not converged
     c_bands:  2 eigenvalues not converged
     c_bands:  1 eigenvalues not converged
     c_bands:  1 eigenvalues not converged
     c_bands:  2 eigenvalues not converged
     c_bands:  1 eigenvalues not converged
     c_bands:  1 eigenvalues not converged
     c_bands:  1 eigenvalues not converged
     c_bands:  1 eigenvalues not converged
     ethr =  1.00E-02,  avg # of iterations =  9.4

     total cpu time spent up to now is       54.3 secs

     total energy              =    -793.36597321 Ry
     Harris-Foulkes estimate   =    -810.71011612 Ry
     estimated scf accuracy    <      38.91204641 Ry

     iteration #  4     ecut=    40.00 Ry     beta=0.70
     CG style diagonalization
     ethr =  1.00E-02,  avg # of iterations =  4.1

     total cpu time spent up to now is       61.5 secs

     total energy              =    -797.03905223 Ry
     Harris-Foulkes estimate   =    -798.25424006 Ry
     estimated scf accuracy    <       3.81866114 Ry

     iteration #  5     ecut=    40.00 Ry     beta=0.70
     CG style diagonalization
     ethr =  5.38E-03,  avg # of iterations =  3.1

     total cpu time spent up to now is       66.2 secs

     total energy              =    -796.47945543 Ry
     Harris-Foulkes estimate   =    -797.28422264 Ry
     estimated scf accuracy    <       1.34768570 Ry

     iteration #  6     ecut=    40.00 Ry     beta=0.70
     CG style diagonalization
     ethr =  1.90E-03,  avg # of iterations =  4.1

     total cpu time spent up to now is       73.1 secs

     total energy              =    -796.90308872 Ry
     Harris-Foulkes estimate   =    -796.99809893 Ry
     estimated scf accuracy    <       0.13934464 Ry

     iteration #  7     ecut=    40.00 Ry     beta=0.70
     CG style diagonalization
     c_bands:  1 eigenvalues not converged
     c_bands:  1 eigenvalues not converged
     c_bands:  1 eigenvalues not converged
     c_bands:  1 eigenvalues not converged
     c_bands:  1 eigenvalues not converged
     c_bands:  1 eigenvalues not converged
     c_bands:  1 eigenvalues not converged
     c_bands:  1 eigenvalues not converged
     c_bands:  2 eigenvalues not converged
     c_bands:  1 eigenvalues not converged
     c_bands:  1 eigenvalues not converged
     ethr =  1.96E-04,  avg # of iterations =  4.3

     total cpu time spent up to now is       80.6 secs

     total energy              =    -796.95673206 Ry
     Harris-Foulkes estimate   =    -796.97502097 Ry
     estimated scf accuracy    <       0.03187255 Ry

     iteration #  8     ecut=    40.00 Ry     beta=0.70
     CG style diagonalization
     c_bands:  1 eigenvalues not converged
     c_bands:  2 eigenvalues not converged
     c_bands:  1 eigenvalues not converged
     c_bands:  1 eigenvalues not converged
     c_bands:  1 eigenvalues not converged
     c_bands:  1 eigenvalues not converged
     c_bands:  1 eigenvalues not converged
     c_bands:  1 eigenvalues not converged
     ethr =  4.49E-05,  avg # of iterations =  3.8

     total cpu time spent up to now is       87.3 secs

     total energy              =    -796.96529757 Ry
     Harris-Foulkes estimate   =    -796.96568138 Ry
     estimated scf accuracy    <       0.00050049 Ry

     iteration #  9     ecut=    40.00 Ry     beta=0.70
     CG style diagonalization
     c_bands:  1 eigenvalues not converged
     c_bands:  1 eigenvalues not converged
     c_bands:  1 eigenvalues not converged
     c_bands:  1 eigenvalues not converged
     c_bands:  1 eigenvalues not converged
     c_bands:  1 eigenvalues not converged
     c_bands:  1 eigenvalues not converged
     c_bands:  1 eigenvalues not converged
     c_bands:  1 eigenvalues not converged
     c_bands:  1 eigenvalues not converged
     c_bands:  1 eigenvalues not converged
     c_bands:  1 eigenvalues not converged
     ethr =  7.05E-07,  avg # of iterations =  5.5

     total cpu time spent up to now is       96.9 secs

     total energy              =    -796.96591595 Ry
     Harris-Foulkes estimate   =    -796.96610038 Ry
     estimated scf accuracy    <       0.00051335 Ry

     iteration # 10     ecut=    40.00 Ry     beta=0.70
     CG style diagonalization
     c_bands:  1 eigenvalues not converged
     c_bands:  1 eigenvalues not converged
     ethr =  7.05E-07,  avg # of iterations =  3.2

     total cpu time spent up to now is      101.6 secs

     End of self-consistent calculation

     Number of k-points >= 100: set verbosity='high' to print the bands.

     the Fermi energy is    39.0724 ev

!    total energy              =    -796.96588270 Ry
     Harris-Foulkes estimate   =    -796.96595779 Ry
     estimated scf accuracy    <       0.00008448 Ry

     The total energy is the sum of the following terms:

     one-electron contribution =      28.69856095 Ry
     hartree contribution      =      72.53400612 Ry
     xc contribution           =     -81.90754782 Ry
     ewald contribution        =    -816.12773343 Ry
     smearing contrib. (-TS)   =      -0.16316852 Ry

     convergence has been achieved in  10 iterations

     Forces acting on atoms (Ry/au):

     atom    1 type  1   force =     0.00000000    0.00000000    0.00000000
     atom    2 type  1   force =     0.00000000    0.00000000    0.00000000
     atom    3 type  1   force =     0.00000000    0.00000000    0.00000000
     atom    4 type  2   force =     0.00000000    0.00000000    0.00000000

     Total force =     0.000000     Total SCF correction =     0.000000


     entering subroutine stress ...

          total   stress  (Ry/bohr**3)                   (kbar)     P= 2248.57
   0.01528547   0.00000000   0.00000000       2248.57      0.00      0.00
   0.00000000   0.01528547   0.00000000          0.00   2248.57      0.00
   0.00000000   0.00000000   0.01528547          0.00      0.00   2248.57


     BFGS Geometry Optimization

     number of scf cycles    =   1
     number of bfgs steps    =   0

     enthalpy new            =    -796.9658826959 Ry

     new trust radius        =       0.5000000000 bohr
     new conv_thr            =       0.0001000000 Ry

     new unit-cell volume =    525.13076 a.u.^3 (    77.81635 Ang^3 )

CELL_PARAMETERS (alat=  7.13166486)
   1.131266415   0.000000000   0.000000000
   0.000000000   1.131266415   0.000000000
   0.000000000   0.000000000   1.131266415

ATOMIC_POSITIONS (crystal)
Cu       0.000000000   0.500000000   0.500000000
Cu       0.500000000   0.500000000   0.000000000
Cu       0.500000000   0.000000000   0.500000000
Au       0.000000000   0.000000000   0.000000000



     Writing output data file Prototype-La-cP4-Cu3Au.save
     NEW-OLD atomic charge density approx. for the potential
     NEW k-points: (use verbosity='high' to print them)

     total cpu time spent up to now is      103.7 secs

     Self-consistent Calculation

     iteration #  1     ecut=    40.00 Ry     beta=0.70
     CG style diagonalization
     c_bands:  4 eigenvalues not converged
     c_bands:  2 eigenvalues not converged
     c_bands:  1 eigenvalues not converged
     c_bands:  2 eigenvalues not converged
     c_bands:  3 eigenvalues not converged
     c_bands:  2 eigenvalues not converged
     c_bands:  1 eigenvalues not converged
     c_bands:  1 eigenvalues not converged
     c_bands:  3 eigenvalues not converged
     c_bands:  1 eigenvalues not converged
     c_bands:  1 eigenvalues not converged
     c_bands:  1 eigenvalues not converged
     c_bands:  1 eigenvalues not converged
     c_bands:  5 eigenvalues not converged
     c_bands:  2 eigenvalues not converged
     ethr =  1.00E-06,  avg # of iterations = 20.5

     total cpu time spent up to now is      135.9 secs

     total energy              =    -787.65888388 Ry
     Harris-Foulkes estimate   =    -809.49220065 Ry
     estimated scf accuracy    <      27.95755711 Ry

     iteration #  2     ecut=    40.00 Ry     beta=0.70
     CG style diagonalization
     ethr =  1.00E-02,  avg # of iterations =  4.1

     total cpu time spent up to now is      143.4 secs

     total energy              =    -790.93996305 Ry
     Harris-Foulkes estimate   =    -801.27221058 Ry
     estimated scf accuracy    <      17.56118045 Ry

     iteration #  3     ecut=    40.00 Ry     beta=0.70
     CG style diagonalization
     ethr =  1.00E-02,  avg # of iterations =  3.9

     total cpu time spent up to now is      151.5 secs

     total energy              =    -796.66008431 Ry
     Harris-Foulkes estimate   =    -799.37037132 Ry
     estimated scf accuracy    <       6.87302179 Ry

     iteration #  4     ecut=    40.00 Ry     beta=0.70
     CG style diagonalization
     ethr =  9.68E-03,  avg # of iterations =  3.1

     total cpu time spent up to now is      158.3 secs

     total energy              =    -797.18852353 Ry
     Harris-Foulkes estimate   =    -797.38773116 Ry
     estimated scf accuracy    <       0.68058621 Ry

     iteration #  5     ecut=    40.00 Ry     beta=0.70
     CG style diagonalization
     ethr =  9.59E-04,  avg # of iterations =  3.6

     total cpu time spent up to now is      166.5 secs

     total energy              =    -797.30780542 Ry
     Harris-Foulkes estimate   =    -797.31423436 Ry
     estimated scf accuracy    <       0.02626961 Ry

     iteration #  6     ecut=    40.00 Ry     beta=0.70
     CG style diagonalization
     c_bands:  1 eigenvalues not converged
     c_bands:  1 eigenvalues not converged
     ethr =  3.70E-05,  avg # of iterations =  4.1

     total cpu time spent up to now is      176.5 secs

     total energy              =    -797.31872597 Ry
     Harris-Foulkes estimate   =    -797.31866631 Ry
     estimated scf accuracy    <       0.00063007 Ry

     iteration #  7     ecut=    40.00 Ry     beta=0.70
     CG style diagonalization
     c_bands:  1 eigenvalues not converged
     ethr =  8.87E-07,  avg # of iterations =  4.4

     total cpu time spent up to now is      188.4 secs

     total energy              =    -797.31827688 Ry
     Harris-Foulkes estimate   =    -797.31914041 Ry
     estimated scf accuracy    <       0.00211421 Ry

     iteration #  8     ecut=    40.00 Ry     beta=0.70
     CG style diagonalization
     ethr =  8.87E-07,  avg # of iterations =  3.6

     total cpu time spent up to now is      198.6 secs

     End of self-consistent calculation

     Number of k-points >= 100: set verbosity='high' to print the bands.

     the Fermi energy is    25.0182 ev

!    total energy              =    -797.31868591 Ry
     Harris-Foulkes estimate   =    -797.31871013 Ry
     estimated scf accuracy    <       0.00002672 Ry

     The total energy is the sum of the following terms:

     one-electron contribution =    -103.14833986 Ry
     hartree contribution      =     106.66809249 Ry
     xc contribution           =     -79.18716573 Ry
     ewald contribution        =    -721.42841441 Ry
     smearing contrib. (-TS)   =      -0.22285840 Ry

     convergence has been achieved in   8 iterations

     Forces acting on atoms (Ry/au):

     atom    1 type  1   force =     0.00000000    0.00000000    0.00000000
     atom    2 type  1   force =     0.00000000    0.00000000    0.00000000
     atom    3 type  1   force =     0.00000000    0.00000000    0.00000000
     atom    4 type  2   force =     0.00000000    0.00000000    0.00000000

     Total force =     0.000000     Total SCF correction =     0.000000


     entering subroutine stress ...

          total   stress  (Ry/bohr**3)                   (kbar)     P= -809.07
  -0.00549993   0.00000000   0.00000000       -809.07      0.00      0.00
   0.00000000  -0.00549993   0.00000000          0.00   -809.07      0.00
   0.00000000   0.00000000  -0.00549993          0.00      0.00   -809.07


     number of scf cycles    =   2
     number of bfgs steps    =   1

     enthalpy old            =    -796.9658826959 Ry
     enthalpy new            =    -797.3186859121 Ry

     CASE: enthalpy_new < enthalpy_old

     small trust_radius: resetting bfgs history

     new trust radius        =       0.6301741561 bohr
     new conv_thr            =       0.0000010000 Ry

     new unit-cell volume =    336.93611 a.u.^3 (    49.92878 Ang^3 )

CELL_PARAMETERS (alat=  7.13166486)
   0.975719371   0.000000000   0.000000000
   0.000000000   0.975719371   0.000000000
   0.000000000   0.000000000   0.975719371

ATOMIC_POSITIONS (crystal)
Cu       0.000000000   0.500000000   0.500000000
Cu       0.500000000   0.500000000   0.000000000
Cu       0.500000000   0.000000000   0.500000000
Au       0.000000000   0.000000000   0.000000000



     Writing output data file Prototype-La-cP4-Cu3Au.save
     NEW-OLD atomic charge density approx. for the potential
     NEW k-points: (use verbosity='high' to print them)

     total cpu time spent up to now is      200.8 secs

     Self-consistent Calculation

     iteration #  1     ecut=    40.00 Ry     beta=0.70
     CG style diagonalization
     c_bands:  3 eigenvalues not converged
     c_bands:  1 eigenvalues not converged
     c_bands:  5 eigenvalues not converged
     c_bands:  4 eigenvalues not converged
     c_bands:  3 eigenvalues not converged
     c_bands:  1 eigenvalues not converged
     c_bands:  1 eigenvalues not converged
     c_bands:  1 eigenvalues not converged
     c_bands:  1 eigenvalues not converged
     c_bands:  1 eigenvalues not converged
     c_bands:  1 eigenvalues not converged
     c_bands:  3 eigenvalues not converged
     c_bands:  1 eigenvalues not converged
     c_bands:  1 eigenvalues not converged
     c_bands:  3 eigenvalues not converged
     c_bands:  1 eigenvalues not converged
     c_bands:  2 eigenvalues not converged
     c_bands:  2 eigenvalues not converged
     c_bands:  1 eigenvalues not converged
     c_bands:  2 eigenvalues not converged
     c_bands:  2 eigenvalues not converged
     c_bands:  2 eigenvalues not converged
     c_bands:  1 eigenvalues not converged
     c_bands:  1 eigenvalues not converged
     c_bands:  1 eigenvalues not converged
     c_bands:  1 eigenvalues not converged
     c_bands:  1 eigenvalues not converged
     c_bands:  1 eigenvalues not converged
     c_bands:  1 eigenvalues not converged
     c_bands:  3 eigenvalues not converged
     c_bands:  1 eigenvalues not converged
     c_bands:  2 eigenvalues not converged
     c_bands:  1 eigenvalues not converged
     c_bands:  1 eigenvalues not converged
     c_bands:  1 eigenvalues not converged
     c_bands:  2 eigenvalues not converged
     c_bands:  2 eigenvalues not converged
     c_bands:  4 eigenvalues not converged
     c_bands:  1 eigenvalues not converged
     c_bands:  1 eigenvalues not converged
     c_bands:  1 eigenvalues not converged
     c_bands:  1 eigenvalues not converged
     c_bands:  1 eigenvalues not converged
     c_bands:  1 eigenvalues not converged
     c_bands:  1 eigenvalues not converged
     c_bands:  1 eigenvalues not converged
     ethr =  1.00E-06,  avg # of iterations = 23.1

     total cpu time spent up to now is      265.1 secs

     total energy              =    -784.59125292 Ry
     Harris-Foulkes estimate   =    -813.78054679 Ry
     estimated scf accuracy    <      36.87424826 Ry

     iteration #  2     ecut=    40.00 Ry     beta=0.70
     CG style diagonalization
     ethr =  1.00E-02,  avg # of iterations =  4.7

     total cpu time spent up to now is      279.8 secs

     total energy              =    -792.53827712 Ry
     Harris-Foulkes estimate   =    -800.59978579 Ry
     estimated scf accuracy    <      12.44741361 Ry

     iteration #  3     ecut=    40.00 Ry     beta=0.70
     CG style diagonalization
     ethr =  1.00E-02,  avg # of iterations =  3.9

     total cpu time spent up to now is      292.1 secs

     total energy              =    -796.05303667 Ry
     Harris-Foulkes estimate   =    -797.04885815 Ry
     estimated scf accuracy    <       1.89309658 Ry

     iteration #  4     ecut=    40.00 Ry     beta=0.70
     CG style diagonalization
     ethr =  2.67E-03,  avg # of iterations =  3.5

     total cpu time spent up to now is      302.5 secs

     total energy              =    -796.45908906 Ry
     Harris-Foulkes estimate   =    -796.46848402 Ry
     estimated scf accuracy    <       0.01784165 Ry

     iteration #  5     ecut=    40.00 Ry     beta=0.70
     CG style diagonalization
     c_bands:  2 eigenvalues not converged
     c_bands:  1 eigenvalues not converged
     c_bands:  1 eigenvalues not converged
     c_bands:  1 eigenvalues not converged
     c_bands:  1 eigenvalues not converged
     c_bands:  2 eigenvalues not converged
     c_bands:  2 eigenvalues not converged
     c_bands:  2 eigenvalues not converged
     c_bands:  1 eigenvalues not converged
     c_bands:  1 eigenvalues not converged
     c_bands:  1 eigenvalues not converged
     c_bands:  1 eigenvalues not converged
     c_bands:  1 eigenvalues not converged
     c_bands:  3 eigenvalues not converged
     c_bands:  1 eigenvalues not converged
     c_bands:  1 eigenvalues not converged
     c_bands:  1 eigenvalues not converged
     c_bands:  1 eigenvalues not converged
     ethr =  2.51E-05,  avg # of iterations =  5.2

     total cpu time spent up to now is      319.0 secs

     total energy              =    -796.47219317 Ry
     Harris-Foulkes estimate   =    -796.47411764 Ry
     estimated scf accuracy    <       0.00396361 Ry

     iteration #  6     ecut=    40.00 Ry     beta=0.70
     CG style diagonalization
     c_bands:  1 eigenvalues not converged
     c_bands:  1 eigenvalues not converged
     c_bands:  1 eigenvalues not converged
     c_bands:  1 eigenvalues not converged
     c_bands:  1 eigenvalues not converged
     c_bands:  1 eigenvalues not converged
     c_bands:  1 eigenvalues not converged
     c_bands:  1 eigenvalues not converged
     c_bands:  1 eigenvalues not converged
     c_bands:  1 eigenvalues not converged
     c_bands:  1 eigenvalues not converged
     ethr =  5.58E-06,  avg # of iterations =  3.8

     total cpu time spent up to now is      352.7 secs

     total energy              =    -796.47314783 Ry
     Harris-Foulkes estimate   =    -796.47315753 Ry
     estimated scf accuracy    <       0.00001411 Ry

     iteration #  7     ecut=    40.00 Ry     beta=0.70
     CG style diagonalization
     c_bands:  1 eigenvalues not converged
     c_bands:  1 eigenvalues not converged
     c_bands:  1 eigenvalues not converged
     c_bands:  1 eigenvalues not converged
     c_bands:  1 eigenvalues not converged
     c_bands:  1 eigenvalues not converged
     c_bands:  1 eigenvalues not converged
     ethr =  1.99E-08,  avg # of iterations =  6.0

     total cpu time spent up to now is      374.6 secs

     total energy              =    -796.47321902 Ry
     Harris-Foulkes estimate   =    -796.47322900 Ry
     estimated scf accuracy    <       0.00001986 Ry

     iteration #  8     ecut=    40.00 Ry     beta=0.70
     CG style diagonalization
     c_bands:  1 eigenvalues not converged
     c_bands:  1 eigenvalues not converged
     ethr =  1.99E-08,  avg # of iterations =  3.5

     total cpu time spent up to now is      385.1 secs

     End of self-consistent calculation

     Number of k-points >= 100: set verbosity='high' to print the bands.

     the Fermi energy is    42.4912 ev

!    total energy              =    -796.47322356 Ry
     Harris-Foulkes estimate   =    -796.47322364 Ry
     estimated scf accuracy    <       0.00000011 Ry

     The total energy is the sum of the following terms:

     one-electron contribution =      56.26685954 Ry
     hartree contribution      =      66.46241762 Ry
     xc contribution           =     -82.61848211 Ry
     ewald contribution        =    -836.43694845 Ry
     smearing contrib. (-TS)   =      -0.14707016 Ry

     convergence has been achieved in   8 iterations

     Forces acting on atoms (Ry/au):

     atom    1 type  1   force =     0.00000000    0.00000000    0.00000000
     atom    2 type  1   force =     0.00000000    0.00000000    0.00000000
     atom    3 type  1   force =     0.00000000    0.00000000    0.00000000
     atom    4 type  2   force =     0.00000000    0.00000000    0.00000000

     Total force =     0.000000     Total SCF correction =     0.000000


     entering subroutine stress ...

          total   stress  (Ry/bohr**3)                   (kbar)     P= 3416.56
   0.02322532   0.00000000   0.00000000       3416.56      0.00      0.00
   0.00000000   0.02322532   0.00000000          0.00   3416.56      0.00
   0.00000000   0.00000000   0.02322532          0.00      0.00   3416.56


     number of scf cycles    =   3
     number of bfgs steps    =   2

     enthalpy old            =    -797.3186859121 Ry
     enthalpy new            =    -796.4732235576 Ry

     CASE: enthalpy_new > enthalpy_old

     new trust radius        =       0.1711591927 bohr

     trust_radius < trust_radius_min

     resetting bfgs history

     Message from routine bfgs:
     history already reset at previous step: stopping
     new conv_thr            =       0.0000010000 Ry

     new unit-cell volume =    360.95759 a.u.^3 (    53.48839 Ang^3 )

CELL_PARAMETERS (alat=  7.13166486)
   0.998376764   0.000000000   0.000000000
   0.000000000   0.998376764   0.000000000
   0.000000000   0.000000000   0.998376764

ATOMIC_POSITIONS (crystal)
Cu       0.000000000   0.500000000   0.500000000
Cu       0.500000000   0.500000000   0.000000000
Cu       0.500000000   0.000000000   0.500000000
Au       0.000000000   0.000000000   0.000000000



     Writing output data file Prototype-La-cP4-Cu3Au.save
     NEW-OLD atomic charge density approx. for the potential
     NEW k-points: (use verbosity='high' to print them)

     total cpu time spent up to now is      388.3 secs

     Self-consistent Calculation

     iteration #  1     ecut=    40.00 Ry     beta=0.70
     CG style diagonalization
     c_bands:  1 eigenvalues not converged
     c_bands:  1 eigenvalues not converged
     c_bands:  1 eigenvalues not converged
     c_bands:  1 eigenvalues not converged
     c_bands:  1 eigenvalues not converged
     c_bands:  2 eigenvalues not converged
     c_bands:  1 eigenvalues not converged
     c_bands:  1 eigenvalues not converged
     c_bands:  1 eigenvalues not converged
     c_bands:  1 eigenvalues not converged
     c_bands:  2 eigenvalues not converged
     c_bands:  1 eigenvalues not converged
     c_bands:  1 eigenvalues not converged
     c_bands:  1 eigenvalues not converged
     c_bands:  1 eigenvalues not converged
     c_bands:  2 eigenvalues not converged
     c_bands:  2 eigenvalues not converged
     c_bands:  1 eigenvalues not converged
     c_bands:  1 eigenvalues not converged
     c_bands:  1 eigenvalues not converged
     c_bands:  1 eigenvalues not converged
     c_bands:  1 eigenvalues not converged
     c_bands:  1 eigenvalues not converged
     c_bands:  1 eigenvalues not converged
     c_bands:  3 eigenvalues not converged
     c_bands:  1 eigenvalues not converged
     c_bands:  2 eigenvalues not converged
     c_bands:  2 eigenvalues not converged
     c_bands:  2 eigenvalues not converged
     c_bands:  1 eigenvalues not converged
     c_bands:  1 eigenvalues not converged
     c_bands:  1 eigenvalues not converged
     c_bands:  1 eigenvalues not converged
     c_bands:  1 eigenvalues not converged
     c_bands:  1 eigenvalues not converged
     c_bands:  2 eigenvalues not converged
     c_bands:  3 eigenvalues not converged
     c_bands:  2 eigenvalues not converged
     c_bands:  4 eigenvalues not converged
     c_bands:  3 eigenvalues not converged
     c_bands:  1 eigenvalues not converged
     c_bands:  2 eigenvalues not converged
     c_bands:  1 eigenvalues not converged
     c_bands:  3 eigenvalues not converged
     c_bands:  1 eigenvalues not converged
     c_bands:  1 eigenvalues not converged
     c_bands:  3 eigenvalues not converged
     c_bands:  2 eigenvalues not converged
     ethr =  1.00E-06,  avg # of iterations = 10.2

     total cpu time spent up to now is      419.7 secs

     total energy              =    -796.60003989 Ry
     Harris-Foulkes estimate   =    -797.32934116 Ry
     estimated scf accuracy    <       0.93078498 Ry

     iteration #  2     ecut=    40.00 Ry     beta=0.70
     CG style diagonalization
     ethr =  1.31E-03,  avg # of iterations =  3.8

     total cpu time spent up to now is      432.5 secs

     total energy              =    -796.78072609 Ry
     Harris-Foulkes estimate   =    -797.08796688 Ry
     estimated scf accuracy    <       0.50930517 Ry

     iteration #  3     ecut=    40.00 Ry     beta=0.70
     CG style diagonalization
     ethr =  7.17E-04,  avg # of iterations =  3.5

     total cpu time spent up to now is      443.0 secs

     total energy              =    -796.92264819 Ry
     Harris-Foulkes estimate   =    -796.95882207 Ry
     estimated scf accuracy    <       0.07362692 Ry

     iteration #  4     ecut=    40.00 Ry     beta=0.70
     CG style diagonalization
     ethr =  1.04E-04,  avg # of iterations =  3.3

     total cpu time spent up to now is      453.2 secs

     total energy              =    -796.93790713 Ry
     Harris-Foulkes estimate   =    -796.93808202 Ry
     estimated scf accuracy    <       0.00034541 Ry

     iteration #  5     ecut=    40.00 Ry     beta=0.70
     CG style diagonalization
     c_bands:  1 eigenvalues not converged
     ethr =  4.86E-07,  avg # of iterations =  4.9

     total cpu time spent up to now is      468.4 secs

     total energy              =    -796.93839894 Ry
     Harris-Foulkes estimate   =    -796.93845241 Ry
     estimated scf accuracy    <       0.00011372 Ry

     iteration #  6     ecut=    40.00 Ry     beta=0.70
     CG style diagonalization
     ethr =  1.60E-07,  avg # of iterations =  3.3

     total cpu time spent up to now is      479.3 secs

     total energy              =    -796.93841325 Ry
     Harris-Foulkes estimate   =    -796.93841576 Ry
     estimated scf accuracy    <       0.00000443 Ry

     iteration #  7     ecut=    40.00 Ry     beta=0.70
     CG style diagonalization
     ethr =  6.23E-09,  avg # of iterations =  4.0

     total cpu time spent up to now is      491.5 secs

     End of self-consistent calculation

     Number of k-points >= 100: set verbosity='high' to print the bands.

     the Fermi energy is    39.2853 ev

!    total energy              =    -796.93841534 Ry
     Harris-Foulkes estimate   =    -796.93841596 Ry
     estimated scf accuracy    <       0.00000067 Ry

     The total energy is the sum of the following terms:

     one-electron contribution =      30.52209631 Ry
     hartree contribution      =      72.11002065 Ry
     xc contribution           =     -81.95387710 Ry
     ewald contribution        =    -817.45465524 Ry
     smearing contrib. (-TS)   =      -0.16199996 Ry

     convergence has been achieved in   7 iterations

     Forces acting on atoms (Ry/au):

     atom    1 type  1   force =     0.00000000    0.00000000    0.00000000
     atom    2 type  1   force =     0.00000000    0.00000000    0.00000000
     atom    3 type  1   force =     0.00000000    0.00000000    0.00000000
     atom    4 type  2   force =     0.00000000    0.00000000    0.00000000

     Total force =     0.000000     Total SCF correction =     0.000000


     entering subroutine stress ...

          total   stress  (Ry/bohr**3)                   (kbar)     P= 2327.24
   0.01582026   0.00000000   0.00000000       2327.24      0.00      0.00
   0.00000000   0.01582026   0.00000000          0.00   2327.24      0.00
   0.00000000   0.00000000   0.01582026          0.00      0.00   2327.24


     The maximum number of steps has been reached.

     End of BFGS Geometry Optimization
Begin final coordinates
     new unit-cell volume =    360.95759 a.u.^3 (    53.48839 Ang^3 )

CELL_PARAMETERS (alat=  7.13166486)
   0.998376764   0.000000000   0.000000000
   0.000000000   0.998376764   0.000000000
   0.000000000   0.000000000   0.998376764

ATOMIC_POSITIONS (crystal)
Cu       0.000000000   0.500000000   0.500000000
Cu       0.500000000   0.500000000   0.000000000
Cu       0.500000000   0.000000000   0.500000000
Au       0.000000000   0.000000000   0.000000000
End final coordinates



     A final scf calculation at the relaxed structure.
     The G-vectors are recalculated for the final unit cell
     Results may differ from those at the preceding step.
 
     Parallelization info
     --------------------
     sticks:   dense  smooth     PW     G-vecs:    dense   smooth      PW
     Min         163     163     48                 3073     3073     524
     Max         165     165     49                 3074     3074     527
     Sum         657     657    193                12293    12293    2103
 


     bravais-lattice index     =            0
     lattice parameter (alat)  =       7.1317  a.u.
     unit-cell volume          =     360.9576 (a.u.)^3
     number of atoms/cell      =            4
     number of atomic types    =            2
     number of electrons       =        71.00
     number of Kohn-Sham states=           43
     kinetic-energy cutoff     =      40.0000  Ry
     charge density cutoff     =     160.0000  Ry
     convergence threshold     =      1.0E-06
     mixing beta               =       0.7000
     number of iterations used =            8  plain     mixing
     Exchange-correlation      = SLA-PZ-NOGX-NOGC ( 1 1 0 0 0)
     EXX-fraction              =        0.00

     celldm(1)=   7.131665  celldm(2)=   0.000000  celldm(3)=   0.000000
     celldm(4)=   0.000000  celldm(5)=   0.000000  celldm(6)=   0.000000

     crystal axes: (cart. coord. in units of alat)
               a(1) = (   0.998377   0.000000   0.000000 )  
               a(2) = (   0.000000   0.998377   0.000000 )  
               a(3) = (   0.000000   0.000000   0.998377 )  

     reciprocal axes: (cart. coord. in units 2 pi/alat)
               b(1) = (  1.001626  0.000000  0.000000 )  
               b(2) = (  0.000000  1.001626  0.000000 )  
               b(3) = (  0.000000  0.000000  1.001626 )  


     PseudoPot. # 1 for Tb read from file:
     /home/cwx6513/pp.La/Tb.UPF
     MD5 check sum: 3d6088a3f0cf7fd2e110c43f7f8e95c2
     Pseudo is Norm-conserving, Zval = 19.0
     Generated in analytical, separable form
     Using radial grid of 1263 points,  6 beta functions with: 
                l(1) =   0
                l(2) =   0
                l(3) =   1
                l(4) =   1
                l(5) =   2
                l(6) =   3

     PseudoPot. # 2 for Nd read from file:
     /home/cwx6513/pp.La/Nd.UPF
     MD5 check sum: c66c5b6abe7b5840ced9b1e244e3bed6
     Pseudo is Norm-conserving, Zval = 14.0
     Generated in analytical, separable form
     Using radial grid of 1257 points,  6 beta functions with: 
                l(1) =   0
                l(2) =   0
                l(3) =   1
                l(4) =   1
                l(5) =   2
                l(6) =   3

     atomic species   valence    mass     pseudopotential
        Cu            19.00    63.54600     Tb( 1.00)
        Au            14.00   196.96600     Nd( 1.00)

     48 Sym. Ops., with inversion, found



   Cartesian axes

     site n.     atom                  positions (alat units)
         1           Cu  tau(   1) = (   0.0000000   0.4991884   0.4991884  )
         2           Cu  tau(   2) = (   0.4991884   0.4991884   0.0000000  )
         3           Cu  tau(   3) = (   0.4991884   0.0000000   0.4991884  )
         4           Au  tau(   4) = (   0.0000000   0.0000000   0.0000000  )

     number of k points=   100  gaussian smearing, width (Ry)=  0.1000

     Number of k-points >= 100: set verbosity='high' to print them.

     Dense  grid:    12293 G-vectors     FFT dimensions: (  30,  30,  30)

     Largest allocated arrays     est. size (Mb)     dimensions
        Kohn-Sham Wavefunctions         0.26 Mb     (    400,   43)
        NL pseudopotentials             0.49 Mb     (    400,   80)
        Each V/rho on FFT grid          0.11 Mb     (   7200)
        Each G-vector array             0.02 Mb     (   3074)
        G-vector shells                 0.00 Mb     (    172)
     Largest temporary arrays     est. size (Mb)     dimensions
        Each subspace H/S matrix        0.03 Mb     (  43,  43)
        Each <psi_i|beta_j> matrix      0.05 Mb     (     80,   43)
        Arrays for rho mixing           0.88 Mb     (   7200,   8)

     Initial potential from superposition of free atoms

     Starting from uniform charge
     Starting wfc are    0 randomized atomic wfcs

     Writing output data file Prototype-La-cP4-Cu3Au.save

     total cpu time spent up to now is      496.8 secs

     Self-consistent Calculation

     iteration #  1     ecut=    40.00 Ry     beta=0.70
     CG style diagonalization
     c_bands:  1 eigenvalues not converged
     c_bands:  2 eigenvalues not converged
     c_bands:  2 eigenvalues not converged
     c_bands:  4 eigenvalues not converged
     c_bands:  2 eigenvalues not converged
     c_bands:  2 eigenvalues not converged
     c_bands:  3 eigenvalues not converged
     c_bands:  2 eigenvalues not converged
     c_bands:  5 eigenvalues not converged
     c_bands:  3 eigenvalues not converged
     c_bands:  1 eigenvalues not converged
     c_bands:  3 eigenvalues not converged
     c_bands:  2 eigenvalues not converged
     c_bands:  4 eigenvalues not converged
     c_bands:  5 eigenvalues not converged
     c_bands:  2 eigenvalues not converged
     c_bands:  3 eigenvalues not converged
     c_bands:  3 eigenvalues not converged
     c_bands:  2 eigenvalues not converged
     c_bands:  3 eigenvalues not converged
     c_bands:  4 eigenvalues not converged
     c_bands:  4 eigenvalues not converged
     c_bands:  5 eigenvalues not converged
     c_bands:  4 eigenvalues not converged
     c_bands:  3 eigenvalues not converged
     c_bands:  3 eigenvalues not converged
     c_bands:  3 eigenvalues not converged
     c_bands:  2 eigenvalues not converged
     c_bands:  5 eigenvalues not converged
     c_bands:  4 eigenvalues not converged
     c_bands:  5 eigenvalues not converged
     c_bands:  2 eigenvalues not converged
     c_bands:  1 eigenvalues not converged
     c_bands:  4 eigenvalues not converged
     c_bands:  4 eigenvalues not converged
     c_bands:  3 eigenvalues not converged
     c_bands:  4 eigenvalues not converged
     c_bands:  4 eigenvalues not converged
     c_bands:  4 eigenvalues not converged
     c_bands:  1 eigenvalues not converged
     c_bands:  2 eigenvalues not converged
     c_bands:  1 eigenvalues not converged
     c_bands:  2 eigenvalues not converged
     c_bands:  5 eigenvalues not converged
     c_bands:  4 eigenvalues not converged
     c_bands:  3 eigenvalues not converged
     c_bands:  5 eigenvalues not converged
     c_bands:  5 eigenvalues not converged
     c_bands:  4 eigenvalues not converged
     c_bands:  4 eigenvalues not converged
     c_bands:  2 eigenvalues not converged
     c_bands:  3 eigenvalues not converged
     c_bands:  3 eigenvalues not converged
     c_bands:  5 eigenvalues not converged
     c_bands:  4 eigenvalues not converged
     c_bands:  5 eigenvalues not converged
     c_bands:  4 eigenvalues not converged
     c_bands:  4 eigenvalues not converged
     c_bands:  5 eigenvalues not converged
     c_bands:  5 eigenvalues not converged
     c_bands:  5 eigenvalues not converged
     c_bands:  4 eigenvalues not converged
     c_bands:  2 eigenvalues not converged
     c_bands:  4 eigenvalues not converged
     c_bands:  3 eigenvalues not converged
     c_bands:  4 eigenvalues not converged
     c_bands:  5 eigenvalues not converged
     c_bands:  4 eigenvalues not converged
     c_bands:  5 eigenvalues not converged
     c_bands:  3 eigenvalues not converged
     c_bands:  2 eigenvalues not converged
     c_bands:  4 eigenvalues not converged
     c_bands:  4 eigenvalues not converged
     c_bands:  2 eigenvalues not converged
     c_bands:  5 eigenvalues not converged
     c_bands:  3 eigenvalues not converged
     c_bands:  5 eigenvalues not converged
     c_bands:  5 eigenvalues not converged
     c_bands:  2 eigenvalues not converged
     c_bands:  3 eigenvalues not converged
     c_bands:  5 eigenvalues not converged
     c_bands:  4 eigenvalues not converged
     c_bands:  2 eigenvalues not converged
     c_bands:  5 eigenvalues not converged
     c_bands:  4 eigenvalues not converged
     c_bands:  3 eigenvalues not converged
     c_bands:  5 eigenvalues not converged
     c_bands:  4 eigenvalues not converged
     c_bands:  3 eigenvalues not converged
     c_bands:  3 eigenvalues not converged
     c_bands:  2 eigenvalues not converged
     c_bands:  5 eigenvalues not converged
     c_bands:  3 eigenvalues not converged
     c_bands:  3 eigenvalues not converged
     c_bands:  4 eigenvalues not converged
     c_bands:  4 eigenvalues not converged
     c_bands:  4 eigenvalues not converged
     c_bands:  3 eigenvalues not converged
     c_bands:  4 eigenvalues not converged
     c_bands:  4 eigenvalues not converged
     ethr =  1.00E-06,  avg # of iterations = 51.3

     total cpu time spent up to now is      663.2 secs

     total energy              =    -656.42367525 Ry
     Harris-Foulkes estimate   =    -911.84560031 Ry
     estimated scf accuracy    <     323.65338046 Ry

     iteration #  2     ecut=    40.00 Ry     beta=0.70
     CG style diagonalization
     c_bands:  2 eigenvalues not converged
     c_bands:  2 eigenvalues not converged
     c_bands:  1 eigenvalues not converged
     c_bands:  1 eigenvalues not converged
     c_bands:  1 eigenvalues not converged
     c_bands:  1 eigenvalues not converged
     c_bands:  1 eigenvalues not converged
     c_bands:  1 eigenvalues not converged
     c_bands:  1 eigenvalues not converged
     c_bands:  1 eigenvalues not converged
     c_bands:  1 eigenvalues not converged
     c_bands:  1 eigenvalues not converged
     c_bands:  1 eigenvalues not converged
     c_bands:  1 eigenvalues not converged
     c_bands:  1 eigenvalues not converged
     c_bands:  1 eigenvalues not converged
     c_bands:  1 eigenvalues not converged
     c_bands:  2 eigenvalues not converged
     c_bands:  1 eigenvalues not converged
     c_bands:  1 eigenvalues not converged
     c_bands:  1 eigenvalues not converged
     c_bands:  2 eigenvalues not converged
     c_bands:  1 eigenvalues not converged
     c_bands:  1 eigenvalues not converged
     c_bands:  2 eigenvalues not converged
     c_bands:  1 eigenvalues not converged
     c_bands:  1 eigenvalues not converged
     c_bands:  1 eigenvalues not converged
     c_bands:  1 eigenvalues not converged
     c_bands:  1 eigenvalues not converged
     c_bands:  1 eigenvalues not converged
     c_bands:  1 eigenvalues not converged
     c_bands:  1 eigenvalues not converged
     c_bands:  2 eigenvalues not converged
     c_bands:  1 eigenvalues not converged
     c_bands:  1 eigenvalues not converged
     c_bands:  1 eigenvalues not converged
     c_bands:  3 eigenvalues not converged
     c_bands:  2 eigenvalues not converged
     ethr =  1.00E-02,  avg # of iterations = 12.2

     total cpu time spent up to now is      710.3 secs

     total energy              =    -682.70450020 Ry
     Harris-Foulkes estimate   =    -898.69556770 Ry
     estimated scf accuracy    <     430.00855184 Ry

     iteration #  3     ecut=    40.00 Ry     beta=0.70
     CG style diagonalization
     c_bands:  1 eigenvalues not converged
     c_bands:  1 eigenvalues not converged
     c_bands:  1 eigenvalues not converged
     c_bands:  1 eigenvalues not converged
     c_bands:  1 eigenvalues not converged
     c_bands:  1 eigenvalues not converged
     c_bands:  2 eigenvalues not converged
     c_bands:  1 eigenvalues not converged
     c_bands:  1 eigenvalues not converged
     c_bands:  1 eigenvalues not converged
     c_bands:  2 eigenvalues not converged
     c_bands:  1 eigenvalues not converged
     c_bands:  1 eigenvalues not converged
     c_bands:  1 eigenvalues not converged
     c_bands:  1 eigenvalues not converged
     c_bands:  1 eigenvalues not converged
     c_bands:  2 eigenvalues not converged
     c_bands:  1 eigenvalues not converged
     c_bands:  1 eigenvalues not converged
     c_bands:  1 eigenvalues not converged
     c_bands:  1 eigenvalues not converged
     c_bands:  1 eigenvalues not converged
     c_bands:  1 eigenvalues not converged
     c_bands:  1 eigenvalues not converged
     c_bands:  1 eigenvalues not converged
     c_bands:  1 eigenvalues not converged
     ethr =  1.00E-02,  avg # of iterations =  9.6

     total cpu time spent up to now is      748.2 secs

     total energy              =    -793.53337229 Ry
     Harris-Foulkes estimate   =    -808.96811159 Ry
     estimated scf accuracy    <      33.37897198 Ry

     iteration #  4     ecut=    40.00 Ry     beta=0.70
     CG style diagonalization
     ethr =  1.00E-02,  avg # of iterations =  4.0

     total cpu time spent up to now is      766.2 secs

     total energy              =    -796.93078217 Ry
     Harris-Foulkes estimate   =    -797.95320128 Ry
     estimated scf accuracy    <       3.00829073 Ry

     iteration #  5     ecut=    40.00 Ry     beta=0.70
     CG style diagonalization
     ethr =  4.24E-03,  avg # of iterations =  3.2

     total cpu time spent up to now is      780.1 secs

     total energy              =    -796.59321768 Ry
     Harris-Foulkes estimate   =    -797.16513740 Ry
     estimated scf accuracy    <       0.94853782 Ry

     iteration #  6     ecut=    40.00 Ry     beta=0.70
     CG style diagonalization
     ethr =  1.34E-03,  avg # of iterations =  4.1

     total cpu time spent up to now is      797.5 secs

     total energy              =    -796.89011223 Ry
     Harris-Foulkes estimate   =    -796.94397496 Ry
     estimated scf accuracy    <       0.08173396 Ry

     iteration #  7     ecut=    40.00 Ry     beta=0.70
     CG style diagonalization
     c_bands:  1 eigenvalues not converged
     c_bands:  1 eigenvalues not converged
     c_bands:  1 eigenvalues not converged
     c_bands:  1 eigenvalues not converged
     c_bands:  1 eigenvalues not converged
     c_bands:  2 eigenvalues not converged
     c_bands:  1 eigenvalues not converged
     c_bands:  1 eigenvalues not converged
     c_bands:  1 eigenvalues not converged
     c_bands:  1 eigenvalues not converged
     c_bands:  1 eigenvalues not converged
     c_bands:  1 eigenvalues not converged
     c_bands:  1 eigenvalues not converged
     c_bands:  1 eigenvalues not converged
     c_bands:  1 eigenvalues not converged
     c_bands:  1 eigenvalues not converged
     ethr =  1.15E-04,  avg # of iterations =  4.4

     total cpu time spent up to now is      815.2 secs

     total energy              =    -796.92390507 Ry
     Harris-Foulkes estimate   =    -796.92987889 Ry
     estimated scf accuracy    <       0.01034436 Ry

     iteration #  8     ecut=    40.00 Ry     beta=0.70
     CG style diagonalization
     c_bands:  1 eigenvalues not converged
     c_bands:  1 eigenvalues not converged
     c_bands:  1 eigenvalues not converged
     c_bands:  1 eigenvalues not converged
     c_bands:  1 eigenvalues not converged
     c_bands:  1 eigenvalues not converged
     c_bands:  1 eigenvalues not converged
     c_bands:  1 eigenvalues not converged
     c_bands:  1 eigenvalues not converged
     c_bands:  1 eigenvalues not converged
     c_bands:  1 eigenvalues not converged
     ethr =  1.46E-05,  avg # of iterations =  4.1

     total cpu time spent up to now is      833.2 secs

     total energy              =    -796.92710344 Ry
     Harris-Foulkes estimate   =    -796.92719246 Ry
     estimated scf accuracy    <       0.00011996 Ry

     iteration #  9     ecut=    40.00 Ry     beta=0.70
     CG style diagonalization
     c_bands:  1 eigenvalues not converged
     c_bands:  1 eigenvalues not converged
     c_bands:  1 eigenvalues not converged
     c_bands:  1 eigenvalues not converged
     c_bands:  1 eigenvalues not converged
     c_bands:  1 eigenvalues not converged
     c_bands:  1 eigenvalues not converged
     c_bands:  1 eigenvalues not converged
     c_bands:  1 eigenvalues not converged
     c_bands:  1 eigenvalues not converged
     ethr =  1.69E-07,  avg # of iterations =  5.6

     total cpu time spent up to now is      855.5 secs

     total energy              =    -796.92738590 Ry
     Harris-Foulkes estimate   =    -796.92743175 Ry
     estimated scf accuracy    <       0.00013624 Ry

     iteration # 10     ecut=    40.00 Ry     beta=0.70
     CG style diagonalization
     c_bands:  1 eigenvalues not converged
     c_bands:  1 eigenvalues not converged
     c_bands:  1 eigenvalues not converged
     ethr =  1.69E-07,  avg # of iterations =  3.1

     total cpu time spent up to now is      868.2 secs

     total energy              =    -796.92737795 Ry
     Harris-Foulkes estimate   =    -796.92739396 Ry
     estimated scf accuracy    <       0.00003597 Ry

     iteration # 11     ecut=    40.00 Ry     beta=0.70
     CG style diagonalization
     ethr =  5.07E-08,  avg # of iterations =  3.3

     total cpu time spent up to now is      881.8 secs

     total energy              =    -796.92738141 Ry
     Harris-Foulkes estimate   =    -796.92738290 Ry
     estimated scf accuracy    <       0.00000258 Ry

     iteration # 12     ecut=    40.00 Ry     beta=0.70
     CG style diagonalization
     ethr =  3.63E-09,  avg # of iterations =  4.0

     total cpu time spent up to now is      897.7 secs

     End of self-consistent calculation

     Number of k-points >= 100: set verbosity='high' to print the bands.

     the Fermi energy is    39.2852 ev

!    total energy              =    -796.92738254 Ry
     Harris-Foulkes estimate   =    -796.92738265 Ry
     estimated scf accuracy    <       0.00000013 Ry

     The total energy is the sum of the following terms:

     one-electron contribution =      30.53982043 Ry
     hartree contribution      =      72.10232950 Ry
     xc contribution           =     -81.95289420 Ry
     ewald contribution        =    -817.45465524 Ry
     smearing contrib. (-TS)   =      -0.16198303 Ry

     convergence has been achieved in  12 iterations

     Forces acting on atoms (Ry/au):

     atom    1 type  1   force =     0.00000000    0.00000000    0.00000000
     atom    2 type  1   force =     0.00000000    0.00000000    0.00000000
     atom    3 type  1   force =     0.00000000    0.00000000    0.00000000
     atom    4 type  2   force =     0.00000000    0.00000000    0.00000000

     Total force =     0.000000     Total SCF correction =     0.000000


     entering subroutine stress ...

          total   stress  (Ry/bohr**3)                   (kbar)     P= 2317.40
   0.01575338   0.00000000   0.00000000       2317.40      0.00      0.00
   0.00000000   0.01575338   0.00000000          0.00   2317.40      0.00
   0.00000000   0.00000000   0.01575338          0.00      0.00   2317.40


     Writing output data file Prototype-La-cP4-Cu3Au.save
 
     init_run     :      4.04s CPU      4.41s WALL (       2 calls)
     electrons    :    826.58s CPU    882.88s WALL (       5 calls)
     update_pot   :      0.81s CPU      0.83s WALL (       3 calls)
     forces       :      2.08s CPU      2.38s WALL (       5 calls)
     stress       :      5.62s CPU      5.71s WALL (       5 calls)

     Called by init_run:
     wfcinit      :      3.70s CPU      4.04s WALL (       2 calls)
     potinit      :      0.13s CPU      0.13s WALL (       2 calls)

     Called by electrons:
     c_bands      :    781.29s CPU    814.50s WALL (      45 calls)
     sum_band     :     45.03s CPU     47.59s WALL (      45 calls)
     v_of_rho     :      0.04s CPU      0.04s WALL (      50 calls)
     mix_rho      :      0.03s CPU      0.04s WALL (      45 calls)

     Called by c_bands:
     init_us_2    :      2.10s CPU      2.38s WALL (   10200 calls)
     ccgdiagg     :    666.32s CPU    689.26s WALL (    4997 calls)
     wfcrot       :    116.46s CPU    123.86s WALL (    5097 calls)

     Called by *cgdiagg:
     h_psi        :    643.86s CPU    671.30s WALL ( 1091284 calls)
     cdiaghg      :      3.54s CPU      3.85s WALL (    5097 calls)

     Called by h_psi:
     add_vuspsi   :     32.33s CPU     37.98s WALL ( 1091284 calls)

     General routines
     calbec       :     83.87s CPU     80.49s WALL ( 2178471 calls)
     fft          :      0.06s CPU      0.07s WALL (     223 calls)
     fftw         :    585.81s CPU    597.58s WALL ( 2804216 calls)
     davcio       :      1.76s CPU      4.77s WALL (   14700 calls)
 
     Parallel routines
     fft_scatter  :     95.10s CPU    101.24s WALL ( 2804439 calls)
 
     PWSCF        : 14m 0.13s CPU    14m59.55s WALL

 
   This run was terminated on:  17:51:34  22Mar2018            

=------------------------------------------------------------------------------=
   JOB DONE.
=------------------------------------------------------------------------------=
