
     Program PWSCF v.5.0.2 starts on 22Mar2018 at 17:34:58 

     This program is part of the open-source Quantum ESPRESSO suite
     for quantum simulation of materials; please cite
         "P. Giannozzi et al., J. Phys.:Condens. Matter 21 395502 (2009);
          URL http://www.quantum-espresso.org", 
     in publications or presentations arising from this work. More details at
     http://www.quantum-espresso.org/quote.php

     Parallel version (MPI), running on     4 processors
     R & G space division:  proc/nbgrp/npool/nimage =       4

     Current dimensions of program PWSCF are:
     Max number of different atomic species (ntypx) = 10
     Max number of k-points (npk) =  40000
     Max angular momentum in pseudopotentials (lmaxx) =  3
     Waiting for input...
     Reading input from standard input

     Subspace diagonalization in iterative solution of the eigenvalue problem:
     a serial algorithm will be used

 
     Parallelization info
     --------------------
     sticks:   dense  smooth     PW     G-vecs:    dense   smooth      PW
     Min         162     162     52                 2693     2693     497
     Max         163     163     54                 2695     2695     498
     Sum         649     649    211                10777    10777    1989
 


     bravais-lattice index     =            0
     lattice parameter (alat)  =       7.6055  a.u.
     unit-cell volume          =     311.0722 (a.u.)^3
     number of atoms/cell      =            2
     number of atomic types    =            2
     number of electrons       =        33.00
     number of Kohn-Sham states=           21
     kinetic-energy cutoff     =      40.0000  Ry
     charge density cutoff     =     160.0000  Ry
     convergence threshold     =      1.0E-04
     mixing beta               =       0.7000
     number of iterations used =            8  plain     mixing
     Exchange-correlation      = SLA-PZ-NOGX-NOGC ( 1 1 0 0 0)
     EXX-fraction              =        0.00
     nstep                     =           50


     celldm(1)=   7.605458  celldm(2)=   0.000000  celldm(3)=   0.000000
     celldm(4)=   0.000000  celldm(5)=   0.000000  celldm(6)=   0.000000

     crystal axes: (cart. coord. in units of alat)
               a(1) = (   1.000000   0.000000   0.000000 )  
               a(2) = (   0.500000   0.866025   0.000000 )  
               a(3) = (   0.500000   0.288675   0.816497 )  

     reciprocal axes: (cart. coord. in units 2 pi/alat)
               b(1) = (  1.000000 -0.577350 -0.408248 )  
               b(2) = (  0.000000  1.154701 -0.408248 )  
               b(3) = (  0.000000  0.000000  1.224745 )  


     PseudoPot. # 1 for Tb read from file:
     /home/cwx6513/pp.La/Tb.UPF
     MD5 check sum: 3d6088a3f0cf7fd2e110c43f7f8e95c2
     Pseudo is Norm-conserving, Zval = 19.0
     Generated in analytical, separable form
     Using radial grid of 1263 points,  6 beta functions with: 
                l(1) =   0
                l(2) =   0
                l(3) =   1
                l(4) =   1
                l(5) =   2
                l(6) =   3

     PseudoPot. # 2 for Nd read from file:
     /home/cwx6513/pp.La/Nd.UPF
     MD5 check sum: c66c5b6abe7b5840ced9b1e244e3bed6
     Pseudo is Norm-conserving, Zval = 14.0
     Generated in analytical, separable form
     Using radial grid of 1257 points,  6 beta functions with: 
                l(1) =   0
                l(2) =   0
                l(3) =   1
                l(4) =   1
                l(5) =   2
                l(6) =   3

     atomic species   valence    mass     pseudopotential
        Na            19.00    22.98970     Tb( 1.00)
        Cl            14.00    35.45300     Nd( 1.00)

     12 Sym. Ops., with inversion, found



   Cartesian axes

     site n.     atom                  positions (alat units)
         1           Na  tau(   1) = (   0.0000000   0.0000000   0.0000000  )
         2           Cl  tau(   2) = (   1.0000000   0.5773503   0.4082483  )

     number of k points=   496  gaussian smearing, width (Ry)=  0.1000

     Number of k-points >= 100: set verbosity='high' to print them.

     Dense  grid:    10777 G-vectors     FFT dimensions: (  32,  32,  32)

     Largest allocated arrays     est. size (Mb)     dimensions
        Kohn-Sham Wavefunctions         0.11 Mb     (    343,   21)
        NL pseudopotentials             0.21 Mb     (    343,   40)
        Each V/rho on FFT grid          0.12 Mb     (   8192)
        Each G-vector array             0.02 Mb     (   2694)
        G-vector shells                 0.02 Mb     (   2694)
     Largest temporary arrays     est. size (Mb)     dimensions
        Each subspace H/S matrix        0.01 Mb     (  21,  21)
        Each <psi_i|beta_j> matrix      0.01 Mb     (     40,   21)
        Arrays for rho mixing           1.00 Mb     (   8192,   8)

     Initial potential from superposition of free atoms

     Starting from uniform charge
     Starting wfc are    0 randomized atomic wfcs

     total cpu time spent up to now is        4.5 secs

     Self-consistent Calculation

     iteration #  1     ecut=    40.00 Ry     beta=0.70
     CG style diagonalization
     c_bands:  1 eigenvalues not converged
     c_bands:  1 eigenvalues not converged
     c_bands:  1 eigenvalues not converged
     c_bands:  1 eigenvalues not converged
     c_bands:  2 eigenvalues not converged
     c_bands:  1 eigenvalues not converged
     c_bands:  1 eigenvalues not converged
     c_bands:  1 eigenvalues not converged
     c_bands:  1 eigenvalues not converged
     c_bands:  1 eigenvalues not converged
     c_bands:  1 eigenvalues not converged
     c_bands:  1 eigenvalues not converged
     c_bands:  1 eigenvalues not converged
     c_bands:  1 eigenvalues not converged
     c_bands:  1 eigenvalues not converged
     c_bands:  1 eigenvalues not converged
     c_bands:  1 eigenvalues not converged
     c_bands:  1 eigenvalues not converged
     c_bands:  1 eigenvalues not converged
     c_bands:  1 eigenvalues not converged
     c_bands:  1 eigenvalues not converged
     c_bands:  1 eigenvalues not converged
     c_bands:  1 eigenvalues not converged
     c_bands:  1 eigenvalues not converged
     c_bands:  1 eigenvalues not converged
     c_bands:  1 eigenvalues not converged
     c_bands:  1 eigenvalues not converged
     c_bands:  1 eigenvalues not converged
     c_bands:  1 eigenvalues not converged
     c_bands:  1 eigenvalues not converged
     c_bands:  1 eigenvalues not converged
     c_bands:  1 eigenvalues not converged
     c_bands:  1 eigenvalues not converged
     c_bands:  2 eigenvalues not converged
     c_bands:  1 eigenvalues not converged
     c_bands:  1 eigenvalues not converged
     c_bands:  1 eigenvalues not converged
     c_bands:  1 eigenvalues not converged
     c_bands:  1 eigenvalues not converged
     c_bands:  1 eigenvalues not converged
     c_bands:  1 eigenvalues not converged
     c_bands:  1 eigenvalues not converged
     c_bands:  1 eigenvalues not converged
     c_bands:  1 eigenvalues not converged
     c_bands:  1 eigenvalues not converged
     c_bands:  1 eigenvalues not converged
     ethr =  1.00E-02,  avg # of iterations = 12.4

     total cpu time spent up to now is       59.8 secs

     total energy              =    -177.05860538 Ry
     Harris-Foulkes estimate   =    -432.40713662 Ry
     estimated scf accuracy    <     312.39095948 Ry

     iteration #  2     ecut=    40.00 Ry     beta=0.70
     CG style diagonalization
     c_bands:  1 eigenvalues not converged
     c_bands:  1 eigenvalues not converged
     c_bands:  3 eigenvalues not converged
     c_bands:  1 eigenvalues not converged
     c_bands:  1 eigenvalues not converged
     c_bands:  1 eigenvalues not converged
     c_bands:  1 eigenvalues not converged
     c_bands:  1 eigenvalues not converged
     c_bands:  5 eigenvalues not converged
     c_bands:  1 eigenvalues not converged
     c_bands:  1 eigenvalues not converged
     c_bands:  1 eigenvalues not converged
     c_bands:  1 eigenvalues not converged
     c_bands:  1 eigenvalues not converged
     c_bands:  1 eigenvalues not converged
     c_bands:  1 eigenvalues not converged
     c_bands:  1 eigenvalues not converged
     c_bands:  1 eigenvalues not converged
     c_bands:  1 eigenvalues not converged
     c_bands:  3 eigenvalues not converged
     c_bands:  1 eigenvalues not converged
     c_bands:  1 eigenvalues not converged
     c_bands:  1 eigenvalues not converged
     c_bands:  1 eigenvalues not converged
     c_bands:  1 eigenvalues not converged
     c_bands:  1 eigenvalues not converged
     c_bands:  1 eigenvalues not converged
     c_bands:  1 eigenvalues not converged
     c_bands:  2 eigenvalues not converged
     c_bands:  1 eigenvalues not converged
     c_bands:  1 eigenvalues not converged
     c_bands:  1 eigenvalues not converged
     c_bands:  1 eigenvalues not converged
     c_bands:  1 eigenvalues not converged
     c_bands:  2 eigenvalues not converged
     c_bands:  1 eigenvalues not converged
     c_bands:  1 eigenvalues not converged
     c_bands:  1 eigenvalues not converged
     c_bands:  1 eigenvalues not converged
     c_bands:  1 eigenvalues not converged
     c_bands:  1 eigenvalues not converged
     c_bands:  1 eigenvalues not converged
     c_bands:  1 eigenvalues not converged
     c_bands:  1 eigenvalues not converged
     c_bands:  1 eigenvalues not converged
     c_bands:  1 eigenvalues not converged
     c_bands:  1 eigenvalues not converged
     c_bands:  2 eigenvalues not converged
     c_bands:  1 eigenvalues not converged
     c_bands:  1 eigenvalues not converged
     c_bands:  1 eigenvalues not converged
     c_bands:  1 eigenvalues not converged
     c_bands:  1 eigenvalues not converged
     c_bands:  1 eigenvalues not converged
     c_bands:  1 eigenvalues not converged
     c_bands:  2 eigenvalues not converged
     c_bands:  5 eigenvalues not converged
     c_bands:  1 eigenvalues not converged
     c_bands:  1 eigenvalues not converged
     c_bands:  1 eigenvalues not converged
     c_bands:  2 eigenvalues not converged
     c_bands:  1 eigenvalues not converged
     c_bands:  1 eigenvalues not converged
     c_bands:  1 eigenvalues not converged
     c_bands:  1 eigenvalues not converged
     c_bands:  1 eigenvalues not converged
     c_bands:  1 eigenvalues not converged
     c_bands:  2 eigenvalues not converged
     c_bands:  1 eigenvalues not converged
     c_bands:  1 eigenvalues not converged
     c_bands:  1 eigenvalues not converged
     c_bands:  1 eigenvalues not converged
     c_bands:  1 eigenvalues not converged
     c_bands:  1 eigenvalues not converged
     c_bands:  2 eigenvalues not converged
     ethr =  1.00E-02,  avg # of iterations = 12.1

     total cpu time spent up to now is      107.9 secs

     total energy              =    -260.52972650 Ry
     Harris-Foulkes estimate   =    -484.91314463 Ry
     estimated scf accuracy    <     460.66343979 Ry

     iteration #  3     ecut=    40.00 Ry     beta=0.70
     CG style diagonalization
     ethr =  1.00E-02,  avg # of iterations = 10.1

     total cpu time spent up to now is      149.4 secs

     total energy              =    -337.72360296 Ry
     Harris-Foulkes estimate   =    -346.49021023 Ry
     estimated scf accuracy    <      14.71853049 Ry

     iteration #  4     ecut=    40.00 Ry     beta=0.70
     CG style diagonalization
     ethr =  1.00E-02,  avg # of iterations =  4.3

     negative rho (up, down):  0.138E-02 0.000E+00

     total cpu time spent up to now is      167.5 secs

     total energy              =    -339.48827910 Ry
     Harris-Foulkes estimate   =    -340.02895174 Ry
     estimated scf accuracy    <       1.02805467 Ry

     iteration #  5     ecut=    40.00 Ry     beta=0.70
     CG style diagonalization
     ethr =  3.12E-03,  avg # of iterations =  4.3

     total cpu time spent up to now is      184.9 secs

     total energy              =    -339.43081556 Ry
     Harris-Foulkes estimate   =    -340.37966045 Ry
     estimated scf accuracy    <       1.80078064 Ry

     iteration #  6     ecut=    40.00 Ry     beta=0.70
     CG style diagonalization
     ethr =  3.12E-03,  avg # of iterations =  3.5

     negative rho (up, down):  0.758E-05 0.000E+00

     total cpu time spent up to now is      202.0 secs

     total energy              =    -339.67776330 Ry
     Harris-Foulkes estimate   =    -339.68396216 Ry
     estimated scf accuracy    <       0.02421769 Ry

     iteration #  7     ecut=    40.00 Ry     beta=0.70
     CG style diagonalization
     c_bands:  1 eigenvalues not converged
     c_bands:  1 eigenvalues not converged
     c_bands:  1 eigenvalues not converged
     c_bands:  2 eigenvalues not converged
     c_bands:  1 eigenvalues not converged
     c_bands:  1 eigenvalues not converged
     c_bands:  1 eigenvalues not converged
     c_bands:  1 eigenvalues not converged
     c_bands:  1 eigenvalues not converged
     c_bands:  1 eigenvalues not converged
     c_bands:  1 eigenvalues not converged
     c_bands:  1 eigenvalues not converged
     c_bands:  1 eigenvalues not converged
     c_bands:  1 eigenvalues not converged
     c_bands:  1 eigenvalues not converged
     ethr =  7.34E-05,  avg # of iterations =  4.6

     total cpu time spent up to now is      222.0 secs

     total energy              =    -339.68163018 Ry
     Harris-Foulkes estimate   =    -339.68653660 Ry
     estimated scf accuracy    <       0.00830929 Ry

     iteration #  8     ecut=    40.00 Ry     beta=0.70
     CG style diagonalization
     c_bands:  1 eigenvalues not converged
     ethr =  2.52E-05,  avg # of iterations =  3.7

     total cpu time spent up to now is      237.9 secs

     total energy              =    -339.68283580 Ry
     Harris-Foulkes estimate   =    -339.68340646 Ry
     estimated scf accuracy    <       0.00125195 Ry

     iteration #  9     ecut=    40.00 Ry     beta=0.70
     CG style diagonalization
     c_bands:  1 eigenvalues not converged
     c_bands:  1 eigenvalues not converged
     c_bands:  1 eigenvalues not converged
     c_bands:  1 eigenvalues not converged
     c_bands:  1 eigenvalues not converged
     c_bands:  1 eigenvalues not converged
     c_bands:  1 eigenvalues not converged
     c_bands:  1 eigenvalues not converged
     c_bands:  1 eigenvalues not converged
     c_bands:  1 eigenvalues not converged
     c_bands:  1 eigenvalues not converged
     c_bands:  1 eigenvalues not converged
     c_bands:  1 eigenvalues not converged
     c_bands:  1 eigenvalues not converged
     c_bands:  1 eigenvalues not converged
     ethr =  3.79E-06,  avg # of iterations =  3.5

     total cpu time spent up to now is      254.2 secs

     total energy              =    -339.68296444 Ry
     Harris-Foulkes estimate   =    -339.68300691 Ry
     estimated scf accuracy    <       0.00010670 Ry

     iteration # 10     ecut=    40.00 Ry     beta=0.70
     CG style diagonalization
     c_bands:  1 eigenvalues not converged
     c_bands:  1 eigenvalues not converged
     c_bands:  1 eigenvalues not converged
     ethr =  3.23E-07,  avg # of iterations =  4.0

     total cpu time spent up to now is      272.1 secs

     End of self-consistent calculation

     Number of k-points >= 100: set verbosity='high' to print the bands.

     the Fermi energy is    20.2801 ev

!    total energy              =    -339.68300155 Ry
     Harris-Foulkes estimate   =    -339.68300370 Ry
     estimated scf accuracy    <       0.00000268 Ry

     The total energy is the sum of the following terms:

     one-electron contribution =     -66.64748064 Ry
     hartree contribution      =      53.41825525 Ry
     xc contribution           =     -34.95453994 Ry
     ewald contribution        =    -291.33332323 Ry
     smearing contrib. (-TS)   =      -0.16591298 Ry

     convergence has been achieved in  10 iterations

     Forces acting on atoms (Ry/au):

     atom    1 type  1   force =     0.00000000    0.00000000    0.00000000
     atom    2 type  2   force =     0.00000000    0.00000000    0.00000000

     Total force =     0.000000     Total SCF correction =     0.000000


     entering subroutine stress ...

          total   stress  (Ry/bohr**3)                   (kbar)     P=  -96.66
  -0.00065756   0.00000000   0.00000000        -96.73      0.00      0.00
   0.00000000  -0.00065756   0.00000000          0.00    -96.73      0.00
   0.00000000   0.00000000  -0.00065619          0.00      0.00    -96.53


     BFGS Geometry Optimization

     number of scf cycles    =   1
     number of bfgs steps    =   0

     enthalpy new            =    -339.6830015467 Ry

     new trust radius        =       0.0579875575 bohr
     new conv_thr            =       0.0001000000 Ry

     new unit-cell volume =    295.99217 a.u.^3 (    43.86151 Ang^3 )

CELL_PARAMETERS (alat=  7.60545813)
   0.983561043   0.000000000   0.000000000
   0.491780522   0.851788850   0.000000000
   0.491780522   0.283929617   0.803102203

ATOMIC_POSITIONS (crystal)
Na       0.000000000   0.000000000   0.000000000
Cl       0.500000000   0.500000000   0.500000000



     Writing output data file Prototype-La-cF8-NaCl.save
     NEW-OLD atomic charge density approx. for the potential
     NEW k-points: (use verbosity='high' to print them)

     total cpu time spent up to now is      276.9 secs

     Self-consistent Calculation

     iteration #  1     ecut=    40.00 Ry     beta=0.70
     CG style diagonalization
     c_bands:  1 eigenvalues not converged
     c_bands:  1 eigenvalues not converged
     c_bands:  1 eigenvalues not converged
     c_bands:  1 eigenvalues not converged
     c_bands:  1 eigenvalues not converged
     c_bands:  1 eigenvalues not converged
     c_bands:  1 eigenvalues not converged
     c_bands:  2 eigenvalues not converged
     c_bands:  1 eigenvalues not converged
     c_bands:  1 eigenvalues not converged
     c_bands:  1 eigenvalues not converged
     c_bands:  1 eigenvalues not converged
     c_bands:  1 eigenvalues not converged
     c_bands:  1 eigenvalues not converged
     c_bands:  1 eigenvalues not converged
     c_bands:  2 eigenvalues not converged
     c_bands:  2 eigenvalues not converged
     c_bands:  1 eigenvalues not converged
     c_bands:  1 eigenvalues not converged
     c_bands:  1 eigenvalues not converged
     c_bands:  1 eigenvalues not converged
     c_bands:  1 eigenvalues not converged
     c_bands:  1 eigenvalues not converged
     c_bands:  1 eigenvalues not converged
     c_bands:  1 eigenvalues not converged
     c_bands:  1 eigenvalues not converged
     c_bands:  1 eigenvalues not converged
     c_bands:  1 eigenvalues not converged
     c_bands:  1 eigenvalues not converged
     c_bands:  1 eigenvalues not converged
     c_bands:  1 eigenvalues not converged
     c_bands:  1 eigenvalues not converged
     c_bands:  1 eigenvalues not converged
     c_bands:  1 eigenvalues not converged
     c_bands:  1 eigenvalues not converged
     ethr =  1.00E-06,  avg # of iterations =  8.6

     total cpu time spent up to now is      306.5 secs

     total energy              =    -339.56543678 Ry
     Harris-Foulkes estimate   =    -339.79074824 Ry
     estimated scf accuracy    <       0.28219151 Ry

     iteration #  2     ecut=    40.00 Ry     beta=0.70
     CG style diagonalization
     ethr =  8.55E-04,  avg # of iterations =  3.7

     total cpu time spent up to now is      326.8 secs

     total energy              =    -339.63113963 Ry
     Harris-Foulkes estimate   =    -339.75344307 Ry
     estimated scf accuracy    <       0.21756484 Ry

     iteration #  3     ecut=    40.00 Ry     beta=0.70
     CG style diagonalization
     ethr =  6.59E-04,  avg # of iterations =  3.5

     total cpu time spent up to now is      345.0 secs

     total energy              =    -339.68204917 Ry
     Harris-Foulkes estimate   =    -339.68792152 Ry
     estimated scf accuracy    <       0.01093520 Ry

     iteration #  4     ecut=    40.00 Ry     beta=0.70
     CG style diagonalization
     ethr =  3.31E-05,  avg # of iterations =  3.5

     total cpu time spent up to now is      360.8 secs

     End of self-consistent calculation

     Number of k-points >= 100: set verbosity='high' to print the bands.

     the Fermi energy is    21.5740 ev

!    total energy              =    -339.68455441 Ry
     Harris-Foulkes estimate   =    -339.68461964 Ry
     estimated scf accuracy    <       0.00009897 Ry

     The total energy is the sum of the following terms:

     one-electron contribution =     -59.58874628 Ry
     hartree contribution      =      51.34804344 Ry
     xc contribution           =     -35.08583676 Ry
     ewald contribution        =    -296.19914557 Ry
     smearing contrib. (-TS)   =      -0.15886924 Ry

     convergence has been achieved in   4 iterations

     Forces acting on atoms (Ry/au):

     atom    1 type  1   force =     0.00000000    0.00000000    0.00000000
     atom    2 type  2   force =     0.00000000    0.00000000    0.00000000

     Total force =     0.000000     Total SCF correction =     0.000000


     entering subroutine stress ...

          total   stress  (Ry/bohr**3)                   (kbar)     P=   78.73
   0.00053490   0.00000000   0.00000000         78.69      0.00      0.00
   0.00000000   0.00053490   0.00000000          0.00     78.69      0.00
   0.00000000   0.00000000   0.00053582          0.00      0.00     78.82


     number of scf cycles    =   2
     number of bfgs steps    =   1

     enthalpy old            =    -339.6830015467 Ry
     enthalpy new            =    -339.6845544086 Ry

     CASE: enthalpy_new < enthalpy_old

     small trust_radius: resetting bfgs history

     new trust radius        =       0.0460927340 bohr
     new conv_thr            =       0.0000010000 Ry

     new unit-cell volume =    308.03315 a.u.^3 (    45.64580 Ang^3 )

CELL_PARAMETERS (alat=  7.60545813)
   0.996713695   0.000000000   0.000000000
   0.498356848   0.863179381   0.000000000
   0.498356848   0.287726460   0.813860243

ATOMIC_POSITIONS (crystal)
Na       0.000000000   0.000000000   0.000000000
Cl       0.500000000   0.500000000   0.500000000



     Writing output data file Prototype-La-cF8-NaCl.save
     NEW-OLD atomic charge density approx. for the potential
     NEW k-points: (use verbosity='high' to print them)

     total cpu time spent up to now is      365.1 secs

     Self-consistent Calculation

     iteration #  1     ecut=    40.00 Ry     beta=0.70
     CG style diagonalization
     c_bands:  1 eigenvalues not converged
     c_bands:  1 eigenvalues not converged
     c_bands:  1 eigenvalues not converged
     c_bands:  1 eigenvalues not converged
     c_bands:  1 eigenvalues not converged
     c_bands:  1 eigenvalues not converged
     c_bands:  2 eigenvalues not converged
     c_bands:  1 eigenvalues not converged
     c_bands:  1 eigenvalues not converged
     c_bands:  1 eigenvalues not converged
     c_bands:  1 eigenvalues not converged
     c_bands:  1 eigenvalues not converged
     c_bands:  1 eigenvalues not converged
     c_bands:  1 eigenvalues not converged
     c_bands:  1 eigenvalues not converged
     c_bands:  1 eigenvalues not converged
     c_bands:  1 eigenvalues not converged
     c_bands:  1 eigenvalues not converged
     ethr =  1.00E-06,  avg # of iterations =  8.3

     total cpu time spent up to now is      397.9 secs

     total energy              =    -339.61178013 Ry
     Harris-Foulkes estimate   =    -339.75180656 Ry
     estimated scf accuracy    <       0.17593286 Ry

     iteration #  2     ecut=    40.00 Ry     beta=0.70
     CG style diagonalization
     ethr =  5.33E-04,  avg # of iterations =  3.7

     total cpu time spent up to now is      417.2 secs

     total energy              =    -339.63971765 Ry
     Harris-Foulkes estimate   =    -339.72667869 Ry
     estimated scf accuracy    <       0.15959462 Ry

     iteration #  3     ecut=    40.00 Ry     beta=0.70
     CG style diagonalization
     ethr =  4.84E-04,  avg # of iterations =  3.5

     total cpu time spent up to now is      437.6 secs

     total energy              =    -339.68213298 Ry
     Harris-Foulkes estimate   =    -339.68925790 Ry
     estimated scf accuracy    <       0.01514934 Ry

     iteration #  4     ecut=    40.00 Ry     beta=0.70
     CG style diagonalization
     ethr =  4.59E-05,  avg # of iterations =  3.3

     total cpu time spent up to now is      454.5 secs

     total energy              =    -339.68430694 Ry
     Harris-Foulkes estimate   =    -339.68456384 Ry
     estimated scf accuracy    <       0.00046655 Ry

     iteration #  5     ecut=    40.00 Ry     beta=0.70
     CG style diagonalization
     c_bands:  1 eigenvalues not converged
     ethr =  1.41E-06,  avg # of iterations =  4.3

     total cpu time spent up to now is      476.7 secs

     total energy              =    -339.68460470 Ry
     Harris-Foulkes estimate   =    -339.68466036 Ry
     estimated scf accuracy    <       0.00017231 Ry

     iteration #  6     ecut=    40.00 Ry     beta=0.70
     CG style diagonalization
     ethr =  5.22E-07,  avg # of iterations =  3.1

     total cpu time spent up to now is      492.8 secs

     total energy              =    -339.68459315 Ry
     Harris-Foulkes estimate   =    -339.68461648 Ry
     estimated scf accuracy    <       0.00003766 Ry

     iteration #  7     ecut=    40.00 Ry     beta=0.70
     CG style diagonalization
     ethr =  1.14E-07,  avg # of iterations =  3.8

     total cpu time spent up to now is      511.6 secs

     total energy              =    -339.68460780 Ry
     Harris-Foulkes estimate   =    -339.68461389 Ry
     estimated scf accuracy    <       0.00001355 Ry

     iteration #  8     ecut=    40.00 Ry     beta=0.70
     CG style diagonalization
     ethr =  4.10E-08,  avg # of iterations =  3.3

     total cpu time spent up to now is      528.0 secs

     End of self-consistent calculation

     Number of k-points >= 100: set verbosity='high' to print the bands.

     the Fermi energy is    20.5320 ev

!    total energy              =    -339.68460983 Ry
     Harris-Foulkes estimate   =    -339.68461003 Ry
     estimated scf accuracy    <       0.00000022 Ry

     The total energy is the sum of the following terms:

     one-electron contribution =     -65.26418368 Ry
     hartree contribution      =      53.01218296 Ry
     xc contribution           =     -34.97984650 Ry
     ewald contribution        =    -292.28827303 Ry
     smearing contrib. (-TS)   =      -0.16448958 Ry

     convergence has been achieved in   8 iterations

     Forces acting on atoms (Ry/au):

     atom    1 type  1   force =     0.00000000    0.00000000    0.00000000
     atom    2 type  2   force =     0.00000000    0.00000000    0.00000000

     Total force =     0.000000     Total SCF correction =     0.000000


     entering subroutine stress ...

          total   stress  (Ry/bohr**3)                   (kbar)     P=  -62.35
  -0.00042426   0.00000000   0.00000000        -62.41      0.00      0.00
   0.00000000  -0.00042426   0.00000000          0.00    -62.41      0.00
   0.00000000   0.00000000  -0.00042310          0.00      0.00    -62.24


     number of scf cycles    =   3
     number of bfgs steps    =   2

     enthalpy old            =    -339.6845544086 Ry
     enthalpy new            =    -339.6846098344 Ry

     CASE: enthalpy_new > enthalpy_old

     new trust radius        =       0.0234036749 bohr

     trust_radius < trust_radius_min

     resetting bfgs history

     Message from routine bfgs:
     history already reset at previous step: stopping
     new conv_thr            =       0.0000010000 Ry

     new unit-cell volume =    307.87208 a.u.^3 (    45.62193 Ang^3 )

CELL_PARAMETERS (alat=  7.60545813)
   0.996539837   0.000000000   0.000000000
   0.498269918   0.863028814   0.000000000
   0.498269918   0.287676271   0.813718522

ATOMIC_POSITIONS (crystal)
Na       0.000000000   0.000000000   0.000000000
Cl       0.500000000   0.500000000   0.500000000



     Writing output data file Prototype-La-cF8-NaCl.save
     NEW-OLD atomic charge density approx. for the potential
     NEW k-points: (use verbosity='high' to print them)

     total cpu time spent up to now is      531.0 secs

     Self-consistent Calculation

     iteration #  1     ecut=    40.00 Ry     beta=0.70
     CG style diagonalization
     ethr =  1.00E-06,  avg # of iterations =  3.1

     total cpu time spent up to now is      544.8 secs

     total energy              =    -339.68466388 Ry
     Harris-Foulkes estimate   =    -339.68469067 Ry
     estimated scf accuracy    <       0.00003308 Ry

     iteration #  2     ecut=    40.00 Ry     beta=0.70
     CG style diagonalization
     ethr =  1.00E-07,  avg # of iterations =  3.8

     total cpu time spent up to now is      563.4 secs

     total energy              =    -339.68467018 Ry
     Harris-Foulkes estimate   =    -339.68468712 Ry
     estimated scf accuracy    <       0.00003110 Ry

     iteration #  3     ecut=    40.00 Ry     beta=0.70
     CG style diagonalization
     ethr =  9.43E-08,  avg # of iterations =  3.5

     total cpu time spent up to now is      579.8 secs

     total energy              =    -339.68467797 Ry
     Harris-Foulkes estimate   =    -339.68467858 Ry
     estimated scf accuracy    <       0.00000123 Ry

     iteration #  4     ecut=    40.00 Ry     beta=0.70
     CG style diagonalization
     ethr =  3.72E-09,  avg # of iterations =  3.5

     total cpu time spent up to now is      599.4 secs

     End of self-consistent calculation

     Number of k-points >= 100: set verbosity='high' to print the bands.

     the Fermi energy is    20.5452 ev

!    total energy              =    -339.68467821 Ry
     Harris-Foulkes estimate   =    -339.68467825 Ry
     estimated scf accuracy    <       0.00000005 Ry

     The total energy is the sum of the following terms:

     one-electron contribution =     -65.18653279 Ry
     hartree contribution      =      52.98637651 Ry
     xc contribution           =     -34.98086111 Ry
     ewald contribution        =    -292.33923735 Ry
     smearing contrib. (-TS)   =      -0.16442347 Ry

     convergence has been achieved in   4 iterations

     Forces acting on atoms (Ry/au):

     atom    1 type  1   force =     0.00000000    0.00000000    0.00000000
     atom    2 type  2   force =     0.00000000    0.00000000    0.00000000

     Total force =     0.000000     Total SCF correction =     0.000000


     entering subroutine stress ...

          total   stress  (Ry/bohr**3)                   (kbar)     P=  -61.74
  -0.00042010   0.00000000   0.00000000        -61.80      0.00      0.00
   0.00000000  -0.00042010   0.00000000          0.00    -61.80      0.00
   0.00000000   0.00000000  -0.00041892          0.00      0.00    -61.63


     The maximum number of steps has been reached.

     End of BFGS Geometry Optimization
Begin final coordinates
     new unit-cell volume =    307.87208 a.u.^3 (    45.62193 Ang^3 )

CELL_PARAMETERS (alat=  7.60545813)
   0.996539837   0.000000000   0.000000000
   0.498269918   0.863028814   0.000000000
   0.498269918   0.287676271   0.813718522

ATOMIC_POSITIONS (crystal)
Na       0.000000000   0.000000000   0.000000000
Cl       0.500000000   0.500000000   0.500000000
End final coordinates



     A final scf calculation at the relaxed structure.
     The G-vectors are recalculated for the final unit cell
     Results may differ from those at the preceding step.
 
     Parallelization info
     --------------------
     sticks:   dense  smooth     PW     G-vecs:    dense   smooth      PW
     Min         159     159     52                 2621     2621     497
     Max         160     160     54                 2624     2624     498
     Sum         637     637    211                10489    10489    1989
 


     bravais-lattice index     =            0
     lattice parameter (alat)  =       7.6055  a.u.
     unit-cell volume          =     307.8721 (a.u.)^3
     number of atoms/cell      =            2
     number of atomic types    =            2
     number of electrons       =        33.00
     number of Kohn-Sham states=           21
     kinetic-energy cutoff     =      40.0000  Ry
     charge density cutoff     =     160.0000  Ry
     convergence threshold     =      1.0E-06
     mixing beta               =       0.7000
     number of iterations used =            8  plain     mixing
     Exchange-correlation      = SLA-PZ-NOGX-NOGC ( 1 1 0 0 0)
     EXX-fraction              =        0.00

     celldm(1)=   7.605458  celldm(2)=   0.000000  celldm(3)=   0.000000
     celldm(4)=   0.000000  celldm(5)=   0.000000  celldm(6)=   0.000000

     crystal axes: (cart. coord. in units of alat)
               a(1) = (   0.996540   0.000000   0.000000 )  
               a(2) = (   0.498270   0.863029   0.000000 )  
               a(3) = (   0.498270   0.287676   0.813719 )  

     reciprocal axes: (cart. coord. in units 2 pi/alat)
               b(1) = (  1.003472 -0.579355 -0.409642 )  
               b(2) = (  0.000000  1.158710 -0.409642 )  
               b(3) = (  0.000000  0.000000  1.228926 )  


     PseudoPot. # 1 for Tb read from file:
     /home/cwx6513/pp.La/Tb.UPF
     MD5 check sum: 3d6088a3f0cf7fd2e110c43f7f8e95c2
     Pseudo is Norm-conserving, Zval = 19.0
     Generated in analytical, separable form
     Using radial grid of 1263 points,  6 beta functions with: 
                l(1) =   0
                l(2) =   0
                l(3) =   1
                l(4) =   1
                l(5) =   2
                l(6) =   3

     PseudoPot. # 2 for Nd read from file:
     /home/cwx6513/pp.La/Nd.UPF
     MD5 check sum: c66c5b6abe7b5840ced9b1e244e3bed6
     Pseudo is Norm-conserving, Zval = 14.0
     Generated in analytical, separable form
     Using radial grid of 1257 points,  6 beta functions with: 
                l(1) =   0
                l(2) =   0
                l(3) =   1
                l(4) =   1
                l(5) =   2
                l(6) =   3

     atomic species   valence    mass     pseudopotential
        Na            19.00    22.98970     Tb( 1.00)
        Cl            14.00    35.45300     Nd( 1.00)

     12 Sym. Ops., with inversion, found



   Cartesian axes

     site n.     atom                  positions (alat units)
         1           Na  tau(   1) = (   0.0000000   0.0000000   0.0000000  )
         2           Cl  tau(   2) = (   0.9965398   0.5753525   0.4068593  )

     number of k points=   496  gaussian smearing, width (Ry)=  0.1000

     Number of k-points >= 100: set verbosity='high' to print them.

     Dense  grid:    10489 G-vectors     FFT dimensions: (  32,  32,  32)

     Largest allocated arrays     est. size (Mb)     dimensions
        Kohn-Sham Wavefunctions         0.11 Mb     (    341,   21)
        NL pseudopotentials             0.21 Mb     (    341,   40)
        Each V/rho on FFT grid          0.12 Mb     (   8192)
        Each G-vector array             0.02 Mb     (   2624)
        G-vector shells                 0.01 Mb     (    722)
     Largest temporary arrays     est. size (Mb)     dimensions
        Each subspace H/S matrix        0.01 Mb     (  21,  21)
        Each <psi_i|beta_j> matrix      0.01 Mb     (     40,   21)
        Arrays for rho mixing           1.00 Mb     (   8192,   8)

     Initial potential from superposition of free atoms

     Starting from uniform charge
     Starting wfc are    0 randomized atomic wfcs

     Writing output data file Prototype-La-cF8-NaCl.save

     total cpu time spent up to now is      608.8 secs

     Self-consistent Calculation

     iteration #  1     ecut=    40.00 Ry     beta=0.70
     CG style diagonalization
     c_bands:  5 eigenvalues not converged
     c_bands:  5 eigenvalues not converged
     c_bands:  4 eigenvalues not converged
     c_bands:  5 eigenvalues not converged
     c_bands:  5 eigenvalues not converged
     c_bands:  1 eigenvalues not converged
     c_bands:  1 eigenvalues not converged
     c_bands:  1 eigenvalues not converged
     c_bands:  5 eigenvalues not converged
     c_bands:  5 eigenvalues not converged
     c_bands:  5 eigenvalues not converged
     c_bands:  5 eigenvalues not converged
     c_bands:  5 eigenvalues not converged
     c_bands:  1 eigenvalues not converged
     c_bands:  5 eigenvalues not converged
     c_bands:  5 eigenvalues not converged
     c_bands:  5 eigenvalues not converged
     ethr =  1.00E-06,  avg # of iterations = 40.9

     total cpu time spent up to now is      766.0 secs

     total energy              =    -177.45342509 Ry
     Harris-Foulkes estimate   =    -431.82419461 Ry
     estimated scf accuracy    <     311.27154720 Ry

     iteration #  2     ecut=    40.00 Ry     beta=0.70
     CG style diagonalization
     c_bands:  1 eigenvalues not converged
     c_bands:  1 eigenvalues not converged
     c_bands:  1 eigenvalues not converged
     c_bands:  1 eigenvalues not converged
     c_bands:  2 eigenvalues not converged
     c_bands:  1 eigenvalues not converged
     c_bands:  1 eigenvalues not converged
     c_bands:  2 eigenvalues not converged
     c_bands:  1 eigenvalues not converged
     c_bands:  2 eigenvalues not converged
     c_bands:  2 eigenvalues not converged
     c_bands:  1 eigenvalues not converged
     c_bands:  1 eigenvalues not converged
     c_bands:  1 eigenvalues not converged
     c_bands:  1 eigenvalues not converged
     c_bands:  1 eigenvalues not converged
     c_bands:  1 eigenvalues not converged
     c_bands:  1 eigenvalues not converged
     c_bands:  1 eigenvalues not converged
     c_bands:  3 eigenvalues not converged
     c_bands:  1 eigenvalues not converged
     c_bands:  1 eigenvalues not converged
     c_bands:  1 eigenvalues not converged
     c_bands:  2 eigenvalues not converged
     c_bands:  1 eigenvalues not converged
     c_bands:  1 eigenvalues not converged
     c_bands:  1 eigenvalues not converged
     c_bands:  1 eigenvalues not converged
     c_bands:  1 eigenvalues not converged
     c_bands:  1 eigenvalues not converged
     c_bands:  1 eigenvalues not converged
     c_bands:  1 eigenvalues not converged
     c_bands:  1 eigenvalues not converged
     c_bands:  1 eigenvalues not converged
     c_bands:  1 eigenvalues not converged
     c_bands:  1 eigenvalues not converged
     c_bands:  1 eigenvalues not converged
     c_bands:  1 eigenvalues not converged
     c_bands:  1 eigenvalues not converged
     c_bands:  1 eigenvalues not converged
     c_bands:  1 eigenvalues not converged
     c_bands:  1 eigenvalues not converged
     c_bands:  1 eigenvalues not converged
     c_bands:  1 eigenvalues not converged
     c_bands:  1 eigenvalues not converged
     c_bands:  1 eigenvalues not converged
     c_bands:  1 eigenvalues not converged
     c_bands:  1 eigenvalues not converged
     c_bands:  1 eigenvalues not converged
     c_bands:  1 eigenvalues not converged
     c_bands:  1 eigenvalues not converged
     c_bands:  1 eigenvalues not converged
     c_bands:  1 eigenvalues not converged
     ethr =  1.00E-02,  avg # of iterations = 11.4

     total cpu time spent up to now is      812.7 secs

     total energy              =    -260.53985167 Ry
     Harris-Foulkes estimate   =    -483.82236193 Ry
     estimated scf accuracy    <     458.12047100 Ry

     iteration #  3     ecut=    40.00 Ry     beta=0.70
     CG style diagonalization
     c_bands:  1 eigenvalues not converged
     c_bands:  1 eigenvalues not converged
     ethr =  1.00E-02,  avg # of iterations = 10.0

     total cpu time spent up to now is      856.8 secs

     total energy              =    -337.76280888 Ry
     Harris-Foulkes estimate   =    -346.54950855 Ry
     estimated scf accuracy    <      14.77019056 Ry

     iteration #  4     ecut=    40.00 Ry     beta=0.70
     CG style diagonalization
     ethr =  1.00E-02,  avg # of iterations =  4.3

     negative rho (up, down):  0.926E-03 0.000E+00

     total cpu time spent up to now is      876.7 secs

     total energy              =    -339.47361777 Ry
     Harris-Foulkes estimate   =    -340.03586966 Ry
     estimated scf accuracy    <       1.05655883 Ry

     iteration #  5     ecut=    40.00 Ry     beta=0.70
     CG style diagonalization
     ethr =  3.20E-03,  avg # of iterations =  4.3

     total cpu time spent up to now is      894.6 secs

     total energy              =    -339.42136994 Ry
     Harris-Foulkes estimate   =    -340.38869845 Ry
     estimated scf accuracy    <       1.82556467 Ry

     iteration #  6     ecut=    40.00 Ry     beta=0.70
     CG style diagonalization
     ethr =  3.20E-03,  avg # of iterations =  3.5

     negative rho (up, down):  0.736E-05 0.000E+00

     total cpu time spent up to now is      909.8 secs

     total energy              =    -339.67067447 Ry
     Harris-Foulkes estimate   =    -339.67788105 Ry
     estimated scf accuracy    <       0.02612629 Ry

     iteration #  7     ecut=    40.00 Ry     beta=0.70
     CG style diagonalization
     c_bands:  1 eigenvalues not converged
     c_bands:  2 eigenvalues not converged
     c_bands:  1 eigenvalues not converged
     c_bands:  1 eigenvalues not converged
     c_bands:  1 eigenvalues not converged
     c_bands:  1 eigenvalues not converged
     c_bands:  1 eigenvalues not converged
     c_bands:  1 eigenvalues not converged
     c_bands:  1 eigenvalues not converged
     c_bands:  1 eigenvalues not converged
     c_bands:  1 eigenvalues not converged
     c_bands:  1 eigenvalues not converged
     c_bands:  1 eigenvalues not converged
     c_bands:  1 eigenvalues not converged
     c_bands:  1 eigenvalues not converged
     c_bands:  1 eigenvalues not converged
     c_bands:  1 eigenvalues not converged
     c_bands:  1 eigenvalues not converged
     c_bands:  1 eigenvalues not converged
     c_bands:  1 eigenvalues not converged
     c_bands:  1 eigenvalues not converged
     c_bands:  1 eigenvalues not converged
     c_bands:  1 eigenvalues not converged
     c_bands:  1 eigenvalues not converged
     c_bands:  1 eigenvalues not converged
     ethr =  7.92E-05,  avg # of iterations =  4.6

     total cpu time spent up to now is      931.1 secs

     total energy              =    -339.67508220 Ry
     Harris-Foulkes estimate   =    -339.67989456 Ry
     estimated scf accuracy    <       0.00814804 Ry

     iteration #  8     ecut=    40.00 Ry     beta=0.70
     CG style diagonalization
     c_bands:  1 eigenvalues not converged
     c_bands:  1 eigenvalues not converged
     c_bands:  1 eigenvalues not converged
     c_bands:  1 eigenvalues not converged
     c_bands:  1 eigenvalues not converged
     ethr =  2.47E-05,  avg # of iterations =  3.7

     total cpu time spent up to now is      948.3 secs

     total energy              =    -339.67630725 Ry
     Harris-Foulkes estimate   =    -339.67686819 Ry
     estimated scf accuracy    <       0.00120950 Ry

     iteration #  9     ecut=    40.00 Ry     beta=0.70
     CG style diagonalization
     c_bands:  1 eigenvalues not converged
     c_bands:  1 eigenvalues not converged
     c_bands:  1 eigenvalues not converged
     c_bands:  1 eigenvalues not converged
     c_bands:  1 eigenvalues not converged
     c_bands:  1 eigenvalues not converged
     c_bands:  1 eigenvalues not converged
     c_bands:  1 eigenvalues not converged
     c_bands:  1 eigenvalues not converged
     c_bands:  1 eigenvalues not converged
     c_bands:  1 eigenvalues not converged
     c_bands:  1 eigenvalues not converged
     c_bands:  1 eigenvalues not converged
     c_bands:  1 eigenvalues not converged
     c_bands:  1 eigenvalues not converged
     c_bands:  1 eigenvalues not converged
     c_bands:  1 eigenvalues not converged
     c_bands:  1 eigenvalues not converged
     c_bands:  1 eigenvalues not converged
     ethr =  3.67E-06,  avg # of iterations =  3.5

     total cpu time spent up to now is      965.0 secs

     total energy              =    -339.67644029 Ry
     Harris-Foulkes estimate   =    -339.67647453 Ry
     estimated scf accuracy    <       0.00009831 Ry

     iteration # 10     ecut=    40.00 Ry     beta=0.70
     CG style diagonalization
     c_bands:  1 eigenvalues not converged
     c_bands:  1 eigenvalues not converged
     c_bands:  1 eigenvalues not converged
     c_bands:  1 eigenvalues not converged
     ethr =  2.98E-07,  avg # of iterations =  4.0

     total cpu time spent up to now is      983.9 secs

     total energy              =    -339.67647614 Ry
     Harris-Foulkes estimate   =    -339.67647621 Ry
     estimated scf accuracy    <       0.00000359 Ry

     iteration # 11     ecut=    40.00 Ry     beta=0.70
     CG style diagonalization
     ethr =  1.09E-08,  avg # of iterations =  4.3

     total cpu time spent up to now is     1001.8 secs

     total energy              =    -339.67647657 Ry
     Harris-Foulkes estimate   =    -339.67647820 Ry
     estimated scf accuracy    <       0.00000269 Ry

     iteration # 12     ecut=    40.00 Ry     beta=0.70
     CG style diagonalization
     ethr =  8.15E-09,  avg # of iterations =  3.7

     total cpu time spent up to now is     1017.6 secs

     End of self-consistent calculation

     Number of k-points >= 100: set verbosity='high' to print the bands.

     the Fermi energy is    20.5458 ev

!    total energy              =    -339.67647718 Ry
     Harris-Foulkes estimate   =    -339.67647719 Ry
     estimated scf accuracy    <          4.8E-09 Ry

     The total energy is the sum of the following terms:

     one-electron contribution =     -65.17609323 Ry
     hartree contribution      =      52.98345822 Ry
     xc contribution           =     -34.98017736 Ry
     ewald contribution        =    -292.33923736 Ry
     smearing contrib. (-TS)   =      -0.16442746 Ry

     convergence has been achieved in  12 iterations

     Forces acting on atoms (Ry/au):

     atom    1 type  1   force =     0.00000000    0.00000000    0.00000000
     atom    2 type  2   force =     0.00000000    0.00000000    0.00000000

     Total force =     0.000000     Total SCF correction =     0.000000


     entering subroutine stress ...

          total   stress  (Ry/bohr**3)                   (kbar)     P=  -72.48
  -0.00049260   0.00000000   0.00000000        -72.46      0.00      0.00
   0.00000000  -0.00049260   0.00000000          0.00    -72.46      0.00
   0.00000000   0.00000000  -0.00049299          0.00      0.00    -72.52


     Writing output data file Prototype-La-cF8-NaCl.save
 
     init_run     :      8.30s CPU      9.70s WALL (       2 calls)
     electrons    :    817.20s CPU    991.40s WALL (       5 calls)
     update_pot   :      0.62s CPU      0.66s WALL (       3 calls)
     forces       :      2.45s CPU      2.58s WALL (       5 calls)
     stress       :      7.92s CPU      8.14s WALL (       5 calls)

     Called by init_run:
     wfcinit      :      7.93s CPU      9.30s WALL (       2 calls)
     potinit      :      0.14s CPU      0.14s WALL (       2 calls)

     Called by electrons:
     c_bands      :    774.09s CPU    929.57s WALL (      38 calls)
     sum_band     :     42.93s CPU     57.70s WALL (      38 calls)
     v_of_rho     :      0.03s CPU      0.03s WALL (      43 calls)
     mix_rho      :      0.02s CPU      0.02s WALL (      38 calls)

     Called by c_bands:
     init_us_2    :      6.07s CPU      6.81s WALL (   43648 calls)
     ccgdiagg     :    594.31s CPU    704.37s WALL (   19827 calls)
     wfcrot       :    182.62s CPU    221.80s WALL (   20323 calls)

     Called by *cgdiagg:
     h_psi        :    589.77s CPU    716.00s WALL ( 1966366 calls)
     cdiaghg      :      9.07s CPU      9.52s WALL (   20323 calls)

     Called by h_psi:
     add_vuspsi   :     17.95s CPU     27.13s WALL ( 1966366 calls)

     General routines
     calbec       :     90.75s CPU    101.17s WALL ( 3917369 calls)
     fft          :      0.05s CPU      0.07s WALL (     195 calls)
     fftw         :    505.94s CPU    612.34s WALL ( 5141460 calls)
     davcio       :      3.04s CPU     10.63s WALL (   62496 calls)
 
     Parallel routines
     fft_scatter  :    281.53s CPU    320.90s WALL ( 5141655 calls)
 
     PWSCF        : 13m59.24s CPU    17m 0.58s WALL

 
   This run was terminated on:  17:51:59  22Mar2018            

=------------------------------------------------------------------------------=
   JOB DONE.
=------------------------------------------------------------------------------=
