
     Program PWSCF v.5.0.2 starts on 22Mar2018 at 17:36:35 

     This program is part of the open-source Quantum ESPRESSO suite
     for quantum simulation of materials; please cite
         "P. Giannozzi et al., J. Phys.:Condens. Matter 21 395502 (2009);
          URL http://www.quantum-espresso.org", 
     in publications or presentations arising from this work. More details at
     http://www.quantum-espresso.org/quote.php

     Parallel version (MPI), running on     4 processors
     R & G space division:  proc/nbgrp/npool/nimage =       4

     Current dimensions of program PWSCF are:
     Max number of different atomic species (ntypx) = 10
     Max number of k-points (npk) =  40000
     Max angular momentum in pseudopotentials (lmaxx) =  3
     Waiting for input...
     Reading input from standard input

     Subspace diagonalization in iterative solution of the eigenvalue problem:
     a serial algorithm will be used

 
     Parallelization info
     --------------------
     sticks:   dense  smooth     PW     G-vecs:    dense   smooth      PW
     Min         267     267     77                11587    11587    1762
     Max         268     268     79                11596    11596    1765
     Sum        1069    1069    313                46361    46361    7055
 


     bravais-lattice index     =            0
     lattice parameter (alat)  =       9.9235  a.u.
     unit-cell volume          =    1361.0366 (a.u.)^3
     number of atoms/cell      =           12
     number of atomic types    =            2
     number of electrons       =       188.00
     number of Kohn-Sham states=          113
     kinetic-energy cutoff     =      40.0000  Ry
     charge density cutoff     =     160.0000  Ry
     convergence threshold     =      1.0E-04
     mixing beta               =       0.7000
     number of iterations used =            8  plain     mixing
     Exchange-correlation      = SLA-PZ-NOGX-NOGC ( 1 1 0 0 0)
     EXX-fraction              =        0.00
     nstep                     =           50


     celldm(1)=   9.923489  celldm(2)=   0.000000  celldm(3)=   0.000000
     celldm(4)=   0.000000  celldm(5)=   0.000000  celldm(6)=   0.000000

     crystal axes: (cart. coord. in units of alat)
               a(1) = (   1.000000   0.000000   0.000000 )  
               a(2) = (  -0.500000   0.866025   0.000000 )  
               a(3) = (   0.000000   0.000000   1.608222 )  

     reciprocal axes: (cart. coord. in units 2 pi/alat)
               b(1) = (  1.000000  0.577350  0.000000 )  
               b(2) = (  0.000000  1.154701  0.000000 )  
               b(3) = (  0.000000  0.000000  0.621805 )  


     PseudoPot. # 1 for Tb read from file:
     /home/cwx6513/pp.La/Tb.UPF
     MD5 check sum: 3d6088a3f0cf7fd2e110c43f7f8e95c2
     Pseudo is Norm-conserving, Zval = 19.0
     Generated in analytical, separable form
     Using radial grid of 1263 points,  6 beta functions with: 
                l(1) =   0
                l(2) =   0
                l(3) =   1
                l(4) =   1
                l(5) =   2
                l(6) =   3

     PseudoPot. # 2 for Nd read from file:
     /home/cwx6513/pp.La/Nd.UPF
     MD5 check sum: c66c5b6abe7b5840ced9b1e244e3bed6
     Pseudo is Norm-conserving, Zval = 14.0
     Generated in analytical, separable form
     Using radial grid of 1257 points,  6 beta functions with: 
                l(1) =   0
                l(2) =   0
                l(3) =   1
                l(4) =   1
                l(5) =   2
                l(6) =   3

     atomic species   valence    mass     pseudopotential
        Mg            19.00    24.30500     Tb( 1.00)
        Zn            14.00    65.39000     Nd( 1.00)

     24 Sym. Ops., with inversion, found (12 have fractional translation)



   Cartesian axes

     site n.     atom                  positions (alat units)
         1           Mg  tau(   1) = (  -0.0000005   0.5773506   0.1003820  )
         2           Mg  tau(   2) = (   0.5000005   0.2886748   0.9044931  )
         3           Mg  tau(   3) = (   0.5000005   0.2886748   1.5078402  )
         4           Mg  tau(   4) = (  -0.0000005   0.5773506   0.7037291  )
         5           Zn  tau(   5) = (   0.0000000   0.0000000   0.0000000  )
         6           Zn  tau(   6) = (   0.0000000   0.0000000   0.8041111  )
         7           Zn  tau(   7) = (   0.0000000   0.2950739   1.2061667  )
         8           Zn  tau(   8) = (   0.7444585   0.1475370   0.4020556  )
         9           Zn  tau(   9) = (   0.2555415   0.1475370   0.4020556  )
        10           Zn  tau(  10) = (   0.2444585   0.7184884   1.2061667  )
        11           Zn  tau(  11) = (  -0.2444585   0.7184884   1.2061667  )
        12           Zn  tau(  12) = (   0.5000000   0.5709515   0.4020556  )

     number of k points=    12  gaussian smearing, width (Ry)=  0.1000
                       cart. coord. in units 2pi/alat
        k(    1) = (   0.0000000   0.0000000   0.0000000), wk =   0.0833333
        k(    2) = (   0.0000000   0.0000000   0.1554512), wk =   0.1666667
        k(    3) = (   0.0000000   0.0000000  -0.3109023), wk =   0.0833333
        k(    4) = (   0.0000000   0.3849002   0.0000000), wk =   0.1666667
        k(    5) = (   0.0000000   0.3849002   0.1554512), wk =   0.3333333
        k(    6) = (   0.0000000   0.3849002  -0.3109023), wk =   0.1666667
        k(    7) = (  -0.5000000  -0.2886751   0.0000000), wk =   0.0833333
        k(    8) = (  -0.5000000  -0.2886751   0.1554512), wk =   0.1666667
        k(    9) = (  -0.5000000  -0.2886751  -0.3109023), wk =   0.0833333
        k(   10) = (  -0.5000000   0.0962250   0.0000000), wk =   0.1666667
        k(   11) = (  -0.5000000   0.0962250   0.1554512), wk =   0.3333333
        k(   12) = (  -0.5000000   0.0962250  -0.3109023), wk =   0.1666667

     Dense  grid:    46361 G-vectors     FFT dimensions: (  40,  40,  72)

     Largest allocated arrays     est. size (Mb)     dimensions
        Kohn-Sham Wavefunctions         2.55 Mb     (   1478,  113)
        NL pseudopotentials             5.41 Mb     (   1478,  240)
        Each V/rho on FFT grid          0.44 Mb     (  28800)
        Each G-vector array             0.09 Mb     (  11589)
        G-vector shells                 0.09 Mb     (  11589)
     Largest temporary arrays     est. size (Mb)     dimensions
        Each subspace H/S matrix        0.19 Mb     ( 113, 113)
        Each <psi_i|beta_j> matrix      0.41 Mb     (    240,  113)
        Arrays for rho mixing           3.52 Mb     (  28800,   8)

     Initial potential from superposition of free atoms

     Starting from uniform charge
     Starting wfc are    0 randomized atomic wfcs

     total cpu time spent up to now is        4.1 secs

     Self-consistent Calculation

     iteration #  1     ecut=    40.00 Ry     beta=0.70
     CG style diagonalization
     c_bands:  3 eigenvalues not converged
     c_bands:  4 eigenvalues not converged
     c_bands:  2 eigenvalues not converged
     c_bands:  1 eigenvalues not converged
     c_bands:  1 eigenvalues not converged
     c_bands:  1 eigenvalues not converged
     ethr =  1.00E-02,  avg # of iterations = 11.7

     total cpu time spent up to now is       66.7 secs

     total energy              =   -1154.63564198 Ry
     Harris-Foulkes estimate   =   -2127.21762604 Ry
     estimated scf accuracy    <    1198.55454555 Ry

     iteration #  2     ecut=    40.00 Ry     beta=0.70
     CG style diagonalization
     ethr =  1.00E-02,  avg # of iterations = 12.5

     total cpu time spent up to now is      171.1 secs

     total energy              =   -1576.31984717 Ry
     Harris-Foulkes estimate   =   -2459.16740119 Ry
     estimated scf accuracy    <    1744.28870716 Ry

     iteration #  3     ecut=    40.00 Ry     beta=0.70
     CG style diagonalization
     ethr =  1.00E-02,  avg # of iterations =  9.0

     total cpu time spent up to now is      216.3 secs

     total energy              =   -1778.34821592 Ry
     Harris-Foulkes estimate   =   -1833.98713880 Ry
     estimated scf accuracy    <      96.74121189 Ry

     iteration #  4     ecut=    40.00 Ry     beta=0.70
     CG style diagonalization
     c_bands:  1 eigenvalues not converged
     ethr =  1.00E-02,  avg # of iterations =  5.2

     total cpu time spent up to now is      244.0 secs

     total energy              =   -1793.57720764 Ry
     Harris-Foulkes estimate   =   -1808.11717117 Ry
     estimated scf accuracy    <      41.80447840 Ry

     iteration #  5     ecut=    40.00 Ry     beta=0.70
     CG style diagonalization
     ethr =  1.00E-02,  avg # of iterations =  3.1

     total cpu time spent up to now is      259.5 secs

     total energy              =   -1798.50690970 Ry
     Harris-Foulkes estimate   =   -1800.26584564 Ry
     estimated scf accuracy    <       4.43432961 Ry

     iteration #  6     ecut=    40.00 Ry     beta=0.70
     CG style diagonalization
     ethr =  2.36E-03,  avg # of iterations =  3.3

     total cpu time spent up to now is      275.0 secs

     total energy              =   -1799.09184267 Ry
     Harris-Foulkes estimate   =   -1799.38144852 Ry
     estimated scf accuracy    <       0.51546879 Ry

     iteration #  7     ecut=    40.00 Ry     beta=0.70
     CG style diagonalization
     c_bands:  1 eigenvalues not converged
     c_bands:  1 eigenvalues not converged
     c_bands:  1 eigenvalues not converged
     ethr =  2.74E-04,  avg # of iterations =  4.4

     total cpu time spent up to now is      296.5 secs

     total energy              =   -1799.24331042 Ry
     Harris-Foulkes estimate   =   -1799.34963642 Ry
     estimated scf accuracy    <       0.26649550 Ry

     iteration #  8     ecut=    40.00 Ry     beta=0.70
     CG style diagonalization
     ethr =  1.42E-04,  avg # of iterations =  3.4

     total cpu time spent up to now is      314.4 secs

     total energy              =   -1799.26753668 Ry
     Harris-Foulkes estimate   =   -1799.28477664 Ry
     estimated scf accuracy    <       0.04023632 Ry

     iteration #  9     ecut=    40.00 Ry     beta=0.70
     CG style diagonalization
     c_bands:  2 eigenvalues not converged
     c_bands:  1 eigenvalues not converged
     ethr =  2.14E-05,  avg # of iterations =  4.0

     total cpu time spent up to now is      333.5 secs

     total energy              =   -1799.27679555 Ry
     Harris-Foulkes estimate   =   -1799.27729537 Ry
     estimated scf accuracy    <       0.00104922 Ry

     iteration # 10     ecut=    40.00 Ry     beta=0.70
     CG style diagonalization
     c_bands:  1 eigenvalues not converged
     c_bands:  1 eigenvalues not converged
     c_bands:  1 eigenvalues not converged
     c_bands:  1 eigenvalues not converged
     ethr =  5.58E-07,  avg # of iterations =  5.0

     total cpu time spent up to now is      360.9 secs

     total energy              =   -1799.27751739 Ry
     Harris-Foulkes estimate   =   -1799.27794134 Ry
     estimated scf accuracy    <       0.00085651 Ry

     iteration # 11     ecut=    40.00 Ry     beta=0.70
     CG style diagonalization
     ethr =  4.56E-07,  avg # of iterations =  3.6

     total cpu time spent up to now is      378.8 secs

     End of self-consistent calculation

          k = 0.0000 0.0000 0.0000 (  5769 PWs)   bands (ev):

   -46.6273 -46.6232 -46.6214 -46.6111 -20.2874 -19.9534 -19.1264 -18.7128
   -18.7128 -18.7068 -18.7068 -18.7054 -15.0593 -15.0541 -15.0540 -15.0525
   -15.0221 -15.0221 -14.9476 -14.9229 -14.9125 -14.9125 -14.9121 -14.9121
    -2.1202  -1.3157  -0.4474   0.6661   0.6662   0.8914   0.8914   1.0594
     1.0595   1.7479   2.5595   2.5595   2.5871   2.5872   2.8946   4.1408
     4.1428   4.1538   4.1860   4.1861   4.5898   4.5898   4.7440   4.7441
    19.6941  20.4620  20.8859  21.0936  21.0937  21.5055  21.6476  21.6476
    21.7369  21.7369  21.9450  22.0750  22.1042  22.1043  22.1818  22.2585
    22.3569  22.3569  22.6235  22.6235  22.8944  22.8944  22.9609  22.9609
    23.3350  23.3350  23.9455  24.2732  24.2732  24.3186  24.3186  24.8473
    25.5372  25.6319  25.6319  26.6621  27.0374  27.0374  27.2865  27.2865
    27.6896  27.6896  28.8373  29.8307  30.0522  30.0523  30.1034  30.2655
    31.1264  31.2050  31.6218  31.6218  31.6238  31.6239  31.8560  31.8560
    32.2969  32.2970  33.8357  34.2546  34.2546  34.5771  34.6020  34.6024
    35.1727

          k = 0.0000 0.0000 0.1555 (  5780 PWs)   bands (ev):

   -46.6308 -46.6235 -46.6161 -46.6158 -20.2499 -20.0201 -19.0472 -18.7559
   -18.7119 -18.7119 -18.7077 -18.7077 -15.0628 -15.0453 -15.0436 -15.0436
   -15.0355 -15.0355 -14.9572 -14.9250 -14.9149 -14.9149 -14.9145 -14.9145
    -2.0544  -1.5486  -0.0795   0.6805   0.6805   0.8071   0.8071   1.2331
     1.2331   1.3350   2.0349   2.0350   3.1295   3.1295   3.2235   4.0229
     4.0230   4.0371   4.1391   4.1412   4.6376   4.6376   4.7320   4.7320
    19.7730  20.0672  21.1768  21.1768  21.1777  21.2967  21.5295  21.5295
    21.6958  21.6958  21.8020  21.9453  21.9454  22.1807  22.4667  22.4667
    22.6615  22.6615  22.7011  22.8227  22.9258  22.9259  23.1521  23.1521
    23.2648  23.2648  23.6858  24.1947  24.1947  24.4627  24.5104  24.5104
    25.3923  25.8557  25.8557  25.8959  26.2238  26.2238  26.8201  26.8201
    28.7468  28.7468  29.5030  29.9520  30.1269  30.1270  30.2185  30.3751
    31.0314  31.5706  31.6028  31.6029  31.7176  31.7177  31.9167  31.9167
    32.2586  32.2586  33.0631  33.5863  33.5864  34.5603  34.5605  34.7277
    35.2599

          k = 0.0000 0.0000-0.3109 (  5780 PWs)   bands (ev):

   -46.6283 -46.6283 -46.6143 -46.6143 -20.1480 -20.1480 -18.8888 -18.8888
   -18.7098 -18.7098 -18.7098 -18.7098 -15.0595 -15.0595 -15.0375 -15.0375
   -15.0375 -15.0375 -14.9502 -14.9502 -14.9084 -14.9084 -14.9084 -14.9084
    -1.8571  -1.8571   0.6063   0.6063   0.7275   0.7275   0.7275   0.7275
     1.5778   1.5779   1.5779   1.5779   3.6383   3.6383   3.6383   3.6384
     3.7013   3.7013   4.1424   4.1425   4.6964   4.6965   4.6965   4.6965
    19.8945  19.8945  20.9533  20.9534  21.3555  21.3555  21.3555  21.3555
    21.7213  21.7213  21.7214  21.7214  22.7112  22.7112  22.7112  22.7112
    22.8425  22.8425  22.8821  22.8821  22.8821  22.8821  22.9230  22.9231
    23.3826  23.3826  23.8202  23.8202  23.8202  23.8202  25.1720  25.1720
    25.1721  25.1721  25.3954  25.3954  26.3569  26.3569  26.3569  26.3569
    29.6342  29.6342  29.7230  29.7230  29.7230  29.7230  30.6768  30.6768
    31.7630  31.7631  31.7631  31.7631  31.8122  31.8122  32.0778  32.0778
    32.0778  32.0779  32.7904  32.7904  33.6647  33.6647  33.6648  33.6648
    35.4246

          k = 0.0000 0.3849 0.0000 (  5787 PWs)   bands (ev):

   -46.6282 -46.6215 -46.6212 -46.6176 -20.0813 -19.7251 -19.2138 -19.1297
   -18.9927 -18.7204 -18.7106 -18.4645 -15.0692 -15.0570 -15.0482 -15.0373
   -15.0342 -15.0141 -14.9650 -14.9328 -14.9226 -14.9168 -14.9095 -14.8954
    -1.3069  -0.5550  -0.3459   0.7662   0.8668   1.0600   1.0725   1.2960
     1.5857   2.0316   2.2003   2.2826   2.4668   2.5545   2.5858   3.2521
     3.2731   3.4698   3.9307   4.0060   4.1923   4.4713   4.4798   4.6130
    20.5656  20.6815  21.0332  21.0723  21.1993  21.3044  21.3918  21.4963
    21.7464  21.8385  21.8735  21.9151  22.0980  22.1244  22.3330  22.4289
    22.5228  22.5652  22.8515  23.0680  23.1978  23.2140  23.3235  23.3987
    24.0257  24.3625  24.5771  24.8546  25.2016  25.4592  25.4613  25.7515
    26.1705  26.2009  26.4765  26.7382  26.7752  26.7945  26.8233  27.2392
    27.3415  27.6055  27.7894  28.6274  28.9501  29.1695  29.4229  29.5193
    29.6447  30.2514  30.3262  31.0606  31.2524  31.4244  31.5741  31.7603
    32.0840  32.5054  32.5898  32.9088  32.9699  33.0121  33.6225  34.0910
    34.8067

          k = 0.0000 0.3849 0.1555 (  5804 PWs)   bands (ev):

   -46.6285 -46.6242 -46.6231 -46.6190 -20.0412 -19.7954 -19.2115 -19.1740
   -18.8653 -18.7190 -18.7120 -18.5199 -15.0740 -15.0689 -15.0522 -15.0405
   -15.0335 -15.0189 -14.9628 -14.9480 -14.9219 -14.9138 -14.9126 -14.8977
    -1.2597  -0.8512   0.0465   0.6911   0.9162   1.1203   1.1785   1.2802
     1.6153   1.6192   1.8412   2.0745   2.6304   2.7946   2.9466   3.2609
     3.3208   3.5208   3.8317   4.0374   4.0757   4.4128   4.5232   4.6055
    20.5574  20.7864  21.0177  21.0434  21.0985  21.3642  21.3733  21.4922
    21.6522  21.7254  21.8146  21.9748  22.1944  22.3523  22.4469  22.4871
    22.4967  22.6613  22.7975  22.9285  23.1595  23.2790  23.3794  23.5507
    23.9092  24.3946  24.7823  24.9021  24.9806  25.3144  25.5375  25.5539
    25.8417  25.8875  26.3104  26.5166  26.5338  26.7700  26.8914  27.0585
    27.8168  27.9786  28.3102  28.3157  29.3260  29.4069  29.5929  29.6751
    29.8239  30.1572  30.3646  31.0676  31.1365  31.3211  31.3532  31.6434
    31.9011  32.0641  32.2120  32.8458  32.8901  33.1944  33.8734  34.4130
    34.5377

          k = 0.0000 0.3849-0.3109 (  5816 PWs)   bands (ev):

   -46.6283 -46.6283 -46.6216 -46.6216 -19.9319 -19.9319 -19.2019 -19.2019
   -18.7155 -18.7155 -18.6699 -18.6699 -15.0740 -15.0740 -15.0451 -15.0451
   -15.0331 -15.0331 -14.9588 -14.9588 -14.9176 -14.9176 -14.9092 -14.9092
    -1.1116  -1.1116   0.4829   0.4829   1.1230   1.1230   1.2192   1.2192
     1.4614   1.4614   1.7624   1.7624   2.8393   2.8393   3.1941   3.1941
     3.5756   3.5756   3.7382   3.7382   4.2469   4.2469   4.5787   4.5787
    20.7062  20.7062  20.9198  20.9198  21.3251  21.3251  21.4481  21.4481
    21.6471  21.6472  21.8220  21.8220  22.2713  22.2713  22.5657  22.5657
    22.6914  22.6914  22.8287  22.8287  23.2843  23.2843  23.5189  23.5189
    24.3551  24.3551  24.4648  24.4648  25.2027  25.2027  25.2751  25.2751
    25.9197  25.9197  26.1193  26.1193  26.7246  26.7246  26.8407  26.8407
    28.1480  28.1480  28.7915  28.7915  29.0717  29.0717  29.8282  29.8282
    30.0642  30.0642  31.0032  31.0032  31.2395  31.2395  31.3397  31.3397
    31.6381  31.6381  32.1342  32.1343  33.0811  33.0814  34.1676  34.1704
    34.2718

          k =-0.5000-0.2887 0.0000 (  5800 PWs)   bands (ev):

   -46.6258 -46.6254 -46.6238 -46.6178 -19.9722 -19.5920 -19.3689 -19.1431
   -19.1308 -18.7228 -18.7119 -18.4377 -15.0730 -15.0631 -15.0516 -15.0407
   -15.0260 -14.9913 -14.9859 -14.9527 -14.9242 -14.9139 -14.9062 -14.8987
    -0.9466  -0.3072  -0.2110   0.7430   0.8270   1.0770   1.5696   1.7407
     1.7637   1.9528   2.1569   2.1618   2.2330   2.3713   2.5499   2.6017
     2.7612   3.1962   3.8294   3.8875   4.1932   4.4608   4.5675   4.5975
    20.2582  20.9071  21.0633  21.1758  21.3728  21.3868  21.5708  21.6596
    21.7226  21.7960  21.8035  21.8686  22.0916  22.1298  22.2480  22.3956
    22.4324  22.5674  22.8304  22.9952  23.2975  23.6745  23.7280  23.7969
    24.2640  24.4518  24.5578  25.0260  25.2839  25.3405  25.8330  26.1216
    26.2379  26.5505  26.6126  26.7807  26.8424  26.9583  27.5430  27.6622
    27.9237  27.9578  28.2836  28.4405  28.6722  29.0901  29.1345  29.1977
    29.4410  29.7680  29.7878  30.0281  30.3772  30.8088  30.9505  31.0458
    31.6540  31.8760  32.0779  32.0882  32.2263  32.7976  32.9983  34.2821
    34.6823

          k =-0.5000-0.2887 0.1555 (  5822 PWs)   bands (ev):

   -46.6281 -46.6271 -46.6233 -46.6230 -19.9286 -19.6611 -19.3652 -19.2941
   -18.8981 -18.7213 -18.7136 -18.4979 -15.0776 -15.0753 -15.0572 -15.0487
   -15.0212 -15.0091 -14.9811 -14.9602 -14.9259 -14.9204 -14.9107 -14.8971
    -0.9088  -0.5764   0.1300   0.6822   0.9150   1.1500   1.5883   1.6058
     1.6473   1.7306   2.1642   2.1717   2.2043   2.3115   2.5740   2.5992
     3.0295   3.3648   3.7228   4.0213   4.0379   4.4895   4.5118   4.5893
    20.3349  20.9281  21.0511  21.1873  21.3467  21.3579  21.3662  21.5190
    21.7382  21.7409  21.9861  21.9939  22.1554  22.2420  22.3800  22.4512
    22.5234  22.7156  22.7936  22.8292  23.2275  23.4269  23.6260  23.9554
    24.1104  24.6741  24.7124  24.9397  25.0406  25.4523  25.6827  25.7809
    26.0067  26.3208  26.4881  26.6630  26.8849  27.4482  27.5847  27.8176
    28.1394  28.2337  28.2678  28.6495  28.6878  28.8325  29.0651  29.4086
    29.6579  29.8963  30.0077  30.1317  30.3380  30.3967  30.8083  30.8956
    31.3672  31.6161  31.8957  32.0119  32.1531  32.5537  34.0668  34.1240
    34.6757

          k =-0.5000-0.2887-0.3109 (  5804 PWs)   bands (ev):

   -46.6263 -46.6263 -46.6211 -46.6211 -19.8088 -19.8088 -19.3492 -19.3492
   -18.7174 -18.7174 -18.6645 -18.6645 -15.0756 -15.0756 -15.0507 -15.0506
   -15.0051 -15.0051 -14.9584 -14.9584 -14.9192 -14.9192 -14.9102 -14.9102
    -0.7890  -0.7890   0.4796   0.4796   1.2042   1.2042   1.3505   1.3505
     1.6493   1.6493   2.1779   2.1779   2.2243   2.2243   2.5944   2.5944
     3.4306   3.4306   3.7146   3.7146   4.2829   4.2829   4.5644   4.5644
    20.5780  20.5780  21.2299  21.2299  21.3137  21.3137  21.4067  21.4067
    21.7229  21.7229  22.0094  22.0094  22.3251  22.3251  22.4684  22.4684
    22.5742  22.5742  22.8006  22.8006  23.3478  23.3478  23.7698  23.7698
    24.4578  24.4578  24.6396  24.6396  25.0691  25.0691  25.5973  25.5973
    26.3775  26.3775  26.5074  26.5074  26.9740  26.9740  27.9593  27.9593
    28.0775  28.0775  28.7045  28.7045  28.8211  28.8211  29.3136  29.3136
    30.0196  30.0196  30.2608  30.2608  30.3579  30.3579  30.5529  30.5529
    31.1637  31.1637  31.7473  31.7473  32.2266  32.2266  34.3739  34.3745
    34.5101

          k =-0.5000 0.0962 0.0000 (  5827 PWs)   bands (ev):

   -46.6283 -46.6258 -46.6256 -46.6232 -19.9716 -19.5935 -19.3692 -19.1417
   -19.1309 -18.7209 -18.7144 -18.4373 -15.0799 -15.0699 -15.0559 -15.0506
   -15.0332 -14.9988 -14.9874 -14.9514 -14.9256 -14.9167 -14.9149 -14.9095
    -0.8752  -0.3065  -0.1483   0.6376   0.8549   1.0230   1.0451   1.6715
     1.8982   1.9444   2.0766   2.3119   2.3785   2.4618   2.4760   2.6628
     3.1689   3.3448   3.9190   3.9350   4.1408   4.2503   4.3055   4.5567
    20.4634  20.9227  21.0988  21.1167  21.2393  21.3005  21.3479  21.4622
    21.5714  21.8065  21.8604  21.9183  22.1132  22.1212  22.1352  22.1645
    22.8192  22.9986  23.1313  23.1847  23.4093  23.7126  23.9231  24.1595
    24.1966  24.5945  24.7197  24.9554  25.0464  25.3223  25.5217  25.7948
    26.2419  26.4124  26.5745  26.7404  26.8537  26.9395  27.0724  27.4356
    27.4408  27.6649  28.2934  28.5211  28.5230  28.7523  28.9293  29.0123
    29.5258  29.6810  30.1152  30.2557  30.3180  30.5974  30.7541  31.4005
    31.6746  32.2343  32.4659  32.9407  32.9512  33.2218  33.8076  33.9693
    34.6011

          k =-0.5000 0.0962 0.1555 (  5825 PWs)   bands (ev):

   -46.6291 -46.6256 -46.6241 -46.6235 -19.9280 -19.6618 -19.3656 -19.2943
   -18.8973 -18.7200 -18.7154 -18.4975 -15.0779 -15.0760 -15.0533 -15.0523
   -15.0270 -15.0061 -14.9742 -14.9594 -14.9271 -14.9173 -14.9121 -14.9060
    -0.8396  -0.5317   0.1337   0.5702   0.9515   1.0802   1.1348   1.5652
     1.7467   1.8200   1.9547   2.0236   2.3895   2.4196   2.8234   2.9191
     3.2300   3.3997   3.8157   3.9403   4.0816   4.3043   4.3081   4.4917
    20.5266  20.9274  21.0607  21.1765  21.2311  21.2669  21.3555  21.5054
    21.5354  21.6598  21.8256  21.8862  22.0283  22.1681  22.3795  22.6205
    22.6944  22.7806  23.0964  23.2552  23.3955  23.7449  23.8030  24.0076
    24.2438  24.6695  24.7205  25.0793  25.1535  25.2757  25.5378  25.7067
    25.8897  26.1991  26.3843  26.6077  26.6987  26.9237  27.2109  27.3667
    27.6562  27.8524  28.1768  28.5948  28.7440  28.8968  29.0875  29.3110
    29.6020  29.7651  30.0935  30.2718  30.3361  30.5390  30.8379  31.1834
    31.5952  31.9683  32.1346  32.5075  32.8754  33.1256  33.7968  34.0106
    34.7732

          k =-0.5000 0.0962-0.3109 (  5824 PWs)   bands (ev):

   -46.6279 -46.6279 -46.6231 -46.6231 -19.8087 -19.8087 -19.3498 -19.3498
   -18.7177 -18.7177 -18.6638 -18.6638 -15.0794 -15.0794 -15.0539 -15.0539
   -15.0136 -15.0136 -14.9623 -14.9623 -14.9232 -14.9232 -14.9111 -14.9111
    -0.7282  -0.7282   0.4160   0.4160   1.1704   1.1704   1.2933   1.2933
     1.5494   1.5494   1.9579   1.9579   2.4013   2.4013   3.0326   3.0326
     3.4388   3.4388   3.7245   3.7245   4.2456   4.2456   4.3632   4.3632
    20.7208  20.7208  21.1219  21.1220  21.2365  21.2365  21.4695  21.4695
    21.5480  21.5480  21.9610  21.9610  22.1456  22.1456  22.3733  22.3733
    22.8174  22.8174  23.1959  23.1959  23.4925  23.4925  23.9990  23.9990
    24.5381  24.5381  24.7187  24.7187  25.0768  25.0768  25.6925  25.6925
    26.0130  26.0130  26.2148  26.2148  27.0254  27.0254  27.3019  27.3019
    27.5512  27.5512  28.5549  28.5549  28.9625  28.9625  29.4925  29.4925
    29.7938  29.7938  30.0155  30.0155  30.2923  30.2923  31.2227  31.2227
    31.8217  31.8217  31.9337  31.9338  32.6018  32.6019  33.9204  33.9204
    35.0523

     the Fermi energy is    29.2743 ev

!    total energy              =   -1799.27771776 Ry
     Harris-Foulkes estimate   =   -1799.27773692 Ry
     estimated scf accuracy    <       0.00002143 Ry

     The total energy is the sum of the following terms:

     one-electron contribution =      -2.19512878 Ry
     hartree contribution      =     178.03246706 Ry
     xc contribution           =    -197.27608677 Ry
     ewald contribution        =   -1777.30740519 Ry
     smearing contrib. (-TS)   =      -0.53156408 Ry

     convergence has been achieved in  11 iterations

     Forces acting on atoms (Ry/au):

     atom    1 type  1   force =     0.00000000    0.00000000    0.02838158
     atom    2 type  1   force =     0.00000000    0.00000000    0.02838158
     atom    3 type  1   force =     0.00000000    0.00000000   -0.02838158
     atom    4 type  1   force =     0.00000000    0.00000000   -0.02838158
     atom    5 type  2   force =     0.00000000    0.00000000    0.00000000
     atom    6 type  2   force =     0.00000000    0.00000000    0.00000000
     atom    7 type  2   force =     0.00000000    0.04021603    0.00000000
     atom    8 type  2   force =    -0.03482810    0.02010801    0.00000000
     atom    9 type  2   force =     0.03482810    0.02010801    0.00000000
     atom   10 type  2   force =    -0.03482810   -0.02010801    0.00000000
     atom   11 type  2   force =     0.03482810   -0.02010801    0.00000000
     atom   12 type  2   force =     0.00000000   -0.04021603    0.00000000

     Total force =     0.113693     Total SCF correction =     0.000000


     entering subroutine stress ...

          total   stress  (Ry/bohr**3)                   (kbar)     P=  777.58
   0.00526640   0.00000000   0.00000000        774.71      0.00      0.00
   0.00000000   0.00526640   0.00000000          0.00    774.71      0.00
   0.00000000   0.00000000   0.00532490          0.00      0.00    783.32


     BFGS Geometry Optimization

     number of scf cycles    =   1
     number of bfgs steps    =   0

     enthalpy new            =   -1799.2777177579 Ry

     new trust radius        =       0.5000000000 bohr
     new conv_thr            =       0.0001000000 Ry

     new unit-cell volume =   1654.59219 a.u.^3 (   245.18526 Ang^3 )

CELL_PARAMETERS (alat=  9.92348860)
   1.067020461   0.000000000   0.000000000
  -0.533510231   0.924066826   0.000000000
   0.000000000   0.000000000   1.717203317

ATOMIC_POSITIONS (crystal)
Mg       0.333333000   0.666667000   0.063323273
Mg       0.666667000   0.333333000   0.563323273
Mg       0.666667000   0.333333000   0.936676727
Mg       0.333333000   0.666667000   0.436676727
Zn       0.000000000   0.000000000   0.000000000
Zn       0.000000000   0.000000000   0.500000000
Zn       0.171552043   0.343104087   0.750000000
Zn       0.828447957   0.171552043   0.250000000
Zn       0.343104087   0.171552043   0.250000000
Zn       0.656895913   0.828447957   0.750000000
Zn       0.171552043   0.828447957   0.750000000
Zn       0.828447957   0.656895913   0.250000000



     Writing output data file Prototype-La-hP12-MgZn2.save
     NEW-OLD atomic charge density approx. for the potential
     NEW k-points:
        k(    1) = (   0.0000000   0.0000000   0.0000000), wk =   0.0833333
        k(    2) = (   0.0000000   0.0000000   0.1455856), wk =   0.1666667
        k(    3) = (   0.0000000   0.0000000  -0.2911711), wk =   0.0833333
        k(    4) = (   0.0000000   0.3607243   0.0000000), wk =   0.1666667
        k(    5) = (   0.0000000   0.3607243   0.1455856), wk =   0.3333333
        k(    6) = (   0.0000000   0.3607243  -0.2911711), wk =   0.1666667
        k(    7) = (  -0.4685946  -0.2705432   0.0000000), wk =   0.0833333
        k(    8) = (  -0.4685946  -0.2705432   0.1455856), wk =   0.1666667
        k(    9) = (  -0.4685946  -0.2705432  -0.2911711), wk =   0.0833333
        k(   10) = (  -0.4685946   0.0901811   0.0000000), wk =   0.1666667
        k(   11) = (  -0.4685946   0.0901811   0.1455856), wk =   0.3333333
        k(   12) = (  -0.4685946   0.0901811  -0.2911711), wk =   0.1666667

     total cpu time spent up to now is      385.2 secs

     Self-consistent Calculation

     iteration #  1     ecut=    40.00 Ry     beta=0.70
     CG style diagonalization
     c_bands:  2 eigenvalues not converged
     c_bands:  1 eigenvalues not converged
     ethr =  1.00E-06,  avg # of iterations = 20.1

     total cpu time spent up to now is      487.5 secs

     total energy              =   -1793.00966010 Ry
     Harris-Foulkes estimate   =   -1807.23215593 Ry
     estimated scf accuracy    <      18.24185221 Ry

     iteration #  2     ecut=    40.00 Ry     beta=0.70
     CG style diagonalization
     ethr =  9.70E-03,  avg # of iterations =  3.8

     total cpu time spent up to now is      506.3 secs

     total energy              =   -1789.96859386 Ry
     Harris-Foulkes estimate   =   -1803.87947147 Ry
     estimated scf accuracy    <      28.81076494 Ry

     iteration #  3     ecut=    40.00 Ry     beta=0.70
     CG style diagonalization
     ethr =  9.70E-03,  avg # of iterations =  3.6

     total cpu time spent up to now is      522.6 secs

     total energy              =   -1798.65818834 Ry
     Harris-Foulkes estimate   =   -1802.00853969 Ry
     estimated scf accuracy    <       9.58311534 Ry

     iteration #  4     ecut=    40.00 Ry     beta=0.70
     CG style diagonalization
     ethr =  5.10E-03,  avg # of iterations =  3.3

     total cpu time spent up to now is      540.6 secs

     total energy              =   -1799.67094680 Ry
     Harris-Foulkes estimate   =   -1799.98681198 Ry
     estimated scf accuracy    <       1.30966166 Ry

     iteration #  5     ecut=    40.00 Ry     beta=0.70
     CG style diagonalization
     ethr =  6.97E-04,  avg # of iterations =  3.3

     total cpu time spent up to now is      557.3 secs

     total energy              =   -1799.66344621 Ry
     Harris-Foulkes estimate   =   -1799.79463300 Ry
     estimated scf accuracy    <       0.48049490 Ry

     iteration #  6     ecut=    40.00 Ry     beta=0.70
     CG style diagonalization
     ethr =  2.56E-04,  avg # of iterations =  3.5

     total cpu time spent up to now is      574.7 secs

     total energy              =   -1799.70562388 Ry
     Harris-Foulkes estimate   =   -1799.73102663 Ry
     estimated scf accuracy    <       0.07463585 Ry

     iteration #  7     ecut=    40.00 Ry     beta=0.70
     CG style diagonalization
     ethr =  3.97E-05,  avg # of iterations =  3.7

     total cpu time spent up to now is      593.2 secs

     total energy              =   -1799.71898353 Ry
     Harris-Foulkes estimate   =   -1799.72048061 Ry
     estimated scf accuracy    <       0.00389169 Ry

     iteration #  8     ecut=    40.00 Ry     beta=0.70
     CG style diagonalization
     c_bands:  1 eigenvalues not converged
     ethr =  2.07E-06,  avg # of iterations =  4.2

     total cpu time spent up to now is      614.7 secs

     total energy              =   -1799.72015078 Ry
     Harris-Foulkes estimate   =   -1799.72033169 Ry
     estimated scf accuracy    <       0.00037453 Ry

     iteration #  9     ecut=    40.00 Ry     beta=0.70
     CG style diagonalization
     c_bands:  1 eigenvalues not converged
     ethr =  1.99E-07,  avg # of iterations =  4.0

     total cpu time spent up to now is      633.5 secs

     total energy              =   -1799.72025477 Ry
     Harris-Foulkes estimate   =   -1799.72031234 Ry
     estimated scf accuracy    <       0.00014249 Ry

     iteration # 10     ecut=    40.00 Ry     beta=0.70
     CG style diagonalization
     ethr =  7.58E-08,  avg # of iterations =  3.5

     total cpu time spent up to now is      650.5 secs

     End of self-consistent calculation

          k = 0.0000 0.0000 0.0000 (  5769 PWs)   bands (ev):

   -51.7211 -51.7144 -51.7071 -51.6905 -25.4564 -25.2834 -24.8207 -24.6307
   -24.6307 -24.6291 -24.6291 -24.6242 -19.9307 -19.9152 -19.9152 -19.9124
   -19.8801 -19.8801 -19.8530 -19.8273 -19.8273 -19.8175 -19.8175 -19.8147
    -6.0444  -5.5353  -4.8552  -4.2143  -4.2143  -4.0810  -4.0810  -3.9242
    -3.9242  -3.5244  -2.9984  -2.9983  -2.9934  -2.9934  -2.8112  -2.0728
    -2.0676  -2.0382  -2.0381  -1.9911  -1.7393  -1.7393  -1.6367  -1.6367
    15.7023  16.2692  16.6172  16.6172  16.6433  16.7315  16.9193  16.9193
    17.1925  17.1926  17.2156  17.2270  17.3663  17.3663  17.4299  17.5553
    17.6522  17.6522  17.8984  17.8984  17.9469  17.9470  18.1128  18.1129
    18.3805  18.3805  18.4830  19.2417  19.2417  19.3349  19.3349  19.7014
    19.9718  20.3039  20.3040  20.5023  21.4743  21.4743  21.8356  21.8356
    21.8446  21.8446  22.7037  23.6311  23.7595  23.7595  24.2111  24.5306
    25.0541  25.1952  25.2814  25.2814  25.4086  25.4086  25.5638  25.5639
    25.7410  25.7410  27.0435  27.4899  27.4900  27.6476  27.6477  27.9820
    28.2062

          k = 0.0000 0.0000 0.1456 (  5780 PWs)   bands (ev):

   -51.7237 -51.7182 -51.7065 -51.6938 -25.4364 -25.3167 -24.7837 -24.6476
   -24.6305 -24.6305 -24.6294 -24.6293 -19.9197 -19.9176 -19.9016 -19.9016
   -19.8974 -19.8974 -19.8658 -19.8296 -19.8296 -19.8228 -19.8228 -19.8214
    -5.9987  -5.6674  -4.6479  -4.2065  -4.2065  -4.1271  -4.1271  -3.8224
    -3.8224  -3.7760  -3.3250  -3.3250  -2.6657  -2.6656  -2.6008  -2.1314
    -2.1314  -2.0755  -2.0729  -2.0658  -1.7115  -1.7115  -1.6472  -1.6471
    15.7846  16.0190  16.6806  16.6806  16.7237  16.8599  16.8659  16.8942
    16.8942  17.1465  17.1465  17.2535  17.2535  17.3545  17.7263  17.7264
    17.7691  17.8643  17.8643  17.9090  17.9376  17.9377  18.1356  18.1356
    18.2746  18.5210  18.5210  19.1561  19.1561  19.3224  19.5010  19.5010
    19.9434  20.1768  20.4558  20.4558  20.8427  20.8427  21.2603  21.2603
    22.8719  22.8719  23.5235  23.5845  23.9275  23.9276  24.1418  24.5969
    24.9656  25.2831  25.2832  25.3797  25.3797  25.4875  25.5957  25.5958
    25.7276  25.7276  26.5764  26.9779  26.9780  27.4311  27.7228  27.7229
    28.0813

          k = 0.0000 0.0000-0.2912 (  5780 PWs)   bands (ev):

   -51.7193 -51.7193 -51.7008 -51.7008 -25.3827 -25.3827 -24.7097 -24.7097
   -24.6298 -24.6298 -24.6298 -24.6298 -19.9206 -19.9206 -19.8972 -19.8972
   -19.8972 -19.8972 -19.8627 -19.8627 -19.8171 -19.8171 -19.8171 -19.8170
    -5.8632  -5.8632  -4.2392  -4.2392  -4.1745  -4.1745  -4.1745  -4.1745
    -3.6045  -3.6045  -3.6045  -3.6045  -2.3605  -2.3605  -2.3605  -2.3605
    -2.2901  -2.2901  -2.0693  -2.0693  -1.6741  -1.6741  -1.6740  -1.6740
    15.9012  15.9012  16.5665  16.5665  16.8159  16.8159  16.8159  16.8159
    17.1194  17.1194  17.1194  17.1194  17.3624  17.3624  17.8542  17.8542
    17.8542  17.8542  17.9723  17.9723  17.9723  17.9724  18.1786  18.1786
    18.3743  18.3743  18.8953  18.8953  18.8953  18.8953  19.9596  19.9596
    20.0024  20.0024  20.0024  20.0024  20.8505  20.8505  20.8505  20.8505
    23.7113  23.7113  23.7113  23.7113  23.7205  23.7205  24.7735  24.7735
    25.2592  25.2593  25.3601  25.3601  25.3601  25.3601  25.6704  25.6705
    25.6705  25.6705  26.1819  26.1819  26.9566  26.9566  26.9567  26.9567
    28.3001

          k = 0.0000 0.3607 0.0000 (  5787 PWs)   bands (ev):

   -51.7189 -51.7175 -51.7064 -51.7054 -25.3327 -25.1653 -24.8968 -24.8212
   -24.7628 -24.6322 -24.6301 -24.4974 -19.9242 -19.9194 -19.9088 -19.9056
   -19.8985 -19.8919 -19.8576 -19.8428 -19.8358 -19.8328 -19.8201 -19.8131
    -5.5032  -5.0383  -4.7863  -4.1479  -4.0467  -3.9746  -3.9196  -3.8045
    -3.6412  -3.3367  -3.2769  -3.1738  -3.0895  -2.9995  -2.9923  -2.5520
    -2.5423  -2.4394  -2.1831  -2.0448  -2.0333  -1.8210  -1.8197  -1.7272
    16.3445  16.4047  16.6322  16.7128  16.7362  16.7523  16.9523  17.0078
    17.0928  17.1686  17.2788  17.3167  17.3602  17.4323  17.5890  17.6600
    17.6847  17.7437  17.8238  18.0686  18.0724  18.2203  18.4075  18.5565
    18.8476  19.0599  19.4079  19.7394  19.9476  20.0339  20.0593  20.2841
    20.6252  20.6958  20.8098  21.1557  21.2461  21.2706  21.3286  21.5181
    21.7548  21.8662  22.0772  22.7600  23.0387  23.2550  23.2608  23.3294
    23.5556  24.1980  24.2408  24.8668  24.8934  24.9748  25.1248  25.4642
    25.4646  25.8247  25.9287  26.2099  26.2609  26.3264  27.2288  27.3161
    27.6418

          k = 0.0000 0.3607 0.1456 (  5804 PWs)   bands (ev):

   -51.7250 -51.7192 -51.7123 -51.7083 -25.3125 -25.1955 -24.8942 -24.8589
   -24.6917 -24.6320 -24.6305 -24.5235 -19.9325 -19.9242 -19.9123 -19.9109
   -19.9022 -19.8962 -19.8647 -19.8599 -19.8357 -19.8309 -19.8282 -19.8144
    -5.4709  -5.1957  -4.5810  -4.1914  -4.0336  -3.8950  -3.8867  -3.8113
    -3.6191  -3.6147  -3.4596  -3.3176  -2.9745  -2.8557  -2.7677  -2.5593
    -2.5181  -2.4126  -2.2418  -2.1277  -2.0150  -1.8557  -1.7909  -1.7327
    16.3191  16.4764  16.6492  16.6577  16.7245  16.8062  16.8750  16.9878
    17.0726  17.1547  17.1759  17.2733  17.5066  17.5844  17.6085  17.6708
    17.7064  17.7688  17.8111  17.9898  18.1851  18.2645  18.4360  18.5275
    18.8265  19.0317  19.4684  19.7810  19.8098  19.9441  20.0229  20.2790
    20.4487  20.5013  20.7645  20.9358  21.1212  21.2113  21.3221  21.3953
    22.0430  22.2410  22.4187  22.5506  23.3084  23.4184  23.5154  23.5532
    23.7848  24.0302  24.0806  24.8459  24.8874  24.9102  24.9865  25.1984
    25.4699  25.4948  25.6400  26.1013  26.2277  26.3519  27.2523  27.4790
    27.5950

          k = 0.0000 0.3607-0.2912 (  5816 PWs)   bands (ev):

   -51.7234 -51.7234 -51.7152 -51.7152 -25.2589 -25.2589 -24.8844 -24.8844
   -24.6313 -24.6313 -24.5950 -24.5950 -19.9275 -19.9275 -19.9173 -19.9173
   -19.9026 -19.9026 -19.8695 -19.8695 -19.8342 -19.8342 -19.8270 -19.8270
    -5.3683  -5.3683  -4.3240  -4.3240  -3.9112  -3.9112  -3.8414  -3.8414
    -3.7015  -3.7015  -3.5210  -3.5210  -2.8246  -2.8246  -2.6062  -2.6062
    -2.3889  -2.3889  -2.2992  -2.2992  -1.9369  -1.9369  -1.7526  -1.7526
    16.4004  16.4004  16.6034  16.6034  16.8673  16.8673  16.9155  16.9155
    17.0392  17.0392  17.1935  17.1935  17.5471  17.5471  17.6793  17.6793
    17.8506  17.8506  17.8863  17.8863  18.2823  18.2823  18.4307  18.4307
    19.0611  19.0611  19.3694  19.3694  19.9143  19.9143  20.0507  20.0507
    20.4403  20.4404  20.7728  20.7728  21.1502  21.1502  21.2353  21.2353
    22.3392  22.3393  22.8483  22.8483  23.1911  23.1911  23.7799  23.7799
    23.9230  23.9230  24.5925  24.5925  24.8236  24.8236  24.9434  24.9434
    25.3255  25.3255  25.5617  25.5617  26.3088  26.3089  27.2895  27.2912
    27.4658

          k =-0.4686-0.2705 0.0000 (  5800 PWs)   bands (ev):

   -51.7234 -51.7190 -51.7139 -51.7038 -25.2630 -25.1025 -24.9859 -24.8309
   -24.8214 -24.6329 -24.6304 -24.4829 -19.9374 -19.9165 -19.9103 -19.9049
   -19.8936 -19.8825 -19.8763 -19.8631 -19.8366 -19.8342 -19.8314 -19.8096
    -5.2606  -4.8119  -4.7573  -4.1776  -4.0726  -3.9176  -3.6920  -3.5581
    -3.5074  -3.3828  -3.3268  -3.2602  -3.1691  -3.1292  -2.9986  -2.9026
    -2.8987  -2.5936  -2.2405  -2.1116  -2.0343  -1.8317  -1.7726  -1.7369
    16.1745  16.4666  16.6035  16.7604  16.8811  16.9296  16.9360  17.0494
    17.0547  17.1647  17.2640  17.2829  17.4267  17.5371  17.5653  17.6731
    17.7356  17.7913  17.8531  18.0229  18.2576  18.5374  18.6950  18.7664
    19.1112  19.1137  19.3687  19.6085  20.1054  20.1549  20.4699  20.7787
    20.7921  20.8670  21.0161  21.1497  21.2440  21.4941  21.7203  21.7721
    22.0629  22.1413  22.2288  22.5641  22.6650  22.8960  23.0692  23.3509
    23.3757  23.5342  23.6658  23.8587  24.0274  24.6578  24.6755  24.8664
    25.0372  25.4199  25.4262  25.6339  25.7362  26.1503  26.6392  27.4737
    27.6284

          k =-0.4686-0.2705 0.1456 (  5822 PWs)   bands (ev):

   -51.7279 -51.7276 -51.7147 -51.7120 -25.2417 -25.1259 -24.9824 -24.9219
   -24.7038 -24.6326 -24.6309 -24.5112 -19.9330 -19.9319 -19.9190 -19.9054
   -19.9038 -19.9014 -19.8884 -19.8736 -19.8391 -19.8388 -19.8284 -19.8162
    -5.2330  -4.9955  -4.5433  -4.2128  -4.0206  -3.8720  -3.6803  -3.6023
    -3.5879  -3.5573  -3.3292  -3.2952  -3.1690  -3.1407  -2.9562  -2.9086
    -2.7299  -2.5104  -2.3045  -2.1271  -2.0500  -1.8167  -1.8015  -1.7448
    16.1962  16.5522  16.5892  16.7201  16.8512  16.8592  16.8861  16.9935
    17.0817  17.1474  17.3393  17.3728  17.5105  17.5366  17.5451  17.6802
    17.7869  17.8052  17.9231  17.9269  18.2956  18.4794  18.5435  18.8324
    18.9980  19.2892  19.4815  19.6592  19.8671  20.2354  20.3391  20.4596
    20.5728  20.9351  21.0076  21.0520  21.1054  21.7808  21.8031  22.0667
    22.1703  22.2774  22.3545  22.6296  22.6639  22.8286  22.8557  23.3941
    23.6204  23.6323  23.6998  23.9440  24.1060  24.1299  24.6868  24.7710
    25.0557  25.1852  25.2834  25.5919  25.6400  25.9970  27.4061  27.4379
    27.5446

          k =-0.4686-0.2705-0.2912 (  5804 PWs)   bands (ev):

   -51.7199 -51.7199 -51.7125 -51.7125 -25.1859 -25.1859 -24.9673 -24.9673
   -24.6318 -24.6318 -24.5903 -24.5903 -19.9270 -19.9270 -19.9088 -19.9088
   -19.8894 -19.8894 -19.8660 -19.8660 -19.8332 -19.8332 -19.8311 -19.8311
    -5.1457  -5.1457  -4.3338  -4.3338  -3.8427  -3.8427  -3.7463  -3.7463
    -3.6375  -3.6375  -3.3188  -3.3188  -3.1545  -3.1545  -2.9172  -2.9172
    -2.4799  -2.4799  -2.3156  -2.3156  -1.9197  -1.9197  -1.7645  -1.7645
    16.3296  16.3296  16.7578  16.7578  16.7909  16.7909  16.9191  16.9191
    17.1793  17.1793  17.2786  17.2786  17.6310  17.6310  17.6316  17.6316
    17.7704  17.7704  17.8709  17.8709  18.4448  18.4448  18.6729  18.6729
    19.1875  19.1875  19.5269  19.5269  19.8448  19.8448  20.3606  20.3606
    20.8474  20.8474  20.9494  20.9494  21.3648  21.3648  22.1304  22.1305
    22.1619  22.1619  22.6995  22.6995  22.7316  22.7316  23.1646  23.1646
    23.7851  23.7851  23.7939  23.7939  24.2608  24.2608  24.4495  24.4495
    25.0387  25.0387  25.2536  25.2536  25.7359  25.7359  27.4113  27.5489
    27.5504

          k =-0.4686 0.0902 0.0000 (  5827 PWs)   bands (ev):

   -51.7283 -51.7219 -51.7216 -51.7143 -25.2630 -25.1026 -24.9862 -24.8305
   -24.8215 -24.6327 -24.6312 -24.4829 -19.9400 -19.9320 -19.9217 -19.9143
   -19.9119 -19.8906 -19.8763 -19.8591 -19.8464 -19.8356 -19.8348 -19.8303
    -5.2127  -4.7824  -4.7570  -4.2509  -4.0581  -3.9684  -3.9552  -3.5662
    -3.4813  -3.4479  -3.3015  -3.1663  -3.1076  -3.0470  -3.0466  -2.9567
    -2.6130  -2.5103  -2.1938  -2.0916  -2.0678  -1.9356  -1.9021  -1.7813
    16.3260  16.4804  16.6534  16.7320  16.7663  16.8501  16.8952  16.9399
    16.9963  17.1577  17.2387  17.2509  17.3347  17.4246  17.4476  17.5690
    17.9830  18.0327  18.1564  18.2035  18.3326  18.6317  18.7264  19.0209
    19.1020  19.3142  19.5178  19.5850  19.7956  20.1268  20.2380  20.4342
    20.7776  20.8307  21.1349  21.1415  21.2198  21.2547  21.3783  21.6384
    21.7141  21.9629  22.3643  22.5152  22.6385  22.7680  22.8592  23.1160
    23.5812  23.6762  23.9170  24.0702  24.1873  24.3454  24.4264  24.9532
    25.3141  25.4271  25.9726  26.2392  26.2997  26.3507  27.0472  27.2513
    27.6256

          k =-0.4686 0.0902 0.1456 (  5825 PWs)   bands (ev):

   -51.7287 -51.7225 -51.7183 -51.7150 -25.2417 -25.1260 -24.9826 -24.9217
   -24.7036 -24.6324 -24.6314 -24.5111 -19.9352 -19.9308 -19.9197 -19.9175
   -19.9087 -19.8926 -19.8721 -19.8699 -19.8421 -19.8358 -19.8324 -19.8288
    -5.1853  -4.9626  -4.5554  -4.2907  -4.0016  -3.9281  -3.8970  -3.6399
    -3.5229  -3.4950  -3.4434  -3.3717  -3.0760  -3.0442  -2.8461  -2.7885
    -2.5862  -2.4863  -2.2540  -2.1673  -2.0316  -1.9091  -1.9029  -1.8111
    16.3300  16.5750  16.5936  16.7440  16.7738  16.8008  16.8837  16.9689
    16.9960  17.0925  17.1624  17.2879  17.3222  17.4473  17.6187  17.7538
    17.8197  17.9087  18.1256  18.2716  18.4138  18.6333  18.7710  18.8709
    19.0513  19.2686  19.5578  19.8392  19.8877  20.0230  20.1645  20.3874
    20.5987  20.7444  20.7552  21.0618  21.1599  21.2722  21.5202  21.6550
    21.9617  22.0665  22.3677  22.5946  22.7572  22.8309  23.0306  23.1871
    23.5710  23.8076  23.8880  24.1024  24.1918  24.2513  24.5834  24.7262
    25.2354  25.3275  25.6807  25.8288  26.1988  26.2468  27.0651  27.1673
    27.8089

          k =-0.4686 0.0902-0.2912 (  5824 PWs)   bands (ev):

   -51.7236 -51.7236 -51.7183 -51.7183 -25.1859 -25.1859 -24.9673 -24.9673
   -24.6319 -24.6319 -24.5901 -24.5901 -19.9318 -19.9318 -19.9172 -19.9172
   -19.8986 -19.8986 -19.8695 -19.8695 -19.8401 -19.8401 -19.8341 -19.8341
    -5.1027  -5.1027  -4.3854  -4.3854  -3.8634  -3.8634  -3.8017  -3.8017
    -3.6419  -3.6419  -3.4438  -3.4438  -3.0525  -3.0525  -2.7060  -2.7060
    -2.4752  -2.4752  -2.3092  -2.3092  -1.9450  -1.9450  -1.8714  -1.8714
    16.4290  16.4290  16.6874  16.6874  16.7828  16.7828  16.9446  16.9446
    17.0192  17.0192  17.2620  17.2620  17.4531  17.4532  17.5774  17.5774
    17.8987  17.8987  18.1983  18.1983  18.5682  18.5682  18.7778  18.7778
    19.2430  19.2430  19.6087  19.6087  19.8860  19.8860  20.3231  20.3231
    20.5566  20.5566  20.7768  20.7768  21.3939  21.3939  21.5766  21.5766
    21.8710  21.8710  22.7046  22.7046  22.8603  22.8603  23.3313  23.3313
    23.6471  23.6471  23.9136  23.9136  24.1545  24.1545  24.7867  24.7867
    25.2663  25.2663  25.4778  25.4778  25.9445  25.9446  27.0851  27.0853
    27.9272

     the Fermi energy is    23.2346 ev

!    total energy              =   -1799.72028480 Ry
     Harris-Foulkes estimate   =   -1799.72028639 Ry
     estimated scf accuracy    <       0.00000197 Ry

     The total energy is the sum of the following terms:

     one-electron contribution =    -157.15714773 Ry
     hartree contribution      =     216.98278553 Ry
     xc contribution           =    -193.47766126 Ry
     ewald contribution        =   -1665.44182572 Ry
     smearing contrib. (-TS)   =      -0.62643562 Ry

     convergence has been achieved in  10 iterations

     Forces acting on atoms (Ry/au):

     atom    1 type  1   force =     0.00000000    0.00000000    0.01215929
     atom    2 type  1   force =     0.00000000    0.00000000    0.01215929
     atom    3 type  1   force =     0.00000000    0.00000000   -0.01215929
     atom    4 type  1   force =     0.00000000    0.00000000   -0.01215929
     atom    5 type  2   force =     0.00000000    0.00000000    0.00000000
     atom    6 type  2   force =     0.00000000    0.00000000    0.00000000
     atom    7 type  2   force =     0.00000000   -0.00436630    0.00000000
     atom    8 type  2   force =     0.00378132   -0.00218315    0.00000000
     atom    9 type  2   force =    -0.00378132   -0.00218315    0.00000000
     atom   10 type  2   force =     0.00378132    0.00218315    0.00000000
     atom   11 type  2   force =    -0.00378132    0.00218315    0.00000000
     atom   12 type  2   force =     0.00000000    0.00436630    0.00000000

     Total force =     0.026567     Total SCF correction =     0.000000


     entering subroutine stress ...

          total   stress  (Ry/bohr**3)                   (kbar)     P= -204.58
  -0.00135668   0.00000000   0.00000000       -199.57      0.00      0.00
   0.00000000  -0.00135668   0.00000000          0.00   -199.57      0.00
   0.00000000   0.00000000  -0.00145882          0.00      0.00   -214.60


     number of scf cycles    =   2
     number of bfgs steps    =   1

     enthalpy old            =   -1799.2777177580 Ry
     enthalpy new            =   -1799.7202847971 Ry

     CASE: enthalpy_new < enthalpy_old

     small trust_radius: resetting bfgs history

     new trust radius        =       0.2967004924 bohr
     new conv_thr            =       0.0000121593 Ry

     new unit-cell volume =   1487.93835 a.u.^3 (   220.48971 Ang^3 )

CELL_PARAMETERS (alat=  9.92348860)
   1.030830460   0.000000000   0.000000000
  -0.515415230   0.892725365   0.000000000
   0.000000000   0.000000000   1.654575899

ATOMIC_POSITIONS (crystal)
Mg       0.333333000   0.666667000   0.064036819
Mg       0.666667000   0.333333000   0.564036819
Mg       0.666667000   0.333333000   0.935963181
Mg       0.333333000   0.666667000   0.435963181
Zn       0.000000000   0.000000000   0.000000000
Zn       0.000000000   0.000000000   0.500000000
Zn       0.171313967   0.342627935   0.750000000
Zn       0.828686033   0.171313967   0.250000000
Zn       0.342627935   0.171313967   0.250000000
Zn       0.657372065   0.828686033   0.750000000
Zn       0.171313967   0.828686033   0.750000000
Zn       0.828686033   0.657372065   0.250000000



     Writing output data file Prototype-La-hP12-MgZn2.save
     NEW-OLD atomic charge density approx. for the potential
     NEW k-points:
        k(    1) = (   0.0000000   0.0000000   0.0000000), wk =   0.0833333
        k(    2) = (   0.0000000   0.0000000   0.1510961), wk =   0.1666667
        k(    3) = (   0.0000000   0.0000000  -0.3021922), wk =   0.0833333
        k(    4) = (   0.0000000   0.3733884   0.0000000), wk =   0.1666667
        k(    5) = (   0.0000000   0.3733884   0.1510961), wk =   0.3333333
        k(    6) = (   0.0000000   0.3733884  -0.3021922), wk =   0.1666667
        k(    7) = (  -0.4850458  -0.2800413   0.0000000), wk =   0.0833333
        k(    8) = (  -0.4850458  -0.2800413   0.1510961), wk =   0.1666667
        k(    9) = (  -0.4850458  -0.2800413  -0.3021922), wk =   0.0833333
        k(   10) = (  -0.4850458   0.0933471   0.0000000), wk =   0.1666667
        k(   11) = (  -0.4850458   0.0933471   0.1510961), wk =   0.3333333
        k(   12) = (  -0.4850458   0.0933471  -0.3021922), wk =   0.1666667

     total cpu time spent up to now is      658.5 secs

     Self-consistent Calculation

     iteration #  1     ecut=    40.00 Ry     beta=0.70
     CG style diagonalization
     c_bands:  4 eigenvalues not converged
     ethr =  1.00E-06,  avg # of iterations = 16.7

     total cpu time spent up to now is      745.6 secs

     total energy              =   -1797.13766872 Ry
     Harris-Foulkes estimate   =   -1802.06284124 Ry
     estimated scf accuracy    <       6.19872625 Ry

     iteration #  2     ecut=    40.00 Ry     beta=0.70
     CG style diagonalization
     ethr =  3.30E-03,  avg # of iterations =  3.8

     total cpu time spent up to now is      764.7 secs

     total energy              =   -1798.30412762 Ry
     Harris-Foulkes estimate   =   -1801.39971504 Ry
     estimated scf accuracy    <       5.57113850 Ry

     iteration #  3     ecut=    40.00 Ry     beta=0.70
     CG style diagonalization
     ethr =  2.96E-03,  avg # of iterations =  3.5

     total cpu time spent up to now is      781.9 secs

     total energy              =   -1799.53506362 Ry
     Harris-Foulkes estimate   =   -1799.83519586 Ry
     estimated scf accuracy    <       0.59895603 Ry

     iteration #  4     ecut=    40.00 Ry     beta=0.70
     CG style diagonalization
     ethr =  3.19E-04,  avg # of iterations =  3.5

     total cpu time spent up to now is      799.4 secs

     total energy              =   -1799.69166439 Ry
     Harris-Foulkes estimate   =   -1799.72509000 Ry
     estimated scf accuracy    <       0.07305000 Ry

     iteration #  5     ecut=    40.00 Ry     beta=0.70
     CG style diagonalization
     ethr =  3.89E-05,  avg # of iterations =  3.5

     total cpu time spent up to now is      816.3 secs

     total energy              =   -1799.70521207 Ry
     Harris-Foulkes estimate   =   -1799.71915003 Ry
     estimated scf accuracy    <       0.03668915 Ry

     iteration #  6     ecut=    40.00 Ry     beta=0.70
     CG style diagonalization
     ethr =  1.95E-05,  avg # of iterations =  3.2

     total cpu time spent up to now is      832.6 secs

     total energy              =   -1799.71161248 Ry
     Harris-Foulkes estimate   =   -1799.71184264 Ry
     estimated scf accuracy    <       0.00045170 Ry

     iteration #  7     ecut=    40.00 Ry     beta=0.70
     CG style diagonalization
     ethr =  2.40E-07,  avg # of iterations =  4.6

     total cpu time spent up to now is      856.8 secs

     total energy              =   -1799.71197241 Ry
     Harris-Foulkes estimate   =   -1799.71214256 Ry
     estimated scf accuracy    <       0.00051753 Ry

     iteration #  8     ecut=    40.00 Ry     beta=0.70
     CG style diagonalization
     ethr =  2.40E-07,  avg # of iterations =  3.4

     total cpu time spent up to now is      873.6 secs

     total energy              =   -1799.71201644 Ry
     Harris-Foulkes estimate   =   -1799.71203852 Ry
     estimated scf accuracy    <       0.00005136 Ry

     iteration #  9     ecut=    40.00 Ry     beta=0.70
     CG style diagonalization
     ethr =  2.73E-08,  avg # of iterations =  3.7

     total cpu time spent up to now is      891.4 secs

     End of self-consistent calculation

          k = 0.0000 0.0000 0.0000 (  5769 PWs)   bands (ev):

   -49.0803 -49.0780 -49.0678 -49.0672 -22.7000 -22.4490 -21.8140 -21.5197
   -21.5197 -21.5165 -21.5164 -21.5152 -17.4005 -17.3949 -17.3860 -17.3859
   -17.3507 -17.3507 -17.3061 -17.2752 -17.2752 -17.2726 -17.2723 -17.2723
    -3.9488  -3.2884  -2.4994  -1.6333  -1.6332  -1.4527  -1.4527  -1.2866
    -1.2865  -0.7475  -0.0700  -0.0699  -0.0645  -0.0644   0.1768   1.1643
     1.1656   1.2089   1.2090   1.2110   1.5543   1.5543   1.6837   1.6837
    17.7872  18.4589  18.9306  18.9484  18.9484  19.2143  19.3806  19.3806
    19.6106  19.6107  19.7173  19.7684  19.8557  19.8558  19.9070  19.9226
    20.1058  20.1058  20.4840  20.4841  20.5165  20.5165  20.5659  20.5660
    20.9308  20.9308  21.2868  21.8801  21.8801  21.9332  21.9332  22.3463
    22.8487  23.0766  23.0766  23.6978  24.3607  24.3608  24.7074  24.7074
    24.8590  24.8590  25.8857  26.9188  27.0151  27.0152  27.2677  27.5448
    28.2683  28.3397  28.5936  28.5936  28.6564  28.6565  28.8637  28.8638
    29.1639  29.1639  30.6133  31.0140  31.0141  31.3030  31.3030  31.4671
    31.8259

          k = 0.0000 0.0000 0.1511 (  5780 PWs)   bands (ev):

   -49.0838 -49.0747 -49.0712 -49.0691 -22.6715 -22.4984 -21.7577 -21.5507
   -21.5192 -21.5192 -21.5169 -21.5169 -17.3992 -17.3899 -17.3735 -17.3734
   -17.3653 -17.3653 -17.3172 -17.2784 -17.2781 -17.2781 -17.2767 -17.2767
    -3.8921  -3.4698  -2.2145  -1.6220  -1.6220  -1.5181  -1.5181  -1.1486
    -1.1485  -1.0782  -0.4987  -0.4986   0.3731   0.3731   0.4450   1.0811
     1.0812   1.1157   1.1623   1.1624   1.5926   1.5926   1.6727   1.6727
    17.8669  18.1416  19.0260  19.0260  19.0492  19.1883  19.3217  19.3217
    19.5573  19.5573  19.6105  19.7019  19.7115  19.7115  20.2025  20.2025
    20.3640  20.3892  20.3892  20.4744  20.5442  20.5442  20.7723  20.7723
    20.9447  20.9447  21.0332  21.7699  21.7699  21.9812  22.1343  22.1343
    22.7507  23.1370  23.2648  23.2648  23.6581  23.6581  24.1457  24.1457
    25.9277  25.9277  26.6982  26.9706  27.1507  27.1508  27.2344  27.6330
    28.1409  28.6331  28.6331  28.6336  28.6337  28.6907  28.9101  28.9101
    29.1391  29.1391  29.9821  30.4266  30.4266  31.2647  31.2846  31.2848
    31.8075

          k = 0.0000 0.0000-0.3022 (  5780 PWs)   bands (ev):

   -49.0804 -49.0804 -49.0681 -49.0681 -22.5943 -22.5943 -21.6449 -21.6449
   -21.5181 -21.5181 -21.5180 -21.5180 -17.3985 -17.3985 -17.3682 -17.3682
   -17.3682 -17.3682 -17.3114 -17.3113 -17.2688 -17.2688 -17.2688 -17.2688
    -3.7238  -3.7238  -1.6693  -1.6693  -1.5826  -1.5826  -1.5826  -1.5826
    -0.8667  -0.8667  -0.8667  -0.8667   0.7766   0.7766   0.7766   0.7766
     0.8372   0.8372   1.1657   1.1657   1.6415   1.6415   1.6415   1.6415
    17.9894  17.9894  18.8631  18.8631  19.1962  19.1962  19.1962  19.1962
    19.5366  19.5366  19.5366  19.5366  20.1910  20.1910  20.3960  20.3960
    20.3960  20.3960  20.5430  20.5430  20.5430  20.5430  20.6839  20.6839
    20.9605  20.9605  21.4368  21.4368  21.4368  21.4368  22.7141  22.7141
    22.7141  22.7141  22.7640  22.7640  23.7108  23.7108  23.7109  23.7109
    26.8386  26.8386  26.8471  26.8471  26.8472  26.8472  27.8713  27.8713
    28.7004  28.7005  28.7005  28.7005  28.7480  28.7481  29.0285  29.0286
    29.0286  29.0286  29.5699  29.5699  30.4294  30.4294  30.4294  30.4294
    32.0237

          k = 0.0000 0.3734 0.0000 (  5787 PWs)   bands (ev):

   -49.0805 -49.0767 -49.0735 -49.0719 -22.5333 -22.2807 -21.9025 -21.8154
   -21.7166 -21.5234 -21.5185 -21.3294 -17.4054 -17.3947 -17.3775 -17.3727
   -17.3632 -17.3612 -17.3161 -17.2941 -17.2830 -17.2825 -17.2722 -17.2613
    -3.2729  -2.6653  -2.4106  -1.5525  -1.4474  -1.3211  -1.2790  -1.1145
    -0.8909  -0.5109  -0.4190  -0.3010  -0.1784  -0.0716  -0.0646   0.4996
     0.5054   0.6623   1.0105   1.1411   1.2140   1.4540   1.4596   1.5755
    18.5984  18.6137  18.9116  18.9884  19.0613  19.1352  19.3113  19.3733
    19.5267  19.6212  19.6848  19.7544  19.7892  19.8964  20.1040  20.1344
    20.2208  20.2502  20.4334  20.6918  20.7600  20.8555  20.9432  21.0811
    21.5677  21.8113  22.0662  22.3985  22.7212  22.8473  22.8827  23.1028
    23.4743  23.5449  23.7404  24.0784  24.1137  24.1513  24.1823  24.4969
    24.6414  24.8575  25.0620  25.7944  26.1420  26.3876  26.4476  26.5043
    26.7405  27.3951  27.4412  28.1165  28.2312  28.3177  28.4899  28.7571
    28.9474  29.2942  29.3769  29.7117  29.7546  29.8061  30.6411  30.8173
    31.3429

          k = 0.0000 0.3734 0.1511 (  5804 PWs)   bands (ev):

   -49.0827 -49.0792 -49.0768 -49.0740 -22.5038 -22.3282 -21.8997 -21.8593
   -21.6183 -21.5227 -21.5193 -21.3687 -17.4101 -17.4038 -17.3831 -17.3739
   -17.3676 -17.3646 -17.3175 -17.3106 -17.2828 -17.2806 -17.2780 -17.2627
    -3.2318  -2.8843  -2.1233  -1.6130  -1.4149  -1.2431  -1.2166  -1.1254
    -0.8623  -0.8588  -0.6708  -0.4810  -0.0381   0.1113   0.2293   0.4951
     0.5436   0.6997   0.9325   1.0904   1.1851   1.4113   1.4963   1.5687
    18.5495  18.7203  18.9336  18.9541  19.0059  19.1941  19.2309  19.3557
    19.4617  19.5637  19.6131  19.7386  19.9610  20.0811  20.1532  20.1870
    20.2124  20.3216  20.3961  20.5800  20.8042  20.8925  21.0160  21.1240
    21.4928  21.7939  22.2401  22.4428  22.4924  22.7202  22.8806  23.0159
    23.2703  23.2840  23.6572  23.8567  23.9365  24.1049  24.2167  24.3299
    25.0412  25.2214  25.4748  25.5439  26.4734  26.5748  26.6394  26.7377
    26.9668  27.2555  27.3371  28.1279  28.1496  28.2523  28.3026  28.5501
    28.8378  28.9938  28.9993  29.6134  29.6953  29.9047  30.7319  31.1700
    31.1843

          k = 0.0000 0.3734-0.3022 (  5816 PWs)   bands (ev):

   -49.0813 -49.0813 -49.0790 -49.0789 -22.4244 -22.4244 -21.8888 -21.8888
   -21.5210 -21.5210 -21.4759 -21.4759 -17.4071 -17.4071 -17.3790 -17.3790
   -17.3742 -17.3742 -17.3187 -17.3187 -17.2824 -17.2824 -17.2750 -17.2750
    -3.1034  -3.1034  -1.7831  -1.7831  -1.2481  -1.2481  -1.1692  -1.1692
    -0.9809  -0.9809  -0.7395  -0.7395   0.1461   0.1461   0.4363   0.4363
     0.7326   0.7326   0.8594   0.8594   1.2973   1.2973   1.5445   1.5445
    18.6520  18.6520  18.8581  18.8581  19.2071  19.2071  19.2956  19.2956
    19.4433  19.4433  19.6282  19.6282  20.0191  20.0191  20.2257  20.2258
    20.3854  20.3855  20.4776  20.4776  20.9003  20.9003  21.0967  21.0967
    21.7877  21.7877  22.0218  22.0218  22.6641  22.6641  22.7589  22.7589
    23.3000  23.3000  23.5544  23.5544  24.0492  24.0492  24.1513  24.1513
    25.3562  25.3562  25.9453  25.9453  26.2474  26.2474  26.9559  26.9559
    27.1271  27.1271  27.9424  27.9424  28.2085  28.2085  28.2413  28.2413
    28.6127  28.6127  28.9975  28.9975  29.8290  29.8291  30.8795  30.8799
    31.0432

          k =-0.4850-0.2800 0.0000 (  5800 PWs)   bands (ev):

   -49.0821 -49.0805 -49.0741 -49.0731 -22.4416 -22.1879 -22.0255 -21.8196
   -21.8159 -21.5246 -21.5193 -21.3085 -17.4134 -17.3970 -17.3816 -17.3671
   -17.3658 -17.3389 -17.3360 -17.3144 -17.2849 -17.2821 -17.2759 -17.2624
    -2.9696  -2.3789  -2.3756  -1.5914  -1.4807  -1.2762  -0.9464  -0.7733
    -0.7411  -0.5745  -0.4679  -0.3905  -0.3345  -0.2333  -0.0764   0.0207
     0.0706   0.4575   0.9315   1.0544   1.2139   1.4433   1.5266   1.5627
    18.3281  18.7770  18.9277  19.0916  19.1997  19.2780  19.3668  19.4554
    19.4648  19.5979  19.6602  19.7155  19.8805  19.9462  20.0817  20.1087
    20.1744  20.2580  20.4368  20.6349  20.9106  21.2790  21.3158  21.3467
    21.7947  21.8583  22.0960  22.3999  22.8174  22.8516  23.2607  23.5627
    23.7288  23.7703  23.8067  24.1226  24.1700  24.3059  24.7278  24.8160
    25.1214  25.1956  25.3239  25.6677  25.7861  26.1200  26.2459  26.4037
    26.5231  26.8226  26.8620  27.0719  27.3077  27.8957  27.9095  28.0629
    28.6882  28.7567  28.7755  28.9982  29.1016  29.6280  29.9659  31.1146
    31.2039

          k =-0.4850-0.2800 0.1511 (  5822 PWs)   bands (ev):

   -49.0848 -49.0839 -49.0788 -49.0759 -22.4099 -22.2282 -22.0215 -21.9492
   -21.6391 -21.5238 -21.5201 -21.3512 -17.4114 -17.4112 -17.3890 -17.3761
   -17.3656 -17.3591 -17.3390 -17.3226 -17.2881 -17.2865 -17.2774 -17.2634
    -2.9355  -2.6415  -2.0662  -1.6374  -1.4099  -1.2167  -0.9308  -0.8473
    -0.8333  -0.7945  -0.4677  -0.4273  -0.3277  -0.2591  -0.0325   0.0159
     0.2890   0.5759   0.8466   1.0910   1.1421   1.4687   1.4852   1.5546
    18.3752  18.8448  18.9185  19.0523  19.1818  19.1966  19.2444  19.3673
    19.5263  19.5662  19.7789  19.8246  19.9178  20.0056  20.0825  20.1761
    20.2696  20.3472  20.4725  20.5015  20.8785  21.0969  21.1516  21.5217
    21.6579  22.1018  22.1977  22.3821  22.5445  22.9531  23.1571  23.2337
    23.4020  23.7611  23.8531  23.9067  24.1126  24.7561  24.7909  25.0462
    25.3179  25.3678  25.3731  25.7743  25.7954  25.9721  26.0530  26.5184
    26.7802  26.9367  26.9925  27.1662  27.3252  27.3650  27.9016  27.9563
    28.4124  28.5829  28.6595  28.9318  29.0302  29.4337  30.9141  30.9775
    31.1837

          k =-0.4850-0.2800-0.3022 (  5804 PWs)   bands (ev):

   -49.0797 -49.0797 -49.0767 -49.0767 -22.3251 -22.3251 -22.0045 -22.0045
   -21.5219 -21.5219 -21.4700 -21.4700 -17.4091 -17.4090 -17.3796 -17.3796
   -17.3511 -17.3511 -17.3177 -17.3177 -17.2809 -17.2809 -17.2781 -17.2780
    -2.8282  -2.8282  -1.7931  -1.7931  -1.1754  -1.1754  -1.0536  -1.0536
    -0.8776  -0.8776  -0.4553  -0.4553  -0.2986  -0.2986   0.0058   0.0058
     0.6138   0.6138   0.8395   0.8395   1.3228   1.3228   1.5314   1.5314
    18.5597  18.5597  19.0891  19.0891  19.1432  19.1432  19.2768  19.2768
    19.5639  19.5639  19.7677  19.7677  20.0954  20.0954  20.1513  20.1513
    20.2885  20.2885  20.4479  20.4479  21.0111  21.0111  21.3161  21.3161
    21.9506  21.9506  22.1785  22.1785  22.5711  22.5711  23.0920  23.0920
    23.7523  23.7523  23.7879  23.7879  24.3113  24.3113  25.1478  25.1478
    25.2343  25.2343  25.8164  25.8164  25.9011  25.9011  26.3345  26.3345
    27.0317  27.0317  27.1637  27.1637  27.4402  27.4402  27.6343  27.6343
    28.2450  28.2450  28.6536  28.6537  29.1270  29.1270  31.1012  31.1468
    31.1476

          k =-0.4850 0.0933 0.0000 (  5827 PWs)   bands (ev):

   -49.0831 -49.0828 -49.0804 -49.0797 -22.4413 -22.1885 -22.0259 -21.8187
   -21.8159 -21.5237 -21.5205 -21.3083 -17.4166 -17.4085 -17.3905 -17.3818
   -17.3737 -17.3494 -17.3350 -17.3118 -17.2903 -17.2830 -17.2814 -17.2785
    -2.9094  -2.3750  -2.3376  -1.6789  -1.4594  -1.3225  -1.3217  -0.8034
    -0.6743  -0.6311  -0.4700  -0.2821  -0.1998  -0.1611  -0.1381  -0.0091
     0.4269   0.5653   0.9994   1.0810   1.1718   1.2978   1.3402   1.5173
    18.5080  18.8008  18.9690  19.0616  19.0835  19.1828  19.2450  19.2944
    19.3909  19.5959  19.6506  19.6697  19.8259  19.8973  19.9323  19.9716
    20.5022  20.6418  20.7725  20.7836  20.9912  21.3177  21.3890  21.7245
    21.7550  22.0545  22.2547  22.3781  22.4699  22.8291  22.9941  23.2110
    23.6253  23.7398  23.9975  24.0274  24.1231  24.1939  24.3222  24.6528
    24.7134  24.9211  25.5088  25.5990  25.7094  25.8833  25.9956  26.2311
    26.6836  26.8089  27.2427  27.2699  27.3040  27.6196  27.7185  28.2911
    28.7239  28.9273  29.3819  29.7324  29.7770  29.9263  30.6363  30.7040
    31.2884

          k =-0.4850 0.0933 0.1511 (  5825 PWs)   bands (ev):

   -49.0839 -49.0825 -49.0798 -49.0787 -22.4096 -22.2285 -22.0219 -21.9490
   -21.6387 -21.5233 -21.5210 -21.3510 -17.4131 -17.4116 -17.3868 -17.3846
   -17.3706 -17.3536 -17.3273 -17.3200 -17.2899 -17.2827 -17.2796 -17.2747
    -2.8767  -2.6023  -2.0766  -1.7319  -1.3809  -1.2804  -1.2409  -0.8941
    -0.7466  -0.7082  -0.6247  -0.5430  -0.1747  -0.1601   0.1253   0.2053
     0.4649   0.6027   0.9185   1.0282   1.1735   1.3364   1.3413   1.4730
    18.5399  18.8608  18.9229  19.0597  19.1113  19.1356  19.2290  19.3398
    19.3719  19.4817  19.6009  19.7081  19.7724  19.9372  20.1129  20.2989
    20.3642  20.4549  20.7265  20.8892  21.0032  21.3214  21.4067  21.5183
    21.7553  22.0771  22.2396  22.5671  22.6190  22.7355  22.9639  23.1862
    23.3530  23.5717  23.6548  23.9686  24.0466  24.2046  24.4723  24.6172
    24.9153  25.0963  25.3859  25.7218  25.8982  25.9826  26.1670  26.3818
    26.7136  26.9244  27.1328  27.3181  27.3703  27.5176  27.8593  28.0812
    28.6125  28.7857  29.0454  29.3015  29.7072  29.7984  30.5952  30.7566
    31.4475

          k =-0.4850 0.0933-0.3022 (  5824 PWs)   bands (ev):

   -49.0816 -49.0816 -49.0807 -49.0806 -22.3250 -22.3250 -22.0047 -22.0047
   -21.5222 -21.5222 -21.4697 -21.4697 -17.4120 -17.4120 -17.3861 -17.3861
   -17.3599 -17.3598 -17.3207 -17.3207 -17.2875 -17.2875 -17.2798 -17.2798
    -2.7761  -2.7761  -1.8552  -1.8552  -1.2024  -1.2024  -1.1088  -1.1088
    -0.9068  -0.9068  -0.6227  -0.6227  -0.1623  -0.1623   0.3037   0.3037
     0.6204   0.6204   0.8475   0.8475   1.2904   1.2904   1.3861   1.3861
    18.6811  18.6811  19.0045  19.0045  19.1163  19.1163  19.3141  19.3141
    19.3896  19.3896  19.7257  19.7257  19.9107  19.9107  20.0819  20.0819
    20.4708  20.4708  20.8163  20.8163  21.1382  21.1382  21.5007  21.5007
    21.9976  21.9976  22.2522  22.2522  22.5944  22.5944  23.1243  23.1243
    23.4100  23.4100  23.5956  23.5956  24.3197  24.3198  24.5515  24.5515
    24.8235  24.8235  25.7700  25.7700  26.0262  26.0262  26.5281  26.5281
    26.8482  26.8482  27.1033  27.1034  27.3447  27.3447  28.1482  28.1482
    28.6935  28.6936  28.8436  28.8437  29.4151  29.4152  30.6650  30.6652
    31.6442

     the Fermi energy is    26.3825 ev

!    total energy              =   -1799.71203026 Ry
     Harris-Foulkes estimate   =   -1799.71203133 Ry
     estimated scf accuracy    <       0.00000120 Ry

     The total energy is the sum of the following terms:

     one-electron contribution =     -73.62848627 Ry
     hartree contribution      =     195.32121952 Ry
     xc contribution           =    -195.42943979 Ry
     ewald contribution        =   -1725.40654674 Ry
     smearing contrib. (-TS)   =      -0.56877699 Ry

     convergence has been achieved in   9 iterations

     Forces acting on atoms (Ry/au):

     atom    1 type  1   force =     0.00000000    0.00000000    0.01214479
     atom    2 type  1   force =     0.00000000    0.00000000    0.01214479
     atom    3 type  1   force =     0.00000000    0.00000000   -0.01214479
     atom    4 type  1   force =     0.00000000    0.00000000   -0.01214479
     atom    5 type  2   force =     0.00000000    0.00000000    0.00000000
     atom    6 type  2   force =     0.00000000    0.00000000    0.00000000
     atom    7 type  2   force =     0.00000000    0.00539077    0.00000000
     atom    8 type  2   force =    -0.00466854    0.00269538    0.00000000
     atom    9 type  2   force =     0.00466854    0.00269538    0.00000000
     atom   10 type  2   force =    -0.00466854   -0.00269538    0.00000000
     atom   11 type  2   force =     0.00466854   -0.00269538    0.00000000
     atom   12 type  2   force =     0.00000000   -0.00539077    0.00000000

     Total force =     0.027647     Total SCF correction =     0.000000


     entering subroutine stress ...

          total   stress  (Ry/bohr**3)                   (kbar)     P=  253.99
   0.00173985   0.00000000   0.00000000        255.94      0.00      0.00
   0.00000000   0.00173985   0.00000000          0.00    255.94      0.00
   0.00000000   0.00000000   0.00170002          0.00      0.00    250.08


     number of scf cycles    =   3
     number of bfgs steps    =   2

     enthalpy old            =   -1799.7202847971 Ry
     enthalpy new            =   -1799.7120302627 Ry

     CASE: enthalpy_new > enthalpy_old

     new trust radius        =       0.1411707215 bohr

     trust_radius < trust_radius_min

     resetting bfgs history

     Message from routine bfgs:
     history already reset at previous step: stopping
     new conv_thr            =       0.0000121593 Ry

     new unit-cell volume =   1482.16814 a.u.^3 (   219.63465 Ang^3 )

CELL_PARAMETERS (alat=  9.92348860)
   1.029460631   0.000000000   0.000000000
  -0.514730315   0.891539058   0.000000000
   0.000000000   0.000000000   1.652548559

ATOMIC_POSITIONS (crystal)
Mg       0.333333000   0.666667000   0.064091859
Mg       0.666667000   0.333333000   0.564091859
Mg       0.666667000   0.333333000   0.935908141
Mg       0.333333000   0.666667000   0.435908141
Zn       0.000000000   0.000000000   0.000000000
Zn       0.000000000   0.000000000   0.500000000
Zn       0.171296957   0.342593915   0.750000000
Zn       0.828703043   0.171296957   0.250000000
Zn       0.342593915   0.171296957   0.250000000
Zn       0.657406085   0.828703043   0.750000000
Zn       0.171296957   0.828703043   0.750000000
Zn       0.828703043   0.657406085   0.250000000



     Writing output data file Prototype-La-hP12-MgZn2.save
     NEW-OLD atomic charge density approx. for the potential
     NEW k-points:
        k(    1) = (   0.0000000   0.0000000   0.0000000), wk =   0.0833333
        k(    2) = (   0.0000000   0.0000000   0.1512815), wk =   0.1666667
        k(    3) = (   0.0000000   0.0000000  -0.3025630), wk =   0.0833333
        k(    4) = (   0.0000000   0.3738853   0.0000000), wk =   0.1666667
        k(    5) = (   0.0000000   0.3738853   0.1512815), wk =   0.3333333
        k(    6) = (   0.0000000   0.3738853  -0.3025630), wk =   0.1666667
        k(    7) = (  -0.4856912  -0.2804140   0.0000000), wk =   0.0833333
        k(    8) = (  -0.4856912  -0.2804140   0.1512815), wk =   0.1666667
        k(    9) = (  -0.4856912  -0.2804140  -0.3025630), wk =   0.0833333
        k(   10) = (  -0.4856912   0.0934713   0.0000000), wk =   0.1666667
        k(   11) = (  -0.4856912   0.0934713   0.1512815), wk =   0.3333333
        k(   12) = (  -0.4856912   0.0934713  -0.3025630), wk =   0.1666667

     total cpu time spent up to now is      898.9 secs

     Self-consistent Calculation

     iteration #  1     ecut=    40.00 Ry     beta=0.70
     CG style diagonalization
     ethr =  1.00E-06,  avg # of iterations =  5.0

     total cpu time spent up to now is      923.9 secs

     total energy              =   -1799.69808731 Ry
     Harris-Foulkes estimate   =   -1799.70506096 Ry
     estimated scf accuracy    <       0.00877894 Ry

     iteration #  2     ecut=    40.00 Ry     beta=0.70
     CG style diagonalization
     ethr =  4.67E-06,  avg # of iterations =  3.7

     total cpu time spent up to now is      941.9 secs

     total energy              =   -1799.69918362 Ry
     Harris-Foulkes estimate   =   -1799.70406262 Ry
     estimated scf accuracy    <       0.00909048 Ry

     iteration #  3     ecut=    40.00 Ry     beta=0.70
     CG style diagonalization
     ethr =  4.67E-06,  avg # of iterations =  3.5

     total cpu time spent up to now is      960.0 secs

     total energy              =   -1799.70144330 Ry
     Harris-Foulkes estimate   =   -1799.70194825 Ry
     estimated scf accuracy    <       0.00107599 Ry

     iteration #  4     ecut=    40.00 Ry     beta=0.70
     CG style diagonalization
     ethr =  5.72E-07,  avg # of iterations =  3.4

     total cpu time spent up to now is      978.7 secs

     total energy              =   -1799.70168467 Ry
     Harris-Foulkes estimate   =   -1799.70169394 Ry
     estimated scf accuracy    <       0.00001867 Ry

     iteration #  5     ecut=    40.00 Ry     beta=0.70
     CG style diagonalization
     ethr =  9.93E-09,  avg # of iterations =  4.1

     total cpu time spent up to now is     1000.8 secs

     total energy              =   -1799.70168819 Ry
     Harris-Foulkes estimate   =   -1799.70169977 Ry
     estimated scf accuracy    <       0.00002329 Ry

     iteration #  6     ecut=    40.00 Ry     beta=0.70
     CG style diagonalization
     ethr =  9.93E-09,  avg # of iterations =  3.3

     total cpu time spent up to now is     1018.3 secs

     End of self-consistent calculation

          k = 0.0000 0.0000 0.0000 (  5769 PWs)   bands (ev):

   -48.9750 -48.9728 -48.9626 -48.9624 -22.5970 -22.3443 -21.6959 -21.4028
   -21.4027 -21.3995 -21.3994 -21.3942 -17.3001 -17.2952 -17.2862 -17.2861
   -17.2508 -17.2508 -17.2049 -17.1744 -17.1744 -17.1718 -17.1718 -17.1716
    -3.8713  -3.2063  -2.4095  -1.5369  -1.5369  -1.3554  -1.3553  -1.1850
    -1.1850  -0.6435   0.0401   0.0402   0.0500   0.0501   0.2936   1.2875
     1.2887   1.3343   1.3343   1.3347   1.6801   1.6802   1.8108   1.8108
    17.8671  18.5421  19.0145  19.0383  19.0383  19.3119  19.4764  19.4764
    19.7038  19.7038  19.8150  19.8698  19.9520  19.9521  19.9948  20.0192
    20.1999  20.1999  20.5838  20.5838  20.6065  20.6065  20.6680  20.6681
    21.0323  21.0323  21.3955  21.9823  21.9823  22.0325  22.0325  22.4479
    22.9585  23.1848  23.1848  23.8216  24.4748  24.4748  24.8178  24.8178
    24.9744  24.9744  26.0087  27.0434  27.1401  27.1401  27.3866  27.6594
    28.3905  28.4595  28.7216  28.7216  28.7810  28.7811  28.9895  28.9895
    29.2957  29.2957  30.7487  31.1512  31.1512  31.4421  31.4421  31.6003
    31.9637

          k = 0.0000 0.0000 0.1513 (  5780 PWs)   bands (ev):

   -48.9785 -48.9692 -48.9660 -48.9644 -22.5683 -22.3939 -21.6392 -21.4301
   -21.4023 -21.4023 -21.3999 -21.3999 -17.2993 -17.2898 -17.2737 -17.2737
   -17.2653 -17.2653 -17.2160 -17.1773 -17.1773 -17.1773 -17.1762 -17.1762
    -3.8142  -3.3890  -2.1222  -1.5255  -1.5255  -1.4207  -1.4207  -1.0464
    -1.0463  -0.9764  -0.3906  -0.3905   0.4898   0.4899   0.5632   1.2050
     1.2050   1.2386   1.2855   1.2855   1.7190   1.7190   1.7997   1.7998
    17.9466  18.2224  19.1164  19.1165  19.1391  19.2778  19.4157  19.4157
    19.6502  19.6503  19.7179  19.7909  19.8065  19.8066  20.2975  20.2975
    20.4622  20.4858  20.4858  20.5731  20.6457  20.6457  20.8744  20.8744
    21.0394  21.0394  21.1418  21.8713  21.8713  22.0830  22.2351  22.2351
    22.8583  23.2511  23.3746  23.3746  23.7660  23.7660  24.2594  24.2594
    26.0449  26.0449  26.8186  27.0996  27.2746  27.2746  27.3560  27.7484
    28.2615  28.7578  28.7578  28.7625  28.7625  28.8130  29.0365  29.0365
    29.2703  29.2703  30.1116  30.5593  30.5593  31.4120  31.4228  31.4230
    31.9517

          k = 0.0000 0.0000-0.3026 (  5780 PWs)   bands (ev):

   -48.9753 -48.9752 -48.9630 -48.9629 -22.4904 -22.4904 -21.5254 -21.5254
   -21.4011 -21.4011 -21.4011 -21.4011 -17.2986 -17.2986 -17.2684 -17.2684
   -17.2684 -17.2684 -17.2100 -17.2100 -17.1681 -17.1681 -17.1681 -17.1681
    -3.6448  -3.6448  -1.5722  -1.5722  -1.4858  -1.4858  -1.4857  -1.4857
    -0.7621  -0.7621  -0.7621  -0.7621   0.8973   0.8973   0.8974   0.8974
     0.9582   0.9582   1.2888   1.2888   1.7684   1.7684   1.7684   1.7684
    18.0691  18.0691  18.9519  18.9519  19.2879  19.2880  19.2880  19.2880
    19.6300  19.6300  19.6300  19.6300  20.3014  20.3014  20.4937  20.4937
    20.4937  20.4937  20.6426  20.6426  20.6427  20.6427  20.7771  20.7771
    21.0621  21.0621  21.5357  21.5357  21.5357  21.5357  22.8180  22.8180
    22.8181  22.8181  22.8716  22.8716  23.8230  23.8230  23.8230  23.8230
    26.9575  26.9575  26.9676  26.9676  26.9676  26.9676  27.9890  27.9890
    28.8282  28.8282  28.8282  28.8282  28.8803  28.8803  29.1569  29.1570
    29.1570  29.1570  29.7023  29.7023  30.5644  30.5644  30.5644  30.5644
    32.1664

          k = 0.0000 0.3739 0.0000 (  5787 PWs)   bands (ev):

   -48.9753 -48.9713 -48.9684 -48.9668 -22.4281 -22.1738 -21.7895 -21.6973
   -21.6027 -21.4066 -21.4016 -21.2074 -17.3056 -17.2947 -17.2777 -17.2725
   -17.2633 -17.2608 -17.2154 -17.1933 -17.1823 -17.1814 -17.1710 -17.1605
    -3.1895  -2.5777  -2.3197  -1.4552  -1.3478  -1.2223  -1.1772  -1.0131
    -0.7884  -0.4047  -0.3095  -0.1929  -0.0659   0.0384   0.0491   0.6154
     0.6206   0.7799   1.1338   1.2630   1.3394   1.5790   1.5864   1.7017
    18.6827  18.7008  18.9991  19.0750  19.1509  19.2274  19.4019  19.4646
    19.6211  19.7164  19.7769  19.8468  19.8848  19.9923  20.2015  20.2304
    20.3191  20.3470  20.5354  20.7932  20.8632  20.9566  21.0431  21.1764
    21.6737  21.9188  22.1692  22.5024  22.8250  22.9586  22.9912  23.2112
    23.5848  23.6558  23.8537  24.1917  24.2232  24.2618  24.2943  24.6117
    24.7522  24.9731  25.1761  25.9117  26.2607  26.5050  26.5710  26.6298
    26.8626  27.5159  27.5642  28.2405  28.3579  28.4488  28.6188  28.8832
    29.0791  29.4283  29.5099  29.8456  29.8895  29.9395  30.7673  30.9544
    31.4878

          k = 0.0000 0.3739 0.1513 (  5804 PWs)   bands (ev):

   -48.9773 -48.9742 -48.9714 -48.9689 -22.3983 -22.2215 -21.7866 -21.7442
   -21.5011 -21.4059 -21.4023 -21.2473 -17.3102 -17.3039 -17.2833 -17.2736
   -17.2678 -17.2643 -17.2166 -17.2097 -17.1817 -17.1795 -17.1773 -17.1619
    -3.1481  -2.7982  -2.0302  -1.5157  -1.3161  -1.1412  -1.1161  -1.0239
    -0.7592  -0.7546  -0.5649  -0.3730   0.0732   0.2246   0.3433   0.6102
     0.6608   0.8181   1.0550   1.2144   1.3078   1.5375   1.6220   1.6950
    18.6351  18.8062  19.0210  19.0423  19.0944  19.2865  19.3220  19.4470
    19.5543  19.6565  19.7072  19.8342  20.0550  20.1776  20.2497  20.2861
    20.3094  20.4208  20.4972  20.6803  20.9034  20.9942  21.1151  21.2258
    21.5951  21.9019  22.3471  22.5465  22.5956  22.8278  22.9917  23.1217
    23.3795  23.3924  23.7681  23.9685  24.0458  24.2162  24.3281  24.4436
    25.1565  25.3363  25.5926  25.6594  26.5936  26.6946  26.7619  26.8608
    27.0881  27.3770  27.4639  28.2540  28.2729  28.3818  28.4303  28.6799
    28.9657  29.1225  29.1340  29.7492  29.8286  30.0414  30.8651  31.3074
    31.3281

          k = 0.0000 0.3739-0.3026 (  5816 PWs)   bands (ev):

   -48.9761 -48.9761 -48.9737 -48.9737 -22.3183 -22.3183 -21.7751 -21.7751
   -21.4041 -21.4041 -21.3561 -21.3561 -17.3073 -17.3073 -17.2787 -17.2787
   -17.2744 -17.2744 -17.2177 -17.2177 -17.1813 -17.1813 -17.1742 -17.1742
    -3.0188  -3.0188  -1.6869  -1.6869  -1.1480  -1.1480  -1.0673  -1.0673
    -0.8777  -0.8777  -0.6347  -0.6347   0.2586   0.2586   0.5513   0.5513
     0.8530   0.8530   0.9805   0.9805   1.4218   1.4218   1.6706   1.6706
    18.7385  18.7385  18.9448  18.9448  19.2976  19.2976  19.3873  19.3873
    19.5361  19.5361  19.7224  19.7224  20.1144  20.1144  20.3245  20.3245
    20.4839  20.4839  20.5774  20.5775  21.0016  21.0016  21.1987  21.1987
    21.8940  21.8940  22.1241  22.1241  22.7704  22.7704  22.8643  22.8643
    23.4101  23.4101  23.6623  23.6623  24.1608  24.1608  24.2640  24.2640
[...]
     Harris-Foulkes estimate   =   -1800.16424845 Ry
     estimated scf accuracy    <       0.54026102 Ry

     iteration #  7     ecut=    40.00 Ry     beta=0.70
     CG style diagonalization
     c_bands:  1 eigenvalues not converged
     c_bands:  1 eigenvalues not converged
     c_bands:  2 eigenvalues not converged
     ethr =  2.87E-04,  avg # of iterations =  4.5

     total cpu time spent up to now is     1561.5 secs

     total energy              =   -1800.02996652 Ry
     Harris-Foulkes estimate   =   -1800.14660204 Ry
     estimated scf accuracy    <       0.28590610 Ry

     iteration #  8     ecut=    40.00 Ry     beta=0.70
     CG style diagonalization
     ethr =  1.52E-04,  avg # of iterations =  3.5

     total cpu time spent up to now is     1583.7 secs

     total energy              =   -1800.06057704 Ry
     Harris-Foulkes estimate   =   -1800.07920446 Ry
     estimated scf accuracy    <       0.04146280 Ry

     iteration #  9     ecut=    40.00 Ry     beta=0.70
     CG style diagonalization
     c_bands:  1 eigenvalues not converged
     c_bands:  2 eigenvalues not converged
     c_bands:  1 eigenvalues not converged
     c_bands:  1 eigenvalues not converged
     ethr =  2.21E-05,  avg # of iterations =  4.2

     total cpu time spent up to now is     1613.2 secs

     total energy              =   -1800.07231835 Ry
     Harris-Foulkes estimate   =   -1800.07293100 Ry
     estimated scf accuracy    <       0.00144773 Ry

     iteration # 10     ecut=    40.00 Ry     beta=0.70
     CG style diagonalization
     c_bands:  1 eigenvalues not converged
     c_bands:  1 eigenvalues not converged
     ethr =  7.70E-07,  avg # of iterations =  4.9

     total cpu time spent up to now is     1646.3 secs

     total energy              =   -1800.07294862 Ry
     Harris-Foulkes estimate   =   -1800.07334672 Ry
     estimated scf accuracy    <       0.00085479 Ry

     iteration # 11     ecut=    40.00 Ry     beta=0.70
     CG style diagonalization
     ethr =  4.55E-07,  avg # of iterations =  3.6

     total cpu time spent up to now is     1668.4 secs

     total energy              =   -1800.07314726 Ry
     Harris-Foulkes estimate   =   -1800.07315623 Ry
     estimated scf accuracy    <       0.00001691 Ry

     iteration # 12     ecut=    40.00 Ry     beta=0.70
     CG style diagonalization
     ethr =  8.99E-09,  avg # of iterations =  4.6

     total cpu time spent up to now is     1697.8 secs

     End of self-consistent calculation

          k = 0.0000 0.0000 0.0000 (  6375 PWs)   bands (ev):

   -49.0042 -49.0035 -48.9945 -48.9941 -22.5839 -22.3302 -21.6851 -21.3878
   -21.3877 -21.3844 -21.3844 -21.3822 -17.4014 -17.3985 -17.3659 -17.3659
   -17.3647 -17.3647 -17.3072 -17.3028 -17.2913 -17.2913 -17.2911 -17.2910
    -3.8729  -3.2140  -2.4287  -1.5471  -1.5471  -1.3664  -1.3664  -1.1986
    -1.1986  -0.6570   0.0253   0.0254   0.0313   0.0314   0.2787   1.2679
     1.2686   1.3093   1.3093   1.3111   1.6666   1.6666   1.7821   1.7821
    17.8611  18.5409  19.0117  19.0393  19.0393  19.3104  19.4781  19.4781
    19.7068  19.7068  19.8103  19.8681  19.9529  19.9530  19.9944  20.0188
    20.2021  20.2021  20.5852  20.5853  20.6028  20.6028  20.6695  20.6695
    21.0346  21.0346  21.3905  21.9815  21.9816  22.0323  22.0323  22.4457
    22.9569  23.1787  23.1787  23.8165  24.4678  24.4678  24.8067  24.8067
    24.9729  24.9729  26.0007  27.0386  27.1288  27.1288  27.3663  27.6427
    28.3873  28.4106  28.7136  28.7136  28.7620  28.7621  28.9846  28.9846
    29.2942  29.2943  30.7228  31.1242  31.1242  31.4326  31.4326  31.5692
    31.9299

          k = 0.0000 0.0000 0.1513 (  6339 PWs)   bands (ev):

   -48.9983 -48.9978 -48.9970 -48.9894 -22.5551 -22.3800 -21.6280 -21.4183
   -21.3873 -21.3872 -21.3849 -21.3848 -17.3846 -17.3787 -17.3701 -17.3701
   -17.3634 -17.3634 -17.2982 -17.2844 -17.2844 -17.2833 -17.2829 -17.2829
    -3.8171  -3.3981  -2.1355  -1.5343  -1.5343  -1.4317  -1.4317  -1.0582
    -1.0581  -0.9919  -0.4050  -0.4050   0.4747   0.4747   0.5526   1.1844
     1.1844   1.2199   1.2687   1.2700   1.7039   1.7039   1.7756   1.7757
    17.9418  18.2214  19.1179  19.1179  19.1393  19.2728  19.4178  19.4178
    19.6527  19.6528  19.7159  19.7882  19.8073  19.8073  20.2998  20.2998
    20.4602  20.4870  20.4870  20.5732  20.6475  20.6476  20.8778  20.8778
    21.0363  21.0363  21.1384  21.8699  21.8699  22.0782  22.2351  22.2351
    22.8578  23.2481  23.3698  23.3698  23.7610  23.7610  24.2538  24.2538
    26.0389  26.0389  26.8048  27.0950  27.2660  27.2661  27.3352  27.7360
    28.2562  28.7428  28.7428  28.7513  28.7513  28.7812  29.0335  29.0335
    29.2688  29.2689  30.0743  30.5338  30.5339  31.3775  31.3924  31.3926
    31.9292

          k = 0.0000 0.0000-0.3026 (  6322 PWs)   bands (ev):

   -48.9968 -48.9968 -48.9921 -48.9921 -22.4769 -22.4769 -21.5137 -21.5137
   -21.3861 -21.3861 -21.3860 -21.3860 -17.3870 -17.3870 -17.3673 -17.3673
   -17.3673 -17.3673 -17.2799 -17.2799 -17.2799 -17.2799 -17.2727 -17.2727
    -3.6524  -3.6524  -1.5782  -1.5782  -1.4980  -1.4980  -1.4980  -1.4980
    -0.7769  -0.7769  -0.7769  -0.7769   0.8810   0.8810   0.8811   0.8811
     0.9455   0.9455   1.2691   1.2691   1.7510   1.7510   1.7510   1.7510
    18.0664  18.0664  18.9503  18.9503  19.2902  19.2902  19.2902  19.2902
    19.6311  19.6311  19.6312  19.6312  20.2983  20.2983  20.4959  20.4959
    20.4959  20.4959  20.6444  20.6444  20.6444  20.6445  20.7739  20.7739
    21.0624  21.0624  21.5321  21.5321  21.5321  21.5321  22.8165  22.8165
    22.8165  22.8165  22.8697  22.8697  23.8192  23.8192  23.8192  23.8192
    26.9424  26.9424  26.9598  26.9598  26.9598  26.9598  27.9775  27.9775
    28.8184  28.8184  28.8184  28.8184  28.8617  28.8617  29.1537  29.1537
    29.1537  29.1538  29.6724  29.6725  30.5356  30.5356  30.5356  30.5358
    32.1497

          k = 0.0000 0.3739 0.0000 (  6330 PWs)   bands (ev):

   -49.0006 -48.9982 -48.9951 -48.9887 -22.4152 -22.1595 -21.7756 -21.6866
   -21.5879 -21.3916 -21.3865 -21.1942 -17.3934 -17.3810 -17.3719 -17.3527
   -17.3370 -17.3360 -17.3209 -17.2966 -17.2921 -17.2855 -17.2851 -17.2750
    -3.1972  -2.5880  -2.3314  -1.4666  -1.3638  -1.2351  -1.1909  -1.0245
    -0.8017  -0.4195  -0.3264  -0.2052  -0.0809   0.0237   0.0354   0.6066
     0.6078   0.7648   1.1185   1.2509   1.3147   1.5623   1.5688   1.6883
    18.6811  18.7013  18.9996  19.0687  19.1525  19.2296  19.4009  19.4662
    19.6223  19.7180  19.7793  19.8460  19.8850  19.9934  20.2049  20.2315
    20.3177  20.3479  20.5380  20.7962  20.8609  20.9567  21.0428  21.1730
    21.6741  21.9154  22.1632  22.4992  22.8189  22.9490  22.9893  23.2065
    23.5777  23.6502  23.8485  24.1841  24.2186  24.2547  24.2902  24.6049
    24.7474  24.9593  25.1697  25.9058  26.2525  26.4961  26.5636  26.6187
    26.8556  27.5070  27.5514  28.2299  28.3396  28.4430  28.6126  28.8693
    29.0613  29.4104  29.4900  29.8403  29.8670  29.9198  30.7210  30.9331
    31.4669

          k = 0.0000 0.3739 0.1513 (  6346 PWs)   bands (ev):

   -49.0001 -48.9986 -48.9964 -48.9932 -22.3853 -22.2075 -21.7728 -21.7316
   -21.4877 -21.3909 -21.3873 -21.2341 -17.3937 -17.3932 -17.3726 -17.3627
   -17.3452 -17.3423 -17.3172 -17.2965 -17.2887 -17.2887 -17.2817 -17.2802
    -3.1556  -2.8070  -2.0421  -1.5297  -1.3295  -1.1536  -1.1296  -1.0366
    -0.7711  -0.7674  -0.5772  -0.3868   0.0604   0.2144   0.3276   0.5962
     0.6487   0.8009   1.0396   1.1949   1.2941   1.5205   1.6062   1.6800
    18.6345  18.8051  19.0177  19.0424  19.0931  19.2883  19.3216  19.4487
    19.5560  19.6585  19.7078  19.8369  20.0537  20.1795  20.2496  20.2861
    20.3123  20.4210  20.4992  20.6834  20.8999  20.9960  21.1123  21.2259
    21.5932  21.8971  22.3441  22.5428  22.5890  22.8213  22.9895  23.1167
    23.3753  23.3867  23.7608  23.9655  24.0396  24.2110  24.3210  24.4342
    25.1490  25.3270  25.5854  25.6495  26.5848  26.6852  26.7524  26.8528
    27.0767  27.3687  27.4532  28.2389  28.2632  28.3724  28.4233  28.6655
    28.9572  29.1102  29.1171  29.7310  29.8073  30.0280  30.8273  31.2860
    31.3013

          k = 0.0000 0.3739-0.3026 (  6328 PWs)   bands (ev):

   -48.9976 -48.9976 -48.9931 -48.9931 -22.3049 -22.3049 -21.7616 -21.7616
   -21.3891 -21.3891 -21.3430 -21.3430 -17.3945 -17.3944 -17.3663 -17.3663
   -17.3421 -17.3421 -17.3003 -17.3003 -17.2819 -17.2819 -17.2745 -17.2744
    -3.0256  -3.0256  -1.6980  -1.6980  -1.1598  -1.1598  -1.0796  -1.0796
    -0.8883  -0.8883  -0.6455  -0.6455   0.2507   0.2507   0.5375   0.5375
     0.8378   0.8378   0.9647   0.9647   1.4062   1.4062   1.6551   1.6551
    18.7385  18.7385  18.9435  18.9435  19.2967  19.2967  19.3894  19.3894
    19.5375  19.5375  19.7248  19.7248  20.1143  20.1143  20.3266  20.3266
    20.4869  20.4869  20.5774  20.5774  21.0029  21.0029  21.1970  21.1970
    21.8908  21.8908  22.1192  22.1192  22.7677  22.7677  22.8600  22.8600
    23.4069  23.4069  23.6571  23.6571  24.1559  24.1559  24.2559  24.2559
    25.4633  25.4633  26.0567  26.0567  26.3565  26.3565  27.0674  27.0674
    27.2395  27.2395  28.0619  28.0619  28.3282  28.3282  28.3596  28.3596
    28.7297  28.7297  29.1172  29.1173  29.9485  29.9485  30.9904  30.9905
    31.1650

          k =-0.4857-0.2804 0.0000 (  6324 PWs)   bands (ev):

   -49.0001 -48.9980 -48.9956 -48.9872 -22.3224 -22.0653 -21.9004 -21.6925
   -21.6871 -21.3928 -21.3873 -21.1730 -17.3930 -17.3752 -17.3656 -17.3522
   -17.3518 -17.3300 -17.3117 -17.3075 -17.2898 -17.2879 -17.2770 -17.2675
    -2.8923  -2.2985  -2.2946  -1.5026  -1.3988  -1.1898  -0.8591  -0.6802
    -0.6445  -0.4773  -0.3739  -0.2998  -0.2365  -0.1378   0.0223   0.1213
     0.1690   0.5606   1.0399   1.1637   1.3167   1.5519   1.6391   1.6738
    18.4096  18.8677  19.0192  19.1832  19.2891  19.3709  19.4634  19.5502
    19.5548  19.6924  19.7532  19.8106  19.9741  20.0389  20.1844  20.1935
    20.2738  20.3525  20.5401  20.7384  21.0162  21.3806  21.4160  21.4388
    21.8939  21.9621  22.1976  22.5028  22.9185  22.9498  23.3682  23.6598
    23.8208  23.8814  23.9144  24.2356  24.2786  24.4132  24.8406  24.9195
    25.2316  25.3011  25.4406  25.7748  25.8953  26.2373  26.3610  26.5078
    26.6313  26.9413  26.9791  27.1951  27.4303  28.0067  28.0121  28.1742
    28.8031  28.8915  28.8916  29.1166  29.2194  29.7578  30.0697  31.2124
    31.3270

          k =-0.4857-0.2804 0.1513 (  6346 PWs)   bands (ev):

   -49.0025 -48.9985 -48.9968 -48.9913 -22.2903 -22.1062 -21.8963 -21.8230
   -21.5086 -21.3920 -21.3881 -21.2163 -17.3927 -17.3907 -17.3742 -17.3586
   -17.3487 -17.3395 -17.3158 -17.3112 -17.2877 -17.2826 -17.2815 -17.2790
    -2.8576  -2.5625  -1.9829  -1.5502  -1.3248  -1.1286  -0.8435  -0.7516
    -0.7419  -0.7007  -0.3711  -0.3352  -0.2286  -0.1629   0.0665   0.1171
     0.3917   0.6816   0.9532   1.1958   1.2496   1.5802   1.5941   1.6664
    18.4583  18.9332  19.0100  19.1440  19.2722  19.2857  19.3380  19.4609
    19.6233  19.6591  19.8749  19.9183  20.0078  20.0996  20.1842  20.2757
    20.3609  20.4496  20.5714  20.6041  20.9806  21.1934  21.2512  21.6194
    21.7571  22.2065  22.2981  22.4839  22.6431  23.0535  23.2619  23.3390
    23.5045  23.8582  23.9586  24.0170  24.2235  24.8656  24.9029  25.1520
    25.4330  25.4758  25.4807  25.8829  25.9081  26.0833  26.1730  26.6310
    26.8876  27.0526  27.1082  27.2840  27.4367  27.4801  28.0130  28.0630
    28.5245  28.6955  28.7918  29.0468  29.1507  29.5605  31.0254  31.0802
    31.3077

          k =-0.4857-0.2804-0.3026 (  6340 PWs)   bands (ev):

   -49.0004 -49.0004 -48.9934 -48.9934 -22.2044 -22.2044 -21.8790 -21.8790
   -21.3901 -21.3901 -21.3370 -21.3370 -17.3891 -17.3891 -17.3713 -17.3713
   -17.3445 -17.3445 -17.3040 -17.3040 -17.2923 -17.2923 -17.2761 -17.2761
    -2.7502  -2.7502  -1.7056  -1.7056  -1.0872  -1.0872  -0.9625  -0.9625
    -0.7911  -0.7911  -0.3613  -0.3613  -0.2016  -0.2016   0.1036   0.1036
     0.7177   0.7177   0.9458   0.9458   1.4297   1.4297   1.6415   1.6415
    18.6452  18.6452  19.1798  19.1799  19.2360  19.2360  19.3698  19.3698
    19.6532  19.6532  19.8671  19.8671  20.1887  20.1887  20.2512  20.2512
    20.3896  20.3896  20.5480  20.5480  21.1083  21.1083  21.4141  21.4141
    22.0506  22.0506  22.2782  22.2782  22.6724  22.6724  23.1928  23.1928
    23.8572  23.8572  23.8938  23.8938  24.4201  24.4201  25.2553  25.2553
    25.3470  25.3470  25.9247  25.9247  26.0125  26.0125  26.4497  26.4497
    27.1455  27.1455  27.2791  27.2791  27.5522  27.5522  27.7435  27.7436
    28.3564  28.3564  28.7770  28.7771  29.2496  29.2496  31.2188  31.2257
    31.2697

          k =-0.4857 0.0935 0.0000 (  6321 PWs)   bands (ev):

   -48.9992 -48.9967 -48.9941 -48.9906 -22.3221 -22.0659 -21.9007 -21.6917
   -21.6871 -21.3919 -21.3886 -21.1728 -17.3902 -17.3868 -17.3589 -17.3565
   -17.3370 -17.3284 -17.3218 -17.3058 -17.2866 -17.2828 -17.2795 -17.2695
    -2.8293  -2.2947  -2.2543  -1.5922  -1.3748  -1.2329  -1.2327  -0.7136
    -0.5802  -0.5374  -0.3735  -0.1860  -0.1000  -0.0609  -0.0388   0.0898
     0.5322   0.6707   1.1093   1.1908   1.2788   1.4087   1.4528   1.6320
    18.5905  18.8924  19.0588  19.1494  19.1756  19.2733  19.3367  19.3876
    19.4822  19.6914  19.7446  19.7647  19.9237  19.9943  20.0309  20.0648
    20.5995  20.7454  20.8754  20.8854  21.0970  21.4162  21.4917  21.8282
    21.8513  22.1581  22.3523  22.4827  22.5690  22.9303  23.0954  23.3133
    23.7291  23.8458  24.1055  24.1303  24.2264  24.2999  24.4306  24.7647
    24.8246  25.0306  25.6190  25.7124  25.8214  25.9943  26.1096  26.3391
    26.7932  26.9241  27.3643  27.3798  27.4186  27.7380  27.8360  28.4056
    28.8421  29.0551  29.5048  29.8542  29.8934  30.0517  30.7567  30.8078
    31.4212

          k =-0.4857 0.0935 0.1513 (  6326 PWs)   bands (ev):

   -48.9984 -48.9979 -48.9945 -48.9912 -22.2900 -22.1065 -21.8967 -21.8229
   -21.5081 -21.3914 -21.3891 -21.2161 -17.3933 -17.3889 -17.3603 -17.3580
   -17.3410 -17.3342 -17.3178 -17.3036 -17.2836 -17.2833 -17.2761 -17.2753
    -2.7964  -2.5217  -1.9920  -1.6452  -1.2940  -1.1922  -1.1511  -0.8037
    -0.6535  -0.6138  -0.5317  -0.4471  -0.0767  -0.0604   0.2250   0.3065
     0.5697   0.7076   1.0258   1.1346   1.2818   1.4489   1.4523   1.5850
    18.6241  18.9488  19.0148  19.1482  19.2024  19.2269  19.3190  19.4330
    19.4636  19.5760  19.6965  19.8021  19.8693  20.0359  20.2103  20.3980
    20.4645  20.5547  20.8296  20.9921  21.1042  21.4204  21.5079  21.6185
    21.8543  22.1805  22.3396  22.6669  22.7208  22.8372  23.0668  23.2911
    23.4530  23.6743  23.7617  24.0742  24.1521  24.3127  24.5793  24.7237
    25.0228  25.2070  25.4960  25.8345  26.0077  26.0965  26.2811  26.4951
    26.8276  27.0357  27.2484  27.4340  27.4830  27.6358  27.9775  28.1990
    28.7297  28.9111  29.1673  29.4208  29.8266  29.9251  30.7137  30.8800
    31.5707

          k =-0.4857 0.0935-0.3026 (  6328 PWs)   bands (ev):

   -48.9985 -48.9985 -48.9929 -48.9929 -22.2043 -22.2043 -21.8792 -21.8792
   -21.3903 -21.3903 -21.3367 -21.3367 -17.3917 -17.3917 -17.3604 -17.3604
   -17.3392 -17.3392 -17.3100 -17.3100 -17.2838 -17.2838 -17.2758 -17.2758
    -2.6958  -2.6958  -1.7700  -1.7700  -1.1140  -1.1140  -1.0181  -1.0180
    -0.8156  -0.8156  -0.5285  -0.5285  -0.0637  -0.0637   0.4049   0.4049
     0.7264   0.7264   0.9528   0.9528   1.4010   1.4010   1.4980   1.4980
    18.7676  18.7676  19.0945  19.0945  19.2075  19.2075  19.4073  19.4073
    19.4810  19.4810  19.8221  19.8221  20.0075  20.0075  20.1813  20.1813
    20.5714  20.5714  20.9195  20.9195  21.2367  21.2367  21.6018  21.6018
    22.1005  22.1005  22.3477  22.3477  22.6955  22.6956  23.2300  23.2300
    23.5140  23.5140  23.6991  23.6991  24.4251  24.4251  24.6601  24.6601
    24.9309  24.9309  25.8786  25.8787  26.1403  26.1403  26.6419  26.6419
    26.9624  26.9624  27.2181  27.2181  27.4575  27.4575  28.2697  28.2697
    28.8197  28.8197  28.9614  28.9615  29.5353  29.5353  30.7886  30.7887
    31.7685

     the Fermi energy is    26.4946 ev

!    total energy              =   -1800.07315854 Ry
     Harris-Foulkes estimate   =   -1800.07315888 Ry
     estimated scf accuracy    <       0.00000048 Ry

     The total energy is the sum of the following terms:

     one-electron contribution =     -71.02789733 Ry
     hartree contribution      =     194.70158430 Ry
     xc contribution           =    -195.53825133 Ry
     ewald contribution        =   -1727.64103785 Ry
     smearing contrib. (-TS)   =      -0.56755633 Ry

     convergence has been achieved in  12 iterations

     Forces acting on atoms (Ry/au):

     atom    1 type  1   force =     0.00000000    0.00000000    0.01269518
     atom    2 type  1   force =     0.00000000    0.00000000    0.01269518
     atom    3 type  1   force =     0.00000000    0.00000000   -0.01269518
     atom    4 type  1   force =     0.00000000    0.00000000   -0.01269518
     atom    5 type  2   force =     0.00000000    0.00000000    0.00000000
     atom    6 type  2   force =     0.00000000    0.00000000    0.00000000
     atom    7 type  2   force =     0.00000000    0.00765869    0.00000000
     atom    8 type  2   force =    -0.00663262    0.00382935    0.00000000
     atom    9 type  2   force =     0.00663262    0.00382935    0.00000000
     atom   10 type  2   force =    -0.00663262   -0.00382935    0.00000000
     atom   11 type  2   force =     0.00663262   -0.00382935    0.00000000
     atom   12 type  2   force =     0.00000000   -0.00765869    0.00000000

     Total force =     0.031569     Total SCF correction =     0.000000


     entering subroutine stress ...

          total   stress  (Ry/bohr**3)                   (kbar)     P=  370.12
   0.00253941   0.00000000   0.00000000        373.56      0.00      0.00
   0.00000000   0.00253941   0.00000000          0.00    373.56      0.00
   0.00000000   0.00000000   0.00246934          0.00      0.00    363.25


     Writing output data file Prototype-La-hP12-MgZn2.save
 
     init_run     :      5.49s CPU      7.45s WALL (       2 calls)
     electrons    :   1410.46s CPU   1661.28s WALL (       5 calls)
     update_pot   :      3.08s CPU      3.23s WALL (       3 calls)
     forces       :      6.35s CPU      6.66s WALL (       5 calls)
     stress       :     23.14s CPU     23.94s WALL (       5 calls)

     Called by init_run:
     wfcinit      :      4.37s CPU      6.28s WALL (       2 calls)
     potinit      :      0.50s CPU      0.50s WALL (       2 calls)

     Called by electrons:
     c_bands      :   1379.30s CPU   1599.13s WALL (      48 calls)
     sum_band     :     30.54s CPU     42.73s WALL (      48 calls)
     v_of_rho     :      0.13s CPU      0.16s WALL (      53 calls)
     mix_rho      :      0.13s CPU      0.18s WALL (      48 calls)

     Called by c_bands:
     init_us_2    :      2.46s CPU      2.95s WALL (    1296 calls)
     ccgdiagg     :   1273.66s CPU   1461.44s WALL (     640 calls)
     wfcrot       :    107.64s CPU    138.85s WALL (     652 calls)

     Called by *cgdiagg:
     h_psi        :    902.23s CPU   1097.72s WALL (  318617 calls)
     cdiaghg      :      3.99s CPU      4.51s WALL (     652 calls)

     Called by h_psi:
     add_vuspsi   :    231.71s CPU    238.55s WALL (  318617 calls)

     General routines
     calbec       :    476.63s CPU    523.09s WALL (  636702 calls)
     fft          :      0.21s CPU      0.28s WALL (     235 calls)
     fftw         :    393.02s CPU    529.76s WALL (  848370 calls)
     davcio       :      1.44s CPU      4.68s WALL (    1872 calls)
 
     Parallel routines
     fft_scatter  :    175.06s CPU    246.28s WALL (  848605 calls)
 
     PWSCF        : 24m 8.98s CPU    28m25.26s WALL

 
   This run was terminated on:  18: 5: 1  22Mar2018            

=------------------------------------------------------------------------------=
   JOB DONE.
=------------------------------------------------------------------------------=
