
     Program PWSCF v.5.0.2 starts on 22Mar2018 at 18:45:36 

     This program is part of the open-source Quantum ESPRESSO suite
     for quantum simulation of materials; please cite
         "P. Giannozzi et al., J. Phys.:Condens. Matter 21 395502 (2009);
          URL http://www.quantum-espresso.org", 
     in publications or presentations arising from this work. More details at
     http://www.quantum-espresso.org/quote.php

     Parallel version (MPI), running on     4 processors
     R & G space division:  proc/nbgrp/npool/nimage =       4

     Current dimensions of program PWSCF are:
     Max number of different atomic species (ntypx) = 10
     Max number of k-points (npk) =  40000
     Max angular momentum in pseudopotentials (lmaxx) =  3
     Waiting for input...
     Reading input from standard input

     Subspace diagonalization in iterative solution of the eigenvalue problem:
     a serial algorithm will be used

 
     Parallelization info
     --------------------
     sticks:   dense  smooth     PW     G-vecs:    dense   smooth      PW
     Min         162     162     52                 2693     2693     497
     Max         163     163     54                 2695     2695     498
     Sum         649     649    211                10777    10777    1989
 


     bravais-lattice index     =            0
     lattice parameter (alat)  =       7.6055  a.u.
     unit-cell volume          =     311.0722 (a.u.)^3
     number of atoms/cell      =            2
     number of atomic types    =            2
     number of electrons       =        29.00
     number of Kohn-Sham states=           19
     kinetic-energy cutoff     =      40.0000  Ry
     charge density cutoff     =     160.0000  Ry
     convergence threshold     =      1.0E-04
     mixing beta               =       0.7000
     number of iterations used =            8  plain     mixing
     Exchange-correlation      = SLA-PZ-NOGX-NOGC ( 1 1 0 0 0)
     EXX-fraction              =        0.00
     nstep                     =           50


     celldm(1)=   7.605458  celldm(2)=   0.000000  celldm(3)=   0.000000
     celldm(4)=   0.000000  celldm(5)=   0.000000  celldm(6)=   0.000000

     crystal axes: (cart. coord. in units of alat)
               a(1) = (   1.000000   0.000000   0.000000 )  
               a(2) = (   0.500000   0.866025   0.000000 )  
               a(3) = (   0.500000   0.288675   0.816497 )  

     reciprocal axes: (cart. coord. in units 2 pi/alat)
               b(1) = (  1.000000 -0.577350 -0.408248 )  
               b(2) = (  0.000000  1.154701 -0.408248 )  
               b(3) = (  0.000000  0.000000  1.224745 )  


     PseudoPot. # 1 for Sm read from file:
     /home/cwx6513/pp.La/Sm.UPF
     MD5 check sum: 5079e8b144a06bfcdbc14fb02b96ab09
     Pseudo is Norm-conserving, Zval = 16.0
     Generated in analytical, separable form
     Using radial grid of 1259 points,  6 beta functions with: 
                l(1) =   0
                l(2) =   0
                l(3) =   1
                l(4) =   1
                l(5) =   2
                l(6) =   3

     PseudoPot. # 2 for Pr read from file:
     /home/cwx6513/pp.La/Pr.UPF
     MD5 check sum: 70e2b4b153859e92c8c91247dfc63203
     Pseudo is Norm-conserving, Zval = 13.0
     Generated in analytical, separable form
     Using radial grid of 1255 points,  6 beta functions with: 
                l(1) =   0
                l(2) =   0
                l(3) =   1
                l(4) =   1
                l(5) =   2
                l(6) =   3

     atomic species   valence    mass     pseudopotential
        Na            16.00    22.98970     Sm( 1.00)
        Cl            13.00    35.45300     Pr( 1.00)

     12 Sym. Ops., with inversion, found



   Cartesian axes

     site n.     atom                  positions (alat units)
         1           Na  tau(   1) = (   0.0000000   0.0000000   0.0000000  )
         2           Cl  tau(   2) = (   1.0000000   0.5773503   0.4082483  )

     number of k points=   496  gaussian smearing, width (Ry)=  0.1000

     Number of k-points >= 100: set verbosity='high' to print them.

     Dense  grid:    10777 G-vectors     FFT dimensions: (  32,  32,  32)

     Largest allocated arrays     est. size (Mb)     dimensions
        Kohn-Sham Wavefunctions         0.10 Mb     (    343,   19)
        NL pseudopotentials             0.21 Mb     (    343,   40)
        Each V/rho on FFT grid          0.12 Mb     (   8192)
        Each G-vector array             0.02 Mb     (   2694)
        G-vector shells                 0.02 Mb     (   2694)
     Largest temporary arrays     est. size (Mb)     dimensions
        Each subspace H/S matrix        0.01 Mb     (  19,  19)
        Each <psi_i|beta_j> matrix      0.01 Mb     (     40,   19)
        Arrays for rho mixing           1.00 Mb     (   8192,   8)

     Initial potential from superposition of free atoms

     starting charge   12.99054, renormalised to   29.00000

     negative rho (up, down):  0.178E-03 0.000E+00
     Starting wfc are   20 randomized atomic wfcs

     total cpu time spent up to now is        4.4 secs

     Self-consistent Calculation

     iteration #  1     ecut=    40.00 Ry     beta=0.70
     CG style diagonalization
     c_bands:  5 eigenvalues not converged
     c_bands:  2 eigenvalues not converged
     c_bands:  2 eigenvalues not converged
     c_bands:  2 eigenvalues not converged
     c_bands:  5 eigenvalues not converged
     c_bands:  5 eigenvalues not converged
     c_bands:  1 eigenvalues not converged
     c_bands:  1 eigenvalues not converged
     c_bands:  4 eigenvalues not converged
     c_bands:  2 eigenvalues not converged
     c_bands:  5 eigenvalues not converged
     c_bands:  4 eigenvalues not converged
     c_bands:  4 eigenvalues not converged
     c_bands:  1 eigenvalues not converged
     c_bands:  4 eigenvalues not converged
     c_bands:  3 eigenvalues not converged
     c_bands:  1 eigenvalues not converged
     c_bands:  1 eigenvalues not converged
     c_bands:  1 eigenvalues not converged
     c_bands:  1 eigenvalues not converged
     c_bands:  2 eigenvalues not converged
     c_bands:  5 eigenvalues not converged
     c_bands:  5 eigenvalues not converged
     c_bands:  3 eigenvalues not converged
     c_bands:  1 eigenvalues not converged
     c_bands:  2 eigenvalues not converged
     c_bands:  1 eigenvalues not converged
     c_bands:  1 eigenvalues not converged
     c_bands:  1 eigenvalues not converged
     c_bands:  2 eigenvalues not converged
     c_bands:  1 eigenvalues not converged
     c_bands:  1 eigenvalues not converged
     c_bands:  2 eigenvalues not converged
     c_bands:  2 eigenvalues not converged
     c_bands:  3 eigenvalues not converged
     c_bands:  5 eigenvalues not converged
     c_bands:  4 eigenvalues not converged
     c_bands:  1 eigenvalues not converged
     c_bands:  2 eigenvalues not converged
     c_bands:  1 eigenvalues not converged
     c_bands:  4 eigenvalues not converged
     c_bands:  5 eigenvalues not converged
     c_bands:  2 eigenvalues not converged
     c_bands:  5 eigenvalues not converged
     c_bands:  1 eigenvalues not converged
     c_bands:  2 eigenvalues not converged
     c_bands:  3 eigenvalues not converged
     c_bands:  2 eigenvalues not converged
     c_bands:  5 eigenvalues not converged
     c_bands:  3 eigenvalues not converged
     c_bands:  3 eigenvalues not converged
     c_bands:  4 eigenvalues not converged
     c_bands:  5 eigenvalues not converged
     c_bands:  2 eigenvalues not converged
     c_bands:  1 eigenvalues not converged
     c_bands:  2 eigenvalues not converged
     c_bands:  1 eigenvalues not converged
     c_bands:  3 eigenvalues not converged
     c_bands:  4 eigenvalues not converged
     c_bands:  1 eigenvalues not converged
     c_bands:  2 eigenvalues not converged
     c_bands:  2 eigenvalues not converged
     c_bands:  3 eigenvalues not converged
     c_bands:  3 eigenvalues not converged
     c_bands:  2 eigenvalues not converged
     c_bands:  5 eigenvalues not converged
     c_bands:  5 eigenvalues not converged
     c_bands:  4 eigenvalues not converged
     c_bands:  5 eigenvalues not converged
     c_bands:  1 eigenvalues not converged
     c_bands:  1 eigenvalues not converged
     c_bands:  2 eigenvalues not converged
     c_bands:  3 eigenvalues not converged
     c_bands:  1 eigenvalues not converged
     c_bands:  2 eigenvalues not converged
     c_bands:  1 eigenvalues not converged
     c_bands:  3 eigenvalues not converged
     c_bands:  3 eigenvalues not converged
     c_bands:  5 eigenvalues not converged
     c_bands:  2 eigenvalues not converged
     c_bands:  1 eigenvalues not converged
     c_bands:  1 eigenvalues not converged
     c_bands:  2 eigenvalues not converged
     c_bands:  1 eigenvalues not converged
     c_bands:  2 eigenvalues not converged
     c_bands:  2 eigenvalues not converged
     c_bands:  2 eigenvalues not converged
     c_bands:  1 eigenvalues not converged
     c_bands:  2 eigenvalues not converged
     c_bands:  3 eigenvalues not converged
     c_bands:  1 eigenvalues not converged
     c_bands:  2 eigenvalues not converged
     c_bands:  2 eigenvalues not converged
     c_bands:  5 eigenvalues not converged
     c_bands:  2 eigenvalues not converged
     c_bands:  2 eigenvalues not converged
     c_bands:  2 eigenvalues not converged
     c_bands:  2 eigenvalues not converged
     c_bands:  1 eigenvalues not converged
     c_bands:  2 eigenvalues not converged
     c_bands:  2 eigenvalues not converged
     c_bands:  2 eigenvalues not converged
     c_bands:  2 eigenvalues not converged
     c_bands:  3 eigenvalues not converged
     c_bands:  1 eigenvalues not converged
     c_bands:  1 eigenvalues not converged
     c_bands:  5 eigenvalues not converged
     c_bands:  1 eigenvalues not converged
     c_bands:  1 eigenvalues not converged
     c_bands:  1 eigenvalues not converged
     c_bands:  1 eigenvalues not converged
     c_bands:  2 eigenvalues not converged
     c_bands:  2 eigenvalues not converged
     c_bands:  3 eigenvalues not converged
     c_bands:  3 eigenvalues not converged
     c_bands:  4 eigenvalues not converged
     c_bands:  3 eigenvalues not converged
     c_bands:  3 eigenvalues not converged
     c_bands:  2 eigenvalues not converged
     c_bands:  3 eigenvalues not converged
     c_bands:  1 eigenvalues not converged
     c_bands:  2 eigenvalues not converged
     c_bands:  1 eigenvalues not converged
     c_bands:  2 eigenvalues not converged
     c_bands:  2 eigenvalues not converged
     c_bands:  1 eigenvalues not converged
     c_bands:  2 eigenvalues not converged
     c_bands:  2 eigenvalues not converged
     c_bands:  2 eigenvalues not converged
     c_bands:  2 eigenvalues not converged
     c_bands:  4 eigenvalues not converged
     c_bands:  4 eigenvalues not converged
     c_bands:  5 eigenvalues not converged
     c_bands:  4 eigenvalues not converged
     c_bands:  1 eigenvalues not converged
     c_bands:  1 eigenvalues not converged
     c_bands:  2 eigenvalues not converged
     c_bands:  2 eigenvalues not converged
     c_bands:  3 eigenvalues not converged
     c_bands:  2 eigenvalues not converged
     c_bands:  3 eigenvalues not converged
     c_bands:  1 eigenvalues not converged
     c_bands:  4 eigenvalues not converged
     c_bands:  5 eigenvalues not converged
     c_bands:  5 eigenvalues not converged
     c_bands:  2 eigenvalues not converged
     c_bands:  2 eigenvalues not converged
     c_bands:  1 eigenvalues not converged
     c_bands:  1 eigenvalues not converged
     c_bands:  3 eigenvalues not converged
     c_bands:  3 eigenvalues not converged
     c_bands:  4 eigenvalues not converged
     c_bands:  1 eigenvalues not converged
     c_bands:  1 eigenvalues not converged
     c_bands:  2 eigenvalues not converged
     c_bands:  1 eigenvalues not converged
     c_bands:  2 eigenvalues not converged
     c_bands:  1 eigenvalues not converged
     c_bands:  1 eigenvalues not converged
     c_bands:  2 eigenvalues not converged
     c_bands:  1 eigenvalues not converged
     c_bands:  1 eigenvalues not converged
     c_bands:  5 eigenvalues not converged
     c_bands:  2 eigenvalues not converged
     c_bands:  2 eigenvalues not converged
     c_bands:  2 eigenvalues not converged
     c_bands:  2 eigenvalues not converged
     c_bands:  2 eigenvalues not converged
     c_bands:  4 eigenvalues not converged
     c_bands:  1 eigenvalues not converged
     c_bands:  1 eigenvalues not converged
     c_bands:  1 eigenvalues not converged
     c_bands:  5 eigenvalues not converged
     c_bands:  2 eigenvalues not converged
     c_bands:  1 eigenvalues not converged
     c_bands:  2 eigenvalues not converged
     c_bands:  2 eigenvalues not converged
     c_bands:  1 eigenvalues not converged
     c_bands:  3 eigenvalues not converged
     c_bands:  1 eigenvalues not converged
     c_bands:  1 eigenvalues not converged
     c_bands:  4 eigenvalues not converged
     c_bands:  4 eigenvalues not converged
     c_bands:  1 eigenvalues not converged
     c_bands:  1 eigenvalues not converged
     c_bands:  1 eigenvalues not converged
     c_bands:  1 eigenvalues not converged
     c_bands:  5 eigenvalues not converged
     c_bands:  3 eigenvalues not converged
     c_bands:  1 eigenvalues not converged
     c_bands:  1 eigenvalues not converged
     c_bands:  1 eigenvalues not converged
     c_bands:  3 eigenvalues not converged
     c_bands:  5 eigenvalues not converged
     c_bands:  5 eigenvalues not converged
     c_bands:  2 eigenvalues not converged
     c_bands:  2 eigenvalues not converged
     c_bands:  2 eigenvalues not converged
     c_bands:  5 eigenvalues not converged
     c_bands:  5 eigenvalues not converged
     c_bands:  4 eigenvalues not converged
     c_bands:  1 eigenvalues not converged
     c_bands:  3 eigenvalues not converged
     c_bands:  2 eigenvalues not converged
     c_bands:  1 eigenvalues not converged
     c_bands:  5 eigenvalues not converged
     c_bands:  5 eigenvalues not converged
     c_bands:  4 eigenvalues not converged
     c_bands:  5 eigenvalues not converged
     c_bands:  1 eigenvalues not converged
     c_bands:  1 eigenvalues not converged
     c_bands:  5 eigenvalues not converged
     c_bands:  2 eigenvalues not converged
     c_bands:  1 eigenvalues not converged
     c_bands:  1 eigenvalues not converged
     c_bands:  4 eigenvalues not converged
     c_bands:  3 eigenvalues not converged
     c_bands:  2 eigenvalues not converged
     c_bands:  1 eigenvalues not converged
     c_bands:  3 eigenvalues not converged
     c_bands:  2 eigenvalues not converged
     c_bands:  1 eigenvalues not converged
     c_bands:  2 eigenvalues not converged
     c_bands:  2 eigenvalues not converged
     c_bands:  2 eigenvalues not converged
     c_bands:  2 eigenvalues not converged
     c_bands:  1 eigenvalues not converged
     c_bands:  5 eigenvalues not converged
     c_bands:  3 eigenvalues not converged
     c_bands:  3 eigenvalues not converged
     c_bands:  1 eigenvalues not converged
     c_bands:  1 eigenvalues not converged
     c_bands:  2 eigenvalues not converged
     c_bands:  1 eigenvalues not converged
     c_bands:  2 eigenvalues not converged
     c_bands:  2 eigenvalues not converged
     c_bands:  5 eigenvalues not converged
     c_bands:  4 eigenvalues not converged
     c_bands:  4 eigenvalues not converged
     c_bands:  3 eigenvalues not converged
     c_bands:  3 eigenvalues not converged
     c_bands:  1 eigenvalues not converged
     c_bands:  2 eigenvalues not converged
     c_bands:  5 eigenvalues not converged
     c_bands:  5 eigenvalues not converged
     c_bands:  3 eigenvalues not converged
     c_bands:  3 eigenvalues not converged
     c_bands:  5 eigenvalues not converged
     c_bands:  1 eigenvalues not converged
     c_bands:  5 eigenvalues not converged
     c_bands:  1 eigenvalues not converged
     c_bands:  2 eigenvalues not converged
     c_bands:  2 eigenvalues not converged
     c_bands:  2 eigenvalues not converged
     c_bands:  4 eigenvalues not converged
     c_bands:  4 eigenvalues not converged
     c_bands:  1 eigenvalues not converged
     c_bands:  3 eigenvalues not converged
     c_bands:  3 eigenvalues not converged
     c_bands:  1 eigenvalues not converged
     c_bands:  1 eigenvalues not converged
     c_bands:  3 eigenvalues not converged
     c_bands:  3 eigenvalues not converged
     c_bands:  2 eigenvalues not converged
     c_bands:  3 eigenvalues not converged
     c_bands:  1 eigenvalues not converged
     c_bands:  2 eigenvalues not converged
     c_bands:  2 eigenvalues not converged
     c_bands:  1 eigenvalues not converged
     c_bands:  5 eigenvalues not converged
     c_bands:  5 eigenvalues not converged
     c_bands:  3 eigenvalues not converged
     c_bands:  4 eigenvalues not converged
     c_bands:  3 eigenvalues not converged
     c_bands:  1 eigenvalues not converged
     c_bands:  1 eigenvalues not converged
     c_bands:  1 eigenvalues not converged
     c_bands:  1 eigenvalues not converged
     c_bands:  2 eigenvalues not converged
     c_bands:  5 eigenvalues not converged
     c_bands:  2 eigenvalues not converged
     c_bands:  3 eigenvalues not converged
     c_bands:  1 eigenvalues not converged
     c_bands:  1 eigenvalues not converged
     c_bands:  2 eigenvalues not converged
     c_bands:  2 eigenvalues not converged
     c_bands:  4 eigenvalues not converged
     c_bands:  5 eigenvalues not converged
     c_bands:  1 eigenvalues not converged
     c_bands:  2 eigenvalues not converged
     c_bands:  1 eigenvalues not converged
     c_bands:  2 eigenvalues not converged
     c_bands:  2 eigenvalues not converged
     c_bands:  4 eigenvalues not converged
     c_bands:  1 eigenvalues not converged
     c_bands:  1 eigenvalues not converged
     c_bands:  1 eigenvalues not converged
     c_bands:  1 eigenvalues not converged
     c_bands:  1 eigenvalues not converged
     c_bands:  2 eigenvalues not converged
     c_bands:  2 eigenvalues not converged
     c_bands:  2 eigenvalues not converged
     c_bands:  1 eigenvalues not converged
     c_bands:  1 eigenvalues not converged
     c_bands:  3 eigenvalues not converged
     c_bands:  2 eigenvalues not converged
     c_bands:  4 eigenvalues not converged
     c_bands:  3 eigenvalues not converged
     c_bands:  3 eigenvalues not converged
     c_bands:  3 eigenvalues not converged
     c_bands:  3 eigenvalues not converged
     c_bands:  2 eigenvalues not converged
     c_bands:  3 eigenvalues not converged
     c_bands:  2 eigenvalues not converged
     c_bands:  2 eigenvalues not converged
     c_bands:  2 eigenvalues not converged
     c_bands:  5 eigenvalues not converged
     c_bands:  3 eigenvalues not converged
     c_bands:  5 eigenvalues not converged
     c_bands:  2 eigenvalues not converged
     c_bands:  2 eigenvalues not converged
     c_bands:  1 eigenvalues not converged
     c_bands:  2 eigenvalues not converged
     c_bands:  4 eigenvalues not converged
     c_bands:  1 eigenvalues not converged
     c_bands:  3 eigenvalues not converged
     c_bands:  2 eigenvalues not converged
     c_bands:  1 eigenvalues not converged
     c_bands:  2 eigenvalues not converged
     c_bands:  1 eigenvalues not converged
     c_bands:  2 eigenvalues not converged
     c_bands:  3 eigenvalues not converged
     c_bands:  1 eigenvalues not converged
     c_bands:  1 eigenvalues not converged
     c_bands:  1 eigenvalues not converged
     c_bands:  2 eigenvalues not converged
     c_bands:  3 eigenvalues not converged
     c_bands:  2 eigenvalues not converged
     c_bands:  3 eigenvalues not converged
     ethr =  1.00E-02,  avg # of iterations = 14.8

     negative rho (up, down):  0.517E-04 0.000E+00

     total cpu time spent up to now is       58.7 secs

     total energy              =     -88.51611466 Ry
     Harris-Foulkes estimate   =    -466.81485274 Ry
     estimated scf accuracy    <     459.09819089 Ry

     iteration #  2     ecut=    40.00 Ry     beta=0.70
     CG style diagonalization
     c_bands:  1 eigenvalues not converged
     c_bands:  1 eigenvalues not converged
     c_bands:  2 eigenvalues not converged
     c_bands:  1 eigenvalues not converged
     c_bands:  2 eigenvalues not converged
     c_bands:  1 eigenvalues not converged
     c_bands:  1 eigenvalues not converged
     c_bands:  1 eigenvalues not converged
     c_bands:  1 eigenvalues not converged
     c_bands:  1 eigenvalues not converged
     c_bands:  1 eigenvalues not converged
     c_bands:  1 eigenvalues not converged
     c_bands:  1 eigenvalues not converged
     c_bands:  1 eigenvalues not converged
     c_bands:  1 eigenvalues not converged
     c_bands:  1 eigenvalues not converged
     c_bands:  1 eigenvalues not converged
     c_bands:  1 eigenvalues not converged
     c_bands:  1 eigenvalues not converged
     c_bands:  1 eigenvalues not converged
     c_bands:  1 eigenvalues not converged
     c_bands:  1 eigenvalues not converged
     c_bands:  1 eigenvalues not converged
     c_bands:  1 eigenvalues not converged
     c_bands:  2 eigenvalues not converged
     c_bands:  1 eigenvalues not converged
     c_bands:  2 eigenvalues not converged
     c_bands:  1 eigenvalues not converged
     c_bands:  1 eigenvalues not converged
     c_bands:  1 eigenvalues not converged
     c_bands:  1 eigenvalues not converged
     c_bands:  1 eigenvalues not converged
     ethr =  1.00E-02,  avg # of iterations = 12.1

     negative rho (up, down):  0.221E-04 0.000E+00

     total cpu time spent up to now is       99.6 secs

     total energy              =    -205.22104540 Ry
     Harris-Foulkes estimate   =    -327.03702379 Ry
     estimated scf accuracy    <     195.11018826 Ry

     iteration #  3     ecut=    40.00 Ry     beta=0.70
     CG style diagonalization
     ethr =  1.00E-02,  avg # of iterations = 10.4

     negative rho (up, down):  0.221E-04 0.000E+00

     total cpu time spent up to now is      134.6 secs

     total energy              =    -249.37263040 Ry
     Harris-Foulkes estimate   =    -249.37502876 Ry
     estimated scf accuracy    <      10.32257227 Ry

     iteration #  4     ecut=    40.00 Ry     beta=0.70
     CG style diagonalization
     ethr =  1.00E-02,  avg # of iterations =  3.0

     negative rho (up, down):  0.229E-03 0.000E+00

     total cpu time spent up to now is      147.0 secs

     total energy              =    -250.17916787 Ry
     Harris-Foulkes estimate   =    -249.43483055 Ry
     estimated scf accuracy    <      10.42335322 Ry

     iteration #  5     ecut=    40.00 Ry     beta=0.70
     CG style diagonalization
     ethr =  1.00E-02,  avg # of iterations =  3.0

     negative rho (up, down):  0.728E+00 0.000E+00

     total cpu time spent up to now is      158.5 secs

     total energy              =    -248.68468571 Ry
     Harris-Foulkes estimate   =    -250.37208312 Ry
     estimated scf accuracy    <      11.75361951 Ry

     iteration #  6     ecut=    40.00 Ry     beta=0.70
     CG style diagonalization
     ethr =  1.00E-02,  avg # of iterations =  4.4

     negative rho (up, down):  0.933E+00 0.000E+00

     total cpu time spent up to now is      174.7 secs

     total energy              =    -252.49987999 Ry
     Harris-Foulkes estimate   =    -252.29545311 Ry
     estimated scf accuracy    <      17.98831987 Ry

     iteration #  7     ecut=    40.00 Ry     beta=0.70
     CG style diagonalization
     ethr =  1.00E-02,  avg # of iterations =  3.0

     negative rho (up, down):  0.107E+01 0.000E+00

     total cpu time spent up to now is      185.3 secs

     total energy              =    -253.16749031 Ry
     Harris-Foulkes estimate   =    -252.52997695 Ry
     estimated scf accuracy    <      17.96317822 Ry

     iteration #  8     ecut=    40.00 Ry     beta=0.70
     CG style diagonalization
     ethr =  1.00E-02,  avg # of iterations =  3.0

     negative rho (up, down):  0.121E+01 0.000E+00

     total cpu time spent up to now is      196.0 secs

     total energy              =    -253.89766051 Ry
     Harris-Foulkes estimate   =    -253.17606806 Ry
     estimated scf accuracy    <      18.75393965 Ry

     iteration #  9     ecut=    40.00 Ry     beta=0.70
     CG style diagonalization
     ethr =  1.00E-02,  avg # of iterations =  3.0

     negative rho (up, down):  0.126E+01 0.000E+00

     total cpu time spent up to now is      206.7 secs

     total energy              =    -254.19302830 Ry
     Harris-Foulkes estimate   =    -253.90401587 Ry
     estimated scf accuracy    <      19.76650526 Ry

     iteration # 10     ecut=    40.00 Ry     beta=0.70
     CG style diagonalization
     ethr =  1.00E-02,  avg # of iterations =  3.0

     negative rho (up, down):  0.112E+01 0.000E+00

     total cpu time spent up to now is      217.4 secs

     total energy              =    -253.41880228 Ry
     Harris-Foulkes estimate   =    -254.19623359 Ry
     estimated scf accuracy    <      20.22468493 Ry

     iteration # 11     ecut=    40.00 Ry     beta=0.70
     CG style diagonalization
     ethr =  1.00E-02,  avg # of iterations =  3.0

     negative rho (up, down):  0.135E+01 0.000E+00

     total cpu time spent up to now is      228.7 secs

     total energy              =    -254.74298920 Ry
     Harris-Foulkes estimate   =    -253.42131228 Ry
     estimated scf accuracy    <      19.29547675 Ry

     iteration # 12     ecut=    40.00 Ry     beta=0.70
     CG style diagonalization
     ethr =  1.00E-02,  avg # of iterations =  3.0

     negative rho (up, down):  0.124E-04 0.000E+00

     total cpu time spent up to now is      240.0 secs

     total energy              =    -238.91492913 Ry
     Harris-Foulkes estimate   =    -254.75272865 Ry
     estimated scf accuracy    <      21.19343236 Ry

     iteration # 13     ecut=    40.00 Ry     beta=0.70
     CG style diagonalization
     ethr =  1.00E-02,  avg # of iterations =  5.7

     negative rho (up, down):  0.691E-05 0.000E+00

     total cpu time spent up to now is      260.4 secs

     total energy              =    -246.59699521 Ry
     Harris-Foulkes estimate   =    -247.57426970 Ry
     estimated scf accuracy    <      12.35818775 Ry

     iteration # 14     ecut=    40.00 Ry     beta=0.70
     CG style diagonalization
     ethr =  1.00E-02,  avg # of iterations =  3.0

     negative rho (up, down):  0.609E-05 0.000E+00

     total cpu time spent up to now is      272.0 secs

     total energy              =    -246.15406581 Ry
     Harris-Foulkes estimate   =    -246.66087939 Ry
     estimated scf accuracy    <      10.23119239 Ry

     iteration # 15     ecut=    40.00 Ry     beta=0.70
     CG style diagonalization
     ethr =  1.00E-02,  avg # of iterations =  3.0

     negative rho (up, down):  0.445E-05 0.000E+00

     total cpu time spent up to now is      282.7 secs

     total energy              =    -246.54220440 Ry
     Harris-Foulkes estimate   =    -246.18389170 Ry
     estimated scf accuracy    <       8.68355504 Ry

     iteration # 16     ecut=    40.00 Ry     beta=0.70
     CG style diagonalization
     ethr =  1.00E-02,  avg # of iterations =  3.0

     total cpu time spent up to now is      294.1 secs

     total energy              =    -250.09722972 Ry
     Harris-Foulkes estimate   =    -246.55239584 Ry
     estimated scf accuracy    <       9.44366173 Ry

     iteration # 17     ecut=    40.00 Ry     beta=0.70
     CG style diagonalization
     ethr =  1.00E-02,  avg # of iterations =  3.3

     total cpu time spent up to now is      306.0 secs

     total energy              =    -257.67274746 Ry
     Harris-Foulkes estimate   =    -250.52788836 Ry
     estimated scf accuracy    <      19.53462015 Ry

     iteration # 18     ecut=    40.00 Ry     beta=0.70
     CG style diagonalization
     ethr =  1.00E-02,  avg # of iterations =  3.7

     negative rho (up, down):  0.123E-05 0.000E+00

     total cpu time spent up to now is      319.1 secs

     total energy              =    -253.98679783 Ry
     Harris-Foulkes estimate   =    -258.41201893 Ry
     estimated scf accuracy    <      37.63009601 Ry

     iteration # 19     ecut=    40.00 Ry     beta=0.70
     CG style diagonalization
     ethr =  1.00E-02,  avg # of iterations =  3.1

     total cpu time spent up to now is      332.6 secs

     total energy              =    -247.79114147 Ry
     Harris-Foulkes estimate   =    -254.13477673 Ry
     estimated scf accuracy    <      29.31769262 Ry

     iteration # 20     ecut=    40.00 Ry     beta=0.70
     CG style diagonalization
     ethr =  1.00E-02,  avg # of iterations =  3.6

     total cpu time spent up to now is      345.8 secs

     total energy              =    -237.65994109 Ry
     Harris-Foulkes estimate   =    -248.28355677 Ry
     estimated scf accuracy    <      15.55408184 Ry

     iteration # 21     ecut=    40.00 Ry     beta=0.70
     CG style diagonalization
     ethr =  1.00E-02,  avg # of iterations =  5.5

     negative rho (up, down):  0.103E-04 0.000E+00

     total cpu time spent up to now is      366.3 secs

     total energy              =    -246.64846582 Ry
     Harris-Foulkes estimate   =    -247.87127943 Ry
     estimated scf accuracy    <       9.81819737 Ry

     iteration # 22     ecut=    40.00 Ry     beta=0.70
     CG style diagonalization
     ethr =  1.00E-02,  avg # of iterations =  3.0

     negative rho (up, down):  0.127E-04 0.000E+00

     total cpu time spent up to now is      377.2 secs

     total energy              =    -244.23986834 Ry
     Harris-Foulkes estimate   =    -246.73203555 Ry
     estimated scf accuracy    <       7.35734744 Ry

     iteration # 23     ecut=    40.00 Ry     beta=0.70
     CG style diagonalization
     ethr =  1.00E-02,  avg # of iterations =  3.4

     negative rho (up, down):  0.187E-04 0.000E+00

     total cpu time spent up to now is      389.2 secs

     total energy              =    -244.98373235 Ry
     Harris-Foulkes estimate   =    -244.81431018 Ry
     estimated scf accuracy    <       1.41846634 Ry

     iteration # 24     ecut=    40.00 Ry     beta=0.70
     CG style diagonalization
     ethr =  4.89E-03,  avg # of iterations =  3.0

     negative rho (up, down):  0.213E-04 0.000E+00

     total cpu time spent up to now is      400.1 secs

     total energy              =    -244.50722930 Ry
     Harris-Foulkes estimate   =    -245.00425570 Ry
     estimated scf accuracy    <       1.80123066 Ry

     iteration # 25     ecut=    40.00 Ry     beta=0.70
     CG style diagonalization
     ethr =  4.89E-03,  avg # of iterations =  3.0

     total cpu time spent up to now is      411.1 secs

     total energy              =    -244.30786935 Ry
     Harris-Foulkes estimate   =    -244.61200861 Ry
     estimated scf accuracy    <       0.51130037 Ry

     iteration # 26     ecut=    40.00 Ry     beta=0.70
     CG style diagonalization
     ethr =  1.76E-03,  avg # of iterations =  4.6

     total cpu time spent up to now is      428.7 secs

     total energy              =    -245.02925027 Ry
     Harris-Foulkes estimate   =    -245.29068483 Ry
     estimated scf accuracy    <       4.04247434 Ry

     iteration # 27     ecut=    40.00 Ry     beta=0.70
     CG style diagonalization
     ethr =  1.76E-03,  avg # of iterations =  3.0

     total cpu time spent up to now is      439.6 secs

     total energy              =    -244.73578331 Ry
     Harris-Foulkes estimate   =    -245.04580127 Ry
     estimated scf accuracy    <       3.15463733 Ry

     iteration # 28     ecut=    40.00 Ry     beta=0.70
     CG style diagonalization
     ethr =  1.76E-03,  avg # of iterations =  3.1

     negative rho (up, down):  0.128E-04 0.000E+00

     total cpu time spent up to now is      450.8 secs

     total energy              =    -243.75742470 Ry
     Harris-Foulkes estimate   =    -244.77798146 Ry
     estimated scf accuracy    <       1.69968371 Ry

     iteration # 29     ecut=    40.00 Ry     beta=0.70
     CG style diagonalization
     ethr =  1.76E-03,  avg # of iterations =  4.5

     negative rho (up, down):  0.111E-04 0.000E+00

     total cpu time spent up to now is      466.8 secs

     total energy              =    -244.74337799 Ry
     Harris-Foulkes estimate   =    -244.91425338 Ry
     estimated scf accuracy    <       1.56213954 Ry

     iteration # 30     ecut=    40.00 Ry     beta=0.70
     CG style diagonalization
     ethr =  1.76E-03,  avg # of iterations =  3.0

     total cpu time spent up to now is      478.8 secs

     total energy              =    -244.14198103 Ry
     Harris-Foulkes estimate   =    -244.75458171 Ry
     estimated scf accuracy    <       1.15773563 Ry

     iteration # 31     ecut=    40.00 Ry     beta=0.70
     CG style diagonalization
     ethr =  1.76E-03,  avg # of iterations =  3.8

     total cpu time spent up to now is      492.7 secs

     total energy              =    -244.41093082 Ry
     Harris-Foulkes estimate   =    -244.58802403 Ry
     estimated scf accuracy    <       0.43585119 Ry

     iteration # 32     ecut=    40.00 Ry     beta=0.70
     CG style diagonalization
     ethr =  1.50E-03,  avg # of iterations =  3.3

     total cpu time spent up to now is      505.2 secs

     total energy              =    -244.48915556 Ry
     Harris-Foulkes estimate   =    -244.51442318 Ry
     estimated scf accuracy    <       0.05835266 Ry

     iteration # 33     ecut=    40.00 Ry     beta=0.70
     CG style diagonalization
     ethr =  2.01E-04,  avg # of iterations =  4.5

     total cpu time spent up to now is      521.6 secs

     total energy              =    -244.30420319 Ry
     Harris-Foulkes estimate   =    -244.64864788 Ry
     estimated scf accuracy    <       0.84848204 Ry

     iteration # 34     ecut=    40.00 Ry     beta=0.70
     CG style diagonalization
     ethr =  2.01E-04,  avg # of iterations =  4.4

     total cpu time spent up to now is      537.2 secs

     total energy              =    -244.51110071 Ry
     Harris-Foulkes estimate   =    -244.51069721 Ry
     estimated scf accuracy    <       0.06273162 Ry

     iteration # 35     ecut=    40.00 Ry     beta=0.70
     CG style diagonalization
     ethr =  2.01E-04,  avg # of iterations =  3.0

     total cpu time spent up to now is      548.4 secs

     total energy              =    -244.48581243 Ry
     Harris-Foulkes estimate   =    -244.51256444 Ry
     estimated scf accuracy    <       0.08584766 Ry

     iteration # 36     ecut=    40.00 Ry     beta=0.70
     CG style diagonalization
     ethr =  2.01E-04,  avg # of iterations =  3.2

     total cpu time spent up to now is      560.1 secs

     total energy              =    -244.49416899 Ry
     Harris-Foulkes estimate   =    -244.49501288 Ry
     estimated scf accuracy    <       0.00353699 Ry

     iteration # 37     ecut=    40.00 Ry     beta=0.70
     CG style diagonalization
     c_bands:  1 eigenvalues not converged
     c_bands:  1 eigenvalues not converged
     c_bands:  1 eigenvalues not converged
     c_bands:  1 eigenvalues not converged
     c_bands:  1 eigenvalues not converged
     c_bands:  1 eigenvalues not converged
     c_bands:  1 eigenvalues not converged
     c_bands:  1 eigenvalues not converged
     c_bands:  1 eigenvalues not converged
     c_bands:  1 eigenvalues not converged
     c_bands:  1 eigenvalues not converged
     c_bands:  1 eigenvalues not converged
     ethr =  1.22E-05,  avg # of iterations =  4.0

     total cpu time spent up to now is      574.5 secs

     total energy              =    -244.49503970 Ry
     Harris-Foulkes estimate   =    -244.49508718 Ry
     estimated scf accuracy    <       0.00010565 Ry

     iteration # 38     ecut=    40.00 Ry     beta=0.70
     CG style diagonalization
     c_bands:  1 eigenvalues not converged
     c_bands:  1 eigenvalues not converged
     c_bands:  1 eigenvalues not converged
     c_bands:  1 eigenvalues not converged
     c_bands:  1 eigenvalues not converged
     c_bands:  1 eigenvalues not converged
     c_bands:  1 eigenvalues not converged
     c_bands:  1 eigenvalues not converged
     c_bands:  1 eigenvalues not converged
     ethr =  3.64E-07,  avg # of iterations =  4.7

     total cpu time spent up to now is      591.1 secs

     total energy              =    -244.49512869 Ry
     Harris-Foulkes estimate   =    -244.49521860 Ry
     estimated scf accuracy    <       0.00065424 Ry

     iteration # 39     ecut=    40.00 Ry     beta=0.70
     CG style diagonalization
     ethr =  3.64E-07,  avg # of iterations =  3.1

     total cpu time spent up to now is      602.4 secs

     total energy              =    -244.49519034 Ry
     Harris-Foulkes estimate   =    -244.49514096 Ry
     estimated scf accuracy    <       0.00030164 Ry

     iteration # 40     ecut=    40.00 Ry     beta=0.70
     CG style diagonalization
     ethr =  3.64E-07,  avg # of iterations =  3.1

     total cpu time spent up to now is      614.1 secs

     total energy              =    -244.49494822 Ry
     Harris-Foulkes estimate   =    -244.49520038 Ry
     estimated scf accuracy    <       0.00057581 Ry

     iteration # 41     ecut=    40.00 Ry     beta=0.70
     CG style diagonalization
     ethr =  3.64E-07,  avg # of iterations =  3.9

     total cpu time spent up to now is      627.7 secs

     End of self-consistent calculation

     Number of k-points >= 100: set verbosity='high' to print the bands.

     the Fermi energy is    19.8459 ev

!    total energy              =    -244.49505302 Ry
     Harris-Foulkes estimate   =    -244.49509516 Ry
     estimated scf accuracy    <       0.00004633 Ry

     The total energy is the sum of the following terms:

     one-electron contribution =     -23.08381206 Ry
     hartree contribution      =      29.96757967 Ry
     xc contribution           =     -27.95373414 Ry
     ewald contribution        =    -223.31283648 Ry
     smearing contrib. (-TS)   =      -0.11225002 Ry

     convergence has been achieved in  41 iterations

     Forces acting on atoms (Ry/au):

     atom    1 type  1   force =     0.00000000    0.00000000    0.00000000
     atom    2 type  2   force =     0.00000000    0.00000000    0.00000000

     Total force =     0.000000     Total SCF correction =     0.000000


     entering subroutine stress ...

          total   stress  (Ry/bohr**3)                   (kbar)     P=   53.76
   0.00036532   0.00000000   0.00000000         53.74      0.00      0.00
   0.00000000   0.00036532   0.00000000          0.00     53.74      0.00
   0.00000000   0.00000000   0.00036577          0.00      0.00     53.81


     BFGS Geometry Optimization

     number of scf cycles    =   1
     number of bfgs steps    =   0

     enthalpy new            =    -244.4950530247 Ry

     new trust radius        =       0.0322555711 bohr
     new conv_thr            =       0.0001000000 Ry

     new unit-cell volume =    319.67687 a.u.^3 (    47.37122 Ang^3 )

CELL_PARAMETERS (alat=  7.60545813)
   1.009133047   0.000000000   0.000000000
   0.504566524   0.873934855   0.000000000
   0.504566524   0.291311618   0.823962762

ATOMIC_POSITIONS (crystal)
Na       0.000000000   0.000000000   0.000000000
Cl       0.500000000   0.500000000   0.500000000



     Writing output data file Prototype-La-cF8-NaCl.save
     NEW-OLD atomic charge density approx. for the potential
     NEW k-points: (use verbosity='high' to print them)
     Check: negative starting charge=   -0.000143

     negative rho (up, down):  0.623E-04 0.000E+00
     extrapolated charge   29.34967, renormalised to   29.00000

     total cpu time spent up to now is      631.2 secs

     Self-consistent Calculation

     iteration #  1     ecut=    40.00 Ry     beta=0.70
     CG style diagonalization
     c_bands:  1 eigenvalues not converged
     c_bands:  1 eigenvalues not converged
     c_bands:  1 eigenvalues not converged
     c_bands:  1 eigenvalues not converged
     c_bands:  1 eigenvalues not converged
     c_bands:  1 eigenvalues not converged
     c_bands:  1 eigenvalues not converged
     c_bands:  1 eigenvalues not converged
     c_bands:  2 eigenvalues not converged
     c_bands:  1 eigenvalues not converged
     c_bands:  1 eigenvalues not converged
     c_bands:  1 eigenvalues not converged
     c_bands:  1 eigenvalues not converged
     c_bands:  1 eigenvalues not converged
     c_bands:  1 eigenvalues not converged
     c_bands:  1 eigenvalues not converged
     c_bands:  1 eigenvalues not converged
     c_bands:  1 eigenvalues not converged
     c_bands:  1 eigenvalues not converged
     c_bands:  1 eigenvalues not converged
     c_bands:  1 eigenvalues not converged
     c_bands:  1 eigenvalues not converged
     c_bands:  1 eigenvalues not converged
     c_bands:  1 eigenvalues not converged
     c_bands:  1 eigenvalues not converged
     ethr =  1.00E-06,  avg # of iterations =  7.9

     negative rho (up, down):  0.166E-04 0.000E+00

     total cpu time spent up to now is      657.8 secs

     total energy              =    -244.24653242 Ry
     Harris-Foulkes estimate   =    -244.29870593 Ry
     estimated scf accuracy    <       0.43983307 Ry

     iteration #  2     ecut=    40.00 Ry     beta=0.70
     CG style diagonalization
     ethr =  1.52E-03,  avg # of iterations =  4.0

     negative rho (up, down):  0.125E-04 0.000E+00

     total cpu time spent up to now is      671.6 secs

     total energy              =    -244.05957940 Ry
     Harris-Foulkes estimate   =    -244.94853068 Ry
     estimated scf accuracy    <       2.70804187 Ry

     iteration #  3     ecut=    40.00 Ry     beta=0.70
     CG style diagonalization
     ethr =  1.52E-03,  avg # of iterations =  3.6

     negative rho (up, down):  0.285E-05 0.000E+00

     total cpu time spent up to now is      684.2 secs

     total energy              =    -244.49294122 Ry
     Harris-Foulkes estimate   =    -244.49478850 Ry
     estimated scf accuracy    <       0.00664480 Ry

     iteration #  4     ecut=    40.00 Ry     beta=0.70
     CG style diagonalization
     ethr =  2.29E-05,  avg # of iterations =  4.5

     total cpu time spent up to now is      700.2 secs

     total energy              =    -244.49528002 Ry
     Harris-Foulkes estimate   =    -244.49747677 Ry
     estimated scf accuracy    <       0.00779450 Ry

     iteration #  5     ecut=    40.00 Ry     beta=0.70
     CG style diagonalization
     ethr =  2.29E-05,  avg # of iterations =  3.0

     total cpu time spent up to now is      711.4 secs

     total energy              =    -244.49586628 Ry
     Harris-Foulkes estimate   =    -244.49607082 Ry
     estimated scf accuracy    <       0.00047247 Ry

     iteration #  6     ecut=    40.00 Ry     beta=0.70
     CG style diagonalization
     c_bands:  1 eigenvalues not converged
     ethr =  1.63E-06,  avg # of iterations =  4.0

     total cpu time spent up to now is      725.8 secs

     total energy              =    -244.49604470 Ry
     Harris-Foulkes estimate   =    -244.49612189 Ry
     estimated scf accuracy    <       0.00019821 Ry

     iteration #  7     ecut=    40.00 Ry     beta=0.70
     CG style diagonalization
     ethr =  6.83E-07,  avg # of iterations =  3.3

     total cpu time spent up to now is      737.5 secs

     End of self-consistent calculation

     Number of k-points >= 100: set verbosity='high' to print the bands.

     the Fermi energy is    19.1928 ev

!    total energy              =    -244.49607644 Ry
     Harris-Foulkes estimate   =    -244.49607910 Ry
     estimated scf accuracy    <       0.00000352 Ry

     The total energy is the sum of the following terms:

     one-electron contribution =     -25.89050792 Ry
     hartree contribution      =      30.68107387 Ry
     xc contribution           =     -27.87886712 Ry
     ewald contribution        =    -221.29095547 Ry
     smearing contrib. (-TS)   =      -0.11681980 Ry

     convergence has been achieved in   7 iterations

     Forces acting on atoms (Ry/au):

     atom    1 type  1   force =     0.00000000    0.00000000    0.00000000
     atom    2 type  2   force =     0.00000000    0.00000000    0.00000000

     Total force =     0.000000     Total SCF correction =     0.000000


     entering subroutine stress ...

          total   stress  (Ry/bohr**3)                   (kbar)     P=  -12.71
  -0.00008666   0.00000000   0.00000000        -12.75      0.00      0.00
   0.00000000  -0.00008666   0.00000000          0.00    -12.75      0.00
   0.00000000   0.00000000  -0.00008590          0.00      0.00    -12.64


     number of scf cycles    =   2
     number of bfgs steps    =   1

     enthalpy old            =    -244.4950530247 Ry
     enthalpy new            =    -244.4960764372 Ry

     CASE: enthalpy_new < enthalpy_old

     small trust_radius: resetting bfgs history

     new trust radius        =       0.0077469054 bohr
     new conv_thr            =       0.0000010000 Ry

     new unit-cell volume =    317.60973 a.u.^3 (    47.06491 Ang^3 )

CELL_PARAMETERS (alat=  7.60545813)
   1.006946841   0.000000000   0.000000000
   0.503473421   0.872041545   0.000000000
   0.503473421   0.290680515   0.822193322

ATOMIC_POSITIONS (crystal)
Na       0.000000000   0.000000000   0.000000000
Cl       0.500000000   0.500000000   0.500000000



     Writing output data file Prototype-La-cF8-NaCl.save
     Check: negative starting charge=   -0.000143
     NEW-OLD atomic charge density approx. for the potential
     NEW k-points: (use verbosity='high' to print them)
     Check: negative starting charge=   -0.000127
     extrapolated charge   28.91545, renormalised to   29.00000

     total cpu time spent up to now is      740.2 secs

     Self-consistent Calculation

     iteration #  1     ecut=    40.00 Ry     beta=0.70
     CG style diagonalization
     ethr =  1.00E-06,  avg # of iterations =  5.6

     total cpu time spent up to now is      758.9 secs

     total energy              =    -244.47648347 Ry
     Harris-Foulkes estimate   =    -244.57421387 Ry
     estimated scf accuracy    <       0.03287525 Ry

     iteration #  2     ecut=    40.00 Ry     beta=0.70
     CG style diagonalization
     ethr =  1.13E-04,  avg # of iterations =  4.0

     total cpu time spent up to now is      772.6 secs

     total energy              =    -244.47290291 Ry
     Harris-Foulkes estimate   =    -244.52874302 Ry
     estimated scf accuracy    <       0.15635738 Ry

     iteration #  3     ecut=    40.00 Ry     beta=0.70
     CG style diagonalization
     ethr =  1.13E-04,  avg # of iterations =  3.5

     total cpu time spent up to now is      787.2 secs

     total energy              =    -244.49583516 Ry
     Harris-Foulkes estimate   =    -244.49594991 Ry
     estimated scf accuracy    <       0.00027236 Ry

     iteration #  4     ecut=    40.00 Ry     beta=0.70
     CG style diagonalization
     ethr =  9.39E-07,  avg # of iterations =  4.9

     total cpu time spent up to now is      804.2 secs

     total energy              =    -244.49612019 Ry
     Harris-Foulkes estimate   =    -244.49620276 Ry
     estimated scf accuracy    <       0.00015366 Ry

     iteration #  5     ecut=    40.00 Ry     beta=0.70
     CG style diagonalization
     ethr =  5.30E-07,  avg # of iterations =  3.6

     total cpu time spent up to now is      816.5 secs

     total energy              =    -244.49616367 Ry
     Harris-Foulkes estimate   =    -244.49618474 Ry
     estimated scf accuracy    <       0.00005760 Ry

     iteration #  6     ecut=    40.00 Ry     beta=0.70
     CG style diagonalization
     ethr =  1.99E-07,  avg # of iterations =  3.2

     total cpu time spent up to now is      827.5 secs

     End of self-consistent calculation

     Number of k-points >= 100: set verbosity='high' to print the bands.

     the Fermi energy is    19.3483 ev

!    total energy              =    -244.49617132 Ry
     Harris-Foulkes estimate   =    -244.49617187 Ry
     estimated scf accuracy    <       0.00000063 Ry

     The total energy is the sum of the following terms:

     one-electron contribution =     -25.22306365 Ry
     hartree contribution      =      30.50880535 Ry
     xc contribution           =     -27.89615185 Ry
     ewald contribution        =    -221.77000207 Ry
     smearing contrib. (-TS)   =      -0.11575909 Ry

     convergence has been achieved in   6 iterations

     Forces acting on atoms (Ry/au):

     atom    1 type  1   force =     0.00000000    0.00000000    0.00000000
     atom    2 type  2   force =     0.00000000    0.00000000    0.00000000

     Total force =     0.000000     Total SCF correction =     0.000000


     entering subroutine stress ...

          total   stress  (Ry/bohr**3)                   (kbar)     P=    2.94
   0.00001976   0.00000000   0.00000000          2.91      0.00      0.00
   0.00000000   0.00001976   0.00000000          0.00      2.91      0.00
   0.00000000   0.00000000   0.00002040          0.00      0.00      3.00


     number of scf cycles    =   3
     number of bfgs steps    =   2

     enthalpy old            =    -244.4960764372 Ry
     enthalpy new            =    -244.4961713173 Ry

     CASE: enthalpy_new < enthalpy_old

     Message from routine bfgs:
     history already reset at previous step: stopping
     small trust_radius: resetting bfgs history

     new trust radius        =       0.0018175136 bohr
     new conv_thr            =       0.0000010000 Ry

     new unit-cell volume =    318.08577 a.u.^3 (    47.13545 Ang^3 )

CELL_PARAMETERS (alat=  7.60545813)
   1.007444353   0.000000000   0.000000000
   0.503722176   0.872472402   0.000000000
   0.503722176   0.290824134   0.822612574

ATOMIC_POSITIONS (crystal)
Na       0.000000000   0.000000000   0.000000000
Cl       0.500000000   0.500000000   0.500000000



     Writing output data file Prototype-La-cF8-NaCl.save
     Check: negative starting charge=   -0.000127
     NEW-OLD atomic charge density approx. for the potential
     NEW k-points: (use verbosity='high' to print them)
     Check: negative starting charge=   -0.000131

     negative rho (up, down):  0.781E-06 0.000E+00
     extrapolated charge   29.01944, renormalised to   29.00000

     total cpu time spent up to now is      830.3 secs

     Self-consistent Calculation

     iteration #  1     ecut=    40.00 Ry     beta=0.70
     CG style diagonalization
     ethr =  1.00E-06,  avg # of iterations =  3.7

     total cpu time spent up to now is      843.4 secs

     total energy              =    -244.49538280 Ry
     Harris-Foulkes estimate   =    -244.47999147 Ry
     estimated scf accuracy    <       0.00136092 Ry

     iteration #  2     ecut=    40.00 Ry     beta=0.70
     CG style diagonalization
     ethr =  4.69E-06,  avg # of iterations =  4.0

     total cpu time spent up to now is      857.1 secs

     total energy              =    -244.49506121 Ry
     Harris-Foulkes estimate   =    -244.49749079 Ry
     estimated scf accuracy    <       0.00696962 Ry

     iteration #  3     ecut=    40.00 Ry     beta=0.70
     CG style diagonalization
     ethr =  4.69E-06,  avg # of iterations =  3.6

     total cpu time spent up to now is      870.2 secs

     total energy              =    -244.49615762 Ry
     Harris-Foulkes estimate   =    -244.49616068 Ry
     estimated scf accuracy    <       0.00000693 Ry

     iteration #  4     ecut=    40.00 Ry     beta=0.70
     CG style diagonalization
     ethr =  2.39E-08,  avg # of iterations =  4.9

     total cpu time spent up to now is      887.4 secs

     total energy              =    -244.49616479 Ry
     Harris-Foulkes estimate   =    -244.49617043 Ry
     estimated scf accuracy    <       0.00001320 Ry

     iteration #  5     ecut=    40.00 Ry     beta=0.70
     CG style diagonalization
     ethr =  2.39E-08,  avg # of iterations =  3.5

     total cpu time spent up to now is      900.5 secs

     total energy              =    -244.49616782 Ry
     Harris-Foulkes estimate   =    -244.49616829 Ry
     estimated scf accuracy    <       0.00000122 Ry

     iteration #  6     ecut=    40.00 Ry     beta=0.70
     CG style diagonalization
     ethr =  4.20E-09,  avg # of iterations =  3.3

     total cpu time spent up to now is      912.0 secs

     End of self-consistent calculation

     Number of k-points >= 100: set verbosity='high' to print the bands.

     the Fermi energy is    19.3135 ev

!    total energy              =    -244.49616801 Ry
     Harris-Foulkes estimate   =    -244.49616802 Ry
     estimated scf accuracy    <       0.00000001 Ry

     The total energy is the sum of the following terms:

     one-electron contribution =     -25.37240748 Ry
     hartree contribution      =      30.54278086 Ry
     xc contribution           =     -27.89124106 Ry
     ewald contribution        =    -221.65931453 Ry
     smearing contrib. (-TS)   =      -0.11598579 Ry

     convergence has been achieved in   6 iterations

     Forces acting on atoms (Ry/au):

     atom    1 type  1   force =     0.00000000    0.00000000    0.00000000
     atom    2 type  2   force =     0.00000000    0.00000000    0.00000000

     Total force =     0.000000     Total SCF correction =     0.000000


     entering subroutine stress ...

          total   stress  (Ry/bohr**3)                   (kbar)     P=   -3.40
  -0.00002333   0.00000000   0.00000000         -3.43      0.00      0.00
   0.00000000  -0.00002333   0.00000000          0.00     -3.43      0.00
   0.00000000   0.00000000  -0.00002272          0.00      0.00     -3.34


     The maximum number of steps has been reached.

     End of BFGS Geometry Optimization
Begin final coordinates
     new unit-cell volume =    318.08577 a.u.^3 (    47.13545 Ang^3 )

CELL_PARAMETERS (alat=  7.60545813)
   1.007444353   0.000000000   0.000000000
   0.503722176   0.872472402   0.000000000
   0.503722176   0.290824134   0.822612574

ATOMIC_POSITIONS (crystal)
Na       0.000000000   0.000000000   0.000000000
Cl       0.500000000   0.500000000   0.500000000
End final coordinates



     A final scf calculation at the relaxed structure.
     The G-vectors are recalculated for the final unit cell
     Results may differ from those at the preceding step.
 
     Parallelization info
     --------------------
     sticks:   dense  smooth     PW     G-vecs:    dense   smooth      PW
     Min         162     162     52                 2741     2741     520
     Max         163     163     53                 2745     2745     522
     Sum         649     649    211                10969    10969    2085
 


     bravais-lattice index     =            0
     lattice parameter (alat)  =       7.6055  a.u.
     unit-cell volume          =     318.0858 (a.u.)^3
     number of atoms/cell      =            2
     number of atomic types    =            2
     number of electrons       =        29.00
     number of Kohn-Sham states=           19
     kinetic-energy cutoff     =      40.0000  Ry
     charge density cutoff     =     160.0000  Ry
     convergence threshold     =      1.0E-06
     mixing beta               =       0.7000
     number of iterations used =            8  plain     mixing
     Exchange-correlation      = SLA-PZ-NOGX-NOGC ( 1 1 0 0 0)
     EXX-fraction              =        0.00

     celldm(1)=   7.605458  celldm(2)=   0.000000  celldm(3)=   0.000000
     celldm(4)=   0.000000  celldm(5)=   0.000000  celldm(6)=   0.000000

     crystal axes: (cart. coord. in units of alat)
               a(1) = (   1.007444   0.000000   0.000000 )  
               a(2) = (   0.503722   0.872472   0.000000 )  
               a(3) = (   0.503722   0.290824   0.822613 )  

     reciprocal axes: (cart. coord. in units 2 pi/alat)
               b(1) = (  0.992611 -0.573084 -0.405213 )  
               b(2) = (  0.000000  1.146168 -0.405213 )  
               b(3) = (  0.000000  0.000000  1.215639 )  


     PseudoPot. # 1 for Sm read from file:
     /home/cwx6513/pp.La/Sm.UPF
     MD5 check sum: 5079e8b144a06bfcdbc14fb02b96ab09
     Pseudo is Norm-conserving, Zval = 16.0
     Generated in analytical, separable form
     Using radial grid of 1259 points,  6 beta functions with: 
                l(1) =   0
                l(2) =   0
                l(3) =   1
                l(4) =   1
                l(5) =   2
                l(6) =   3

     PseudoPot. # 2 for Pr read from file:
     /home/cwx6513/pp.La/Pr.UPF
     MD5 check sum: 70e2b4b153859e92c8c91247dfc63203
     Pseudo is Norm-conserving, Zval = 13.0
     Generated in analytical, separable form
     Using radial grid of 1255 points,  6 beta functions with: 
                l(1) =   0
                l(2) =   0
                l(3) =   1
                l(4) =   1
                l(5) =   2
                l(6) =   3

     atomic species   valence    mass     pseudopotential
        Na            16.00    22.98970     Sm( 1.00)
        Cl            13.00    35.45300     Pr( 1.00)

     12 Sym. Ops., with inversion, found



   Cartesian axes

     site n.     atom                  positions (alat units)
         1           Na  tau(   1) = (   0.0000000   0.0000000   0.0000000  )
         2           Cl  tau(   2) = (   1.0074444   0.5816483   0.4113063  )

     number of k points=   496  gaussian smearing, width (Ry)=  0.1000

     Number of k-points >= 100: set verbosity='high' to print them.

     Dense  grid:    10969 G-vectors     FFT dimensions: (  32,  32,  32)

     Largest allocated arrays     est. size (Mb)     dimensions
        Kohn-Sham Wavefunctions         0.10 Mb     (    347,   19)
        NL pseudopotentials             0.21 Mb     (    347,   40)
        Each V/rho on FFT grid          0.12 Mb     (   8192)
        Each G-vector array             0.02 Mb     (   2742)
        G-vector shells                 0.01 Mb     (    818)
     Largest temporary arrays     est. size (Mb)     dimensions
        Each subspace H/S matrix        0.01 Mb     (  19,  19)
        Each <psi_i|beta_j> matrix      0.01 Mb     (     40,   19)
        Arrays for rho mixing           1.00 Mb     (   8192,   8)

     Initial potential from superposition of free atoms

     starting charge   12.99054, renormalised to   29.00000

     negative rho (up, down):  0.204E-03 0.000E+00
     Starting wfc are   20 randomized atomic wfcs

     Writing output data file Prototype-La-cF8-NaCl.save

     total cpu time spent up to now is      918.1 secs

     Self-consistent Calculation

     iteration #  1     ecut=    40.00 Ry     beta=0.70
     CG style diagonalization
     c_bands:  5 eigenvalues not converged
     c_bands:  2 eigenvalues not converged
     c_bands:  3 eigenvalues not converged
     c_bands:  5 eigenvalues not converged
     c_bands:  5 eigenvalues not converged
     c_bands:  1 eigenvalues not converged
     c_bands:  2 eigenvalues not converged
     c_bands:  1 eigenvalues not converged
     c_bands:  1 eigenvalues not converged
     c_bands:  1 eigenvalues not converged
     c_bands:  5 eigenvalues not converged
     c_bands:  2 eigenvalues not converged
     c_bands:  3 eigenvalues not converged
     c_bands:  1 eigenvalues not converged
     c_bands:  1 eigenvalues not converged
     c_bands:  2 eigenvalues not converged
     c_bands:  1 eigenvalues not converged
     c_bands:  1 eigenvalues not converged
     c_bands:  5 eigenvalues not converged
     c_bands:  1 eigenvalues not converged
     c_bands:  2 eigenvalues not converged
     c_bands:  1 eigenvalues not converged
     c_bands:  1 eigenvalues not converged
     c_bands:  1 eigenvalues not converged
     c_bands:  1 eigenvalues not converged
     c_bands:  1 eigenvalues not converged
     c_bands:  2 eigenvalues not converged
     c_bands:  3 eigenvalues not converged
     c_bands:  1 eigenvalues not converged
     c_bands:  1 eigenvalues not converged
     c_bands:  5 eigenvalues not converged
     c_bands:  1 eigenvalues not converged
     c_bands:  3 eigenvalues not converged
     c_bands:  2 eigenvalues not converged
     c_bands:  1 eigenvalues not converged
     c_bands:  1 eigenvalues not converged
     c_bands:  3 eigenvalues not converged
     c_bands:  1 eigenvalues not converged
     c_bands:  1 eigenvalues not converged
     c_bands:  1 eigenvalues not converged
     c_bands:  1 eigenvalues not converged
     c_bands:  1 eigenvalues not converged
     c_bands:  1 eigenvalues not converged
     c_bands:  2 eigenvalues not converged
     c_bands:  3 eigenvalues not converged
     c_bands:  1 eigenvalues not converged
     c_bands:  1 eigenvalues not converged
     c_bands:  1 eigenvalues not converged
     c_bands:  3 eigenvalues not converged
     c_bands:  2 eigenvalues not converged
     c_bands:  1 eigenvalues not converged
     c_bands:  1 eigenvalues not converged
     c_bands:  2 eigenvalues not converged
     c_bands:  1 eigenvalues not converged
     c_bands:  3 eigenvalues not converged
     c_bands:  1 eigenvalues not converged
     c_bands:  1 eigenvalues not converged
     c_bands:  5 eigenvalues not converged
     c_bands:  1 eigenvalues not converged
     c_bands:  1 eigenvalues not converged
     c_bands:  1 eigenvalues not converged
     c_bands:  1 eigenvalues not converged
     c_bands:  1 eigenvalues not converged
     c_bands:  1 eigenvalues not converged
     c_bands:  5 eigenvalues not converged
     c_bands:  2 eigenvalues not converged
     c_bands:  1 eigenvalues not converged
     c_bands:  1 eigenvalues not converged
     c_bands:  1 eigenvalues not converged
     c_bands:  1 eigenvalues not converged
     c_bands:  5 eigenvalues not converged
     c_bands:  1 eigenvalues not converged
     c_bands:  1 eigenvalues not converged
     c_bands:  5 eigenvalues not converged
     c_bands:  1 eigenvalues not converged
     c_bands:  1 eigenvalues not converged
     c_bands:  1 eigenvalues not converged
     c_bands:  1 eigenvalues not converged
     c_bands:  2 eigenvalues not converged
     c_bands:  2 eigenvalues not converged
     c_bands:  1 eigenvalues not converged
     c_bands:  1 eigenvalues not converged
     c_bands:  3 eigenvalues not converged
     c_bands:  1 eigenvalues not converged
     c_bands:  1 eigenvalues not converged
     c_bands:  1 eigenvalues not converged
     c_bands:  1 eigenvalues not converged
     c_bands:  1 eigenvalues not converged
     c_bands:  1 eigenvalues not converged
     c_bands:  1 eigenvalues not converged
     c_bands:  1 eigenvalues not converged
     c_bands:  1 eigenvalues not converged
     c_bands:  1 eigenvalues not converged
     c_bands:  1 eigenvalues not converged
     c_bands:  1 eigenvalues not converged
     ethr =  1.00E-06,  avg # of iterations = 42.7

     negative rho (up, down):  0.609E-04 0.000E+00

     total cpu time spent up to now is     1069.9 secs

     total energy              =     -85.80333793 Ry
     Harris-Foulkes estimate   =    -469.70462339 Ry
     estimated scf accuracy    <     465.71935005 Ry

     iteration #  2     ecut=    40.00 Ry     beta=0.70
     CG style diagonalization
     c_bands:  1 eigenvalues not converged
     c_bands:  1 eigenvalues not converged
     c_bands:  1 eigenvalues not converged
     c_bands:  1 eigenvalues not converged
     c_bands:  1 eigenvalues not converged
     c_bands:  1 eigenvalues not converged
     c_bands:  1 eigenvalues not converged
     c_bands:  1 eigenvalues not converged
     c_bands:  1 eigenvalues not converged
     c_bands:  1 eigenvalues not converged
     c_bands:  1 eigenvalues not converged
     ethr =  1.00E-02,  avg # of iterations = 11.5

     negative rho (up, down):  0.271E-04 0.000E+00

     total cpu time spent up to now is     1110.9 secs

     total energy              =    -205.04314407 Ry
     Harris-Foulkes estimate   =    -329.24522156 Ry
     estimated scf accuracy    <     198.89919426 Ry

     iteration #  3     ecut=    40.00 Ry     beta=0.70
     CG style diagonalization
     c_bands:  1 eigenvalues not converged
     c_bands:  1 eigenvalues not converged
     c_bands:  1 eigenvalues not converged
     c_bands:  1 eigenvalues not converged
     ethr =  1.00E-02,  avg # of iterations = 10.4

     negative rho (up, down):  0.273E-04 0.000E+00

     total cpu time spent up to now is     1148.0 secs

     total energy              =    -249.72751087 Ry
     Harris-Foulkes estimate   =    -249.64859190 Ry
     estimated scf accuracy    <      10.85246298 Ry

     iteration #  4     ecut=    40.00 Ry     beta=0.70
     CG style diagonalization
     ethr =  1.00E-02,  avg # of iterations =  3.0

     negative rho (up, down):  0.165E-02 0.000E+00

     total cpu time spent up to now is     1159.3 secs

     total energy              =    -243.31972507 Ry
     Harris-Foulkes estimate   =    -249.78859367 Ry
     estimated scf accuracy    <      11.10696461 Ry

     iteration #  5     ecut=    40.00 Ry     beta=0.70
     CG style diagonalization
     ethr =  1.00E-02,  avg # of iterations =  4.4

     total cpu time spent up to now is     1175.5 secs

     total energy              =    -244.46191383 Ry
     Harris-Foulkes estimate   =    -246.06183470 Ry
     estimated scf accuracy    <       5.11469004 Ry

     iteration #  6     ecut=    40.00 Ry     beta=0.70
     CG style diagonalization
     ethr =  1.00E-02,  avg # of iterations =  3.4

     total cpu time spent up to now is     1188.6 secs

     total energy              =    -244.46959228 Ry
     Harris-Foulkes estimate   =    -244.85559433 Ry
     estimated scf accuracy    <       1.44015174 Ry

     iteration #  7     ecut=    40.00 Ry     beta=0.70
     CG style diagonalization
     ethr =  4.97E-03,  avg # of iterations =  3.0

     total cpu time spent up to now is     1200.5 secs

     total energy              =    -244.51963597 Ry
     Harris-Foulkes estimate   =    -244.55633715 Ry
     estimated scf accuracy    <       0.28709252 Ry

     iteration #  8     ecut=    40.00 Ry     beta=0.70
     CG style diagonalization
     ethr =  9.90E-04,  avg # of iterations =  3.3

     total cpu time spent up to now is     1214.4 secs

     total energy              =    -244.49040543 Ry
     Harris-Foulkes estimate   =    -244.53064443 Ry
     estimated scf accuracy    <       0.16661786 Ry

     iteration #  9     ecut=    40.00 Ry     beta=0.70
     CG style diagonalization
     ethr =  5.75E-04,  avg # of iterations =  3.2

     total cpu time spent up to now is     1226.1 secs

     total energy              =    -244.49703286 Ry
     Harris-Foulkes estimate   =    -244.50375758 Ry
     estimated scf accuracy    <       0.02546882 Ry

     iteration # 10     ecut=    40.00 Ry     beta=0.70
     CG style diagonalization
     c_bands:  1 eigenvalues not converged
     c_bands:  1 eigenvalues not converged
     c_bands:  1 eigenvalues not converged
     c_bands:  1 eigenvalues not converged
     c_bands:  1 eigenvalues not converged
     c_bands:  1 eigenvalues not converged
     c_bands:  1 eigenvalues not converged
     c_bands:  1 eigenvalues not converged
     c_bands:  1 eigenvalues not converged
     ethr =  8.78E-05,  avg # of iterations =  3.9

     negative rho (up, down):  0.113E-04 0.000E+00

     total cpu time spent up to now is     1240.8 secs

     total energy              =    -244.50125347 Ry
     Harris-Foulkes estimate   =    -244.50228413 Ry
     estimated scf accuracy    <       0.00214127 Ry

     iteration # 11     ecut=    40.00 Ry     beta=0.70
     CG style diagonalization
     c_bands:  1 eigenvalues not converged
     c_bands:  1 eigenvalues not converged
     c_bands:  1 eigenvalues not converged
     c_bands:  1 eigenvalues not converged
     c_bands:  1 eigenvalues not converged
     c_bands:  1 eigenvalues not converged
     c_bands:  1 eigenvalues not converged
     ethr =  7.38E-06,  avg # of iterations =  4.4

     total cpu time spent up to now is     1256.7 secs

     total energy              =    -244.50170606 Ry
     Harris-Foulkes estimate   =    -244.50223549 Ry
     estimated scf accuracy    <       0.00112494 Ry

     iteration # 12     ecut=    40.00 Ry     beta=0.70
     CG style diagonalization
     c_bands:  1 eigenvalues not converged
     ethr =  3.88E-06,  avg # of iterations =  3.5

     total cpu time spent up to now is     1269.9 secs

     total energy              =    -244.50188846 Ry
     Harris-Foulkes estimate   =    -244.50191434 Ry
     estimated scf accuracy    <       0.00006108 Ry

     iteration # 13     ecut=    40.00 Ry     beta=0.70
     CG style diagonalization
     ethr =  2.11E-07,  avg # of iterations =  4.0

     total cpu time spent up to now is     1284.4 secs

     total energy              =    -244.50190794 Ry
     Harris-Foulkes estimate   =    -244.50190918 Ry
     estimated scf accuracy    <       0.00000353 Ry

     iteration # 14     ecut=    40.00 Ry     beta=0.70
     CG style diagonalization
     ethr =  1.22E-08,  avg # of iterations =  4.5

     total cpu time spent up to now is     1300.4 secs

     total energy              =    -244.50190975 Ry
     Harris-Foulkes estimate   =    -244.50191004 Ry
     estimated scf accuracy    <       0.00000345 Ry

     iteration # 15     ecut=    40.00 Ry     beta=0.70
     CG style diagonalization
     ethr =  1.19E-08,  avg # of iterations =  3.0

     total cpu time spent up to now is     1312.2 secs

     total energy              =    -244.50190918 Ry
     Harris-Foulkes estimate   =    -244.50190985 Ry
     estimated scf accuracy    <       0.00000283 Ry

     iteration # 16     ecut=    40.00 Ry     beta=0.70
     CG style diagonalization
     ethr =  9.76E-09,  avg # of iterations =  3.0

     total cpu time spent up to now is     1323.4 secs

     End of self-consistent calculation

     Number of k-points >= 100: set verbosity='high' to print the bands.

     the Fermi energy is    19.3118 ev

!    total energy              =    -244.50190902 Ry
     Harris-Foulkes estimate   =    -244.50190939 Ry
     estimated scf accuracy    <       0.00000041 Ry

     The total energy is the sum of the following terms:

     one-electron contribution =     -25.38019134 Ry
     hartree contribution      =      30.54551234 Ry
     xc contribution           =     -27.89189064 Ry
     ewald contribution        =    -221.65931453 Ry
     smearing contrib. (-TS)   =      -0.11602486 Ry

     convergence has been achieved in  16 iterations

     Forces acting on atoms (Ry/au):

     atom    1 type  1   force =     0.00000000    0.00000000    0.00000000
     atom    2 type  2   force =     0.00000000    0.00000000    0.00000000

     Total force =     0.000000     Total SCF correction =     0.000000


     entering subroutine stress ...

          total   stress  (Ry/bohr**3)                   (kbar)     P=    7.40
   0.00005021   0.00000000   0.00000000          7.39      0.00      0.00
   0.00000000   0.00005021   0.00000000          0.00      7.39      0.00
   0.00000000   0.00000000   0.00005040          0.00      0.00      7.41


     Writing output data file Prototype-La-cF8-NaCl.save
 
     init_run     :      6.57s CPU      7.75s WALL (       2 calls)
     electrons    :   1059.05s CPU   1303.80s WALL (       5 calls)
     update_pot   :      0.61s CPU      0.63s WALL (       3 calls)
     forces       :      2.19s CPU      2.27s WALL (       5 calls)
     stress       :      7.07s CPU      7.23s WALL (       5 calls)

     Called by init_run:
     wfcinit      :      6.17s CPU      7.31s WALL (       2 calls)
     potinit      :      0.13s CPU      0.13s WALL (       2 calls)

     Called by electrons:
     c_bands      :    979.88s CPU   1175.65s WALL (      76 calls)
     sum_band     :     78.84s CPU    106.88s WALL (      76 calls)
     v_of_rho     :      0.05s CPU      0.06s WALL (      81 calls)
     mix_rho      :      0.06s CPU      0.07s WALL (      76 calls)

     Called by c_bands:
     init_us_2    :     10.61s CPU     11.54s WALL (   81344 calls)
     ccgdiagg     :    767.93s CPU    914.28s WALL (   38758 calls)
     wfcrot       :    208.90s CPU    254.94s WALL (   39254 calls)

     Called by *cgdiagg:
     h_psi        :    778.41s CPU    944.75s WALL ( 2700524 calls)
     cdiaghg      :      5.91s CPU      7.52s WALL (   39254 calls)

     Called by h_psi:
     add_vuspsi   :     26.22s CPU     37.22s WALL ( 2700524 calls)

     General routines
     calbec       :    102.28s CPU    121.04s WALL ( 5366754 calls)
     fft          :      0.05s CPU      0.07s WALL (     347 calls)
     fftw         :    705.74s CPU    849.88s WALL ( 7532400 calls)
     davcio       :      4.84s CPU      9.47s WALL (  119040 calls)
 
     Parallel routines
     fft_scatter  :    381.47s CPU    441.27s WALL ( 7532747 calls)
 
     PWSCF        : 17m58.14s CPU    22m 5.95s WALL

 
   This run was terminated on:  19: 7:42  22Mar2018            

=------------------------------------------------------------------------------=
   JOB DONE.
=------------------------------------------------------------------------------=
