
     Program PWSCF v.5.0.2 starts on 22Mar2018 at 12:13:28 

     This program is part of the open-source Quantum ESPRESSO suite
     for quantum simulation of materials; please cite
         "P. Giannozzi et al., J. Phys.:Condens. Matter 21 395502 (2009);
          URL http://www.quantum-espresso.org", 
     in publications or presentations arising from this work. More details at
     http://www.quantum-espresso.org/quote.php

     Parallel version (MPI), running on     4 processors
     R & G space division:  proc/nbgrp/npool/nimage =       4

     Current dimensions of program PWSCF are:
     Max number of different atomic species (ntypx) = 10
     Max number of k-points (npk) =  40000
     Max angular momentum in pseudopotentials (lmaxx) =  3
     Waiting for input...
     Reading input from standard input

     Subspace diagonalization in iterative solution of the eigenvalue problem:
     a serial algorithm will be used

 
     Parallelization info
     --------------------
     sticks:   dense  smooth     PW     G-vecs:    dense   smooth      PW
     Min          93      93     30                 1717     1717     310
     Max          94      94     31                 1720     1720     313
     Sum         373     373    121                 6871     6871    1247
 


     bravais-lattice index     =            0
     lattice parameter (alat)  =       5.4125  a.u.
     unit-cell volume          =     202.7222 (a.u.)^3
     number of atoms/cell      =            2
     number of atomic types    =            2
     number of electrons       =        37.00
     number of Kohn-Sham states=           23
     kinetic-energy cutoff     =      40.0000  Ry
     charge density cutoff     =     160.0000  Ry
     convergence threshold     =      1.0E-04
     mixing beta               =       0.7000
     number of iterations used =            8  plain     mixing
     Exchange-correlation      = SLA-PZ-NOGX-NOGC ( 1 1 0 0 0)
     EXX-fraction              =        0.00
     nstep                     =           50


     celldm(1)=   5.412493  celldm(2)=   0.000000  celldm(3)=   0.000000
     celldm(4)=   0.000000  celldm(5)=   0.000000  celldm(6)=   0.000000

     crystal axes: (cart. coord. in units of alat)
               a(1) = (   1.000000   0.000000   0.000000 )  
               a(2) = (   0.000000   1.000000   0.000000 )  
               a(3) = (   0.000000   0.000000   1.278525 )  

     reciprocal axes: (cart. coord. in units 2 pi/alat)
               b(1) = (  1.000000  0.000000  0.000000 )  
               b(2) = (  0.000000  1.000000  0.000000 )  
               b(3) = (  0.000000  0.000000  0.782151 )  


     PseudoPot. # 1 for Yb read from file:
     /home/jld5415/pp.La/Yb.UPF
     MD5 check sum: 3e859b81cc28c53ec6aa3a2e888efcdf
     Pseudo is Norm-conserving, Zval = 24.0
     Generated in analytical, separable form
     Using radial grid of 1269 points,  6 beta functions with: 
                l(1) =   0
                l(2) =   0
                l(3) =   1
                l(4) =   1
                l(5) =   2
                l(6) =   3

     PseudoPot. # 2 for Pr read from file:
     /home/jld5415/pp.La/Pr.UPF
     MD5 check sum: 70e2b4b153859e92c8c91247dfc63203
     Pseudo is Norm-conserving, Zval = 13.0
     Generated in analytical, separable form
     Using radial grid of 1255 points,  6 beta functions with: 
                l(1) =   0
                l(2) =   0
                l(3) =   1
                l(4) =   1
                l(5) =   2
                l(6) =   3

     atomic species   valence    mass     pseudopotential
        Cu            24.00    63.54600     Yb( 1.00)
        Au            13.00   196.96600     Pr( 1.00)

     16 Sym. Ops., with inversion, found



   Cartesian axes

     site n.     atom                  positions (alat units)
         1           Cu  tau(   1) = (   0.5000000   0.5000000   0.6392626  )
         2           Au  tau(   2) = (   0.0000000   0.0000000   0.0000000  )

     number of k points=   100  gaussian smearing, width (Ry)=  0.1000

     Number of k-points >= 100: set verbosity='high' to print them.

     Dense  grid:     6871 G-vectors     FFT dimensions: (  24,  24,  27)

     Largest allocated arrays     est. size (Mb)     dimensions
        Kohn-Sham Wavefunctions         0.08 Mb     (    228,   23)
        NL pseudopotentials             0.14 Mb     (    228,   40)
        Each V/rho on FFT grid          0.06 Mb     (   4032)
        Each G-vector array             0.01 Mb     (   1720)
        G-vector shells                 0.01 Mb     (   1720)
     Largest temporary arrays     est. size (Mb)     dimensions
        Each subspace H/S matrix        0.01 Mb     (  23,  23)
        Each <psi_i|beta_j> matrix      0.01 Mb     (     40,   23)
        Arrays for rho mixing           0.49 Mb     (   4032,   8)

     Initial potential from superposition of free atoms
     Check: negative starting charge=   -0.000124

     starting charge   12.99054, renormalised to   37.00000

     negative rho (up, down):  0.354E-03 0.000E+00
     Starting wfc are   20 randomized atomic wfcs

     total cpu time spent up to now is        0.8 secs

     Self-consistent Calculation

     iteration #  1     ecut=    40.00 Ry     beta=0.70
     CG style diagonalization
     ethr =  1.00E-02,  avg # of iterations = 23.6

     negative rho (up, down):  0.104E-03 0.000E+00

     total cpu time spent up to now is       11.9 secs

     total energy              =    -274.23376523 Ry
     Harris-Foulkes estimate   =   -1054.71991709 Ry
     estimated scf accuracy    <     925.37608200 Ry

     iteration #  2     ecut=    40.00 Ry     beta=0.70
     CG style diagonalization
     c_bands:  1 eigenvalues not converged
     c_bands:  1 eigenvalues not converged
     ethr =  1.00E-02,  avg # of iterations = 12.0

     negative rho (up, down):  0.477E-04 0.000E+00

     total cpu time spent up to now is       17.7 secs

     total energy              =    -411.91466115 Ry
     Harris-Foulkes estimate   =    -600.66568359 Ry
     estimated scf accuracy    <     284.86141970 Ry

     iteration #  3     ecut=    40.00 Ry     beta=0.70
     CG style diagonalization
     c_bands:  1 eigenvalues not converged
     c_bands:  1 eigenvalues not converged
     c_bands:  1 eigenvalues not converged
     ethr =  1.00E-02,  avg # of iterations = 11.0

     negative rho (up, down):  0.394E-04 0.000E+00

     total cpu time spent up to now is       23.2 secs

     total energy              =    -510.17547851 Ry
     Harris-Foulkes estimate   =    -518.41680685 Ry
     estimated scf accuracy    <      58.95302105 Ry

     iteration #  4     ecut=    40.00 Ry     beta=0.70
     CG style diagonalization
     ethr =  1.00E-02,  avg # of iterations =  3.6

     negative rho (up, down):  0.105E-04 0.000E+00

     total cpu time spent up to now is       26.0 secs

     total energy              =    -499.11758878 Ry
     Harris-Foulkes estimate   =    -511.20581606 Ry
     estimated scf accuracy    <      30.36713139 Ry

     iteration #  5     ecut=    40.00 Ry     beta=0.70
     CG style diagonalization
     ethr =  1.00E-02,  avg # of iterations =  4.4

     negative rho (up, down):  0.184E-05 0.000E+00

     total cpu time spent up to now is       29.2 secs

     total energy              =    -501.80064524 Ry
     Harris-Foulkes estimate   =    -502.66481223 Ry
     estimated scf accuracy    <       2.54434607 Ry

     iteration #  6     ecut=    40.00 Ry     beta=0.70
     CG style diagonalization
     ethr =  6.88E-03,  avg # of iterations =  3.2

     total cpu time spent up to now is       30.8 secs

     total energy              =    -501.63058845 Ry
     Harris-Foulkes estimate   =    -501.98992243 Ry
     estimated scf accuracy    <       0.73585926 Ry

     iteration #  7     ecut=    40.00 Ry     beta=0.70
     CG style diagonalization
     ethr =  1.99E-03,  avg # of iterations =  4.3

     total cpu time spent up to now is       33.0 secs

     total energy              =    -501.81845860 Ry
     Harris-Foulkes estimate   =    -501.82174586 Ry
     estimated scf accuracy    <       0.01323495 Ry

     iteration #  8     ecut=    40.00 Ry     beta=0.70
     CG style diagonalization
     c_bands:  1 eigenvalues not converged
     c_bands:  1 eigenvalues not converged
     c_bands:  1 eigenvalues not converged
     c_bands:  1 eigenvalues not converged
     c_bands:  1 eigenvalues not converged
     c_bands:  1 eigenvalues not converged
     c_bands:  1 eigenvalues not converged
     c_bands:  1 eigenvalues not converged
     c_bands:  1 eigenvalues not converged
     c_bands:  1 eigenvalues not converged
     c_bands:  1 eigenvalues not converged
     c_bands:  1 eigenvalues not converged
     c_bands:  1 eigenvalues not converged
     c_bands:  1 eigenvalues not converged
     c_bands:  2 eigenvalues not converged
     c_bands:  1 eigenvalues not converged
     c_bands:  1 eigenvalues not converged
     c_bands:  1 eigenvalues not converged
     c_bands:  1 eigenvalues not converged
     c_bands:  1 eigenvalues not converged
     c_bands:  1 eigenvalues not converged
     ethr =  3.58E-05,  avg # of iterations =  5.7

     total cpu time spent up to now is       35.8 secs

     total energy              =    -501.82325454 Ry
     Harris-Foulkes estimate   =    -501.83143255 Ry
     estimated scf accuracy    <       0.01289861 Ry

     iteration #  9     ecut=    40.00 Ry     beta=0.70
     CG style diagonalization
     c_bands:  1 eigenvalues not converged
     ethr =  3.49E-05,  avg # of iterations =  3.6

     total cpu time spent up to now is       37.8 secs

     total energy              =    -501.82698221 Ry
     Harris-Foulkes estimate   =    -501.82738135 Ry
     estimated scf accuracy    <       0.00095460 Ry

     iteration # 10     ecut=    40.00 Ry     beta=0.70
     CG style diagonalization
     c_bands:  1 eigenvalues not converged
     c_bands:  1 eigenvalues not converged
     c_bands:  1 eigenvalues not converged
     c_bands:  1 eigenvalues not converged
     ethr =  2.58E-06,  avg # of iterations =  4.4

     total cpu time spent up to now is       40.0 secs

     End of self-consistent calculation

     Number of k-points >= 100: set verbosity='high' to print the bands.

     the Fermi energy is    37.1510 ev

!    total energy              =    -501.82722076 Ry
     Harris-Foulkes estimate   =    -501.82728874 Ry
     estimated scf accuracy    <       0.00008205 Ry

     The total energy is the sum of the following terms:

     one-electron contribution =     -89.33813341 Ry
     hartree contribution      =      76.12227008 Ry
     xc contribution           =     -44.82077861 Ry
     ewald contribution        =    -443.71888731 Ry
     smearing contrib. (-TS)   =      -0.07169150 Ry

     convergence has been achieved in  10 iterations

     Forces acting on atoms (Ry/au):

     atom    1 type  1   force =     0.00000000    0.00000000    0.00000000
     atom    2 type  2   force =     0.00000000    0.00000000    0.00000000

     Total force =     0.000000     Total SCF correction =     0.000000


     entering subroutine stress ...

          total   stress  (Ry/bohr**3)                   (kbar)     P= 1766.65
   0.01296281   0.00000000   0.00000000       1906.89      0.00      0.00
   0.00000000   0.01296281   0.00000000          0.00   1906.89      0.00
   0.00000000   0.00000000   0.01010270          0.00      0.00   1486.16


     BFGS Geometry Optimization

     number of scf cycles    =   1
     number of bfgs steps    =   0

     enthalpy new            =    -501.8272207559 Ry

     new trust radius        =       0.5000000000 bohr
     new conv_thr            =       0.0001000000 Ry

     new unit-cell volume =    318.50114 a.u.^3 (    47.19700 Ang^3 )

CELL_PARAMETERS (alat=  5.41249258)
   1.175585808   0.000000000   0.000000000
   0.000000000   1.175585808   0.000000000
   0.000000000   0.000000000   1.453484424

ATOMIC_POSITIONS (crystal)
Cu       0.500000000   0.500000000   0.500000000
Au       0.000000000   0.000000000   0.000000000



     Writing output data file Prototype-La-tP2-AuCu.save
     Check: negative starting charge=   -0.000124
     NEW-OLD atomic charge density approx. for the potential
     NEW k-points: (use verbosity='high' to print them)
     Check: negative starting charge=   -0.003014

     negative rho (up, down):  0.293E-02 0.000E+00
     extrapolated charge   41.72222, renormalised to   37.00000

     total cpu time spent up to now is       41.2 secs

     Self-consistent Calculation

     iteration #  1     ecut=    40.00 Ry     beta=0.70
     CG style diagonalization
     c_bands:  4 eigenvalues not converged
     c_bands:  3 eigenvalues not converged
     c_bands:  5 eigenvalues not converged
     c_bands:  1 eigenvalues not converged
     c_bands:  2 eigenvalues not converged
     c_bands:  1 eigenvalues not converged
     c_bands:  2 eigenvalues not converged
     c_bands:  2 eigenvalues not converged
     c_bands:  1 eigenvalues not converged
     c_bands:  2 eigenvalues not converged
     c_bands:  1 eigenvalues not converged
     c_bands:  1 eigenvalues not converged
     c_bands:  5 eigenvalues not converged
     c_bands:  3 eigenvalues not converged
     c_bands:  1 eigenvalues not converged
     c_bands:  2 eigenvalues not converged
     c_bands:  2 eigenvalues not converged
     c_bands:  3 eigenvalues not converged
     c_bands:  3 eigenvalues not converged
     c_bands:  5 eigenvalues not converged
     c_bands:  1 eigenvalues not converged
     c_bands:  2 eigenvalues not converged
     c_bands:  2 eigenvalues not converged
     c_bands:  2 eigenvalues not converged
     c_bands:  3 eigenvalues not converged
     c_bands:  1 eigenvalues not converged
     c_bands:  4 eigenvalues not converged
     c_bands:  1 eigenvalues not converged
     c_bands:  1 eigenvalues not converged
     c_bands:  1 eigenvalues not converged
     c_bands:  1 eigenvalues not converged
     c_bands:  4 eigenvalues not converged
     c_bands:  2 eigenvalues not converged
     c_bands:  2 eigenvalues not converged
     c_bands:  1 eigenvalues not converged
     c_bands:  2 eigenvalues not converged
     c_bands:  1 eigenvalues not converged
     c_bands:  1 eigenvalues not converged
     c_bands:  2 eigenvalues not converged
     c_bands:  2 eigenvalues not converged
     c_bands:  1 eigenvalues not converged
     c_bands:  1 eigenvalues not converged
     c_bands:  3 eigenvalues not converged
     c_bands:  3 eigenvalues not converged
     c_bands:  1 eigenvalues not converged
     c_bands:  1 eigenvalues not converged
     c_bands:  1 eigenvalues not converged
     c_bands:  1 eigenvalues not converged
     c_bands:  1 eigenvalues not converged
     c_bands:  1 eigenvalues not converged
     c_bands:  3 eigenvalues not converged
     c_bands:  3 eigenvalues not converged
     c_bands:  4 eigenvalues not converged
     c_bands:  2 eigenvalues not converged
     c_bands:  3 eigenvalues not converged
     c_bands:  3 eigenvalues not converged
     c_bands:  1 eigenvalues not converged
     c_bands:  2 eigenvalues not converged
     c_bands:  1 eigenvalues not converged
     c_bands:  1 eigenvalues not converged
     c_bands:  5 eigenvalues not converged
     c_bands:  1 eigenvalues not converged
     c_bands:  5 eigenvalues not converged
     c_bands:  3 eigenvalues not converged
     c_bands:  2 eigenvalues not converged
     ethr =  1.00E-06,  avg # of iterations = 25.2

     negative rho (up, down):  0.779E-03 0.000E+00

     total cpu time spent up to now is       53.2 secs

     total energy              =    -461.48946024 Ry
     Harris-Foulkes estimate   =    -512.08451279 Ry
     estimated scf accuracy    <      80.09571328 Ry

     iteration #  2     ecut=    40.00 Ry     beta=0.70
     CG style diagonalization
     c_bands:  1 eigenvalues not converged
     c_bands:  1 eigenvalues not converged
     ethr =  1.00E-02,  avg # of iterations =  9.1

     negative rho (up, down):  0.531E-03 0.000E+00

     total cpu time spent up to now is       57.7 secs

     total energy              =    -459.76189948 Ry
     Harris-Foulkes estimate   =    -535.14437049 Ry
     estimated scf accuracy    <     161.79079556 Ry

     iteration #  3     ecut=    40.00 Ry     beta=0.70
     CG style diagonalization
     ethr =  1.00E-02,  avg # of iterations =  9.6

     negative rho (up, down):  0.226E-03 0.000E+00

     total cpu time spent up to now is       63.0 secs

     total energy              =    -501.52582490 Ry
     Harris-Foulkes estimate   =    -502.92023472 Ry
     estimated scf accuracy    <       3.73798900 Ry

     iteration #  4     ecut=    40.00 Ry     beta=0.70
     CG style diagonalization
     ethr =  1.00E-02,  avg # of iterations =  3.3

     negative rho (up, down):  0.802E-04 0.000E+00

     total cpu time spent up to now is       64.7 secs

     total energy              =    -501.69860726 Ry
     Harris-Foulkes estimate   =    -501.94113710 Ry
     estimated scf accuracy    <       0.65738355 Ry

     iteration #  5     ecut=    40.00 Ry     beta=0.70
     CG style diagonalization
     ethr =  1.78E-03,  avg # of iterations =  3.8

     negative rho (up, down):  0.186E-04 0.000E+00

     total cpu time spent up to now is       66.6 secs

     total energy              =    -501.79450788 Ry
     Harris-Foulkes estimate   =    -501.81912382 Ry
     estimated scf accuracy    <       0.05853907 Ry

     iteration #  6     ecut=    40.00 Ry     beta=0.70
     CG style diagonalization
     c_bands:  1 eigenvalues not converged
     c_bands:  1 eigenvalues not converged
     c_bands:  1 eigenvalues not converged
     ethr =  1.58E-04,  avg # of iterations =  4.3

     negative rho (up, down):  0.162E-04 0.000E+00

     total cpu time spent up to now is       68.9 secs

     total energy              =    -501.81343431 Ry
     Harris-Foulkes estimate   =    -501.81365320 Ry
     estimated scf accuracy    <       0.00226960 Ry

     iteration #  7     ecut=    40.00 Ry     beta=0.70
     CG style diagonalization
     c_bands:  1 eigenvalues not converged
     c_bands:  1 eigenvalues not converged
     c_bands:  1 eigenvalues not converged
     c_bands:  1 eigenvalues not converged
     c_bands:  1 eigenvalues not converged
     c_bands:  1 eigenvalues not converged
     c_bands:  1 eigenvalues not converged
     c_bands:  1 eigenvalues not converged
     c_bands:  1 eigenvalues not converged
     c_bands:  1 eigenvalues not converged
     c_bands:  1 eigenvalues not converged
     ethr =  6.13E-06,  avg # of iterations =  4.8

     total cpu time spent up to now is       71.2 secs

     total energy              =    -501.81243740 Ry
     Harris-Foulkes estimate   =    -501.81487092 Ry
     estimated scf accuracy    <       0.00528972 Ry

     iteration #  8     ecut=    40.00 Ry     beta=0.70
     CG style diagonalization
     ethr =  6.13E-06,  avg # of iterations =  3.7

     total cpu time spent up to now is       73.1 secs

     End of self-consistent calculation

     Number of k-points >= 100: set verbosity='high' to print the bands.

     the Fermi energy is    22.7610 ev

!    total energy              =    -501.81326879 Ry
     Harris-Foulkes estimate   =    -501.81332409 Ry
     estimated scf accuracy    <       0.00006126 Ry

     The total energy is the sum of the following terms:

     one-electron contribution =    -178.15651098 Ry
     hartree contribution      =     101.58732025 Ry
     xc contribution           =     -43.18102710 Ry
     ewald contribution        =    -381.95488046 Ry
     smearing contrib. (-TS)   =      -0.10817050 Ry

     convergence has been achieved in   8 iterations

     Forces acting on atoms (Ry/au):

     atom    1 type  1   force =     0.00000000    0.00000000    0.00000000
     atom    2 type  2   force =     0.00000000    0.00000000    0.00000000

     Total force =     0.000000     Total SCF correction =     0.000000


     entering subroutine stress ...

          total   stress  (Ry/bohr**3)                   (kbar)     P=-1095.31
  -0.00733071   0.00000000   0.00000000      -1078.38      0.00      0.00
   0.00000000  -0.00733071   0.00000000          0.00  -1078.38      0.00
   0.00000000   0.00000000  -0.00767585          0.00      0.00  -1129.16


     number of scf cycles    =   2
     number of bfgs steps    =   1

     enthalpy old            =    -501.8272207559 Ry
     enthalpy new            =    -501.8132687904 Ry

     CASE: enthalpy_new > enthalpy_old

     new trust radius        =       0.2635015222 bohr

     trust_radius < trust_radius_min

     resetting bfgs history

     new conv_thr            =       0.0001000000 Ry

     new unit-cell volume =    307.99346 a.u.^3 (    45.63992 Ang^3 )

CELL_PARAMETERS (alat=  5.41249258)
   1.164679239   0.000000000   0.000000000
   0.000000000   1.164679239   0.000000000
   0.000000000   0.000000000   1.431979768

ATOMIC_POSITIONS (crystal)
Cu       0.500000000   0.500000000   0.500000000
Au       0.000000000   0.000000000   0.000000000



     Writing output data file Prototype-La-tP2-AuCu.save
     Check: negative starting charge=   -0.003014
     NEW-OLD atomic charge density approx. for the potential
     NEW k-points: (use verbosity='high' to print them)
     Check: negative starting charge=   -0.002700
     extrapolated charge   36.55681, renormalised to   37.00000

     total cpu time spent up to now is       74.2 secs

     Self-consistent Calculation

     iteration #  1     ecut=    40.00 Ry     beta=0.70
     CG style diagonalization
     c_bands:  1 eigenvalues not converged
     c_bands:  1 eigenvalues not converged
     c_bands:  1 eigenvalues not converged
     c_bands:  1 eigenvalues not converged
     c_bands:  1 eigenvalues not converged
     c_bands:  1 eigenvalues not converged
     c_bands:  1 eigenvalues not converged
     c_bands:  1 eigenvalues not converged
     c_bands:  1 eigenvalues not converged
     c_bands:  1 eigenvalues not converged
     ethr =  1.00E-06,  avg # of iterations =  7.9

     total cpu time spent up to now is       78.0 secs

     total energy              =    -501.54508629 Ry
     Harris-Foulkes estimate   =    -503.87658291 Ry
     estimated scf accuracy    <       0.76472563 Ry

     iteration #  2     ecut=    40.00 Ry     beta=0.70
     CG style diagonalization
     ethr =  2.07E-03,  avg # of iterations =  3.9

     total cpu time spent up to now is       79.9 secs

     total energy              =    -501.72914297 Ry
     Harris-Foulkes estimate   =    -502.14385257 Ry
     estimated scf accuracy    <       0.78172234 Ry

     iteration #  3     ecut=    40.00 Ry     beta=0.70
     CG style diagonalization
     ethr =  2.07E-03,  avg # of iterations =  3.3

     total cpu time spent up to now is       81.6 secs

     total energy              =    -501.88353915 Ry
     Harris-Foulkes estimate   =    -501.88654382 Ry
     estimated scf accuracy    <       0.00494032 Ry

     iteration #  4     ecut=    40.00 Ry     beta=0.70
     CG style diagonalization
     c_bands:  1 eigenvalues not converged
     c_bands:  1 eigenvalues not converged
     ethr =  1.34E-05,  avg # of iterations =  4.9

     total cpu time spent up to now is       84.1 secs

     total energy              =    -501.88929673 Ry
     Harris-Foulkes estimate   =    -501.89006092 Ry
     estimated scf accuracy    <       0.00153926 Ry

     iteration #  5     ecut=    40.00 Ry     beta=0.70
     CG style diagonalization
     ethr =  4.16E-06,  avg # of iterations =  3.4

     total cpu time spent up to now is       85.8 secs

     End of self-consistent calculation

     Number of k-points >= 100: set verbosity='high' to print the bands.

     the Fermi energy is    23.6399 ev

!    total energy              =    -501.88946236 Ry
     Harris-Foulkes estimate   =    -501.88955217 Ry
     estimated scf accuracy    <       0.00009988 Ry

     The total energy is the sum of the following terms:

     one-electron contribution =    -171.65755129 Ry
     hartree contribution      =      99.43780843 Ry
     xc contribution           =     -43.27431890 Ry
     ewald contribution        =    -386.29179620 Ry
     smearing contrib. (-TS)   =      -0.10360440 Ry

     convergence has been achieved in   5 iterations

     Forces acting on atoms (Ry/au):

     atom    1 type  1   force =     0.00000000    0.00000000    0.00000000
     atom    2 type  2   force =     0.00000000    0.00000000    0.00000000

     Total force =     0.000000     Total SCF correction =     0.000000


     entering subroutine stress ...

          total   stress  (Ry/bohr**3)                   (kbar)     P=-1011.13
  -0.00675023   0.00000000   0.00000000       -992.99      0.00      0.00
   0.00000000  -0.00675023   0.00000000          0.00   -992.99      0.00
   0.00000000   0.00000000  -0.00712005          0.00      0.00  -1047.40


     number of scf cycles    =   3
     number of bfgs steps    =   1

     enthalpy old            =    -501.8272207559 Ry
     enthalpy new            =    -501.8894623561 Ry

     CASE: enthalpy_new < enthalpy_old

     Message from routine bfgs:
     history already reset at previous step: stopping
     small trust_radius: resetting bfgs history

     new trust radius        =       0.6247752920 bohr
     new conv_thr            =       0.0000010000 Ry

     new unit-cell volume =    174.93231 a.u.^3 (    25.92229 Ang^3 )

CELL_PARAMETERS (alat=  5.41249258)
   0.968133026   0.000000000   0.000000000
   0.000000000   0.968133026   0.000000000
   0.000000000   0.000000000   1.177085546

ATOMIC_POSITIONS (crystal)
Cu       0.500000000   0.500000000   0.500000000
Au       0.000000000   0.000000000   0.000000000



     Writing output data file Prototype-La-tP2-AuCu.save
     Check: negative starting charge=   -0.002700
     NEW-OLD atomic charge density approx. for the potential
     NEW k-points: (use verbosity='high' to print them)

     negative rho (up, down):  0.196E+01 0.000E+00
     extrapolated charge   27.11883, renormalised to   37.00000

     total cpu time spent up to now is       86.7 secs

     Self-consistent Calculation

     iteration #  1     ecut=    40.00 Ry     beta=0.70
     CG style diagonalization
     c_bands:  1 eigenvalues not converged
     c_bands:  1 eigenvalues not converged
     c_bands:  3 eigenvalues not converged
     c_bands:  1 eigenvalues not converged
     c_bands:  1 eigenvalues not converged
     c_bands:  1 eigenvalues not converged
     c_bands:  2 eigenvalues not converged
     c_bands:  4 eigenvalues not converged
     c_bands:  1 eigenvalues not converged
     c_bands:  3 eigenvalues not converged
     c_bands:  3 eigenvalues not converged
     c_bands:  1 eigenvalues not converged
     c_bands:  2 eigenvalues not converged
     c_bands:  3 eigenvalues not converged
     c_bands:  5 eigenvalues not converged
     c_bands:  4 eigenvalues not converged
     c_bands:  2 eigenvalues not converged
     c_bands:  1 eigenvalues not converged
     c_bands:  3 eigenvalues not converged
     c_bands:  1 eigenvalues not converged
     c_bands:  4 eigenvalues not converged
     c_bands:  1 eigenvalues not converged
     c_bands:  3 eigenvalues not converged
     c_bands:  2 eigenvalues not converged
     c_bands:  4 eigenvalues not converged
     c_bands:  1 eigenvalues not converged
     c_bands:  3 eigenvalues not converged
     c_bands:  1 eigenvalues not converged
     c_bands:  2 eigenvalues not converged
     c_bands:  5 eigenvalues not converged
     c_bands:  1 eigenvalues not converged
     c_bands:  2 eigenvalues not converged
     c_bands:  1 eigenvalues not converged
     c_bands:  1 eigenvalues not converged
     c_bands:  1 eigenvalues not converged
     c_bands:  2 eigenvalues not converged
     c_bands:  1 eigenvalues not converged
     c_bands:  1 eigenvalues not converged
     c_bands:  4 eigenvalues not converged
     c_bands:  3 eigenvalues not converged
     c_bands:  2 eigenvalues not converged
     c_bands:  4 eigenvalues not converged
     c_bands:  4 eigenvalues not converged
     c_bands:  1 eigenvalues not converged
     c_bands:  5 eigenvalues not converged
     c_bands:  1 eigenvalues not converged
     c_bands:  1 eigenvalues not converged
     c_bands:  1 eigenvalues not converged
     c_bands:  1 eigenvalues not converged
     ethr =  1.00E-06,  avg # of iterations = 27.4

     negative rho (up, down):  0.560E-01 0.000E+00

     total cpu time spent up to now is       99.9 secs

     total energy              =    -234.13119701 Ry
     Harris-Foulkes estimate   =    -684.08405121 Ry
     estimated scf accuracy    <     602.15215189 Ry

     iteration #  2     ecut=    40.00 Ry     beta=0.70
     CG style diagonalization
     c_bands:  4 eigenvalues not converged
     c_bands:  1 eigenvalues not converged
     c_bands:  3 eigenvalues not converged
     c_bands:  4 eigenvalues not converged
     c_bands:  3 eigenvalues not converged
     c_bands:  2 eigenvalues not converged
     c_bands:  4 eigenvalues not converged
     c_bands:  1 eigenvalues not converged
     c_bands:  4 eigenvalues not converged
     c_bands:  3 eigenvalues not converged
     c_bands:  4 eigenvalues not converged
     c_bands:  3 eigenvalues not converged
     c_bands:  5 eigenvalues not converged
     c_bands:  5 eigenvalues not converged
     c_bands:  5 eigenvalues not converged
     c_bands:  4 eigenvalues not converged
     c_bands:  2 eigenvalues not converged
     c_bands:  4 eigenvalues not converged
     c_bands:  3 eigenvalues not converged
     c_bands:  3 eigenvalues not converged
     c_bands:  1 eigenvalues not converged
     c_bands:  3 eigenvalues not converged
     c_bands:  3 eigenvalues not converged
     c_bands:  4 eigenvalues not converged
     c_bands:  3 eigenvalues not converged
     c_bands:  5 eigenvalues not converged
     c_bands:  5 eigenvalues not converged
     c_bands:  3 eigenvalues not converged
     c_bands:  4 eigenvalues not converged
     c_bands:  4 eigenvalues not converged
     c_bands:  3 eigenvalues not converged
     c_bands:  4 eigenvalues not converged
     c_bands:  2 eigenvalues not converged
     c_bands:  4 eigenvalues not converged
     c_bands:  3 eigenvalues not converged
     c_bands:  4 eigenvalues not converged
     c_bands:  2 eigenvalues not converged
     c_bands:  5 eigenvalues not converged
     c_bands:  4 eigenvalues not converged
     c_bands:  1 eigenvalues not converged
     c_bands:  2 eigenvalues not converged
     c_bands:  5 eigenvalues not converged
     c_bands:  5 eigenvalues not converged
     c_bands:  5 eigenvalues not converged
     c_bands:  4 eigenvalues not converged
     c_bands:  4 eigenvalues not converged
     c_bands:  4 eigenvalues not converged
     c_bands:  2 eigenvalues not converged
     c_bands:  4 eigenvalues not converged
     c_bands:  4 eigenvalues not converged
     c_bands:  5 eigenvalues not converged
     c_bands:  3 eigenvalues not converged
     c_bands:  5 eigenvalues not converged
     c_bands:  4 eigenvalues not converged
     c_bands:  5 eigenvalues not converged
     c_bands:  1 eigenvalues not converged
     c_bands:  1 eigenvalues not converged
     c_bands:  4 eigenvalues not converged
     c_bands:  2 eigenvalues not converged
     c_bands:  4 eigenvalues not converged
     c_bands:  3 eigenvalues not converged
     c_bands:  4 eigenvalues not converged
     c_bands:  5 eigenvalues not converged
     ethr =  1.00E-02,  avg # of iterations = 16.1

     negative rho (up, down):  0.337E-01 0.000E+00

     total cpu time spent up to now is      108.0 secs

     total energy              =    -457.07176900 Ry
     Harris-Foulkes estimate   =    -671.88308136 Ry
     estimated scf accuracy    <     356.35763223 Ry

     iteration #  3     ecut=    40.00 Ry     beta=0.70
     CG style diagonalization
     c_bands:  1 eigenvalues not converged
     ethr =  1.00E-02,  avg # of iterations =  8.7

     negative rho (up, down):  0.265E-01 0.000E+00

     total cpu time spent up to now is      112.5 secs

     total energy              =    -507.10500254 Ry
     Harris-Foulkes estimate   =    -514.38765532 Ry
     estimated scf accuracy    <      25.99720621 Ry

     iteration #  4     ecut=    40.00 Ry     beta=0.70
     CG style diagonalization
     ethr =  1.00E-02,  avg # of iterations =  3.5

     negative rho (up, down):  0.250E-02 0.000E+00

     total cpu time spent up to now is      114.3 secs

     total energy              =    -499.16304431 Ry
     Harris-Foulkes estimate   =    -507.66794862 Ry
     estimated scf accuracy    <      13.04884728 Ry

     iteration #  5     ecut=    40.00 Ry     beta=0.70
     CG style diagonalization
     ethr =  1.00E-02,  avg # of iterations =  4.1

     total cpu time spent up to now is      116.5 secs

     total energy              =    -501.28083620 Ry
     Harris-Foulkes estimate   =    -501.38802301 Ry
     estimated scf accuracy    <       0.23075336 Ry

     iteration #  6     ecut=    40.00 Ry     beta=0.70
     CG style diagonalization
     c_bands:  1 eigenvalues not converged
     ethr =  6.24E-04,  avg # of iterations =  4.5

     total cpu time spent up to now is      119.5 secs

     total energy              =    -501.35241024 Ry
     Harris-Foulkes estimate   =    -501.36029439 Ry
     estimated scf accuracy    <       0.02799863 Ry

     iteration #  7     ecut=    40.00 Ry     beta=0.70
     CG style diagonalization
     c_bands:  1 eigenvalues not converged
     c_bands:  1 eigenvalues not converged
     c_bands:  1 eigenvalues not converged
     c_bands:  1 eigenvalues not converged
     ethr =  7.57E-05,  avg # of iterations =  4.1

     total cpu time spent up to now is      121.6 secs

     total energy              =    -501.35062043 Ry
     Harris-Foulkes estimate   =    -501.35849400 Ry
     estimated scf accuracy    <       0.01176670 Ry

     iteration #  8     ecut=    40.00 Ry     beta=0.70
     CG style diagonalization
     ethr =  3.18E-05,  avg # of iterations =  3.8

     total cpu time spent up to now is      123.6 secs

     total energy              =    -501.35330592 Ry
     Harris-Foulkes estimate   =    -501.35335863 Ry
     estimated scf accuracy    <       0.00008090 Ry

     iteration #  9     ecut=    40.00 Ry     beta=0.70
     CG style diagonalization
     c_bands:  1 eigenvalues not converged
     c_bands:  1 eigenvalues not converged
     c_bands:  1 eigenvalues not converged
     c_bands:  1 eigenvalues not converged
     c_bands:  1 eigenvalues not converged
     c_bands:  1 eigenvalues not converged
     ethr =  2.19E-07,  avg # of iterations =  6.5

     total cpu time spent up to now is      126.9 secs

     total energy              =    -501.35356837 Ry
     Harris-Foulkes estimate   =    -501.35357785 Ry
     estimated scf accuracy    <       0.00002109 Ry

     iteration # 10     ecut=    40.00 Ry     beta=0.70
     CG style diagonalization
     c_bands:  1 eigenvalues not converged
     ethr =  5.70E-08,  avg # of iterations =  3.9

     total cpu time spent up to now is      129.1 secs

     total energy              =    -501.35356811 Ry
     Harris-Foulkes estimate   =    -501.35357418 Ry
     estimated scf accuracy    <       0.00001027 Ry

     iteration # 11     ecut=    40.00 Ry     beta=0.70
     CG style diagonalization
     ethr =  2.78E-08,  avg # of iterations =  3.5

     total cpu time spent up to now is      131.7 secs

     End of self-consistent calculation

     Number of k-points >= 100: set verbosity='high' to print the bands.

     the Fermi energy is    43.1332 ev

!    total energy              =    -501.35357003 Ry
     Harris-Foulkes estimate   =    -501.35357010 Ry
     estimated scf accuracy    <       0.00000009 Ry

     The total energy is the sum of the following terms:

     one-electron contribution =     -57.09056654 Ry
     hartree contribution      =      67.87050366 Ry
     xc contribution           =     -45.52274154 Ry
     ewald contribution        =    -466.54805575 Ry
     smearing contrib. (-TS)   =      -0.06270986 Ry

     convergence has been achieved in  11 iterations

     Forces acting on atoms (Ry/au):

     atom    1 type  1   force =     0.00000000    0.00000000    0.00000000
     atom    2 type  2   force =     0.00000000    0.00000000    0.00000000

     Total force =     0.000000     Total SCF correction =     0.000000


     entering subroutine stress ...

          total   stress  (Ry/bohr**3)                   (kbar)     P= 3586.52
   0.02513633   0.00000000   0.00000000       3697.68      0.00      0.00
   0.00000000   0.02513633   0.00000000          0.00   3697.68      0.00
   0.00000000   0.00000000   0.02286926          0.00      0.00   3364.18


     The maximum number of steps has been reached.

     End of BFGS Geometry Optimization
Begin final coordinates
     new unit-cell volume =    174.93231 a.u.^3 (    25.92229 Ang^3 )

CELL_PARAMETERS (alat=  5.41249258)
   0.968133026   0.000000000   0.000000000
   0.000000000   0.968133026   0.000000000
   0.000000000   0.000000000   1.177085546

ATOMIC_POSITIONS (crystal)
Cu       0.500000000   0.500000000   0.500000000
Au       0.000000000   0.000000000   0.000000000
End final coordinates



     A final scf calculation at the relaxed structure.
     The G-vectors are recalculated for the final unit cell
     Results may differ from those at the preceding step.
 
     Parallelization info
     --------------------
     sticks:   dense  smooth     PW     G-vecs:    dense   smooth      PW
     Min          87      87     28                 1497     1497     275
     Max          88      88     29                 1498     1498     276
     Sum         349     349    113                 5989     5989    1103
 


     bravais-lattice index     =            0
     lattice parameter (alat)  =       5.4125  a.u.
     unit-cell volume          =     174.9323 (a.u.)^3
     number of atoms/cell      =            2
     number of atomic types    =            2
     number of electrons       =        37.00
     number of Kohn-Sham states=           23
     kinetic-energy cutoff     =      40.0000  Ry
     charge density cutoff     =     160.0000  Ry
     convergence threshold     =      1.0E-06
     mixing beta               =       0.7000
     number of iterations used =            8  plain     mixing
     Exchange-correlation      = SLA-PZ-NOGX-NOGC ( 1 1 0 0 0)
     EXX-fraction              =        0.00

     celldm(1)=   5.412493  celldm(2)=   0.000000  celldm(3)=   0.000000
     celldm(4)=   0.000000  celldm(5)=   0.000000  celldm(6)=   0.000000

     crystal axes: (cart. coord. in units of alat)
               a(1) = (   0.968133   0.000000   0.000000 )  
               a(2) = (   0.000000   0.968133   0.000000 )  
               a(3) = (   0.000000   0.000000   1.177086 )  

     reciprocal axes: (cart. coord. in units 2 pi/alat)
               b(1) = (  1.032916  0.000000  0.000000 )  
               b(2) = (  0.000000  1.032916  0.000000 )  
               b(3) = (  0.000000  0.000000  0.849556 )  


     PseudoPot. # 1 for Yb read from file:
     /home/jld5415/pp.La/Yb.UPF
     MD5 check sum: 3e859b81cc28c53ec6aa3a2e888efcdf
     Pseudo is Norm-conserving, Zval = 24.0
     Generated in analytical, separable form
     Using radial grid of 1269 points,  6 beta functions with: 
                l(1) =   0
                l(2) =   0
                l(3) =   1
                l(4) =   1
                l(5) =   2
                l(6) =   3

     PseudoPot. # 2 for Pr read from file:
     /home/jld5415/pp.La/Pr.UPF
     MD5 check sum: 70e2b4b153859e92c8c91247dfc63203
     Pseudo is Norm-conserving, Zval = 13.0
     Generated in analytical, separable form
     Using radial grid of 1255 points,  6 beta functions with: 
                l(1) =   0
                l(2) =   0
                l(3) =   1
                l(4) =   1
                l(5) =   2
                l(6) =   3

     atomic species   valence    mass     pseudopotential
        Cu            24.00    63.54600     Yb( 1.00)
        Au            13.00   196.96600     Pr( 1.00)

     16 Sym. Ops., with inversion, found



   Cartesian axes

     site n.     atom                  positions (alat units)
         1           Cu  tau(   1) = (   0.4840665   0.4840665   0.5885428  )
         2           Au  tau(   2) = (   0.0000000   0.0000000   0.0000000  )

     number of k points=   100  gaussian smearing, width (Ry)=  0.1000

     Number of k-points >= 100: set verbosity='high' to print them.

     Dense  grid:     5989 G-vectors     FFT dimensions: (  24,  24,  25)

     Largest allocated arrays     est. size (Mb)     dimensions
        Kohn-Sham Wavefunctions         0.07 Mb     (    196,   23)
        NL pseudopotentials             0.12 Mb     (    196,   40)
        Each V/rho on FFT grid          0.06 Mb     (   4032)
        Each G-vector array             0.01 Mb     (   1497)
        G-vector shells                 0.00 Mb     (    363)
     Largest temporary arrays     est. size (Mb)     dimensions
        Each subspace H/S matrix        0.01 Mb     (  23,  23)
        Each <psi_i|beta_j> matrix      0.01 Mb     (     40,   23)
        Arrays for rho mixing           0.49 Mb     (   4032,   8)

     Initial potential from superposition of free atoms

     starting charge   12.99054, renormalised to   37.00000

     negative rho (up, down):  0.202E-03 0.000E+00
     Starting wfc are   20 randomized atomic wfcs

     Writing output data file Prototype-La-tP2-AuCu.save

     total cpu time spent up to now is      132.8 secs

     Self-consistent Calculation

     iteration #  1     ecut=    40.00 Ry     beta=0.70
     CG style diagonalization
     c_bands:  1 eigenvalues not converged
     c_bands:  1 eigenvalues not converged
     c_bands:  4 eigenvalues not converged
     c_bands:  1 eigenvalues not converged
     c_bands:  1 eigenvalues not converged
     c_bands:  2 eigenvalues not converged
     c_bands:  2 eigenvalues not converged
     c_bands:  1 eigenvalues not converged
     c_bands:  3 eigenvalues not converged
     c_bands:  1 eigenvalues not converged
     c_bands:  1 eigenvalues not converged
     c_bands:  1 eigenvalues not converged
     c_bands:  3 eigenvalues not converged
     c_bands:  4 eigenvalues not converged
     c_bands:  1 eigenvalues not converged
     c_bands:  1 eigenvalues not converged
     c_bands:  1 eigenvalues not converged
     c_bands:  2 eigenvalues not converged
     c_bands:  2 eigenvalues not converged
     c_bands:  2 eigenvalues not converged
     c_bands:  1 eigenvalues not converged
     c_bands:  1 eigenvalues not converged
     c_bands:  2 eigenvalues not converged
     c_bands:  1 eigenvalues not converged
     c_bands:  2 eigenvalues not converged
     c_bands:  1 eigenvalues not converged
     c_bands:  2 eigenvalues not converged
     c_bands:  1 eigenvalues not converged
     c_bands:  1 eigenvalues not converged
     c_bands:  1 eigenvalues not converged
     c_bands:  3 eigenvalues not converged
     c_bands:  2 eigenvalues not converged
     c_bands:  2 eigenvalues not converged
     c_bands:  1 eigenvalues not converged
     c_bands:  1 eigenvalues not converged
     c_bands:  1 eigenvalues not converged
     c_bands:  1 eigenvalues not converged
     c_bands:  2 eigenvalues not converged
     c_bands:  2 eigenvalues not converged
     c_bands:  1 eigenvalues not converged
     c_bands:  1 eigenvalues not converged
     c_bands:  1 eigenvalues not converged
     c_bands:  3 eigenvalues not converged
     c_bands:  1 eigenvalues not converged
     c_bands:  1 eigenvalues not converged
     c_bands:  1 eigenvalues not converged
     c_bands:  1 eigenvalues not converged
     ethr =  1.00E-06,  avg # of iterations = 51.4

     negative rho (up, down):  0.596E-04 0.000E+00

     total cpu time spent up to now is      155.8 secs

     total energy              =    -276.96468167 Ry
     Harris-Foulkes estimate   =   -1004.90198249 Ry
     estimated scf accuracy    <     865.48888982 Ry

     iteration #  2     ecut=    40.00 Ry     beta=0.70
     CG style diagonalization
     c_bands:  1 eigenvalues not converged
     c_bands:  1 eigenvalues not converged
     c_bands:  1 eigenvalues not converged
     c_bands:  1 eigenvalues not converged
     c_bands:  1 eigenvalues not converged
     ethr =  1.00E-02,  avg # of iterations = 11.6

     negative rho (up, down):  0.232E-04 0.000E+00

     total cpu time spent up to now is      161.3 secs

     total energy              =    -424.11702876 Ry
     Harris-Foulkes estimate   =    -595.00542188 Ry
     estimated scf accuracy    <     257.75528338 Ry

     iteration #  3     ecut=    40.00 Ry     beta=0.70
     CG style diagonalization
     c_bands:  1 eigenvalues not converged
     c_bands:  1 eigenvalues not converged
     c_bands:  1 eigenvalues not converged
     ethr =  1.00E-02,  avg # of iterations = 10.3

     negative rho (up, down):  0.162E-04 0.000E+00

     total cpu time spent up to now is      166.0 secs

     total energy              =    -505.52549541 Ry
     Harris-Foulkes estimate   =    -512.55845600 Ry
     estimated scf accuracy    <      34.22735899 Ry

     iteration #  4     ecut=    40.00 Ry     beta=0.70
     CG style diagonalization
     ethr =  1.00E-02,  avg # of iterations =  3.5

     negative rho (up, down):  0.240E-05 0.000E+00

     total cpu time spent up to now is      167.6 secs

     total energy              =    -497.62663850 Ry
     Harris-Foulkes estimate   =    -506.44336577 Ry
     estimated scf accuracy    <      15.59860791 Ry

     iteration #  5     ecut=    40.00 Ry     beta=0.70
     CG style diagonalization
     ethr =  1.00E-02,  avg # of iterations =  4.6

     total cpu time spent up to now is      170.1 secs

     total energy              =    -501.14106566 Ry
     Harris-Foulkes estimate   =    -501.16155583 Ry
     estimated scf accuracy    <       0.05943268 Ry

     iteration #  6     ecut=    40.00 Ry     beta=0.70
     CG style diagonalization
     c_bands:  1 eigenvalues not converged
     c_bands:  1 eigenvalues not converged
     c_bands:  1 eigenvalues not converged
     c_bands:  1 eigenvalues not converged
     c_bands:  1 eigenvalues not converged
     c_bands:  1 eigenvalues not converged
     c_bands:  1 eigenvalues not converged
     c_bands:  1 eigenvalues not converged
     c_bands:  1 eigenvalues not converged
     c_bands:  1 eigenvalues not converged
     c_bands:  1 eigenvalues not converged
     c_bands:  1 eigenvalues not converged
     c_bands:  1 eigenvalues not converged
     c_bands:  1 eigenvalues not converged
     c_bands:  1 eigenvalues not converged
     c_bands:  1 eigenvalues not converged
     c_bands:  1 eigenvalues not converged
     c_bands:  1 eigenvalues not converged
     c_bands:  1 eigenvalues not converged
     c_bands:  2 eigenvalues not converged
     c_bands:  1 eigenvalues not converged
     ethr =  1.61E-04,  avg # of iterations =  5.8

     total cpu time spent up to now is      173.5 secs

     total energy              =    -501.19718602 Ry
     Harris-Foulkes estimate   =    -501.20612555 Ry
     estimated scf accuracy    <       0.01562547 Ry

     iteration #  7     ecut=    40.00 Ry     beta=0.70
     CG style diagonalization
     c_bands:  1 eigenvalues not converged
     c_bands:  1 eigenvalues not converged
     c_bands:  1 eigenvalues not converged
     c_bands:  1 eigenvalues not converged
     c_bands:  1 eigenvalues not converged
     c_bands:  1 eigenvalues not converged
     ethr =  4.22E-05,  avg # of iterations =  3.8

     total cpu time spent up to now is      175.3 secs

     total energy              =    -501.20125924 Ry
     Harris-Foulkes estimate   =    -501.20142148 Ry
     estimated scf accuracy    <       0.00026741 Ry

     iteration #  8     ecut=    40.00 Ry     beta=0.70
     CG style diagonalization
     c_bands:  1 eigenvalues not converged
     c_bands:  1 eigenvalues not converged
     c_bands:  1 eigenvalues not converged
     ethr =  7.23E-07,  avg # of iterations =  5.3

     total cpu time spent up to now is      178.3 secs

     total energy              =    -501.20152527 Ry
     Harris-Foulkes estimate   =    -501.20160500 Ry
     estimated scf accuracy    <       0.00011650 Ry

     iteration #  9     ecut=    40.00 Ry     beta=0.70
     CG style diagonalization
     c_bands:  1 eigenvalues not converged
     ethr =  3.15E-07,  avg # of iterations =  3.6

     total cpu time spent up to now is      180.2 secs

     total energy              =    -501.20156337 Ry
     Harris-Foulkes estimate   =    -501.20156997 Ry
     estimated scf accuracy    <       0.00001086 Ry

     iteration # 10     ecut=    40.00 Ry     beta=0.70
     CG style diagonalization
     ethr =  2.93E-08,  avg # of iterations =  3.7

     total cpu time spent up to now is      181.9 secs

     End of self-consistent calculation

     Number of k-points >= 100: set verbosity='high' to print the bands.

     the Fermi energy is    43.2173 ev

!    total energy              =    -501.20156760 Ry
     Harris-Foulkes estimate   =    -501.20156798 Ry
     estimated scf accuracy    <       0.00000048 Ry

     The total energy is the sum of the following terms:

     one-electron contribution =     -56.82248251 Ry
     hartree contribution      =      67.73035841 Ry
     xc contribution           =     -45.49999844 Ry
     ewald contribution        =    -466.54805577 Ry
     smearing contrib. (-TS)   =      -0.06138929 Ry

     convergence has been achieved in  10 iterations

     Forces acting on atoms (Ry/au):

     atom    1 type  1   force =     0.00000000    0.00000000    0.00000000
     atom    2 type  2   force =     0.00000000    0.00000000    0.00000000

     Total force =     0.000000     Total SCF correction =     0.000000


     entering subroutine stress ...

          total   stress  (Ry/bohr**3)                   (kbar)     P= 3424.61
   0.02432996   0.00000000   0.00000000       3579.06      0.00      0.00
   0.00000000   0.02432996   0.00000000          0.00   3579.06      0.00
   0.00000000   0.00000000   0.02118024          0.00      0.00   3115.72


     Writing output data file Prototype-La-tP2-AuCu.save
 
     init_run     :      0.94s CPU      1.09s WALL (       2 calls)
     electrons    :    164.50s CPU    176.72s WALL (       5 calls)
     update_pot   :      0.46s CPU      0.47s WALL (       3 calls)
     forces       :      0.60s CPU      0.62s WALL (       5 calls)
     stress       :      1.56s CPU      1.63s WALL (       5 calls)

     Called by init_run:
     wfcinit      :      0.64s CPU      0.77s WALL (       2 calls)
     potinit      :      0.08s CPU      0.08s WALL (       2 calls)

     Called by electrons:
     c_bands      :    157.72s CPU    169.15s WALL (      44 calls)
     sum_band     :      6.61s CPU      7.18s WALL (      44 calls)
     v_of_rho     :      0.02s CPU      0.02s WALL (      49 calls)
     mix_rho      :      0.02s CPU      0.02s WALL (      44 calls)

     Called by c_bands:
     init_us_2    :      1.05s CPU      1.08s WALL (   10000 calls)
     ccgdiagg     :    135.00s CPU    143.05s WALL (    4937 calls)
     wfcrot       :     22.37s CPU     24.32s WALL (    5037 calls)

     Called by *cgdiagg:
     h_psi        :    106.94s CPU    116.56s WALL (  697244 calls)
     cdiaghg      :      0.99s CPU      1.34s WALL (    5037 calls)

     Called by h_psi:
     add_vuspsi   :      6.33s CPU      7.55s WALL (  697244 calls)

     General routines
     calbec       :     19.16s CPU     23.37s WALL ( 1390451 calls)
     fft          :      0.03s CPU      0.03s WALL (     219 calls)
     fftw         :     86.72s CPU     90.13s WALL ( 1717316 calls)
     davcio       :      0.67s CPU      2.36s WALL (   14400 calls)
 
     Parallel routines
     fft_scatter  :     32.56s CPU     35.25s WALL ( 1717535 calls)
 
     PWSCF        :  2m49.02s CPU     3m 2.49s WALL

 
   This run was terminated on:  12:16:31  22Mar2018            

=------------------------------------------------------------------------------=
   JOB DONE.
=------------------------------------------------------------------------------=
