
     Program PWSCF v.5.0.2 starts on 22Mar2018 at 12:13:27 

     This program is part of the open-source Quantum ESPRESSO suite
     for quantum simulation of materials; please cite
         "P. Giannozzi et al., J. Phys.:Condens. Matter 21 395502 (2009);
          URL http://www.quantum-espresso.org", 
     in publications or presentations arising from this work. More details at
     http://www.quantum-espresso.org/quote.php

     Parallel version (MPI), running on     4 processors
     R & G space division:  proc/nbgrp/npool/nimage =       4

     Current dimensions of program PWSCF are:
     Max number of different atomic species (ntypx) = 10
     Max number of k-points (npk) =  40000
     Max angular momentum in pseudopotentials (lmaxx) =  3
     Waiting for input...
     Reading input from standard input

     Subspace diagonalization in iterative solution of the eigenvalue problem:
     a serial algorithm will be used

 
     Parallelization info
     --------------------
     sticks:   dense  smooth     PW     G-vecs:    dense   smooth      PW
     Min         207     207     61                 7381     7381    1191
     Max         208     208     62                 7386     7386    1192
     Sum         829     829    247                29529    29529    4767
 


     bravais-lattice index     =            0
     lattice parameter (alat)  =       7.0151  a.u.
     unit-cell volume          =     862.2778 (a.u.)^3
     number of atoms/cell      =           12
     number of atomic types    =            2
     number of electrons       =       244.00
     number of Kohn-Sham states=          146
     kinetic-energy cutoff     =      40.0000  Ry
     charge density cutoff     =     160.0000  Ry
     convergence threshold     =      1.0E-04
     mixing beta               =       0.7000
     number of iterations used =            8  plain     mixing
     Exchange-correlation      = SLA-PZ-NOGX-NOGC ( 1 1 0 0 0)
     EXX-fraction              =        0.00
     nstep                     =           50


     celldm(1)=   7.015105  celldm(2)=   0.000000  celldm(3)=   0.000000
     celldm(4)=   0.000000  celldm(5)=   0.000000  celldm(6)=   0.000000

     crystal axes: (cart. coord. in units of alat)
               a(1) = (   1.000000   0.000000   0.000000 )  
               a(2) = (   0.000000   1.315963   0.000000 )  
               a(3) = (   0.000000   0.000000   1.898020 )  

     reciprocal axes: (cart. coord. in units 2 pi/alat)
               b(1) = (  1.000000  0.000000  0.000000 )  
               b(2) = (  0.000000  0.759900  0.000000 )  
               b(3) = (  0.000000  0.000000  0.526865 )  


     PseudoPot. # 1 for Yb read from file:
     /home/jld5415/pp.La/Yb.UPF
     MD5 check sum: 3e859b81cc28c53ec6aa3a2e888efcdf
     Pseudo is Norm-conserving, Zval = 24.0
     Generated in analytical, separable form
     Using radial grid of 1269 points,  6 beta functions with: 
                l(1) =   0
                l(2) =   0
                l(3) =   1
                l(4) =   1
                l(5) =   2
                l(6) =   3

     PseudoPot. # 2 for Pr read from file:
     /home/jld5415/pp.La/Pr.UPF
     MD5 check sum: 70e2b4b153859e92c8c91247dfc63203
     Pseudo is Norm-conserving, Zval = 13.0
     Generated in analytical, separable form
     Using radial grid of 1255 points,  6 beta functions with: 
                l(1) =   0
                l(2) =   0
                l(3) =   1
                l(4) =   1
                l(5) =   2
                l(6) =   3

     atomic species   valence    mass     pseudopotential
        Co            24.00    58.93320     Yb( 1.00)
        Si            13.00    28.08550     Pr( 1.00)

      8 Sym. Ops., with inversion, found ( 6 have fractional translation)



   Cartesian axes

     site n.     atom                  positions (alat units)
         1           Co  tau(   1) = (   0.7500000   1.0875135   0.8270358  )
         2           Co  tau(   2) = (   0.2500000   0.2284499   1.0709846  )
         3           Co  tau(   3) = (   0.7500000   0.4295318   0.1219744  )
         4           Co  tau(   4) = (   0.2500000   0.8864316   1.7760460  )
         5           Co  tau(   5) = (   0.2500000   0.7067855   0.5358966  )
         6           Co  tau(   6) = (   0.7500000   0.6091779   1.3621238  )
         7           Co  tau(   7) = (   0.2500000   0.0488038   0.4131136  )
         8           Co  tau(   8) = (   0.7500000   1.2671596   1.4849068  )
         9           Si  tau(   9) = (   0.2500000   0.2669484   1.6960710  )
        10           Si  tau(  10) = (   0.7500000   1.0490149   0.2019494  )
        11           Si  tau(  11) = (   0.2500000   0.9249301   1.1509596  )
        12           Si  tau(  12) = (   0.7500000   0.3910333   0.7470608  )

     number of k points=    12  gaussian smearing, width (Ry)=  0.1000
                       cart. coord. in units 2pi/alat
        k(    1) = (   0.0000000   0.0000000   0.0000000), wk =   0.0833333
        k(    2) = (   0.0000000   0.0000000   0.1317162), wk =   0.1666667
        k(    3) = (   0.0000000   0.0000000  -0.2634324), wk =   0.0833333
        k(    4) = (   0.0000000   0.2532999   0.0000000), wk =   0.1666667
        k(    5) = (   0.0000000   0.2532999   0.1317162), wk =   0.3333333
        k(    6) = (   0.0000000   0.2532999  -0.2634324), wk =   0.1666667
        k(    7) = (  -0.5000000   0.0000000   0.0000000), wk =   0.0833333
        k(    8) = (  -0.5000000   0.0000000   0.1317162), wk =   0.1666667
        k(    9) = (  -0.5000000   0.0000000  -0.2634324), wk =   0.0833333
        k(   10) = (  -0.5000000   0.2532999   0.0000000), wk =   0.1666667
        k(   11) = (  -0.5000000   0.2532999   0.1317162), wk =   0.3333333
        k(   12) = (  -0.5000000   0.2532999  -0.2634324), wk =   0.1666667

     Dense  grid:    29529 G-vectors     FFT dimensions: (  30,  40,  54)

     Largest allocated arrays     est. size (Mb)     dimensions
        Kohn-Sham Wavefunctions         2.05 Mb     (    922,  146)
        NL pseudopotentials             3.38 Mb     (    922,  240)
        Each V/rho on FFT grid          0.26 Mb     (  16800)
        Each G-vector array             0.06 Mb     (   7386)
        G-vector shells                 0.06 Mb     (   7386)
     Largest temporary arrays     est. size (Mb)     dimensions
        Each subspace H/S matrix        0.33 Mb     ( 146, 146)
        Each <psi_i|beta_j> matrix      0.53 Mb     (    240,  146)
        Arrays for rho mixing           2.05 Mb     (  16800,   8)

     Initial potential from superposition of free atoms
     Check: negative starting charge=   -0.001196

     starting charge   51.96217, renormalised to  244.00000

     negative rho (up, down):  0.561E-02 0.000E+00
     Starting wfc are   80 randomized atomic wfcs

     total cpu time spent up to now is        2.8 secs

     Self-consistent Calculation

     iteration #  1     ecut=    40.00 Ry     beta=0.70
     CG style diagonalization
     c_bands:  3 eigenvalues not converged
     c_bands:  2 eigenvalues not converged
     c_bands:  3 eigenvalues not converged
     c_bands:  2 eigenvalues not converged
     c_bands:  1 eigenvalues not converged
     c_bands:  2 eigenvalues not converged
     c_bands:  3 eigenvalues not converged
     c_bands:  3 eigenvalues not converged
     c_bands:  3 eigenvalues not converged
     c_bands:  2 eigenvalues not converged
     c_bands:  4 eigenvalues not converged
     c_bands:  1 eigenvalues not converged
     ethr =  1.00E-02,  avg # of iterations = 33.9

     negative rho (up, down):  0.166E-02 0.000E+00

     total cpu time spent up to now is      107.0 secs

     total energy              =   -2730.26260535 Ry
     Harris-Foulkes estimate   =   -7563.60365852 Ry
     estimated scf accuracy    <    5709.57042643 Ry

     iteration #  2     ecut=    40.00 Ry     beta=0.70
     CG style diagonalization
     c_bands:  1 eigenvalues not converged
     c_bands:  3 eigenvalues not converged
     c_bands:  2 eigenvalues not converged
     c_bands:  1 eigenvalues not converged
     c_bands:  1 eigenvalues not converged
     c_bands:  1 eigenvalues not converged
     c_bands:  1 eigenvalues not converged
     ethr =  1.00E-02,  avg # of iterations = 12.7

     negative rho (up, down):  0.552E-03 0.000E+00

     total cpu time spent up to now is      146.7 secs

     total energy              =   -3308.89471819 Ry
     Harris-Foulkes estimate   =   -3974.78651480 Ry
     estimated scf accuracy    <     914.16516180 Ry

     iteration #  3     ecut=    40.00 Ry     beta=0.70
     CG style diagonalization
     c_bands:  1 eigenvalues not converged
     c_bands:  3 eigenvalues not converged
     c_bands:  2 eigenvalues not converged
     c_bands:  2 eigenvalues not converged
     c_bands:  2 eigenvalues not converged
     c_bands:  2 eigenvalues not converged
     c_bands:  3 eigenvalues not converged
     ethr =  1.00E-02,  avg # of iterations = 12.3

     negative rho (up, down):  0.135E-03 0.000E+00

     total cpu time spent up to now is      185.1 secs

     total energy              =   -3407.95689167 Ry
     Harris-Foulkes estimate   =   -3768.31340323 Ry
     estimated scf accuracy    <     760.67724474 Ry

     iteration #  4     ecut=    40.00 Ry     beta=0.70
     CG style diagonalization
     ethr =  1.00E-02,  avg # of iterations =  8.6

     total cpu time spent up to now is      212.6 secs

     total energy              =   -3620.68857816 Ry
     Harris-Foulkes estimate   =   -3644.59576026 Ry
     estimated scf accuracy    <      52.67284958 Ry

     iteration #  5     ecut=    40.00 Ry     beta=0.70
     CG style diagonalization
     ethr =  1.00E-02,  avg # of iterations =  4.1

     total cpu time spent up to now is      224.6 secs

     total energy              =   -3627.53144934 Ry
     Harris-Foulkes estimate   =   -3635.22024190 Ry
     estimated scf accuracy    <      18.01473498 Ry

     iteration #  6     ecut=    40.00 Ry     beta=0.70
     CG style diagonalization
     ethr =  7.38E-03,  avg # of iterations =  3.4

     total cpu time spent up to now is      234.2 secs

     total energy              =   -3630.07556325 Ry
     Harris-Foulkes estimate   =   -3630.74141236 Ry
     estimated scf accuracy    <       1.72419637 Ry

     iteration #  7     ecut=    40.00 Ry     beta=0.70
     CG style diagonalization
     c_bands:  1 eigenvalues not converged
     c_bands:  1 eigenvalues not converged
     ethr =  7.07E-04,  avg # of iterations =  4.5

     total cpu time spent up to now is      247.9 secs

     total energy              =   -3630.42301851 Ry
     Harris-Foulkes estimate   =   -3630.52447394 Ry
     estimated scf accuracy    <       0.27839923 Ry

     iteration #  8     ecut=    40.00 Ry     beta=0.70
     CG style diagonalization
     c_bands:  2 eigenvalues not converged
     c_bands:  1 eigenvalues not converged
     c_bands:  1 eigenvalues not converged
     ethr =  1.14E-04,  avg # of iterations =  3.9

     total cpu time spent up to now is      259.4 secs

     total energy              =   -3630.44731016 Ry
     Harris-Foulkes estimate   =   -3630.47188282 Ry
     estimated scf accuracy    <       0.05870783 Ry

     iteration #  9     ecut=    40.00 Ry     beta=0.70
     CG style diagonalization
     c_bands:  1 eigenvalues not converged
     c_bands:  1 eigenvalues not converged
     c_bands:  1 eigenvalues not converged
     c_bands:  1 eigenvalues not converged
     ethr =  2.41E-05,  avg # of iterations =  4.1

     total cpu time spent up to now is      271.8 secs

     total energy              =   -3630.45512019 Ry
     Harris-Foulkes estimate   =   -3630.45986244 Ry
     estimated scf accuracy    <       0.00909735 Ry

     iteration # 10     ecut=    40.00 Ry     beta=0.70
     CG style diagonalization
     ethr =  3.73E-06,  avg # of iterations =  4.6

     total cpu time spent up to now is      285.7 secs

     total energy              =   -3630.45826670 Ry
     Harris-Foulkes estimate   =   -3630.45900787 Ry
     estimated scf accuracy    <       0.00184272 Ry

     iteration # 11     ecut=    40.00 Ry     beta=0.70
     CG style diagonalization
     ethr =  7.55E-07,  avg # of iterations =  3.7

     total cpu time spent up to now is      296.1 secs

     total energy              =   -3630.45849681 Ry
     Harris-Foulkes estimate   =   -3630.45864177 Ry
     estimated scf accuracy    <       0.00029195 Ry

     iteration # 12     ecut=    40.00 Ry     beta=0.70
     CG style diagonalization
     ethr =  1.20E-07,  avg # of iterations =  4.1

     total cpu time spent up to now is      308.5 secs

     End of self-consistent calculation

          k = 0.0000 0.0000 0.0000 (  3675 PWs)   bands (ev):

   -71.2624 -71.2380 -71.1993 -71.1963 -71.1900 -71.1718 -71.1282 -71.1207
   -30.5607 -30.4951 -30.4629 -30.4072 -30.3770 -30.3397 -30.3312 -30.3185
   -30.2681 -30.2466 -30.2438 -30.2263 -30.2212 -30.1958 -30.1650 -30.1484
   -30.1418 -30.1254 -30.1122 -30.1110 -30.0800 -30.0198 -30.0157 -29.9909
     8.0847   8.4514   8.5195   8.6839  21.5465  22.1617  22.3868  22.7171
    22.8739  23.2998  23.5131  23.5376  23.6611  24.0215  24.0551  24.1318
    24.5964  24.7670  24.8621  24.8844  24.9201  24.9901  25.7356  25.9517
    26.0476  26.0813  26.1827  26.4096  26.4447  26.5250  26.6029  26.8151
    26.8533  27.0980  27.2131  27.3110  27.3237  27.4156  27.4989  27.7482
    27.7772  27.7827  27.8610  28.2725  28.7632  28.8676  29.0447  29.1124
    30.1646  30.5465  30.9595  31.5462  31.7665  32.3175  32.7197  32.8813
    33.5077  36.5649  38.8299  39.0538  41.0887  42.1681  42.6259  42.9048
    43.8334  44.0406  44.8549  45.0395  46.1871  46.4247  46.5784  46.9501
    47.2371  47.4301  47.6906  48.0496  48.2752  48.7575  50.5928  50.6779
    50.8611  51.9462  52.0174  52.2755  53.3610  53.4604  53.7418  55.1993
    55.2963  55.3348  55.5989  55.9712  56.1126  56.7087  56.7623  56.7806
    57.0371  57.5314  57.7110  58.2825  58.5758  59.0894  59.2787  59.3519
    59.7522  60.1069  60.1138  60.3677  60.4555  60.6765  60.8909  61.3873
    61.7454  62.1954

          k = 0.0000 0.0000 0.1317 (  3675 PWs)   bands (ev):

   -71.2721 -71.2541 -71.2366 -71.1952 -71.1712 -71.1571 -71.1385 -71.0901
   -30.5562 -30.5034 -30.4527 -30.4055 -30.4013 -30.3558 -30.3244 -30.2994
   -30.2642 -30.2463 -30.2421 -30.2378 -30.2271 -30.2010 -30.1651 -30.1525
   -30.1316 -30.1191 -30.1083 -30.0866 -30.0792 -30.0307 -30.0162 -29.9985
     8.1261   8.3598   8.5823   8.6737  21.6347  22.2055  22.2932  22.7676
    22.9950  23.2212  23.4009  23.5722  23.6582  23.8570  24.0090  24.1456
    24.2289  24.6490  24.6651  24.8549  24.9481  25.3053  25.5894  25.8699
    25.8956  26.0290  26.3731  26.4030  26.4092  26.5882  26.7755  26.9490
    26.9988  27.0158  27.2060  27.3028  27.3314  27.4417  27.5722  27.8113
    28.0176  28.0422  28.2853  28.5131  28.6156  28.8193  29.0041  29.7379
    29.9398  30.7005  30.7255  31.2369  31.3663  31.6269  32.6737  32.7159
    34.0865  37.2425  37.3240  39.8904  40.7927  40.9193  43.4169  43.5883
    43.6131  44.1438  44.6878  45.2986  45.6568  45.7361  46.4972  46.8172
    47.0034  47.3884  48.5507  48.6915  49.2929  49.4585  50.2132  51.1436
    51.8080  52.2315  52.3050  52.4272  53.0895  53.1833  54.0294  54.5783
    54.9786  55.0642  55.3313  55.7436  55.7784  55.9761  56.3510  56.4047
    56.9880  57.2351  57.6712  57.7737  57.9990  57.9997  58.6039  59.0915
    59.2768  59.6951  60.0551  60.5331  60.8445  61.3983  61.5590  61.8753
    62.0113  62.0729

          k = 0.0000 0.0000-0.2634 (  3690 PWs)   bands (ev):

   -71.2649 -71.2649 -71.2507 -71.2507 -71.1896 -71.1896 -71.1085 -71.1085
   -30.5418 -30.5418 -30.4289 -30.4289 -30.3807 -30.3807 -30.2898 -30.2898
   -30.2590 -30.2590 -30.2503 -30.2503 -30.2188 -30.2188 -30.1618 -30.1618
   -30.1129 -30.1129 -30.1110 -30.1110 -30.0641 -30.0641 -30.0128 -30.0128
     8.2315   8.2315   8.6406   8.6406  21.8812  21.8812  22.6366  22.6366
    23.1551  23.1551  23.3093  23.3093  23.6312  23.6312  24.3147  24.3147
    24.3196  24.3196  24.4771  24.4771  25.3262  25.3262  25.4581  25.4581
    25.9634  25.9634  26.2862  26.2862  26.6251  26.6251  26.9523  26.9523
    27.0283  27.0283  27.3618  27.3618  27.4797  27.4797  27.6993  27.6993
    28.2039  28.2039  28.6040  28.6040  28.9877  28.9877  29.6448  29.6448
    30.1579  30.1579  30.6733  30.6733  30.9631  30.9631  32.6077  32.6077
    35.5066  35.5066  38.7755  38.7755  40.5951  40.5951  43.5421  43.5421
    44.6190  44.6190  44.6351  44.6351  45.9041  45.9041  45.9960  45.9960
    46.6984  46.6984  49.8071  49.8071  50.6832  50.6832  51.1869  51.1869
    51.4371  51.4371  52.3160  52.3160  53.4356  53.4356  53.9126  53.9126
    54.5818  54.5818  55.3993  55.3993  55.5124  55.5124  55.8052  55.8052
    56.6384  56.6384  57.0495  57.0495  58.2228  58.2229  58.5628  58.5630
    59.0197  59.0197  60.8614  60.8614  61.4039  61.4040  61.5581  61.5584
    61.9476  61.9477

          k = 0.0000 0.2533 0.0000 (  3664 PWs)   bands (ev):

   -71.2388 -71.2199 -71.2098 -71.1981 -71.1755 -71.1444 -71.1177 -71.1140
   -30.4713 -30.4299 -30.3963 -30.3737 -30.3733 -30.3640 -30.3616 -30.3196
   -30.3088 -30.2724 -30.2659 -30.2285 -30.2092 -30.1986 -30.1527 -30.1525
   -30.1368 -30.1351 -30.0971 -30.0933 -30.0890 -30.0750 -30.0314 -30.0304
     8.2532   8.4835   8.5410   8.6489  21.7247  22.2713  22.3145  22.4487
    22.5628  22.8729  23.0784  23.2032  23.5814  23.8199  24.1903  24.4001
    24.4400  24.7891  25.0025  25.0785  25.1063  25.1084  25.3007  25.3356
    25.7019  25.7812  26.0266  26.0735  26.3834  26.4084  26.4270  26.9052
    27.0022  27.1482  27.1875  27.3747  27.4847  27.5211  27.5398  27.7730
    27.8378  28.0807  28.3011  28.5917  28.7882  28.7955  29.2616  29.7297
    30.6248  31.2056  31.4752  31.9199  32.0579  32.0713  32.2474  32.6005
    35.7463  37.4330  38.2165  38.3724  40.8464  42.0788  42.3744  42.7566
    43.1412  43.2885  43.7056  44.4297  45.6271  46.0059  46.0466  46.9000
    47.8359  48.3280  48.4564  48.6409  49.1861  49.3312  49.6250  49.6368
    50.6196  50.9383  51.4314  53.2189  53.3936  53.4059  53.7908  54.0573
    54.3775  55.1771  55.2739  55.4221  56.0291  56.5785  56.7019  56.8716
    57.2635  57.8482  58.0154  58.5107  58.6268  58.9109  59.0346  59.5879
    60.1113  60.3707  60.3894  60.7300  60.7628  60.8719  61.0744  61.5156
    61.5485  62.0452

          k = 0.0000 0.2533 0.1317 (  3669 PWs)   bands (ev):

   -71.2444 -71.2224 -71.2119 -71.2005 -71.1788 -71.1664 -71.1336 -71.1107
   -30.4743 -30.4272 -30.4250 -30.3890 -30.3755 -30.3617 -30.3351 -30.3089
   -30.3061 -30.2746 -30.2643 -30.2254 -30.2156 -30.1860 -30.1600 -30.1572
   -30.1544 -30.1299 -30.1166 -30.1061 -30.0714 -30.0610 -30.0340 -30.0294
     8.2821   8.4343   8.5740   8.6396  21.8078  22.2263  22.3561  22.4861
    22.5892  22.8743  22.9151  23.2150  23.4835  23.5221  24.2467  24.3782
    24.3944  24.6436  24.7690  24.9449  25.1114  25.1872  25.4828  25.5893
    25.7212  25.7684  26.0610  26.3702  26.4425  26.4594  26.5420  26.6827
    26.8875  26.9877  27.3497  27.4104  27.4698  27.5302  27.6877  27.8045
    27.9729  28.3501  28.5270  28.6782  28.7697  28.8066  29.4080  29.6472
    30.7563  30.8506  31.4762  31.7064  31.7361  32.0937  32.1110  32.4401
    35.9576  37.4797  37.7475  38.6644  40.6710  41.5678  42.7389  42.7414
    42.8367  43.3872  43.7660  44.7644  45.4291  46.0349  46.2967  47.0062
    47.5127  48.1422  48.6009  49.0142  49.1307  49.2806  50.4585  50.4646
    50.7085  51.4074  51.4545  52.7596  52.9249  53.2783  53.9108  54.2333
    54.2978  54.5977  55.2403  55.5306  55.8400  55.9143  56.6481  56.7092
    57.2069  57.4703  58.0512  58.2839  58.5451  58.7005  59.0305  59.4865
    59.5976  60.1082  60.4707  60.6788  60.9787  61.0770  61.5271  61.7157
    62.0377  62.1001

          k = 0.0000 0.2533-0.2634 (  3666 PWs)   bands (ev):

   -71.2142 -71.2142 -71.2088 -71.2088 -71.1677 -71.1677 -71.1338 -71.1338
   -30.4568 -30.4568 -30.4071 -30.4071 -30.3662 -30.3662 -30.3209 -30.3209
   -30.2769 -30.2769 -30.2484 -30.2484 -30.1810 -30.1810 -30.1734 -30.1734
   -30.1450 -30.1450 -30.1182 -30.1182 -30.0657 -30.0657 -30.0282 -30.0282
     8.3535   8.3535   8.6133   8.6133  22.0223  22.0223  22.4577  22.4577
    22.6964  22.6964  23.0816  23.0816  23.3278  23.3278  24.1820  24.1820
    24.6940  24.6940  24.7137  24.7137  25.0606  25.0606  25.4718  25.4718
    26.0411  26.0411  26.1964  26.1964  26.3802  26.3802  26.7670  26.7670
    26.9906  26.9906  27.2991  27.2991  27.7134  27.7134  27.7796  27.7796
    27.9956  27.9956  28.8100  28.8100  29.1288  29.1288  29.4738  29.4738
    30.6947  30.6947  31.2091  31.2091  31.8425  31.8425  32.2293  32.2293
    36.5874  36.5874  38.3906  38.3906  40.7332  40.7332  42.6718  42.6718
    43.3557  43.3557  44.4928  44.4928  45.4027  45.4027  46.6496  46.6496
    48.4996  48.4996  48.6064  48.6064  49.1610  49.1610  50.7846  50.7846
    51.7117  51.7117  52.3327  52.3327  52.9378  52.9378  53.4008  53.4008
    54.6135  54.6135  54.7189  54.7189  55.9360  55.9360  56.7231  56.7231
    57.0014  57.0014  58.3379  58.3379  58.4536  58.4536  58.9317  58.9318
    59.9963  59.9965  60.0511  60.0512  61.2186  61.2190  61.4586  61.4588
    62.3087  62.3097

          k =-0.5000 0.0000 0.0000 (  3722 PWs)   bands (ev):

   -71.2731 -71.2731 -71.2318 -71.2318 -71.2284 -71.2284 -71.2085 -71.2085
   -30.5612 -30.5612 -30.4301 -30.4301 -30.4124 -30.4124 -30.3428 -30.3428
   -30.3131 -30.3131 -30.2153 -30.2153 -30.1974 -30.1974 -30.1910 -30.1910
   -30.0905 -30.0905 -30.0666 -30.0666 -30.0572 -30.0572 -30.0313 -30.0313
     8.4538   8.4538   8.4739   8.4739  22.4280  22.4280  23.3052  23.3052
    23.9830  23.9830  24.1794  24.1794  24.1964  24.1964  24.4913  24.4913
    24.8371  24.8371  25.1262  25.1262  25.2254  25.2254  25.3414  25.3414
    25.6411  25.6411  26.1325  26.1325  26.1676  26.1676  26.2304  26.2304
    26.4904  26.4904  26.7277  26.7277  26.8320  26.8320  27.0573  27.0573
    28.0192  28.0192  28.0469  28.0469  28.7747  28.7747  28.8705  28.8705
    29.4926  29.4926  30.6467  30.6467  30.7649  30.7649  31.1478  31.1478
    39.5183  39.5183  40.2869  40.2869  40.5180  40.5180  42.1482  42.1482
    43.1581  43.1581  44.7007  44.7007  45.7756  45.7756  46.5479  46.5479
    48.2090  48.2090  49.2317  49.2317  49.3123  49.3123  50.1008  50.1008
    51.3325  51.3325  51.5334  51.5334  52.9252  52.9252  53.1236  53.1236
    54.6314  54.6314  54.9456  54.9456  56.6277  56.6277  56.7093  56.7093
    57.3692  57.3693  57.5972  57.5972  58.4402  58.4403  58.8304  58.8304
    59.4535  59.4535  60.4510  60.4511  60.7381  60.7381  61.3496  61.3502
    62.0876  62.0883

          k =-0.5000 0.0000 0.1317 (  3710 PWs)   bands (ev):

   -71.2565 -71.2565 -71.2414 -71.2414 -71.2105 -71.2105 -71.1851 -71.1851
   -30.5599 -30.5599 -30.4462 -30.4462 -30.3675 -30.3675 -30.3550 -30.3550
   -30.2994 -30.2994 -30.2311 -30.2311 -30.2163 -30.2163 -30.1693 -30.1693
   -30.0915 -30.0915 -30.0632 -30.0632 -30.0524 -30.0524 -30.0332 -30.0332
     8.4571   8.4571   8.4731   8.4731  22.5226  22.5226  23.2605  23.2605
    23.6315  23.6315  24.1207  24.1207  24.3307  24.3307  24.4658  24.4658
    24.6404  24.6404  25.1192  25.1192  25.2374  25.2374  25.5381  25.5381
    25.7709  25.7709  25.8106  25.8106  26.2572  26.2572  26.5256  26.5256
    26.6097  26.6097  26.8103  26.8103  26.9937  26.9937  27.2404  27.2404
    27.7736  27.7736  28.0687  28.0687  28.6051  28.6051  28.7573  28.7573
    29.6702  29.6702  30.1793  30.1793  30.8638  30.8638  31.5720  31.5720
    38.8075  38.8075  39.5465  39.5465  40.9059  40.9059  42.5278  42.5278
    43.2295  43.2295  45.1583  45.1583  46.4022  46.4022  46.7772  46.7772
    47.6739  47.6739  48.7517  48.7517  49.2878  49.2878  50.7689  50.7689
    51.2807  51.2807  51.6179  51.6179  52.7360  52.7360  53.3457  53.3457
    54.1255  54.1255  55.3990  55.3990  55.6025  55.6025  56.5552  56.5552
    57.4330  57.4330  57.7944  57.7945  58.0630  58.0631  59.5427  59.5429
    59.5963  59.5964  60.5550  60.5551  61.0976  61.0977  61.5319  61.5322
    61.7652  61.7655

          k =-0.5000 0.0000-0.2634 (  3680 PWs)   bands (ev):

   -71.2161 -71.2161 -71.2049 -71.2049 -71.1835 -71.1835 -71.1769 -71.1769
   -30.5624 -30.5624 -30.4442 -30.4442 -30.3608 -30.3608 -30.3034 -30.3034
   -30.3032 -30.3032 -30.2535 -30.2535 -30.2206 -30.2206 -30.1569 -30.1569
   -30.1002 -30.1002 -30.0527 -30.0527 -30.0402 -30.0402 -30.0274 -30.0274
     8.4615   8.4615   8.4716   8.4716  22.6673  22.6673  23.2369  23.2369
    23.2825  23.2825  24.1384  24.1384  24.4022  24.4022  24.4493  24.4493
    24.5149  24.5149  24.9779  24.9779  25.4036  25.4036  25.5086  25.5086
    25.6237  25.6237  25.9289  25.9289  26.3650  26.3650  26.6647  26.6647
    26.8801  26.8801  26.9079  26.9079  27.1895  27.1895  27.2304  27.2304
    27.5172  27.5172  28.0887  28.0887  28.4730  28.4730  28.9645  28.9645
    29.4353  29.4353  29.8842  29.8842  31.0184  31.0184  31.8647  31.8647
    38.2280  38.2280  39.0702  39.0702  41.5640  41.5640  41.8486  41.8486
    43.7661  43.7661  45.4177  45.4177  47.0785  47.0785  47.1528  47.1528
    47.7666  47.7666  48.3890  48.3890  48.7078  48.7078  50.8933  50.8933
    51.7073  51.7073  51.9080  51.9080  51.9251  51.9251  53.8551  53.8551
    53.9842  53.9842  55.1128  55.1128  55.4030  55.4030  55.9005  55.9005
    57.0842  57.0842  58.2461  58.2462  58.7612  58.7613  59.4181  59.4183
    60.3938  60.3939  60.6618  60.6619  60.8629  60.8630  61.1980  61.1983
    62.1340  62.1343

          k =-0.5000 0.2533 0.0000 (  3686 PWs)   bands (ev):

   -71.2249 -71.2249 -71.2203 -71.2203 -71.1857 -71.1857 -71.1842 -71.1842
   -30.4730 -30.4730 -30.4225 -30.4225 -30.4159 -30.4159 -30.3281 -30.3281
   -30.2866 -30.2866 -30.2341 -30.2341 -30.2152 -30.2152 -30.1716 -30.1716
   -30.1088 -30.1088 -30.0952 -30.0952 -30.0510 -30.0510 -30.0409 -30.0409
     8.5073   8.5073   8.5177   8.5177  22.6248  22.6248  23.1310  23.1310
    23.3271  23.3271  23.5218  23.5218  24.3177  24.3177  24.3279  24.3279
    24.9279  24.9279  25.1397  25.1397  25.1504  25.1504  25.3132  25.3132
    25.7077  25.7077  25.7598  25.7598  26.1887  26.1887  26.3565  26.3565
    26.5102  26.5102  27.0335  27.0335  27.0729  27.0729  27.4073  27.4073
    27.7976  27.7976  27.8613  27.8613  28.8008  28.8008  28.8910  28.8910
    29.9243  29.9243  30.3086  30.3086  31.4227  31.4227  32.4743  32.4743
    38.9612  38.9612  39.2293  39.2293  41.2159  41.2159  42.2203  42.2203
    43.8561  43.8561  44.3521  44.3521  45.9648  45.9648  47.1466  47.1466
    47.6977  47.6977  48.1153  48.1153  48.9438  48.9438  49.0411  49.0411
    50.5032  50.5032  51.5091  51.5091  52.5478  52.5478  54.0091  54.0091
    54.9282  54.9282  55.3591  55.3591  56.0164  56.0164  56.1511  56.1511
    57.4106  57.4107  57.8483  57.8484  58.6857  58.6857  59.4406  59.4407
    60.2109  60.2111  60.5561  60.5562  61.2002  61.2004  61.8615  61.8628
    62.2080  62.2085

          k =-0.5000 0.2533 0.1317 (  3692 PWs)   bands (ev):

   -71.2308 -71.2308 -71.2179 -71.2179 -71.2073 -71.2073 -71.1801 -71.1801
   -30.4787 -30.4787 -30.4147 -30.4147 -30.3973 -30.3973 -30.3466 -30.3466
   -30.2977 -30.2977 -30.2488 -30.2488 -30.1960 -30.1960 -30.1563 -30.1563
   -30.1171 -30.1171 -30.0928 -30.0928 -30.0616 -30.0616 -30.0457 -30.0457
     8.5096   8.5096   8.5174   8.5174  22.7205  22.7205  23.1265  23.1265
    23.3362  23.3362  23.5159  23.5159  23.9377  23.9377  24.2231  24.2231
    24.7904  24.7904  25.1165  25.1165  25.2079  25.2079  25.5362  25.5362
    25.6318  25.6318  25.9380  25.9380  26.3152  26.3152  26.4238  26.4238
    26.5780  26.5780  27.0123  27.0123  27.1563  27.1563  27.3305  27.3305
    27.5548  27.5548  28.1038  28.1038  28.7442  28.7442  29.0699  29.0699
    29.9282  29.9282  30.5993  30.5993  31.1705  31.1705  32.3170  32.3170
    38.3687  38.3687  38.9311  38.9311  41.5269  41.5269  42.4139  42.4139
    44.4438  44.4438  44.6535  44.6535  45.8313  45.8313  46.8999  46.8999
    47.3517  47.3517  48.3606  48.3606  48.7929  48.7929  49.4331  49.4331
    50.3461  50.3461  51.5422  51.5422  52.2757  52.2757  53.8861  53.8861
    54.8629  54.8629  55.2557  55.2557  56.2147  56.2147  56.7512  56.7512
    57.2646  57.2646  57.9592  57.9592  58.9433  58.9434  59.1648  59.1650
    60.1165  60.1166  60.7161  60.7163  60.8729  60.8730  61.4860  61.4860
    62.1051  62.1054

          k =-0.5000 0.2533-0.2634 (  3704 PWs)   bands (ev):

   -71.2548 -71.2548 -71.2210 -71.2210 -71.2083 -71.2083 -71.1984 -71.1984
   -30.4844 -30.4844 -30.4016 -30.4016 -30.3884 -30.3884 -30.3520 -30.3520
   -30.3320 -30.3320 -30.2585 -30.2585 -30.1823 -30.1823 -30.1396 -30.1396
   -30.1213 -30.1213 -30.1116 -30.1116 -30.0543 -30.0543 -30.0508 -30.0508
     8.5121   8.5121   8.5167   8.5167  22.8674  22.8674  23.0804  23.0804
    23.3683  23.3683  23.5286  23.5286  23.6519  23.6519  24.0522  24.0522
    24.7308  24.7308  25.1452  25.1452  25.1572  25.1572  25.6001  25.6001
    25.6145  25.6145  26.2270  26.2270  26.2794  26.2794  26.5053  26.5053
    26.7193  26.7193  26.9986  26.9986  27.1134  27.1134  27.2922  27.2922
    27.4460  27.4460  28.2642  28.2642  28.9393  28.9393  29.0151  29.0151
    29.9909  29.9909  30.5623  30.5623  31.3764  31.3764  31.9415  31.9415
    37.9478  37.9478  38.6103  38.6103  42.0106  42.0106  42.2372  42.2372
    44.8049  44.8049  45.2057  45.2057  45.9472  45.9472  46.5875  46.5875
    47.2913  47.2913  48.1331  48.1331  48.9521  48.9521  49.6421  49.6421
    49.7237  49.7237  51.8183  51.8183  52.6511  52.6511  53.2324  53.2324
    54.7828  54.7828  55.1049  55.1049  56.2976  56.2976  57.4334  57.4334
    57.4395  57.4395  58.2566  58.2567  58.8723  58.8723  59.2543  59.2543
    59.7961  59.7962  60.3280  60.3281  60.8498  60.8501  61.4690  61.4694
    61.9370  61.9371

     the Fermi energy is    54.9358 ev

!    total energy              =   -3630.45859554 Ry
     Harris-Foulkes estimate   =   -3630.45860493 Ry
     estimated scf accuracy    <       0.00000714 Ry

     The total energy is the sum of the following terms:

     one-electron contribution =    -157.50418858 Ry
     hartree contribution      =     416.02230883 Ry
     xc contribution           =    -320.61601871 Ry
     ewald contribution        =   -3567.98364650 Ry
     smearing contrib. (-TS)   =      -0.37705058 Ry

     convergence has been achieved in  12 iterations

     Forces acting on atoms (Ry/au):

     atom    1 type  1   force =     0.00000000   -0.10009230   -0.13801945
     atom    2 type  1   force =     0.00000000    0.10009230    0.13801945
     atom    3 type  1   force =     0.00000000   -0.10009230    0.13801945
     atom    4 type  1   force =     0.00000000    0.10009230   -0.13801945
     atom    5 type  1   force =     0.00000000    0.14823524   -0.12567804
     atom    6 type  1   force =     0.00000000   -0.14823524    0.12567804
     atom    7 type  1   force =     0.00000000    0.14823524    0.12567804
     atom    8 type  1   force =     0.00000000   -0.14823524   -0.12567804
     atom    9 type  2   force =     0.00000000   -0.21938647   -0.02476307
     atom   10 type  2   force =     0.00000000    0.21938647    0.02476307
     atom   11 type  2   force =     0.00000000   -0.21938647    0.02476307
     atom   12 type  2   force =     0.00000000    0.21938647   -0.02476307

     Total force =     0.679942     Total SCF correction =     0.001223


     entering subroutine stress ...

          total   stress  (Ry/bohr**3)                   (kbar)     P= 7260.93
   0.05206131   0.00000000   0.00000000       7658.48      0.00      0.00
   0.00000000   0.04661473   0.00000000          0.00   6857.26      0.00
   0.00000000   0.00000000   0.04940031          0.00      0.00   7267.04


     BFGS Geometry Optimization

     number of scf cycles    =   1
     number of bfgs steps    =   0

     enthalpy new            =   -3630.4585955355 Ry

     new trust radius        =       0.5000000000 bohr
     new conv_thr            =       0.0001000000 Ry

     new unit-cell volume =   1088.36851 a.u.^3 (   161.27957 Ang^3 )

CELL_PARAMETERS (alat=  7.01510508)
   1.085136619   0.000000000   0.000000000
   0.000000000   1.416278946   0.000000000
   0.000000000   0.000000000   2.051352080

ATOMIC_POSITIONS (crystal)
Co       0.750000000   0.825691775   0.435057942
Co       0.250000000   0.174308225   0.564942058
Co       0.750000000   0.325691775   0.064942058
Co       0.250000000   0.674308225   0.935057942
Co       0.250000000   0.538136352   0.281727573
Co       0.750000000   0.461863648   0.718272427
Co       0.250000000   0.038136352   0.218272427
Co       0.750000000   0.961863648   0.781727573
Si       0.250000000   0.201299491   0.893478345
Si       0.750000000   0.798700509   0.106521655
Si       0.250000000   0.701299491   0.606521655
Si       0.750000000   0.298700509   0.393478345



     Writing output data file Prototype-La-oP12-Co2Si.save
     Check: negative starting charge=   -0.001196
     NEW-OLD atomic charge density approx. for the potential
     NEW k-points:
        k(    1) = (   0.0000000   0.0000000   0.0000000), wk =   0.0833333
        k(    2) = (   0.0000000   0.0000000   0.1218708), wk =   0.1666667
        k(    3) = (   0.0000000   0.0000000  -0.2437417), wk =   0.0833333
        k(    4) = (   0.0000000   0.2353585   0.0000000), wk =   0.1666667
        k(    5) = (   0.0000000   0.2353585   0.1218708), wk =   0.3333333
        k(    6) = (   0.0000000   0.2353585  -0.2437417), wk =   0.1666667
        k(    7) = (  -0.4607715   0.0000000   0.0000000), wk =   0.0833333
        k(    8) = (  -0.4607715   0.0000000   0.1218708), wk =   0.1666667
        k(    9) = (  -0.4607715   0.0000000  -0.2437417), wk =   0.0833333
        k(   10) = (  -0.4607715   0.2353585   0.0000000), wk =   0.1666667
        k(   11) = (  -0.4607715   0.2353585   0.1218708), wk =   0.3333333
        k(   12) = (  -0.4607715   0.2353585  -0.2437417), wk =   0.1666667
     Check: negative starting charge=   -0.006353

     negative rho (up, down):  0.528E-02 0.000E+00
     extrapolated charge  254.79429, renormalised to  244.00000

     total cpu time spent up to now is      312.7 secs

     Self-consistent Calculation

     iteration #  1     ecut=    40.00 Ry     beta=0.70
     CG style diagonalization
     c_bands:  1 eigenvalues not converged
     c_bands:  2 eigenvalues not converged
     c_bands:  2 eigenvalues not converged
     c_bands:  3 eigenvalues not converged
     c_bands:  4 eigenvalues not converged
     c_bands:  2 eigenvalues not converged
     c_bands:  1 eigenvalues not converged
     c_bands:  3 eigenvalues not converged
     ethr =  1.00E-06,  avg # of iterations = 26.0

     negative rho (up, down):  0.145E-02 0.000E+00

     total cpu time spent up to now is      388.5 secs

     total energy              =   -3600.23123953 Ry
     Harris-Foulkes estimate   =   -3655.95699345 Ry
     estimated scf accuracy    <      95.79602177 Ry

     iteration #  2     ecut=    40.00 Ry     beta=0.70
     CG style diagonalization
     ethr =  1.00E-02,  avg # of iterations =  5.4

     negative rho (up, down):  0.702E-03 0.000E+00

     total cpu time spent up to now is      404.6 secs

     total energy              =   -3619.39844007 Ry
     Harris-Foulkes estimate   =   -3656.67359292 Ry
     estimated scf accuracy    <      63.87902366 Ry

     iteration #  3     ecut=    40.00 Ry     beta=0.70
     CG style diagonalization
     ethr =  1.00E-02,  avg # of iterations =  4.2

     negative rho (up, down):  0.255E-03 0.000E+00

     total cpu time spent up to now is      417.0 secs

     total energy              =   -3636.02394380 Ry
     Harris-Foulkes estimate   =   -3638.62303421 Ry
     estimated scf accuracy    <       5.28122854 Ry

     iteration #  4     ecut=    40.00 Ry     beta=0.70
     CG style diagonalization
     ethr =  2.16E-03,  avg # of iterations =  3.8

     negative rho (up, down):  0.245E-04 0.000E+00

     total cpu time spent up to now is      428.3 secs

     total energy              =   -3637.35685681 Ry
     Harris-Foulkes estimate   =   -3637.60414555 Ry
     estimated scf accuracy    <       0.49748301 Ry

     iteration #  5     ecut=    40.00 Ry     beta=0.70
     CG style diagonalization
     c_bands:  2 eigenvalues not converged
     c_bands:  1 eigenvalues not converged
     ethr =  2.04E-04,  avg # of iterations =  3.9

     total cpu time spent up to now is      439.6 secs

     total energy              =   -3637.47349685 Ry
     Harris-Foulkes estimate   =   -3637.48765444 Ry
     estimated scf accuracy    <       0.02305707 Ry

     iteration #  6     ecut=    40.00 Ry     beta=0.70
     CG style diagonalization
     c_bands:  2 eigenvalues not converged
     c_bands:  1 eigenvalues not converged
     ethr =  9.45E-06,  avg # of iterations =  4.9

     total cpu time spent up to now is      453.9 secs

     total energy              =   -3637.48424326 Ry
     Harris-Foulkes estimate   =   -3637.48532510 Ry
     estimated scf accuracy    <       0.00247838 Ry

     iteration #  7     ecut=    40.00 Ry     beta=0.70
     CG style diagonalization
     c_bands:  1 eigenvalues not converged
     ethr =  1.02E-06,  avg # of iterations =  4.0

     total cpu time spent up to now is      465.7 secs

     total energy              =   -3637.48468287 Ry
     Harris-Foulkes estimate   =   -3637.48502508 Ry
     estimated scf accuracy    <       0.00064722 Ry

     iteration #  8     ecut=    40.00 Ry     beta=0.70
     CG style diagonalization
     ethr =  2.65E-07,  avg # of iterations =  3.4

     total cpu time spent up to now is      475.7 secs

     End of self-consistent calculation

          k = 0.0000 0.0000 0.0000 (  3675 PWs)   bands (ev):

   -81.0274 -80.9837 -80.9432 -80.8941 -80.8766 -80.8174 -80.8134 -80.7800
   -41.0175 -40.9999 -40.9530 -40.9292 -40.9117 -40.8893 -40.8870 -40.8857
   -40.8744 -40.8637 -40.8611 -40.8391 -40.8327 -40.8257 -40.8245 -40.8245
   -40.8122 -40.8120 -40.8064 -40.8011 -40.7892 -40.7735 -40.7618 -40.7613
    -1.0006  -0.8353  -0.8313  -0.7324  13.7307  14.1790  14.2933  14.6213
    14.6291  14.9440  15.0631  15.0787  15.0815  15.0986  15.1520  15.1863
    15.5926  15.6243  15.6967  15.7259  15.9492  16.1733  16.1741  16.2305
    16.2932  16.3577  16.3895  16.4685  16.5195  16.5453  16.7189  16.7359
    16.7498  16.8475  16.9232  16.9917  17.0443  17.1713  17.2318  17.4298
    17.4420  17.5825  17.7392  17.8081  18.1212  18.1759  18.3864  18.6966
    19.0893  19.7982  19.8232  20.3092  20.4971  20.7018  20.9712  21.0144
    23.8102  27.4830  27.8764  28.3735  31.4058  31.4796  31.8148  32.8797
    33.1205  33.1212  33.2128  34.8993  35.4744  35.7710  36.2197  36.2368
    36.6012  36.8992  37.2033  37.4450  37.6093  37.8968  39.6209  39.6895
    39.9611  41.2274  41.5209  41.8097  42.3174  43.1483  43.4400  43.5613
    43.5733  43.6789  43.9326  44.3277  45.0789  45.3417  45.8804  46.2456
    46.7935  46.9024  46.9523  47.0961  47.1351  47.4298  47.4749  47.6006
    48.1070  48.2320  48.2480  48.5377  49.0979  49.6017  49.6928  49.7385
    49.9547  50.0042

          k = 0.0000 0.0000 0.1219 (  3675 PWs)   bands (ev):

   -81.0514 -81.0163 -80.9843 -80.8812 -80.8556 -80.8017 -80.7859 -80.7668
   -41.0186 -41.0006 -40.9492 -40.9368 -40.9132 -40.8912 -40.8861 -40.8810
   -40.8808 -40.8607 -40.8545 -40.8408 -40.8355 -40.8331 -40.8273 -40.8184
   -40.8154 -40.8065 -40.7986 -40.7936 -40.7913 -40.7749 -40.7654 -40.7635
    -0.9847  -0.8879  -0.7882  -0.7382  13.7906  14.1717  14.2692  14.6562
    14.6890  14.8949  14.9753  15.0440  15.0559  15.1910  15.2142  15.2261
    15.3457  15.5796  15.5870  15.7624  15.7950  16.0257  16.0309  16.2226
    16.3276  16.3738  16.4841  16.5148  16.6266  16.6959  16.7164  16.7975
    16.8369  16.8686  16.9478  17.0141  17.0186  17.0888  17.3354  17.4084
    17.4845  17.4961  17.5720  17.7880  18.3457  18.5298  18.5619  19.0332
    19.0461  19.6915  19.8487  20.1447  20.2159  20.3469  20.9632  20.9768
    24.2391  26.7297  27.8760  29.2302  30.2853  30.9492  32.5134  32.7460
    32.8134  33.4092  34.1308  34.8736  35.1362  35.1666  36.2455  36.3226
    36.4435  36.9899  37.1707  38.1370  38.1805  38.6534  39.7233  39.9842
    41.2359  41.2994  41.5358  41.7148  41.7978  42.3972  42.5851  43.0624
    43.5840  43.9451  44.0943  44.1366  44.2748  44.6884  45.4465  45.8178
    45.8346  46.1020  46.1176  46.6491  47.1519  47.8099  47.9371  48.1614
    48.1821  48.3138  48.7287  49.2620  49.3279  49.4132  50.1339  50.1436
    50.2548  51.3991

          k = 0.0000 0.0000-0.2437 (  3690 PWs)   bands (ev):

   -81.0370 -81.0370 -80.9839 -80.9839 -80.8758 -80.8758 -80.7711 -80.7711
   -41.0169 -41.0169 -40.9414 -40.9414 -40.9003 -40.9003 -40.8833 -40.8833
   -40.8664 -40.8664 -40.8459 -40.8459 -40.8382 -40.8382 -40.8320 -40.8320
   -40.8054 -40.8054 -40.8020 -40.8020 -40.7875 -40.7875 -40.7700 -40.7700
    -0.9429  -0.9429  -0.7565  -0.7565  13.9568  13.9568  14.5073  14.5073
    14.8547  14.8547  14.8629  14.8629  15.1282  15.1282  15.3328  15.3328
    15.4144  15.4144  15.4462  15.4462  15.9294  15.9294  16.1443  16.1443
    16.3517  16.3517  16.4151  16.4151  16.6838  16.6838  16.8116  16.8116
    16.9147  16.9147  17.0338  17.0338  17.1415  17.1415  17.2348  17.2348
    17.4594  17.4594  17.7077  17.7077  18.6631  18.6631  19.1352  19.1352
    19.5145  19.5145  19.6629  19.6629  19.9466  19.9466  20.9528  20.9528
    25.3244  25.3244  28.9223  28.9223  30.1068  30.1068  32.4469  32.4469
    33.7741  33.7741  34.1712  34.1712  35.4097  35.4097  35.9088  35.9088
    36.3073  36.3073  38.8645  38.8645  39.0679  39.0679  40.6800  40.6800
    40.7050  40.7050  40.9346  40.9346  42.2968  42.2968  42.8998  42.8998
    43.0212  43.0212  43.5902  43.5902  44.5461  44.5461  44.9117  44.9117
    45.3645  45.3645  46.4563  46.4563  47.2949  47.2950  48.2510  48.2511
    48.4892  48.4893  49.0870  49.0871  49.7205  49.7205  50.3350  50.3352
    50.9413  50.9414

          k = 0.0000 0.2354 0.0000 (  3664 PWs)   bands (ev):

   -81.0060 -80.9577 -80.9572 -80.9060 -80.8473 -80.8235 -80.7551 -80.7292
   -40.9719 -40.9569 -40.9393 -40.9256 -40.9116 -40.9040 -40.9028 -40.9008
   -40.8845 -40.8719 -40.8636 -40.8552 -40.8472 -40.8273 -40.8224 -40.8192
   -40.8112 -40.8047 -40.7987 -40.7953 -40.7885 -40.7832 -40.7652 -40.7615
    -0.9364  -0.8486  -0.8028  -0.7539  13.8695  14.2448  14.2688  14.4103
    14.4266  14.6087  14.7585  15.0575  15.2126  15.2232  15.2457  15.3932
    15.4926  15.6891  15.7743  15.7748  15.8463  15.9004  15.9564  15.9819
    16.1274  16.2128  16.3555  16.3670  16.4586  16.5046  16.5236  16.7452
    16.8324  16.9052  16.9733  17.0463  17.1149  17.1500  17.2146  17.2283
    17.3332  17.6941  17.7368  17.7557  17.8825  18.0253  19.1263  19.2260
    19.5923  20.2278  20.2970  20.5315  20.5843  20.6836  20.7005  20.8855
    25.2953  27.2436  27.8436  28.3366  30.3686  31.4251  31.8196  32.7434
    32.9423  33.1636  33.3825  33.9538  35.1078  35.3087  35.5878  36.0712
    36.8154  37.3305  37.8063  38.1094  38.5299  38.9268  39.2103  39.4308
    39.5764  39.7439  40.9625  41.7345  41.8823  42.1652  42.4856  43.0412
    43.7204  44.1417  44.2340  44.2805  44.5898  44.9338  45.2339  45.6438
    46.2859  46.7760  46.8816  47.2143  47.8652  48.0287  48.2257  48.4682
    48.7527  49.0295  49.1837  49.2453  49.2483  49.4130  49.4287  49.6179
    50.4807  50.6336

          k = 0.0000 0.2354 0.1219 (  3669 PWs)   bands (ev):

   -81.0144 -80.9751 -80.9369 -80.9328 -80.8587 -80.8248 -80.7770 -80.7433
   -40.9739 -40.9641 -40.9377 -40.9282 -40.9071 -40.9070 -40.9023 -40.9012
   -40.8806 -40.8708 -40.8639 -40.8592 -40.8394 -40.8315 -40.8265 -40.8205
   -40.8113 -40.8078 -40.7990 -40.7981 -40.7894 -40.7813 -40.7634 -40.7613
    -0.9260  -0.8673  -0.7895  -0.7583  13.9241  14.2112  14.3140  14.4100
    14.4637  14.6059  14.7195  14.9565  15.0091  15.2452  15.3829  15.3911
    15.4273  15.5580  15.6317  15.7503  15.7665  15.8357  15.9665  16.0879
    16.1678  16.2038  16.3608  16.5162  16.5287  16.5823  16.6534  16.6678
    16.7582  16.8587  16.9990  17.0588  17.1109  17.1625  17.2146  17.2932
    17.3679  17.6762  17.7334  17.7650  18.1584  18.2518  19.0229  19.2355
    19.7297  19.9714  20.3573  20.4001  20.4865  20.6182  20.6949  20.8245
    25.5404  27.1294  27.5345  28.5268  30.2090  31.0533  31.8876  32.4296
    32.9454  33.3542  33.4316  34.0554  35.4189  35.5188  35.6866  36.2109
    36.7035  37.3605  38.0016  38.3751  38.5741  38.7736  39.3049  39.6361
    40.0949  40.4055  40.4576  41.5827  42.1611  42.1768  42.6167  42.8799
    43.1018  43.2421  43.4451  43.6560  44.2827  45.0266  45.4091  45.7262
    45.9926  46.5091  47.0668  47.2290  47.7748  48.2222  48.2658  48.3505
    48.4522  48.7501  49.1436  49.2585  49.4548  49.6511  50.1186  50.4803
    50.5371  50.6025

          k = 0.0000 0.2354-0.2437 (  3666 PWs)   bands (ev):

   -80.9495 -80.9495 -80.9354 -80.9354 -80.8562 -80.8562 -80.7719 -80.7719
   -40.9703 -40.9703 -40.9312 -40.9312 -40.9048 -40.9048 -40.9037 -40.9037
   -40.8687 -40.8687 -40.8607 -40.8607 -40.8337 -40.8337 -40.8279 -40.8279
   -40.8057 -40.8057 -40.8031 -40.8031 -40.7871 -40.7871 -40.7605 -40.7605
    -0.8993  -0.8993  -0.7709  -0.7709  14.0678  14.0678  14.3934  14.3934
    14.5756  14.5756  14.7242  14.7242  15.0705  15.0705  15.3458  15.3458
    15.5642  15.5642  15.5885  15.5885  15.7711  15.7711  15.9636  15.9636
    16.3012  16.3012  16.4099  16.4099  16.5834  16.5834  16.6937  16.6937
    16.8403  16.8403  16.9997  16.9997  17.2313  17.2313  17.2788  17.2788
    17.4617  17.4617  17.7778  17.7778  18.5880  18.5880  18.9521  18.9521
    19.9671  19.9671  20.0701  20.0701  20.5896  20.5896  20.7089  20.7089
    26.2224  26.2224  28.1096  28.1096  30.4329  30.4329  32.0090  32.0090
    33.3346  33.3346  33.8246  33.8246  35.2746  35.2746  36.1667  36.1667
    37.8073  37.8073  38.2201  38.2201  38.2320  38.2320  39.5574  39.5574
    41.2349  41.2349  41.3218  41.3218  41.6813  41.6813  41.8063  41.8063
    42.9551  42.9551  43.2348  43.2348  44.3053  44.3053  45.7571  45.7571
    46.6352  46.6353  46.6808  46.6808  47.7514  47.7514  47.8406  47.8407
    48.6297  48.6297  49.5056  49.5056  49.8920  49.8921  50.5252  50.5253
    50.6355  50.6355

          k =-0.4608 0.0000 0.0000 (  3722 PWs)   bands (ev):

   -81.0446 -81.0446 -81.0014 -81.0014 -80.9324 -80.9324 -80.9260 -80.9260
   -41.0223 -41.0223 -40.9361 -40.9361 -40.9250 -40.9250 -40.9140 -40.9140
   -40.8691 -40.8691 -40.8477 -40.8477 -40.8314 -40.8314 -40.8258 -40.8258
   -40.8133 -40.8133 -40.7919 -40.7919 -40.7802 -40.7802 -40.7755 -40.7755
    -0.8612  -0.8612  -0.8125  -0.8125  14.4265  14.4265  14.9212  14.9212
    15.2351  15.2351  15.3793  15.3793  15.4989  15.4989  15.5548  15.5548
    15.8085  15.8085  15.8431  15.8431  15.9071  15.9071  15.9925  15.9925
    16.1428  16.1428  16.2688  16.2688  16.3964  16.3964  16.5496  16.5496
    16.6445  16.6445  16.6704  16.6704  16.7387  16.7386  17.0514  17.0514
    17.6354  17.6354  17.7345  17.7345  17.9446  17.9446  18.0379  18.0379
    19.0155  19.0155  19.7774  19.7774  19.9009  19.9009  20.0830  20.0830
    28.3102  28.3102  29.6642  29.6642  29.6739  29.6739  31.8194  31.8194
    32.2682  32.2682  34.3833  34.3833  34.8976  34.8976  36.2364  36.2364
    37.2542  37.2542  38.5167  38.5167  38.7226  38.7226  39.7769  39.7769
    40.8150  40.8150  40.9727  40.9727  41.8675  41.8675  42.5857  42.5857
    43.4835  43.4835  44.5023  44.5023  45.5588  45.5588  45.8210  45.8210
    46.1367  46.1367  46.6181  46.6182  47.1701  47.1702  47.4095  47.4095
    48.0868  48.0869  48.8260  48.8261  49.0940  49.0940  49.6495  49.6496
    50.6499  50.6509

          k =-0.4608 0.0000 0.1219 (  3710 PWs)   bands (ev):

   -81.0266 -81.0266 -80.9915 -80.9915 -80.9269 -80.9269 -80.8736 -80.8736
   -41.0212 -41.0212 -40.9390 -40.9390 -40.9156 -40.9156 -40.9086 -40.9086
   -40.8697 -40.8697 -40.8504 -40.8504 -40.8294 -40.8294 -40.8242 -40.8242
   -40.8144 -40.8144 -40.7901 -40.7901 -40.7808 -40.7808 -40.7741 -40.7741
    -0.8603  -0.8603  -0.8130  -0.8130  14.5053  14.5053  14.8838  14.8838
    15.1447  15.1447  15.2929  15.2929  15.4023  15.4023  15.6035  15.6035
    15.6718  15.6718  15.8677  15.8677  15.9613  15.9613  16.0633  16.0633
    16.1690  16.1690  16.2688  16.2688  16.4426  16.4426  16.5543  16.5543
    16.6786  16.6786  16.7132  16.7132  16.9177  16.9177  17.0831  17.0831
    17.4606  17.4606  17.7217  17.7217  17.9235  17.9235  18.1834  18.1834
    19.0076  19.0076  19.4625  19.4625  19.9435  19.9435  20.3387  20.3387
    28.2116  28.2116  28.9432  28.9432  30.0302  30.0302  31.7334  31.7334
    32.4913  32.4913  34.8345  34.8345  35.2795  35.2795  36.2317  36.2317
    37.3636  37.3636  38.0340  38.0340  38.7931  38.7931  39.8429  39.8429
    40.3693  40.3693  40.9798  40.9798  41.9771  41.9771  42.6787  42.6787
    43.4662  43.4662  44.4822  44.4822  45.1698  45.1698  45.6561  45.6561
    46.2193  46.2194  46.4939  46.4939  46.8097  46.8098  47.7845  47.7845
    48.2646  48.2646  49.2180  49.2181  49.4284  49.4285  49.9205  49.9207
    50.3134  50.3137

          k =-0.4608 0.0000-0.2437 (  3680 PWs)   bands (ev):

   -80.9835 -80.9835 -80.9415 -80.9415 -80.8563 -80.8563 -80.8353 -80.8353
   -41.0233 -41.0233 -40.9349 -40.9349 -40.9143 -40.9143 -40.8899 -40.8899
   -40.8662 -40.8662 -40.8504 -40.8504 -40.8275 -40.8275 -40.8245 -40.8245
   -40.8116 -40.8116 -40.7878 -40.7878 -40.7769 -40.7769 -40.7701 -40.7701
    -0.8594  -0.8594  -0.8135  -0.8135  14.6581  14.6581  14.8574  14.8574
    14.8757  14.8757  15.2770  15.2770  15.4578  15.4578  15.5299  15.5299
    15.7590  15.7590  15.7777  15.7777  16.0092  16.0092  16.0489  16.0489
    16.0682  16.0682  16.3059  16.3059  16.5352  16.5352  16.6628  16.6628
    16.7306  16.7306  16.7766  16.7766  17.0603  17.0603  17.0956  17.0956
    17.2344  17.2344  17.7333  17.7333  17.8973  17.8973  18.4295  18.4295
    18.8828  18.8828  19.2450  19.2450  20.0135  20.0135  20.4854  20.4854
    28.1938  28.1938  28.4247  28.4247  30.3860  30.3860  31.2552  31.2552
    32.8573  32.8573  35.2265  35.2265  35.8547  35.8547  36.2961  36.2961
    37.6235  37.6235  37.8237  37.8237  38.1084  38.1084  39.7473  39.7473
    40.1086  40.1086  41.1841  41.1841  41.8861  41.8861  43.1929  43.1929
    43.5735  43.5735  44.1555  44.1555  44.7522  44.7522  44.9777  44.9777
    46.1916  46.1916  46.5477  46.5477  47.3962  47.3963  48.1080  48.1081
    48.4099  48.4099  49.2485  49.2486  49.7067  49.7067  50.2064  50.2066
    50.3544  50.7154

          k =-0.4608 0.2354 0.0000 (  3686 PWs)   bands (ev):

   -80.9704 -80.9704 -80.9664 -80.9664 -80.8904 -80.8904 -80.8519 -80.8519
   -40.9737 -40.9737 -40.9338 -40.9338 -40.9285 -40.9285 -40.8951 -40.8951
   -40.8914 -40.8914 -40.8560 -40.8560 -40.8335 -40.8335 -40.8330 -40.8330
   -40.8045 -40.8045 -40.7893 -40.7893 -40.7749 -40.7749 -40.7701 -40.7701
    -0.8342  -0.8342  -0.8097  -0.8097  14.5199  14.5199  14.7992  14.7992
    15.0673  15.0673  15.2284  15.2284  15.4257  15.4257  15.5597  15.5597
    15.7126  15.7126  15.8293  15.8293  15.8373  15.8373  15.8961  15.8961
    16.1156  16.1156  16.1660  16.1660  16.3864  16.3864  16.4884  16.4884
    16.6649  16.6649  16.7615  16.7615  16.8650  16.8650  17.1201  17.1201
    17.3863  17.3863  17.4398  17.4398  18.2247  18.2247  18.3486  18.3486
    19.1240  19.1240  19.4615  19.4615  20.3659  20.3659  20.9435  20.9435
    28.2866  28.2866  28.8245  28.8245  30.5209  30.5209  31.3701  31.3701
    33.3960  33.3960  33.5054  33.5054  35.3471  35.3471  36.6888  36.6888
    36.8362  36.8362  37.8212  37.8212  38.5968  38.5968  38.8244  38.8244
    39.9791  39.9791  40.2741  40.2741  41.8648  41.8648  42.9816  42.9816
    43.9044  43.9044  44.2234  44.2234  45.3450  45.3450  45.4654  45.4654
    46.2377  46.2378  46.4840  46.4840  47.4705  47.4705  48.1686  48.1686
    49.3095  49.3095  49.3566  49.3567  49.9981  49.9982  50.0066  50.0066
    50.6114  50.6114

          k =-0.4608 0.2354 0.1219 (  3692 PWs)   bands (ev):

   -80.9750 -80.9750 -80.9630 -80.9630 -80.8991 -80.8991 -80.8765 -80.8765
   -40.9762 -40.9762 -40.9317 -40.9317 -40.9240 -40.9240 -40.8994 -40.8994
   -40.8902 -40.8902 -40.8595 -40.8595 -40.8324 -40.8324 -40.8285 -40.8285
   -40.8074 -40.8074 -40.7906 -40.7906 -40.7785 -40.7785 -40.7730 -40.7730
    -0.8337  -0.8337  -0.8100  -0.8100  14.5867  14.5867  14.8027  14.8027
    15.0012  15.0012  15.2324  15.2324  15.3363  15.3363  15.4597  15.4597
    15.6039  15.6039  15.7816  15.7816  15.8841  15.8841  16.0354  16.0354
    16.0996  16.0996  16.2473  16.2473  16.4380  16.4380  16.5650  16.5650
    16.6235  16.6235  16.7737  16.7737  16.9099  16.9099  17.0538  17.0538
    17.2538  17.2538  17.4996  17.4996  18.2572  18.2572  18.4290  18.4290
    19.1215  19.1215  19.6830  19.6830  20.2428  20.2428  20.8534  20.8534
    28.1555  28.1555  28.5006  28.5006  30.6091  30.6091  31.2732  31.2732
    33.7834  33.7834  34.2384  34.2384  35.1982  35.1982  36.1972  36.1972
    36.8781  36.8781  37.8415  37.8415  38.6072  38.6072  38.9251  38.9251
    39.7469  39.7469  40.3716  40.3716  41.6995  41.6995  42.7855  42.7855
    43.6589  43.6589  44.4332  44.4332  45.3992  45.3992  45.7308  45.7308
    46.2859  46.2859  46.8759  46.8759  47.4394  47.4394  48.1274  48.1274
    48.9067  48.9067  49.3674  49.3674  49.6570  49.6570  50.1194  50.1194
    50.5141  50.5143

          k =-0.4608 0.2354-0.2437 (  3704 PWs)   bands (ev):

   -81.0165 -81.0165 -80.9730 -80.9730 -80.9049 -80.9049 -80.8992 -80.8992
   -40.9788 -40.9788 -40.9306 -40.9306 -40.9225 -40.9225 -40.9027 -40.9027
   -40.8944 -40.8944 -40.8654 -40.8654 -40.8318 -40.8318 -40.8280 -40.8280
   -40.8076 -40.8076 -40.7901 -40.7901 -40.7826 -40.7826 -40.7737 -40.7737
    -0.8332  -0.8332  -0.8102  -0.8102  14.7256  14.7256  14.7773  14.7773
    14.8744  14.8744  15.2417  15.2417  15.2517  15.2517  15.4278  15.4278
    15.5394  15.5394  15.7938  15.7938  15.8195  15.8195  16.0845  16.0845
    16.1093  16.1093  16.3659  16.3659  16.4338  16.4338  16.6444  16.6444
    16.6875  16.6875  16.7879  16.7879  16.8386  16.8386  17.0073  17.0073
    17.1474  17.1474  17.5632  17.5632  18.2633  18.2633  18.4979  18.4979
    19.2149  19.2149  19.7761  19.7761  20.2404  20.2404  20.6853  20.6853
    28.0855  28.0855  28.1618  28.1618  30.7988  30.7988  31.0595  31.0595
    34.5864  34.5864  34.6652  34.6652  35.3102  35.3102  35.6796  35.6796
    36.5752  36.5752  37.8211  37.8211  38.6223  38.6223  38.9483  38.9483
    39.4629  39.4629  40.4525  40.4525  42.1540  42.1540  42.1742  42.1742
    43.8367  43.8367  44.0009  44.0009  45.7349  45.7349  45.7821  45.7821
    46.5005  46.5006  47.3091  47.3091  47.4305  47.4306  48.1119  48.1120
    48.5434  48.5434  49.1070  49.1071  49.4559  49.4560  50.0371  50.0371
    50.4818  50.4819

     the Fermi energy is    43.7969 ev

!    total energy              =   -3637.48480644 Ry
     Harris-Foulkes estimate   =   -3637.48483404 Ry
     estimated scf accuracy    <       0.00003294 Ry

     The total energy is the sum of the following terms:

     one-electron contribution =    -527.07127089 Ry
     hartree contribution      =     504.14654752 Ry
     xc contribution           =    -312.43707392 Ry
     ewald contribution        =   -3301.75154470 Ry
     smearing contrib. (-TS)   =      -0.37146444 Ry

     convergence has been achieved in   8 iterations

     Forces acting on atoms (Ry/au):

     atom    1 type  1   force =     0.00000000   -0.06910340   -0.05782703
     atom    2 type  1   force =     0.00000000    0.06910340    0.05782703
     atom    3 type  1   force =     0.00000000   -0.06910340    0.05782703
     atom    4 type  1   force =     0.00000000    0.06910340   -0.05782703
     atom    5 type  1   force =     0.00000000    0.08885727   -0.02425675
     atom    6 type  1   force =     0.00000000   -0.08885727    0.02425675
     atom    7 type  1   force =     0.00000000    0.08885727    0.02425675
     atom    8 type  1   force =     0.00000000   -0.08885727   -0.02425675
     atom    9 type  2   force =     0.00000000   -0.12744844    0.01239081
     atom   10 type  2   force =     0.00000000    0.12744844   -0.01239081
     atom   11 type  2   force =     0.00000000   -0.12744844   -0.01239081
     atom   12 type  2   force =     0.00000000    0.12744844    0.01239081

     Total force =     0.363317     Total SCF correction =     0.015189


     entering subroutine stress ...

          total   stress  (Ry/bohr**3)                   (kbar)     P= 2415.55
   0.01671074   0.00000000   0.00000000       2458.23      0.00      0.00
   0.00000000   0.01586269   0.00000000          0.00   2333.48      0.00
   0.00000000   0.00000000   0.01668830          0.00      0.00   2454.93


     number of scf cycles    =   2
     number of bfgs steps    =   1

     enthalpy old            =   -3630.4585955355 Ry
     enthalpy new            =   -3637.4848064417 Ry

     CASE: enthalpy_new < enthalpy_old

     small trust_radius: resetting bfgs history

     new trust radius        =       2.7564725734 bohr
     new conv_thr            =       0.0001000000 Ry

     new unit-cell volume =   3054.05342 a.u.^3 (   452.56402 Ang^3 )

CELL_PARAMETERS (alat=  7.01510508)
   1.538472528   0.000000000   0.000000000
   0.000000000   1.977928842   0.000000000
   0.000000000   0.000000000   2.907191752

ATOMIC_POSITIONS (crystal)
Co       0.750000000   0.818736465   0.431039511
Co       0.250000000   0.181263535   0.568960489
Co       0.750000000   0.318736465   0.068960489
Co       0.250000000   0.681263535   0.931039511
Co       0.250000000   0.547079903   0.280041959
Co       0.750000000   0.452920097   0.719958041
Co       0.250000000   0.047079903   0.219958041
Co       0.750000000   0.952920097   0.780041959
Si       0.250000000   0.188471710   0.894339389
Si       0.750000000   0.811528290   0.105660611
Si       0.250000000   0.688471710   0.605660611
Si       0.750000000   0.311528290   0.394339389



     Writing output data file Prototype-La-oP12-Co2Si.save
     Check: negative starting charge=   -0.006353
     NEW-OLD atomic charge density approx. for the potential
     NEW k-points:
        k(    1) = (   0.0000000   0.0000000   0.0000000), wk =   0.0833333
        k(    2) = (   0.0000000   0.0000000   0.0859936), wk =   0.1666667
        k(    3) = (   0.0000000   0.0000000  -0.1719873), wk =   0.0833333
        k(    4) = (   0.0000000   0.1685265   0.0000000), wk =   0.1666667
        k(    5) = (   0.0000000   0.1685265   0.0859936), wk =   0.3333333
        k(    6) = (   0.0000000   0.1685265  -0.1719873), wk =   0.1666667
        k(    7) = (  -0.3249977   0.0000000   0.0000000), wk =   0.0833333
        k(    8) = (  -0.3249977   0.0000000   0.0859936), wk =   0.1666667
        k(    9) = (  -0.3249977   0.0000000  -0.1719873), wk =   0.0833333
        k(   10) = (  -0.3249977   0.1685265   0.0000000), wk =   0.1666667
        k(   11) = (  -0.3249977   0.1685265   0.0859936), wk =   0.3333333
        k(   12) = (  -0.3249977   0.1685265  -0.1719873), wk =   0.1666667
     extrapolated charge  277.44449, renormalised to  244.00000

     total cpu time spent up to now is      479.9 secs

     Self-consistent Calculation

     iteration #  1     ecut=    40.00 Ry     beta=0.70
     CG style diagonalization
     c_bands:  4 eigenvalues not converged
     c_bands:  1 eigenvalues not converged
     c_bands:  1 eigenvalues not converged
     c_bands:  3 eigenvalues not converged
     c_bands:  4 eigenvalues not converged
     c_bands:  2 eigenvalues not converged
     c_bands:  2 eigenvalues not converged
     ethr =  1.00E-06,  avg # of iterations = 38.1

     total cpu time spent up to now is      577.8 secs

     total energy              =   -3109.43110949 Ry
     Harris-Foulkes estimate   =   -3946.17306712 Ry
     estimated scf accuracy    <    1125.77786189 Ry

     iteration #  2     ecut=    40.00 Ry     beta=0.70
     CG style diagonalization
     c_bands:  2 eigenvalues not converged
     c_bands:  5 eigenvalues not converged
     c_bands:  4 eigenvalues not converged
     c_bands:  4 eigenvalues not converged
     c_bands:  2 eigenvalues not converged
     c_bands:  5 eigenvalues not converged
     c_bands:  3 eigenvalues not converged
     c_bands:  3 eigenvalues not converged
     c_bands:  2 eigenvalues not converged
     c_bands:  4 eigenvalues not converged
     ethr =  1.00E-02,  avg # of iterations = 11.6

     total cpu time spent up to now is      609.1 secs

     total energy              =   -3265.85439899 Ry
     Harris-Foulkes estimate   =   -4037.64370902 Ry
     estimated scf accuracy    <    1523.73738417 Ry

     iteration #  3     ecut=    40.00 Ry     beta=0.70
     CG style diagonalization
     ethr =  1.00E-02,  avg # of iterations =  8.6

     total cpu time spent up to now is      632.1 secs

     total energy              =   -3590.39047044 Ry
     Harris-Foulkes estimate   =   -3613.72438676 Ry
     estimated scf accuracy    <      48.04261264 Ry

     iteration #  4     ecut=    40.00 Ry     beta=0.70
     CG style diagonalization
     ethr =  1.00E-02,  avg # of iterations =  3.9

     total cpu time spent up to now is      642.0 secs

     total energy              =   -3592.38092486 Ry
     Harris-Foulkes estimate   =   -3596.81226469 Ry
     estimated scf accuracy    <      10.57754736 Ry

     iteration #  5     ecut=    40.00 Ry     beta=0.70
     CG style diagonalization
     ethr =  4.34E-03,  avg # of iterations =  3.7

     total cpu time spent up to now is      652.7 secs

     total energy              =   -3593.97162184 Ry
     Harris-Foulkes estimate   =   -3594.72908186 Ry
     estimated scf accuracy    <       1.56074459 Ry

     iteration #  6     ecut=    40.00 Ry     beta=0.70
     CG style diagonalization
     ethr =  6.40E-04,  avg # of iterations =  3.9

     total cpu time spent up to now is      664.0 secs

     total energy              =   -3594.24488947 Ry
     Harris-Foulkes estimate   =   -3594.67842956 Ry
     estimated scf accuracy    <       0.99303031 Ry

     iteration #  7     ecut=    40.00 Ry     beta=0.70
     CG style diagonalization
     ethr =  4.07E-04,  avg # of iterations =  3.3

     total cpu time spent up to now is      673.8 secs

     total energy              =   -3594.46274854 Ry
     Harris-Foulkes estimate   =   -3594.58272150 Ry
     estimated scf accuracy    <       0.42540648 Ry

     iteration #  8     ecut=    40.00 Ry     beta=0.70
     CG style diagonalization
     ethr =  1.74E-04,  avg # of iterations =  3.1

     total cpu time spent up to now is      682.8 secs

     total energy              =   -3594.51051991 Ry
     Harris-Foulkes estimate   =   -3594.51174194 Ry
     estimated scf accuracy    <       0.00402198 Ry

     iteration #  9     ecut=    40.00 Ry     beta=0.70
     CG style diagonalization
     c_bands:  1 eigenvalues not converged
     c_bands:  1 eigenvalues not converged
     c_bands:  1 eigenvalues not converged
     c_bands:  1 eigenvalues not converged
     c_bands:  2 eigenvalues not converged
     c_bands:  2 eigenvalues not converged
     ethr =  1.65E-06,  avg # of iterations =  4.4

     total cpu time spent up to now is      696.5 secs

     total energy              =   -3594.51187368 Ry
     Harris-Foulkes estimate   =   -3594.51256603 Ry
     estimated scf accuracy    <       0.00140731 Ry

     iteration # 10     ecut=    40.00 Ry     beta=0.70
     CG style diagonalization
     c_bands:  1 eigenvalues not converged
     c_bands:  1 eigenvalues not converged
     ethr =  5.77E-07,  avg # of iterations =  3.4

     total cpu time spent up to now is      706.6 secs

     total energy              =   -3594.51212526 Ry
     Harris-Foulkes estimate   =   -3594.51244531 Ry
     estimated scf accuracy    <       0.00096317 Ry

     iteration # 11     ecut=    40.00 Ry     beta=0.70
     CG style diagonalization
     ethr =  3.95E-07,  avg # of iterations =  3.2

     total cpu time spent up to now is      715.8 secs

     End of self-consistent calculation

          k = 0.0000 0.0000 0.0000 (  3675 PWs)   bands (ev):

  -109.0615-109.0511-109.0125-108.9856-108.9266-108.8941-108.8782-108.8446
   -76.3392 -76.2699 -76.2682 -76.2366 -76.1249 -76.0984 -76.0886 -76.0646
   -76.0636 -76.0450 -76.0072 -75.9919 -75.9903 -75.9680 -75.9218 -75.9088
   -75.8990 -75.8737 -75.8484 -75.8384 -75.7160 -75.7145 -75.6894 -75.6484
   -30.2419 -30.2411 -30.1990 -30.1916 -11.2307 -11.1806 -11.1373 -11.1239
   -11.1201 -11.0873 -11.0735 -11.0421 -11.0418 -11.0232 -10.9948 -10.9875
   -10.9163 -10.9111 -10.8497 -10.8193 -10.8020 -10.7821 -10.7745 -10.7364
   -10.7222 -10.6944 -10.6276 -10.6078 -10.6008 -10.5660 -10.5454 -10.5399
   -10.5265 -10.5185 -10.4922 -10.4845 -10.4783 -10.4286 -10.3732 -10.3554
   -10.3156 -10.2685 -10.2442 -10.1647  -9.1534  -9.1062  -9.1014  -9.0987
    -9.0856  -9.0728  -9.0667  -9.0630  -9.0606  -9.0536  -9.0352  -9.0237
     1.8689   2.5760   2.9562   3.3360   3.6561   3.7751   3.9008   4.0389
     8.5033   9.0970   9.4743   9.4842   9.4855   9.4960  10.2053  10.2091
    10.4243  10.6548  10.6723  10.7003  10.7970  11.4644  11.5176  11.7081
    11.9765  12.1509  12.2656  12.6604  12.8736  12.9580  13.0007  13.2214
    13.2569  13.2620  13.5209  13.5350  13.5516  13.5714  13.7591  13.8418
    13.8597  13.9715  14.1423  14.4127  14.4425  14.8824  15.1723  15.1757
    15.2331  15.4101  15.5356  15.9297  16.0126  16.2289  16.6630  17.6661
    17.7762  18.3338

          k = 0.0000 0.0000 0.0860 (  3675 PWs)   bands (ev):

  -109.1186-109.0586-109.0288-108.9599-108.9149-108.8960-108.8555-108.8386
   -76.3703 -76.3197 -76.3009 -76.2515 -76.2214 -76.1325 -76.1108 -76.0864
   -76.0433 -76.0326 -76.0199 -76.0110 -76.0061 -75.9748 -75.9123 -75.9105
   -75.8569 -75.8372 -75.7684 -75.7584 -75.7150 -75.6719 -75.6507 -75.6345
   -30.2508 -30.2298 -30.2116 -30.1806 -11.2854 -11.2677 -11.2167 -11.1927
   -11.0959 -11.0952 -11.0677 -11.0358 -10.9921 -10.9861 -10.9854 -10.9682
   -10.9513 -10.9176 -10.9052 -10.8564 -10.8420 -10.8381 -10.8035 -10.7891
   -10.7615 -10.7583 -10.7031 -10.7031 -10.6867 -10.5983 -10.5371 -10.5314
   -10.5065 -10.4840 -10.4466 -10.4080 -10.3827 -10.3668 -10.2811 -10.2514
   -10.2219 -10.1970 -10.1321 -10.1291  -9.1534  -9.1322  -9.1042  -9.0998
    -9.0948  -9.0884  -9.0583  -9.0577  -9.0458  -9.0434  -9.0370  -9.0346
     1.9331   2.3776   3.1480   3.3456   3.6605   3.7944   3.8796   3.9466
     8.5735   9.0632   9.4392   9.4525   9.4766   9.6967  10.1027  10.3280
    10.6786  10.6833  10.7102  10.7160  10.8467  11.2020  11.4021  11.6623
    11.8424  12.0963  12.4220  12.4595  12.6896  12.7936  12.9007  13.0692
    13.2438  13.2976  13.3048  13.5779  13.6280  13.6818  13.7061  13.7879
    13.8091  14.0534  14.2738  14.3355  14.8490  15.0850  15.0911  15.1143
    15.3330  15.3472  15.6052  15.9370  16.3144  16.5681  16.7185  17.7524
    18.0170  18.2439

          k = 0.0000 0.0000-0.1720 (  3690 PWs)   bands (ev):

  -109.0872-109.0872-109.0293-109.0293-108.9661-108.9661-108.8752-108.8752
   -76.3832 -76.3832 -76.3593 -76.3593 -76.2423 -76.2423 -76.1692 -76.1692
   -76.1347 -76.1347 -75.9775 -75.9775 -75.9686 -75.9686 -75.8728 -75.8728
   -75.8625 -75.8625 -75.8544 -75.8544 -75.6802 -75.6802 -75.5996 -75.5996
   -30.2577 -30.2577 -30.2060 -30.2060 -11.3812 -11.3812 -11.2696 -11.2696
   -11.1411 -11.1411 -11.1282 -11.1282 -11.0976 -11.0976 -10.9759 -10.9759
   -10.9575 -10.9575 -10.8923 -10.8923 -10.8860 -10.8860 -10.8275 -10.8275
   -10.8169 -10.8169 -10.7549 -10.7549 -10.6943 -10.6943 -10.6038 -10.6038
   -10.5671 -10.5671 -10.4393 -10.4393 -10.3419 -10.3419 -10.3294 -10.3294
   -10.1636 -10.1636 -10.1502 -10.1502  -9.1532  -9.1532  -9.1388  -9.1388
    -9.0934  -9.0934  -9.0748  -9.0748  -9.0490  -9.0490  -9.0286  -9.0286
     2.1137   2.1137   3.3279   3.3279   3.7489   3.7489   3.8381   3.8381
     8.7644   8.7644   9.4604   9.4604   9.7509   9.7509  10.2375  10.2375
    10.6104  10.6104  10.8172  10.8172  11.0224  11.0224  11.4359  11.4359
    11.8635  11.8635  12.2514  12.2514  12.6784  12.6784  12.9916  12.9916
    13.1879  13.1879  13.3130  13.3130  13.5876  13.5876  13.8034  13.8034
    13.9835  13.9835  14.5120  14.5120  14.9941  14.9941  15.0497  15.0497
    15.4191  15.4191  15.7748  15.7748  16.5923  16.5923  17.5095  17.5095
    18.5202  18.5211

          k = 0.0000 0.1685 0.0000 (  3664 PWs)   bands (ev):

  -109.1115-109.0188-109.0125-108.9768-108.8875-108.8834-108.8487-108.7787
   -76.3932 -76.2439 -76.2435 -76.1472 -76.1175 -76.0903 -76.0596 -76.0581
   -76.0189 -76.0076 -75.9941 -75.9862 -75.9634 -75.9537 -75.9418 -75.9019
   -75.8707 -75.8083 -75.8058 -75.7988 -75.7961 -75.7209 -75.5772 -75.5085
   -30.2575 -30.2269 -30.1694 -30.1692 -11.2228 -11.1854 -11.1663 -11.1278
   -11.1063 -11.0561 -11.0544 -11.0498 -11.0402 -10.9334 -10.8834 -10.8799
   -10.8791 -10.8740 -10.8484 -10.8430 -10.8115 -10.7561 -10.7359 -10.7020
   -10.6956 -10.6646 -10.6525 -10.6473 -10.6252 -10.6087 -10.5976 -10.5722
   -10.4851 -10.4731 -10.4357 -10.4092 -10.3820 -10.3752 -10.3180 -10.2636
   -10.2383 -10.1052 -10.1000 -10.0805  -9.1117  -9.0963  -9.0891  -9.0877
    -9.0819  -9.0795  -9.0704  -9.0411  -9.0381  -9.0364  -9.0341  -9.0083
     2.1208   2.7502   2.7870   3.0785   3.5235   3.5289   4.0975   4.1384
     8.9436   9.3130   9.3994   9.6023   9.6671   9.6956   9.7359   9.7901
    10.2432  10.2570  10.3079  10.9448  11.1061  11.5106  11.6963  11.7273
    11.9050  11.9623  12.2113  12.4085  12.5676  12.6437  12.8615  13.0113
    13.0185  13.1783  13.2778  13.5419  13.7200  13.8592  13.8888  13.9297
    14.2882  14.3422  14.6014  14.6326  14.9807  15.1345  15.2107  15.2301
    15.3746  15.5176  15.5597  15.8737  16.1907  17.0173  17.1212  17.7451
    18.0553  18.2673

          k = 0.0000 0.1685 0.0860 (  3669 PWs)   bands (ev):

  -109.1194-109.0320-108.9970-108.9875-108.9125-108.8776-108.8551-108.8157
   -76.4157 -76.2727 -76.2535 -76.2307 -76.1686 -76.1612 -76.1136 -76.0897
   -76.0540 -76.0315 -76.0117 -75.9859 -75.9767 -75.9296 -75.8892 -75.8762
   -75.8731 -75.8284 -75.8131 -75.7538 -75.7484 -75.6667 -75.6202 -75.5395
   -30.2499 -30.2221 -30.2013 -30.1749 -11.2659 -11.2566 -11.1842 -11.1628
   -11.1161 -11.0711 -11.0664 -11.0335 -11.0062 -10.9824 -10.9819 -10.9399
   -10.9200 -10.8795 -10.8587 -10.8369 -10.8065 -10.7865 -10.7839 -10.7507
   -10.7327 -10.7265 -10.7020 -10.6921 -10.6327 -10.6242 -10.6106 -10.6052
   -10.4980 -10.4572 -10.4564 -10.3852 -10.3638 -10.3464 -10.2972 -10.2483
   -10.2464 -10.1192 -10.1124 -10.0358  -9.1224  -9.1135  -9.1083  -9.0899
    -9.0857  -9.0778  -9.0642  -9.0556  -9.0384  -9.0302  -9.0198  -9.0175
     2.1818   2.5929   2.8204   3.0839   3.5172   3.6857   4.0431   4.0792
     8.9934   9.2877   9.4070   9.5727   9.5782   9.7519   9.9478   9.9634
    10.1853  10.2699  10.4417  10.7603  11.0828  11.5260  11.5761  11.6663
    11.7598  11.8803  12.2570  12.2694  12.4427  12.5438  12.6368  13.0112
    13.1051  13.2297  13.3718  13.5222  13.7162  13.7714  13.8611  13.9110
    14.1707  14.5430  14.7357  14.8807  15.0904  15.1962  15.2588  15.3229
    15.3716  15.5558  15.5734  15.7224  16.3705  17.0001  17.4266  17.7643
    18.0253  18.4854

          k = 0.0000 0.1685-0.1720 (  3666 PWs)   bands (ev):

  -109.0153-109.0153-108.9840-108.9840-108.9205-108.9205-108.8520-108.8520
   -76.2815 -76.2815 -76.2425 -76.2425 -76.1889 -76.1889 -76.0845 -76.0845
   -76.0208 -76.0208 -75.9545 -75.9545 -75.9420 -75.9420 -75.8624 -75.8624
   -75.8410 -75.8410 -75.8302 -75.8302 -75.7193 -75.7193 -75.6259 -75.6259
   -30.2261 -30.2261 -30.1926 -30.1926 -11.1591 -11.1591 -11.0948 -11.0948
   -11.0656 -11.0656 -10.9999 -10.9999 -10.9834 -10.9834 -10.9416 -10.9416
   -10.8713 -10.8713 -10.8343 -10.8343 -10.8012 -10.8012 -10.7571 -10.7571
   -10.7550 -10.7550 -10.6444 -10.6444 -10.6356 -10.6356 -10.5373 -10.5373
   -10.4776 -10.4776 -10.4424 -10.4424 -10.4156 -10.4156 -10.3214 -10.3214
   -10.2703 -10.2703 -10.1123 -10.1123  -9.1127  -9.1127  -9.0962  -9.0962
    -9.0734  -9.0734  -9.0488  -9.0488  -9.0380  -9.0380  -9.0263  -9.0263
     2.3522   2.3522   2.9458   2.9458   3.7075   3.7075   3.9876   3.9876
     9.1486   9.1486   9.4728   9.4728   9.7759   9.7759  10.0973  10.0973
    10.1462  10.1462  10.6600  10.6600  11.2269  11.2269  11.5569  11.5569
    11.6538  11.6538  12.1727  12.1727  12.3848  12.3848  12.9295  12.9295
    13.2976  13.2976  13.3088  13.3088  13.7621  13.7621  13.7913  13.7913
    14.3607  14.3607  14.9853  14.9853  15.2384  15.2384  15.3602  15.3602
    15.5356  15.5356  15.5730  15.5730  16.8316  16.8316  17.7800  17.7800
    17.9969  17.9969

          k =-0.3250 0.0000 0.0000 (  3722 PWs)   bands (ev):

  -109.0997-109.0997-109.0879-109.0879-108.9971-108.9971-108.9940-108.9940
   -76.3242 -76.3242 -76.2776 -76.2776 -76.2440 -76.2440 -76.2258 -76.2258
   -76.1585 -76.1585 -76.1161 -76.1161 -76.0258 -76.0258 -76.0012 -76.0012
   -75.9589 -75.9589 -75.9221 -75.9221 -75.9202 -75.9202 -75.8784 -75.8784
   -30.2767 -30.2767 -30.2680 -30.2680 -11.4036 -11.4036 -11.2906 -11.2906
   -11.1618 -11.1618 -11.1482 -11.1482 -11.1367 -11.1367 -11.0631 -11.0631
   -11.0625 -11.0625 -11.0022 -11.0022 -10.9288 -10.9288 -10.8915 -10.8915
   -10.8905 -10.8905 -10.7945 -10.7945 -10.7836 -10.7836 -10.6893 -10.6893
   -10.6220 -10.6220 -10.6174 -10.6174 -10.6157 -10.6157 -10.5730 -10.5730
   -10.5260 -10.5260 -10.4691 -10.4691  -9.1579  -9.1579  -9.1367  -9.1367
    -9.1151  -9.1151  -9.0971  -9.0971  -9.0906  -9.0906  -9.0691  -9.0691
     2.6048   2.6048   3.2718   3.2718   3.3352   3.3352   3.8274   3.8274
     8.6634   8.6634   9.3193   9.3193   9.3544   9.3544   9.8007   9.8007
    10.0588  10.0588  11.1456  11.1456  11.4452  11.4452  11.5985  11.5985
    12.0278  12.0278  12.5994  12.5994  12.7724  12.7724  13.2613  13.2613
    13.4201  13.4201  13.6361  13.6361  13.9147  13.9147  13.9192  13.9192
    14.0442  14.0442  14.4577  14.4577  14.6324  14.6324  14.7575  14.7575
    14.8590  14.8590  15.3790  15.3790  16.3018  16.3018  17.5125  17.5126
    18.9284  18.9284

          k =-0.3250 0.0000 0.0860 (  3710 PWs)   bands (ev):

  -109.0937-109.0937-109.0605-109.0605-109.0095-109.0095-108.9309-108.9309
   -76.3246 -76.3246 -76.2504 -76.2504 -76.2138 -76.2138 -76.1721 -76.1721
   -76.1641 -76.1641 -76.0780 -76.0780 -76.0484 -76.0484 -76.0015 -76.0015
   -75.9494 -75.9494 -75.8933 -75.8933 -75.8219 -75.8219 -75.7953 -75.7953
   -30.2615 -30.2615 -30.2576 -30.2576 -11.3117 -11.3117 -11.2608 -11.2608
   -11.1917 -11.1917 -11.1218 -11.1218 -11.0438 -11.0438 -11.0248 -11.0248
   -11.0014 -11.0014 -10.9623 -10.9623 -10.9463 -10.9463 -10.8455 -10.8455
   -10.8102 -10.8102 -10.7671 -10.7671 -10.7454 -10.7454 -10.7099 -10.7099
   -10.6501 -10.6501 -10.6051 -10.6051 -10.5496 -10.5496 -10.5020 -10.5020
   -10.4309 -10.4309 -10.3841 -10.3841  -9.1479  -9.1479  -9.1150  -9.1150
    -9.1116  -9.1116  -9.0974  -9.0974  -9.0833  -9.0833  -9.0700  -9.0700
     2.6244   2.6244   3.1970   3.1970   3.3906   3.3906   3.8219   3.8219
     8.6799   8.6799   9.1820   9.1820   9.6418   9.6418   9.7996   9.7996
    10.2891  10.2891  10.9465  10.9465  11.1800  11.1800  11.3955  11.3955
    11.9867  11.9867  12.8428  12.8428  12.8760  12.8760  13.3228  13.3228
    13.4101  13.4101  13.6032  13.6032  13.8129  13.8129  13.9011  13.9011
    14.0844  14.0844  14.3487  14.3487  14.3574  14.3574  14.9136  14.9136
    15.1971  15.1971  15.5644  15.5644  16.3956  16.3956  17.5714  17.5714
    18.9618  18.9619

          k =-0.3250 0.0000-0.1720 (  3680 PWs)   bands (ev):

  -109.0726-109.0726-109.0046-109.0046-108.9180-108.9180-108.8797-108.8797
   -76.2811 -76.2811 -76.2798 -76.2798 -76.2150 -76.2150 -76.1760 -76.1760
   -76.0875 -76.0875 -75.9643 -75.9643 -75.9417 -75.9417 -75.9115 -75.9115
   -75.8314 -75.8314 -75.8264 -75.8264 -75.7639 -75.7639 -75.6718 -75.6718
   -30.2390 -30.2390 -30.2160 -30.2160 -11.3370 -11.3370 -11.1347 -11.1347
   -11.0926 -11.0926 -11.0145 -11.0145 -10.9919 -10.9919 -10.9648 -10.9648
   -10.9120 -10.9120 -10.8679 -10.8679 -10.8421 -10.8421 -10.7388 -10.7388
   -10.7336 -10.7336 -10.7143 -10.7143 -10.6979 -10.6979 -10.6544 -10.6544
   -10.5292 -10.5292 -10.5267 -10.5267 -10.4234 -10.4234 -10.3619 -10.3619
   -10.2373 -10.2373 -10.1812 -10.1812  -9.1287  -9.1287  -9.1163  -9.1163
    -9.0855  -9.0855  -9.0809  -9.0809  -9.0715  -9.0715  -9.0401  -9.0401
     2.6479   2.6479   3.1456   3.1456   3.4208   3.4208   3.8155   3.8155
     8.6721   8.6721   9.2276   9.2276   9.6010   9.6010  10.2588  10.2588
    10.4146  10.4146  10.8246  10.8246  10.8341  10.8341  11.0819  11.0819
    11.9732  11.9732  13.0195  13.0195  13.1395  13.1395  13.2040  13.2040
    13.4315  13.4315  13.6544  13.6544  13.7315  13.7315  13.8195  13.8195
    14.2055  14.2055  14.2108  14.2108  14.2198  14.2198  14.9158  14.9158
    15.3747  15.3747  15.9804  15.9804  16.5292  16.5292  17.5151  17.5151
    19.2389  19.2391

          k =-0.3250 0.1685 0.0000 (  3686 PWs)   bands (ev):

  -109.0151-109.0151-109.0138-109.0138-108.9745-108.9745-108.9023-108.9023
   -76.2071 -76.2071 -76.2030 -76.2030 -76.1708 -76.1708 -76.1176 -76.1176
   -76.0916 -76.0916 -76.0675 -76.0675 -76.0200 -76.0200 -75.9526 -75.9526
   -75.9358 -75.9358 -75.8646 -75.8646 -75.8320 -75.8320 -75.8092 -75.8092
   -30.2450 -30.2450 -30.2310 -30.2310 -11.2442 -11.2442 -11.1313 -11.1313
   -11.0765 -11.0765 -11.0373 -11.0373 -10.9948 -10.9948 -10.9861 -10.9861
   -10.9137 -10.9137 -10.8933 -10.8933 -10.8464 -10.8464 -10.7887 -10.7887
   -10.7494 -10.7494 -10.7124 -10.7124 -10.6810 -10.6810 -10.6244 -10.6244
   -10.6124 -10.6124 -10.5604 -10.5604 -10.5467 -10.5467 -10.5010 -10.5010
   -10.4020 -10.4020 -10.3708 -10.3708  -9.1225  -9.1225  -9.1123  -9.1123
    -9.0920  -9.0920  -9.0832  -9.0832  -9.0518  -9.0518  -9.0463  -9.0463
     2.8048   2.8048   3.1971   3.1971   3.4106   3.4106   3.5788   3.5788
     8.7583   8.7583   8.8385   8.8385   9.6119   9.6119  10.3229  10.3229
    10.4993  10.4993  10.7768  10.7768  11.1483  11.1483  11.3182  11.3182
    12.1018  12.1018  12.2495  12.2495  12.9010  12.9010  12.9850  12.9850
    13.2684  13.2684  13.5996  13.5996  13.9052  13.9052  14.1933  14.1933
    14.3191  14.3191  14.4212  14.4212  15.0061  15.0061  15.0885  15.0885
    15.3316  15.3316  15.4649  15.4649  16.5522  16.5522  17.4811  17.4811
    19.0431  19.0430

          k =-0.3250 0.1685 0.0860 (  3692 PWs)   bands (ev):

  -109.0298-109.0298-109.0051-109.0051-108.9793-108.9793-108.9396-108.9396
   -76.2758 -76.2758 -76.2320 -76.2320 -76.2058 -76.2058 -76.1513 -76.1513
   -76.0736 -76.0736 -76.0577 -76.0577 -76.0030 -76.0030 -75.9349 -75.9349
   -75.9207 -75.9207 -75.8772 -75.8772 -75.8385 -75.8385 -75.7942 -75.7942
   -30.2615 -30.2615 -30.2246 -30.2246 -11.2113 -11.2113 -11.1719 -11.1719
   -11.1447 -11.1447 -11.0593 -11.0593 -11.0280 -11.0280 -10.9362 -10.9362
   -10.9292 -10.9292 -10.9074 -10.9074 -10.8549 -10.8549 -10.8172 -10.8172
   -10.7863 -10.7863 -10.7485 -10.7485 -10.7268 -10.7268 -10.6716 -10.6716
   -10.5943 -10.5943 -10.5785 -10.5785 -10.5323 -10.5323 -10.4485 -10.4485
   -10.4204 -10.4204 -10.3775 -10.3775  -9.1302  -9.1302  -9.1223  -9.1223
    -9.0885  -9.0885  -9.0822  -9.0822  -9.0593  -9.0593  -9.0455  -9.0455
     2.8227   2.8227   3.1880   3.1880   3.4119   3.4119   3.5550   3.5550
     8.8607   8.8607   8.9771   8.9771   9.6007   9.6007  10.0059  10.0059
    10.3483  10.3483  10.8741  10.8741  11.1722  11.1722  11.4868  11.4868
    12.0025  12.0025  12.3473  12.3473  12.7892  12.7892  12.9479  12.9479
    13.2278  13.2278  13.5635  13.5635  13.8388  13.8388  14.0702  14.0702
[...]
    38.4106  38.4863  38.7972  38.9558  39.0304  39.3579  39.4311  40.1100
    40.3666  40.4367  40.5972  40.7333  41.4187  41.6462  41.9039  42.0123
    42.1102  42.1983

          k = 0.0000 0.0000 0.1145 (  5593 PWs)   bands (ev):

   -88.9514 -88.9466 -88.9124 -88.8880 -88.8191 -88.7959 -88.7813 -88.7787
   -47.8183 -47.8132 -47.7625 -47.7597 -47.7552 -47.7543 -47.7445 -47.7413
   -47.7308 -47.7289 -47.7247 -47.7110 -47.6538 -47.6517 -47.6512 -47.6499
   -47.6475 -47.6343 -47.6322 -47.6304 -47.6250 -47.6210 -47.6128 -47.6079
    -7.6029  -7.5587  -7.5097  -7.4833   8.3273   8.5830   8.6921   8.9671
     8.9750   9.0549   9.0726   9.1378   9.1703   9.2404   9.2489   9.3075
     9.3730   9.4798   9.4937   9.6021   9.6190   9.7298   9.8239   9.8344
     9.9433   9.9782   9.9866  10.0440  10.1246  10.1519  10.1852  10.1994
    10.2159  10.2328  10.3104  10.3394  10.3631  10.3991  10.5064  10.6223
    10.6392  10.6564  10.7152  10.8086  11.7908  11.8518  11.9375  12.0679
    12.1816  12.5313  12.6792  12.8247  12.9028  12.9528  13.3263  13.3316
    18.0426  19.9473  21.7506  22.2323  23.5143  24.4302  25.0052  25.0343
    26.0592  27.1380  27.2782  28.0399  28.2433  28.6879  29.6072  29.6139
    29.6406  29.7588  30.3397  30.9645  31.2998  31.6468  32.6085  32.9046
    33.8443  34.0070  34.0364  34.2658  34.4684  34.7155  34.8025  35.5221
    35.8977  36.1624  36.3230  36.5058  36.6278  37.0298  37.4919  37.6946
    37.9956  38.6599  38.6885  38.8102  38.8848  39.7074  40.0917  40.2499
    40.4668  40.9377  41.0445  41.5490  41.5677  41.5743  41.8916  41.9577
    42.0008  42.8504

          k = 0.0000 0.0000-0.2291 (  5570 PWs)   bands (ev):

   -88.9199 -88.9199 -88.8938 -88.8938 -88.8052 -88.8052 -88.7554 -88.7553
   -47.8137 -47.8137 -47.7617 -47.7617 -47.7528 -47.7528 -47.7426 -47.7426
   -47.7238 -47.7238 -47.7110 -47.7110 -47.6529 -47.6529 -47.6476 -47.6475
   -47.6360 -47.6360 -47.6294 -47.6293 -47.6208 -47.6206 -47.6085 -47.6083
    -7.5839  -7.5839  -7.4930  -7.4930   8.4387   8.4387   8.8503   8.8503
     9.0428   9.0428   9.0460   9.0460   9.2350   9.2350   9.3445   9.3445
     9.3902   9.3902   9.3970   9.3970   9.6816   9.6816   9.8529   9.8529
     9.9645   9.9645   9.9662   9.9662  10.1653  10.1653  10.2007  10.2007
    10.2285  10.2285  10.3618  10.3618  10.4398  10.4398  10.5618  10.5618
    10.5984  10.5984  10.7658  10.7658  11.8762  11.8762  12.2766  12.2766
    12.4832  12.4832  12.5298  12.5298  12.7245  12.7245  13.3276  13.3276
    18.8540  18.8540  22.4106  22.4106  23.4161  23.4161  24.9254  24.9254
    26.9156  26.9156  27.6097  27.6097  28.6317  28.6317  29.3783  29.3783
    29.7051  29.7051  31.3282  31.3282  31.7641  31.7641  33.3880  33.3881
    33.5560  33.5560  33.7347  33.7347  34.5124  34.5124  34.9263  34.9263
    35.5581  35.5581  36.0733  36.0733  36.8259  36.8259  37.1381  37.1381
    38.1540  38.1540  38.4250  38.4250  39.8496  39.8496  40.0293  40.0294
    41.2060  41.2060  41.4053  41.4055  41.9206  41.9208  41.9612  41.9613
    42.8002  42.8016

          k = 0.0000 0.2222 0.0000 (  5541 PWs)   bands (ev):

   -88.9103 -88.9063 -88.8941 -88.8441 -88.7721 -88.7693 -88.7547 -88.7378
   -47.7922 -47.7802 -47.7600 -47.7576 -47.7563 -47.7538 -47.7500 -47.7450
   -47.7247 -47.7220 -47.7205 -47.7119 -47.6495 -47.6466 -47.6435 -47.6427
   -47.6391 -47.6348 -47.6262 -47.6261 -47.6180 -47.6118 -47.6069 -47.6050
    -7.5823  -7.5447  -7.5150  -7.4916   8.3962   8.6696   8.6846   8.7727
     8.7928   8.8777   9.0073   9.2236   9.2598   9.2672   9.2770   9.3671
     9.4608   9.5079   9.5735   9.5909   9.6399   9.6497   9.7303   9.8016
     9.8141   9.8978   9.9485   9.9793   9.9807  10.0237  10.0646  10.1648
    10.2298  10.2609  10.3029  10.3717  10.4095  10.4177  10.4546  10.4954
    10.5367  10.7538  10.7540  10.7855  11.3265  11.4883  12.2363  12.4403
    12.4817  12.9245  12.9373  13.0679  13.0893  13.1690  13.1859  13.2678
    18.7678  20.6308  21.1427  21.9114  23.0587  23.8338  25.2381  26.3287
    26.3669  26.6797  27.1848  27.4567  27.9139  28.3405  28.9590  29.0474
    29.7845  29.8417  30.6069  31.4680  31.7600  31.8895  32.1351  32.6397
    32.7864  32.8574  33.5881  33.7545  34.6261  34.7747  35.0179  35.5191
    36.0691  36.1352  36.6289  36.6446  36.6497  36.7747  37.4623  37.7916
    38.6162  39.0373  39.1288  39.2297  39.4688  40.0628  40.3491  40.9277
    40.9708  41.0213  41.0840  41.2188  41.5113  41.6682  41.8919  42.0208
    42.4807  42.6142

          k = 0.0000 0.2222 0.1145 (  5578 PWs)   bands (ev):

   -88.9353 -88.9314 -88.8993 -88.8883 -88.8040 -88.7940 -88.7844 -88.7572
   -47.7944 -47.7877 -47.7607 -47.7606 -47.7582 -47.7575 -47.7537 -47.7535
   -47.7310 -47.7266 -47.7227 -47.7182 -47.6536 -47.6530 -47.6520 -47.6499
   -47.6408 -47.6378 -47.6307 -47.6273 -47.6199 -47.6167 -47.6096 -47.6049
    -7.5779  -7.5525  -7.5095  -7.4942   8.4330   8.6367   8.7141   8.7869
     8.8079   8.8839   8.9789   9.0952   9.2253   9.3109   9.3491   9.3694
     9.4391   9.4651   9.4992   9.5634   9.5839   9.6190   9.6844   9.7722
     9.8359   9.8684   9.9885  10.0344  10.0461  10.0810  10.1135  10.1542
    10.1859  10.2465  10.3220  10.3600  10.4069  10.4235  10.4672  10.5180
    10.5590  10.7229  10.7774  10.7922  11.5079  11.6384  12.1731  12.3905
    12.5704  12.7714  12.9849  12.9865  13.0837  13.1127  13.1929  13.2384
    18.9940  20.4568  20.8919  22.0123  23.0038  24.0102  24.8931  25.4897
    26.8018  26.9195  27.1916  27.4082  28.5204  28.7796  28.9469  29.0275
    29.7327  29.9827  31.0408  31.3356  31.6424  31.9328  32.0292  32.4618
    33.0441  33.0619  33.5764  33.9212  34.7295  34.9195  34.9415  35.0992
    35.4360  35.4708  35.8489  36.2361  36.2475  37.0349  37.5251  37.9016
    38.6142  38.8814  39.4054  39.4588  39.9113  40.1795  40.1968  40.4286
    40.7653  40.8492  40.9282  41.5638  41.6659  42.0074  42.1832  42.4215
    42.5449  42.6590

          k = 0.0000 0.2222-0.2291 (  5560 PWs)   bands (ev):

   -88.9211 -88.9211 -88.8919 -88.8919 -88.7845 -88.7845 -88.7547 -88.7547
   -47.7904 -47.7904 -47.7594 -47.7594 -47.7572 -47.7572 -47.7528 -47.7528
   -47.7261 -47.7261 -47.7132 -47.7132 -47.6496 -47.6496 -47.6467 -47.6467
   -47.6362 -47.6361 -47.6290 -47.6290 -47.6198 -47.6196 -47.6072 -47.6070
    -7.5663  -7.5663  -7.5004  -7.5004   8.5317   8.5317   8.7682   8.7682
     8.8891   8.8891   8.9633   8.9633   9.2456   9.2456   9.3705   9.3705
     9.4582   9.4582   9.4715   9.4715   9.5776   9.5776   9.6907   9.6907
     9.9139   9.9139   9.9644   9.9644  10.1123  10.1123  10.1378  10.1378
    10.2274  10.2274  10.3186  10.3186  10.4752  10.4752  10.4909  10.4909
    10.6263  10.6263  10.7998  10.7998  11.8086  11.8086  12.1431  12.1431
    12.7815  12.7815  12.7972  12.7972  13.1432  13.1432  13.1742  13.1742
    19.6179  19.6179  21.4236  21.4236  23.6032  23.6032  24.9300  24.9301
    27.0638  27.0638  27.2099  27.2100  28.7247  28.7247  29.2941  29.2942
    30.4268  30.4269  31.0002  31.0003  31.4888  31.4888  32.2103  32.2103
    33.6791  33.6791  34.0031  34.0031  34.1348  34.1348  34.5785  34.5785
    35.3315  35.3315  35.6425  35.6425  36.5923  36.5923  37.8063  37.8064
    38.7956  38.7956  39.1913  39.1913  40.1421  40.1423  40.1481  40.1483
    40.5268  40.5270  41.8863  41.8864  41.9975  41.9975  42.3739  42.3740
    42.9848  42.9888

          k =-0.4330 0.0000 0.0000 (  5580 PWs)   bands (ev):

   -88.9263 -88.9263 -88.9057 -88.9057 -88.8023 -88.8023 -88.7825 -88.7825
   -47.8086 -47.8086 -47.7643 -47.7643 -47.7563 -47.7563 -47.7407 -47.7407
   -47.7252 -47.7252 -47.7189 -47.7189 -47.6524 -47.6524 -47.6479 -47.6479
   -47.6403 -47.6403 -47.6363 -47.6363 -47.6146 -47.6146 -47.6103 -47.6103
    -7.5487  -7.5487  -7.5155  -7.5155   8.8212   8.8212   9.0917   9.0917
     9.1738   9.1738   9.3698   9.3698   9.4778   9.4778   9.5355   9.5355
     9.6192   9.6192   9.6304   9.6304   9.6903   9.6903   9.8190   9.8190
     9.8277   9.8277   9.8720   9.8720   9.9899   9.9899  10.0589  10.0589
    10.1199  10.1199  10.1778  10.1778  10.2260  10.2260  10.3837  10.3837
    10.7225  10.7225  10.7892  10.7892  11.4177  11.4177  11.5354  11.5354
    12.1460  12.1460  12.6481  12.6481  12.7000  12.7000  12.8202  12.8202
    21.1186  21.1186  22.6629  22.6629  22.7070  22.7070  24.8386  24.8386
    25.6169  25.6169  27.8194  27.8194  27.9776  27.9776  29.3071  29.3071
    29.8072  29.8072  31.8114  31.8114  31.8982  31.8982  32.5314  32.5314
    33.6848  33.6848  33.9028  33.9028  34.3691  34.3691  35.6973  35.6973
    35.9725  35.9725  37.0249  37.0249  37.5850  37.5850  38.2770  38.2770
    38.6750  38.6750  38.8615  38.8615  38.9853  38.9854  39.6382  39.6383
    39.9290  39.9291  41.1742  41.1743  41.2050  41.2050  41.4678  41.4679
    42.3485  42.4536

          k =-0.4330 0.0000 0.1145 (  5588 PWs)   bands (ev):

   -88.9220 -88.9220 -88.9195 -88.9195 -88.8017 -88.8017 -88.7937 -88.7937
   -47.8099 -47.8099 -47.7641 -47.7641 -47.7578 -47.7578 -47.7407 -47.7407
   -47.7250 -47.7250 -47.7221 -47.7221 -47.6533 -47.6533 -47.6470 -47.6470
   -47.6408 -47.6408 -47.6390 -47.6390 -47.6140 -47.6140 -47.6130 -47.6130
    -7.5483  -7.5483  -7.5158  -7.5158   8.8664   8.8664   9.0642   9.0642
     9.1748   9.1748   9.3005   9.3005   9.3944   9.3944   9.5132   9.5132
     9.5647   9.5647   9.6794   9.6794   9.7466   9.7466   9.7904   9.7904
     9.8406   9.8406   9.9216   9.9216  10.0070  10.0070  10.0592  10.0592
    10.1478  10.1478  10.1746  10.1746  10.3161  10.3161  10.4014  10.4014
    10.6445  10.6445  10.7797  10.7797  11.4150  11.4150  11.6118  11.6118
    12.1223  12.1223  12.4660  12.4660  12.7223  12.7223  12.9651  12.9651
    21.1821  21.1821  22.1214  22.1214  22.9897  22.9897  24.5800  24.5800
    25.9157  25.9157  27.9834  27.9834  28.3379  28.3379  29.3063  29.3063
    30.1007  30.1007  31.3715  31.3715  31.8679  31.8679  32.3803  32.3803
    33.1027  33.1027  33.9388  33.9388  34.7119  34.7119  35.6907  35.6907
    36.0925  36.0925  37.0234  37.0234  37.7097  37.7097  38.0623  38.0623
    38.4215  38.4215  38.5055  38.5055  39.0667  39.0668  39.5896  39.5897
    40.4372  40.4372  41.1431  41.1432  41.5282  41.5284  41.7323  41.7323
    42.2287  42.2289

          k =-0.4330 0.0000-0.2291 (  5608 PWs)   bands (ev):

   -88.9513 -88.9513 -88.9141 -88.9141 -88.8233 -88.8233 -88.8003 -88.8003
   -47.8115 -47.8115 -47.7681 -47.7681 -47.7530 -47.7530 -47.7473 -47.7473
   -47.7292 -47.7292 -47.7252 -47.7252 -47.6516 -47.6516 -47.6482 -47.6482
   -47.6456 -47.6456 -47.6413 -47.6413 -47.6182 -47.6182 -47.6150 -47.6150
    -7.5481  -7.5481  -7.5162  -7.5162   8.9425   8.9425   9.0734   9.0734
     9.0820   9.0820   9.2040   9.2040   9.4207   9.4207   9.4637   9.4637
     9.6262   9.6262   9.6585   9.6585   9.7339   9.7339   9.7932   9.7932
     9.8117   9.8117   9.9054   9.9054  10.0454  10.0454  10.1452  10.1452
    10.1478  10.1478  10.2090  10.2090  10.3643  10.3643  10.4446  10.4446
    10.5347  10.5347  10.7709  10.7709  11.4111  11.4111  11.7271  11.7271
    12.0565  12.0565  12.3444  12.3444  12.7534  12.7534  13.0407  13.0407
    21.3570  21.3570  21.6506  21.6506  23.1862  23.1862  24.2784  24.2784
    26.1330  26.1330  28.3763  28.3763  28.5861  28.5861  29.3097  29.3097
    30.7484  30.7484  30.9106  30.9106  31.3119  31.3119  32.3395  32.3395
    32.5235  32.5235  34.1720  34.1720  34.9078  34.9078  35.6453  35.6453
    36.4402  36.4402  37.0846  37.0846  37.3448  37.3448  37.5045  37.5045
    38.3812  38.3812  38.4536  38.4537  39.1944  39.1945  39.9856  39.9856
    40.4966  40.4966  41.1737  41.1738  41.8701  41.8701  41.8936  41.8938
    42.1210  42.1213

          k =-0.4330 0.2222 0.0000 (  5596 PWs)   bands (ev):

   -88.9308 -88.9308 -88.9245 -88.9245 -88.8049 -88.8049 -88.7932 -88.7932
   -47.7955 -47.7955 -47.7650 -47.7650 -47.7584 -47.7584 -47.7578 -47.7578
   -47.7267 -47.7267 -47.7222 -47.7222 -47.6516 -47.6516 -47.6505 -47.6505
   -47.6407 -47.6407 -47.6402 -47.6402 -47.6148 -47.6148 -47.6136 -47.6136
    -7.5354  -7.5354  -7.5189  -7.5189   8.8467   8.8467   9.0012   9.0012
     9.2420   9.2420   9.3784   9.3784   9.3864   9.3864   9.4972   9.4972
     9.5473   9.5473   9.6386   9.6386   9.6579   9.6579   9.6760   9.6760
     9.8164   9.8164   9.8243   9.8243   9.9714   9.9714  10.0236  10.0236
    10.1358  10.1358  10.1683  10.1683  10.2614  10.2614  10.4035  10.4035
    10.5811  10.5811  10.6229  10.6229  11.6373  11.6373  11.6398  11.6398
    12.1609  12.1609  12.4146  12.4146  13.0201  13.0201  13.3413  13.3413
    21.3419  21.3419  22.1533  22.1533  23.3690  23.3690  23.9902  23.9902
    26.6716  26.6716  26.7164  26.7164  28.5703  28.5703  29.7097  29.7097
    30.0532  30.0532  30.9384  30.9384  31.5883  31.5883  32.1662  32.1662
    32.9250  32.9250  33.1052  33.1052  34.6368  34.6368  35.4334  35.4334
    36.3476  36.3476  36.6026  36.6026  37.8510  37.8510  38.0180  38.0180
    38.4337  38.4337  38.4546  38.4547  39.7392  39.7393  40.2734  40.2735
    41.2970  41.2971  41.4294  41.4296  42.0337  42.0338  42.0867  42.0868
    42.3510  42.3511

          k =-0.4330 0.2222 0.1145 (  5588 PWs)   bands (ev):

   -88.9268 -88.9268 -88.9159 -88.9159 -88.8043 -88.8043 -88.7859 -88.7859
   -47.7931 -47.7931 -47.7634 -47.7634 -47.7593 -47.7593 -47.7582 -47.7582
   -47.7248 -47.7248 -47.7211 -47.7211 -47.6525 -47.6525 -47.6496 -47.6496
   -47.6404 -47.6404 -47.6382 -47.6382 -47.6138 -47.6138 -47.6117 -47.6117
    -7.5352  -7.5352  -7.5188  -7.5188   8.8852   8.8852   8.9997   8.9997
     9.1737   9.1737   9.3423   9.3423   9.3749   9.3749   9.4753   9.4753
     9.5049   9.5049   9.5990   9.5990   9.6762   9.6762   9.7610   9.7610
     9.8112   9.8112   9.8817   9.8817   9.9873   9.9873  10.0905  10.0905
    10.1193  10.1193  10.1667  10.1667  10.2792  10.2792  10.3709  10.3709
    10.5266  10.5266  10.6310  10.6310  11.5519  11.5519  11.7214  11.7214
    12.1809  12.1809  12.5545  12.5545  12.9610  12.9610  13.2916  13.2916
    21.3540  21.3540  21.9929  21.9929  23.2988  23.2988  23.8343  23.8343
    26.9858  26.9858  27.4326  27.4326  28.4342  28.4342  29.2942  29.2942
    29.9591  29.9591  30.9480  30.9480  31.6083  31.6083  32.2499  32.2499
    32.6982  32.6982  33.2392  33.2392  34.5453  34.5453  35.3329  35.3329
    36.0664  36.0664  36.8272  36.8272  37.6106  37.6106  38.1479  38.1479
    38.4752  38.4752  39.0148  39.0148  39.7046  39.7046  40.2784  40.2784
    41.0209  41.0209  41.3580  41.3581  41.7110  41.7111  42.0568  42.0570
    42.5640  42.5652

          k =-0.4330 0.2222-0.2291 (  5568 PWs)   bands (ev):

   -88.9108 -88.9108 -88.9075 -88.9075 -88.7927 -88.7927 -88.7721 -88.7721
   -47.7912 -47.7912 -47.7598 -47.7598 -47.7596 -47.7596 -47.7578 -47.7578
   -47.7198 -47.7198 -47.7186 -47.7186 -47.6526 -47.6526 -47.6472 -47.6472
   -47.6370 -47.6370 -47.6355 -47.6355 -47.6119 -47.6119 -47.6105 -47.6105
    -7.5350  -7.5350  -7.5188  -7.5188   8.9573   8.9573   8.9932   8.9932
     9.0710   9.0710   9.3326   9.3326   9.3399   9.3399   9.4819   9.4819
     9.5064   9.5064   9.6006   9.6006   9.6147   9.6147   9.7693   9.7693
     9.8638   9.8638   9.9293   9.9293  10.0001  10.0001  10.1306  10.1306
    10.1702  10.1702  10.1892  10.1892  10.2463  10.2463  10.3313  10.3313
    10.4512  10.4512  10.6619  10.6619  11.5192  11.5192  11.7281  11.7281
    12.2670  12.2670  12.6399  12.6399  12.9368  12.9368  13.2122  13.2122
    21.4018  21.4018  21.7860  21.7860  23.3478  23.3478  23.6141  23.6141
    27.7468  27.7468  27.8869  27.8869  28.6403  28.6403  28.6532  28.6532
    29.4279  29.4279  31.0402  31.0402  31.6873  31.6873  32.3137  32.3137
    32.4491  32.4491  33.3141  33.3141  34.6787  34.6787  35.0358  35.0358
    36.2568  36.2568  36.4586  36.4586  37.8013  37.8013  38.0406  38.0406
    38.6922  38.6923  39.4614  39.4615  39.5469  39.5470  40.1824  40.1825
    40.8706  40.8706  41.2630  41.2631  41.4786  41.4787  42.2161  42.2162
    42.5950  42.6135

     the Fermi energy is    36.2067 ev

!    total energy              =   -3644.74635715 Ry
     Harris-Foulkes estimate   =   -3644.74638925 Ry
     estimated scf accuracy    <       0.00003638 Ry

     The total energy is the sum of the following terms:

     one-electron contribution =    -810.20915096 Ry
     hartree contribution      =     581.83352339 Ry
     xc contribution           =    -307.88469565 Ry
     ewald contribution        =   -3108.07630452 Ry
     smearing contrib. (-TS)   =      -0.40972941 Ry

     convergence has been achieved in  12 iterations

     Forces acting on atoms (Ry/au):

     atom    1 type  1   force =     0.00000000   -0.01269931   -0.01314368
     atom    2 type  1   force =     0.00000000    0.01269931    0.01314368
     atom    3 type  1   force =     0.00000000   -0.01269931    0.01314368
     atom    4 type  1   force =     0.00000000    0.01269931   -0.01314368
     atom    5 type  1   force =     0.00000000    0.06253574   -0.03405617
     atom    6 type  1   force =     0.00000000   -0.06253574    0.03405617
     atom    7 type  1   force =     0.00000000    0.06253574    0.03405617
     atom    8 type  1   force =     0.00000000   -0.06253574   -0.03405617
     atom    9 type  2   force =     0.00000000   -0.08177209    0.01854672
     atom   10 type  2   force =     0.00000000    0.08177209   -0.01854672
     atom   11 type  2   force =     0.00000000   -0.08177209   -0.01854672
     atom   12 type  2   force =     0.00000000    0.08177209    0.01854672

     Total force =     0.223027     Total SCF correction =     0.007617


     entering subroutine stress ...

          total   stress  (Ry/bohr**3)                   (kbar)     P= 1271.66
   0.00874798   0.00000000   0.00000000       1286.87      0.00      0.00
   0.00000000   0.00845115   0.00000000          0.00   1243.21      0.00
   0.00000000   0.00000000   0.00873466          0.00      0.00   1284.91


     Writing output data file Prototype-La-oP12-Co2Si.save
 
     init_run     :      4.84s CPU      5.94s WALL (       2 calls)
     electrons    :   2641.08s CPU   3465.73s WALL (       5 calls)
     update_pot   :      1.90s CPU      1.93s WALL (       3 calls)
     forces       :      4.98s CPU      5.30s WALL (       5 calls)
     stress       :     13.86s CPU     14.15s WALL (       5 calls)

     Called by init_run:
     wfcinit      :      3.88s CPU      4.96s WALL (       2 calls)
     potinit      :      0.42s CPU      0.42s WALL (       2 calls)

     Called by electrons:
     c_bands      :   2583.47s CPU   3370.59s WALL (      56 calls)
     sum_band     :     56.02s CPU     77.80s WALL (      56 calls)
     v_of_rho     :      0.10s CPU      0.14s WALL (      61 calls)
     mix_rho      :      0.20s CPU      0.25s WALL (      56 calls)

     Called by c_bands:
     init_us_2    :      1.62s CPU      1.98s WALL (    1488 calls)
     ccgdiagg     :   2402.69s CPU   3111.84s WALL (     845 calls)
     wfcrot       :    182.94s CPU    259.76s WALL (     857 calls)

     Called by *cgdiagg:
     h_psi        :   1507.77s CPU   1990.45s WALL (  761112 calls)
     cdiaghg      :     10.54s CPU     13.28s WALL (     857 calls)

     Called by h_psi:
     add_vuspsi   :    214.15s CPU    244.95s WALL (  761112 calls)

     General routines
     calbec       :    691.64s CPU    853.43s WALL ( 1521487 calls)
     fft          :      0.25s CPU      0.35s WALL (     267 calls)
     fftw         :    880.79s CPU   1204.82s WALL ( 1868866 calls)
     davcio       :      1.05s CPU      3.98s WALL (    2160 calls)
 
     Parallel routines
     fft_scatter  :    575.83s CPU    825.09s WALL ( 1869133 calls)
 
     PWSCF        : 44m27.08s CPU    58m15.03s WALL

 
   This run was terminated on:  13:11:42  22Mar2018            

=------------------------------------------------------------------------------=
   JOB DONE.
=------------------------------------------------------------------------------=
