
     Program PWSCF v.5.0.2 starts on 22Mar2018 at 17:31: 4 

     This program is part of the open-source Quantum ESPRESSO suite
     for quantum simulation of materials; please cite
         "P. Giannozzi et al., J. Phys.:Condens. Matter 21 395502 (2009);
          URL http://www.quantum-espresso.org", 
     in publications or presentations arising from this work. More details at
     http://www.quantum-espresso.org/quote.php

     Parallel version (MPI), running on     4 processors
     R & G space division:  proc/nbgrp/npool/nimage =       4

     Current dimensions of program PWSCF are:
     Max number of different atomic species (ntypx) = 10
     Max number of k-points (npk) =  40000
     Max angular momentum in pseudopotentials (lmaxx) =  3
     Waiting for input...
     Reading input from standard input

     Subspace diagonalization in iterative solution of the eigenvalue problem:
     a serial algorithm will be used

 
     Parallelization info
     --------------------
     sticks:   dense  smooth     PW     G-vecs:    dense   smooth      PW
     Min         207     207     61                 7381     7381    1191
     Max         208     208     62                 7386     7386    1192
     Sum         829     829    247                29529    29529    4767
 


     bravais-lattice index     =            0
     lattice parameter (alat)  =       7.0151  a.u.
     unit-cell volume          =     862.2778 (a.u.)^3
     number of atoms/cell      =           12
     number of atomic types    =            2
     number of electrons       =       192.00
     number of Kohn-Sham states=          115
     kinetic-energy cutoff     =      40.0000  Ry
     charge density cutoff     =     160.0000  Ry
     convergence threshold     =      1.0E-04
     mixing beta               =       0.7000
     number of iterations used =            8  plain     mixing
     Exchange-correlation      = SLA-PZ-NOGX-NOGC ( 1 1 0 0 0)
     EXX-fraction              =        0.00
     nstep                     =           50


     celldm(1)=   7.015105  celldm(2)=   0.000000  celldm(3)=   0.000000
     celldm(4)=   0.000000  celldm(5)=   0.000000  celldm(6)=   0.000000

     crystal axes: (cart. coord. in units of alat)
               a(1) = (   1.000000   0.000000   0.000000 )  
               a(2) = (   0.000000   1.315963   0.000000 )  
               a(3) = (   0.000000   0.000000   1.898020 )  

     reciprocal axes: (cart. coord. in units 2 pi/alat)
               b(1) = (  1.000000  0.000000  0.000000 )  
               b(2) = (  0.000000  0.759900  0.000000 )  
               b(3) = (  0.000000  0.000000  0.526865 )  


     PseudoPot. # 1 for Nd read from file:
     /home/cwx6513/pp.La/Nd.UPF
     MD5 check sum: c66c5b6abe7b5840ced9b1e244e3bed6
     Pseudo is Norm-conserving, Zval = 14.0
     Generated in analytical, separable form
     Using radial grid of 1257 points,  6 beta functions with: 
                l(1) =   0
                l(2) =   0
                l(3) =   1
                l(4) =   1
                l(5) =   2
                l(6) =   3

     PseudoPot. # 2 for Dy read from file:
     /home/cwx6513/pp.La/Dy.UPF
     MD5 check sum: 9597327bec62616a94a14d07f3fd9936
     Pseudo is Norm-conserving, Zval = 20.0
     Generated in analytical, separable form
     Using radial grid of 1265 points,  6 beta functions with: 
                l(1) =   0
                l(2) =   0
                l(3) =   1
                l(4) =   1
                l(5) =   2
                l(6) =   3

     atomic species   valence    mass     pseudopotential
        Co            14.00    58.93320     Nd( 1.00)
        Si            20.00    28.08550     Dy( 1.00)

      8 Sym. Ops., with inversion, found ( 6 have fractional translation)



   Cartesian axes

     site n.     atom                  positions (alat units)
         1           Co  tau(   1) = (   0.7500000   1.0875135   0.8270358  )
         2           Co  tau(   2) = (   0.2500000   0.2284499   1.0709846  )
         3           Co  tau(   3) = (   0.7500000   0.4295318   0.1219744  )
         4           Co  tau(   4) = (   0.2500000   0.8864316   1.7760460  )
         5           Co  tau(   5) = (   0.2500000   0.7067855   0.5358966  )
         6           Co  tau(   6) = (   0.7500000   0.6091779   1.3621238  )
         7           Co  tau(   7) = (   0.2500000   0.0488038   0.4131136  )
         8           Co  tau(   8) = (   0.7500000   1.2671596   1.4849068  )
         9           Si  tau(   9) = (   0.2500000   0.2669484   1.6960710  )
        10           Si  tau(  10) = (   0.7500000   1.0490149   0.2019494  )
        11           Si  tau(  11) = (   0.2500000   0.9249301   1.1509596  )
        12           Si  tau(  12) = (   0.7500000   0.3910333   0.7470608  )

     number of k points=    12  gaussian smearing, width (Ry)=  0.1000
                       cart. coord. in units 2pi/alat
        k(    1) = (   0.0000000   0.0000000   0.0000000), wk =   0.0833333
        k(    2) = (   0.0000000   0.0000000   0.1317162), wk =   0.1666667
        k(    3) = (   0.0000000   0.0000000  -0.2634324), wk =   0.0833333
        k(    4) = (   0.0000000   0.2532999   0.0000000), wk =   0.1666667
        k(    5) = (   0.0000000   0.2532999   0.1317162), wk =   0.3333333
        k(    6) = (   0.0000000   0.2532999  -0.2634324), wk =   0.1666667
        k(    7) = (  -0.5000000   0.0000000   0.0000000), wk =   0.0833333
        k(    8) = (  -0.5000000   0.0000000   0.1317162), wk =   0.1666667
        k(    9) = (  -0.5000000   0.0000000  -0.2634324), wk =   0.0833333
        k(   10) = (  -0.5000000   0.2532999   0.0000000), wk =   0.1666667
        k(   11) = (  -0.5000000   0.2532999   0.1317162), wk =   0.3333333
        k(   12) = (  -0.5000000   0.2532999  -0.2634324), wk =   0.1666667

     Dense  grid:    29529 G-vectors     FFT dimensions: (  30,  40,  54)

     Largest allocated arrays     est. size (Mb)     dimensions
        Kohn-Sham Wavefunctions         1.62 Mb     (    922,  115)
        NL pseudopotentials             3.38 Mb     (    922,  240)
        Each V/rho on FFT grid          0.26 Mb     (  16800)
        Each G-vector array             0.06 Mb     (   7386)
        G-vector shells                 0.06 Mb     (   7386)
     Largest temporary arrays     est. size (Mb)     dimensions
        Each subspace H/S matrix        0.20 Mb     ( 115, 115)
        Each <psi_i|beta_j> matrix      0.42 Mb     (    240,  115)
        Arrays for rho mixing           2.05 Mb     (  16800,   8)

     Initial potential from superposition of free atoms

     Starting from uniform charge
     Starting wfc are    0 randomized atomic wfcs

     total cpu time spent up to now is        2.3 secs

     Self-consistent Calculation

     iteration #  1     ecut=    40.00 Ry     beta=0.70
     CG style diagonalization
     ethr =  1.00E-02,  avg # of iterations = 17.2

     total cpu time spent up to now is       46.1 secs

     total energy              =   -1267.03136946 Ry
     Harris-Foulkes estimate   =   -2219.61985234 Ry
     estimated scf accuracy    <    1158.19931294 Ry

     iteration #  2     ecut=    40.00 Ry     beta=0.70
     CG style diagonalization
     c_bands:  5 eigenvalues not converged
     c_bands:  5 eigenvalues not converged
     c_bands:  2 eigenvalues not converged
     c_bands:  3 eigenvalues not converged
     c_bands:  5 eigenvalues not converged
     c_bands:  5 eigenvalues not converged
     ethr =  1.00E-02,  avg # of iterations = 14.2

     total cpu time spent up to now is       83.9 secs

     total energy              =   -1685.35528244 Ry
     Harris-Foulkes estimate   =   -2419.17974243 Ry
     estimated scf accuracy    <    1399.41128820 Ry

     iteration #  3     ecut=    40.00 Ry     beta=0.70
     CG style diagonalization
     c_bands:  1 eigenvalues not converged
     c_bands:  1 eigenvalues not converged
     ethr =  1.00E-02,  avg # of iterations = 12.3

     total cpu time spent up to now is      116.8 secs

     total energy              =   -1901.98852349 Ry
     Harris-Foulkes estimate   =   -1935.16030963 Ry
     estimated scf accuracy    <      63.51791308 Ry

     iteration #  4     ecut=    40.00 Ry     beta=0.70
     CG style diagonalization
     ethr =  1.00E-02,  avg # of iterations =  4.3

     total cpu time spent up to now is      128.6 secs

     total energy              =   -1910.84169916 Ry
     Harris-Foulkes estimate   =   -1915.29477011 Ry
     estimated scf accuracy    <      10.11482719 Ry

     iteration #  5     ecut=    40.00 Ry     beta=0.70
     CG style diagonalization
     ethr =  5.27E-03,  avg # of iterations =  3.5

     total cpu time spent up to now is      138.4 secs

     total energy              =   -1911.81749540 Ry
     Harris-Foulkes estimate   =   -1912.58839090 Ry
     estimated scf accuracy    <       1.55368649 Ry

     iteration #  6     ecut=    40.00 Ry     beta=0.70
     CG style diagonalization
     c_bands:  1 eigenvalues not converged
     ethr =  8.09E-04,  avg # of iterations =  4.2

     total cpu time spent up to now is      149.7 secs

     total energy              =   -1912.13009408 Ry
     Harris-Foulkes estimate   =   -1912.29683876 Ry
     estimated scf accuracy    <       0.31356633 Ry

     iteration #  7     ecut=    40.00 Ry     beta=0.70
     CG style diagonalization
     c_bands:  1 eigenvalues not converged
     ethr =  1.63E-04,  avg # of iterations =  4.1

     total cpu time spent up to now is      160.2 secs

     total energy              =   -1912.24545447 Ry
     Harris-Foulkes estimate   =   -1912.27148568 Ry
     estimated scf accuracy    <       0.06650091 Ry

     iteration #  8     ecut=    40.00 Ry     beta=0.70
     CG style diagonalization
     c_bands:  1 eigenvalues not converged
     c_bands:  1 eigenvalues not converged
     ethr =  3.46E-05,  avg # of iterations =  3.9

     total cpu time spent up to now is      170.0 secs

     total energy              =   -1912.25081247 Ry
     Harris-Foulkes estimate   =   -1912.25950355 Ry
     estimated scf accuracy    <       0.01689474 Ry

     iteration #  9     ecut=    40.00 Ry     beta=0.70
     CG style diagonalization
     c_bands:  1 eigenvalues not converged
     c_bands:  1 eigenvalues not converged
     ethr =  8.80E-06,  avg # of iterations =  3.9

     total cpu time spent up to now is      180.0 secs

     total energy              =   -1912.25378332 Ry
     Harris-Foulkes estimate   =   -1912.25430519 Ry
     estimated scf accuracy    <       0.00083813 Ry

     iteration # 10     ecut=    40.00 Ry     beta=0.70
     CG style diagonalization
     c_bands:  1 eigenvalues not converged
     c_bands:  1 eigenvalues not converged
     c_bands:  1 eigenvalues not converged
     ethr =  4.37E-07,  avg # of iterations =  4.8

     total cpu time spent up to now is      192.9 secs

     total energy              =   -1912.25435179 Ry
     Harris-Foulkes estimate   =   -1912.25444877 Ry
     estimated scf accuracy    <       0.00017144 Ry

     iteration # 11     ecut=    40.00 Ry     beta=0.70
     CG style diagonalization
     c_bands:  1 eigenvalues not converged
     ethr =  8.93E-08,  avg # of iterations =  3.7

     total cpu time spent up to now is      201.9 secs

     End of self-consistent calculation

          k = 0.0000 0.0000 0.0000 (  3675 PWs)   bands (ev):

   -38.3986 -38.3763 -38.3750 -38.3727  -6.4987  -6.4970  -6.1700  -6.1447
    -6.1051  -6.0978  -6.0438  -5.9942  -5.9919  -5.8138  -5.6258  -5.5850
    -3.0536  -1.5927  -1.0662  -1.0092  -0.5786  -0.3141  -0.2545  -0.1276
    15.2595  16.0238  16.4636  16.9037  17.0859  17.1389  17.8380  18.0716
    18.6961  18.8506  18.8989  19.0220  19.1991  19.8346  20.2730  20.4293
    20.5525  20.7600  21.0007  21.5919  22.1525  22.5368  22.9829  23.4882
    31.0266  31.4602  32.1377  32.2702  32.3916  32.5032  32.6672  32.8753
    33.1902  33.7064  34.2772  34.3316  34.3376  35.5563  35.7184  35.8568
    35.9365  36.1273  36.7456  36.8533  37.2572  39.3864  40.1717  40.8467
    40.8519  41.6886  41.8192  41.9092  41.9593  42.4061  42.8231  42.8591
    43.0569  43.8963  44.1264  44.6593  44.6780  44.8838  44.9783  45.5574
    46.2836  46.7760  47.3084  47.3213  47.7738  47.9218  48.5645  49.3849
    50.1034  50.2098  50.3002  50.3145  50.8218  50.8665  51.9239  52.2533
    52.3106  52.8760  52.9177  52.9284  53.4692  53.8050  54.1255  54.1453
    55.2143  55.8137  56.3908

          k = 0.0000 0.0000 0.1317 (  3675 PWs)   bands (ev):

   -38.3973 -38.3814 -38.3751 -38.3698  -6.4808  -6.4156  -6.2271  -6.1516
    -6.1493  -6.1141  -6.0319  -6.0072  -5.9605  -5.8238  -5.6463  -5.6064
    -2.8485  -1.8581  -0.9844  -0.8352  -0.6346  -0.3463  -0.2616  -0.2018
    15.3441  15.9860  16.5203  16.8988  17.0357  17.3819  17.7544  18.0624
    18.7576  18.9240  18.9834  19.1779  19.2443  19.5177  19.9173  20.4396
    20.4951  21.1380  21.2511  21.3116  22.0508  22.1797  23.0330  23.4041
    30.9974  31.5158  31.9761  32.0249  32.4687  32.5421  32.8970  33.0231
    33.6375  33.6997  34.0628  34.3873  34.7641  35.3638  35.5851  35.6230
    36.0648  36.1423  36.5553  36.5851  37.8169  39.6566  40.5400  40.6870
    41.3822  41.8021  41.8416  41.9786  42.1976  42.4656  42.9807  43.0420
    43.0789  43.0945  43.7748  44.0642  44.5532  44.7960  45.4349  45.5037
    45.9256  46.4322  46.9455  47.6502  47.7496  48.3232  48.3596  48.6089
    48.6799  48.8287  50.3222  50.6849  50.8242  51.0095  52.0821  52.7462
    52.9330  52.9742  52.9790  53.1084  53.5754  53.7077  55.0128  55.1276
    55.1630  55.2346  55.9329

          k = 0.0000 0.0000-0.2634 (  3690 PWs)   bands (ev):

   -38.3910 -38.3910 -38.3771 -38.3771  -6.3838  -6.3838  -6.2799  -6.2799
    -6.1328  -6.1328  -6.0154  -6.0154  -5.8939  -5.8939  -5.6412  -5.6412
    -2.3681  -2.3681  -0.8071  -0.8071  -0.5334  -0.5334  -0.2675  -0.2675
    15.6128  15.6128  16.9423  16.9423  17.1333  17.1333  18.0146  18.0146
    18.6128  18.6128  19.1391  19.1391  19.4041  19.4041  20.3573  20.3573
    20.5599  20.5599  21.5808  21.5808  21.7205  21.7205  23.1983  23.1983
    31.2533  31.2533  31.6773  31.6773  32.6638  32.6638  33.2404  33.2404
    34.0976  34.0976  34.3262  34.3262  35.0472  35.0472  35.1423  35.1423
    36.0778  36.0778  36.3400  36.3400  38.9967  38.9967  41.4107  41.4107
    41.5449  41.5449  42.1488  42.1488  42.4443  42.4443  42.8732  42.8732
    42.9818  42.9818  43.7456  43.7456  44.6837  44.6837  45.1004  45.1004
    45.9075  45.9075  46.3186  46.3186  47.5467  47.5467  48.4992  48.4992
    49.2350  49.2350  50.2345  50.2345  51.4384  51.4384  52.1346  52.1347
    52.5116  52.5117  54.0104  54.0104  54.1100  54.1101  54.5059  54.5059
    54.9933  54.9934  56.4664

          k = 0.0000 0.2533 0.0000 (  3664 PWs)   bands (ev):

   -38.3966 -38.3835 -38.3693 -38.3610  -6.6365  -6.6339  -6.1371  -6.1309
    -6.0967  -6.0468  -6.0447  -6.0192  -5.9334  -5.8444  -5.6898  -5.6031
    -2.4433  -1.4351  -1.3436  -0.9039  -0.6024  -0.5581  -0.2042  -0.1133
    15.8694  16.6956  16.8961  17.0064  17.0656  17.0836  17.1734  17.6384
    18.2810  18.2926  18.5014  19.2836  19.3616  20.1508  20.5170  20.5320
    20.7162  20.9725  21.2063  21.2934  21.5872  21.6748  22.1860  22.2681
    31.6699  31.9693  32.1110  32.6797  33.2565  33.3470  33.3866  33.7240
    33.7357  33.7446  34.2257  34.6231  34.7365  35.1113  35.5663  36.3451
    36.4164  36.4555  36.5192  36.5871  37.5459  39.9541  40.1201  40.2602
    40.6996  40.8084  41.4021  42.0638  42.2055  42.4911  42.5702  43.0563
    43.2945  43.8511  44.0690  44.7335  44.7430  44.9410  45.4359  45.9514
    46.1261  46.3013  46.8687  46.8980  47.3470  47.8062  47.8089  48.1564
    49.1141  49.4080  49.6520  49.8019  50.1739  50.7254  51.7337  52.0371
    52.7607  52.7646  52.8504  53.1412  53.9942  54.1111  54.2294  54.5864
    54.9657  55.3135  55.8612

          k = 0.0000 0.2533 0.1317 (  3669 PWs)   bands (ev):

   -38.3943 -38.3831 -38.3707 -38.3692  -6.6173  -6.6085  -6.1806  -6.1244
    -6.1157  -6.1043  -6.0423  -6.0231  -5.9218  -5.8415  -5.6652  -5.6096
    -2.2924  -1.5384  -1.3315  -0.8856  -0.6464  -0.4972  -0.2352  -0.1795
    16.0096  16.5950  16.7301  16.9771  17.0999  17.2325  17.4825  17.7971
    18.2554  18.3992  18.5468  18.9848  19.4726  20.1356  20.3199  20.4133
    20.6433  20.8721  20.9928  21.4001  21.5149  21.7379  22.0947  22.3090
    31.7335  32.0060  32.3880  32.6176  33.1781  33.2341  33.4258  33.7317
    33.8208  33.8782  34.2700  34.6841  34.8071  35.1976  35.6134  35.9361
    36.1188  36.4865  36.4995  36.6139  38.0986  40.2427  40.4261  40.6718
    40.9126  41.2028  41.5853  41.6341  42.0022  42.3059  42.5853  42.5855
    43.3629  43.6508  43.7846  44.2374  44.5550  44.8302  45.0909  45.7356
    46.0410  46.5433  46.6102  46.8318  47.4204  47.9769  48.2636  48.6447
    48.6650  49.0527  49.5252  49.7745  50.3404  50.9809  51.4417  51.4498
    52.1191  52.3996  52.4314  53.1242  54.0553  54.5378  54.6770  55.4961
    55.5367  55.9323  55.9547

          k = 0.0000 0.2533-0.2634 (  3666 PWs)   bands (ev):

   -38.3872 -38.3872 -38.3705 -38.3705  -6.5808  -6.5808  -6.2090  -6.2090
    -6.1143  -6.1143  -6.0327  -6.0327  -5.8719  -5.8719  -5.6258  -5.6258
    -1.9275  -1.9275  -1.0911  -1.0911  -0.5129  -0.5129  -0.2713  -0.2713
    16.2944  16.2944  16.8336  16.8336  17.2601  17.2601  17.9662  17.9662
    18.1166  18.1166  18.8219  18.8219  19.8598  19.8598  20.1716  20.1716
    20.4364  20.4364  21.3075  21.3075  21.6453  21.6453  22.1847  22.1847
    32.1322  32.1322  32.1581  32.1581  33.3953  33.3953  33.5997  33.5997
    33.9337  33.9337  34.5812  34.5812  35.0482  35.0482  35.8322  35.8322
    35.9743  35.9743  36.5232  36.5232  39.3038  39.3038  40.8680  40.8680
    41.3031  41.3031  41.6693  41.6693  42.3249  42.3249  42.4314  42.4314
    43.5419  43.5419  43.6186  43.6186  44.3030  44.3030  45.2562  45.2562
    46.4941  46.4941  46.5527  46.5527  47.5826  47.5826  47.7728  47.7728
    48.6180  48.6180  50.5181  50.5181  50.5375  50.5375  51.4977  51.4977
    51.9659  51.9659  53.0484  53.0484  54.0262  54.0262  54.9833  54.9834
    55.9837  55.9843  56.2426

          k =-0.5000 0.0000 0.0000 (  3722 PWs)   bands (ev):

   -38.3942 -38.3942 -38.3818 -38.3818  -6.7154  -6.7154  -6.4972  -6.4972
    -6.1040  -6.1040  -6.0805  -6.0805  -5.7249  -5.7249  -5.7074  -5.7074
    -1.3978  -1.3978  -1.0282  -1.0282  -0.8869  -0.8869  -0.2613  -0.2613
    15.5471  15.5471  16.7318  16.7318  16.9312  16.9312  17.8494  17.8494
    17.9676  17.9676  19.8782  19.8782  20.0185  20.0185  20.5372  20.5372
    20.9975  20.9975  21.7182  21.7182  22.2700  22.2700  22.8855  22.8855
    32.0266  32.0266  32.9545  32.9545  33.3617  33.3617  33.3820  33.3820
    33.7425  33.7425  33.7589  33.7589  34.5462  34.5462  35.4312  35.4312
    35.6437  35.6437  35.9325  35.9325  37.8209  37.8209  39.0756  39.0756
    40.6504  40.6504  41.5995  41.5995  41.7157  41.7157  43.2935  43.2935
    44.1502  44.1502  44.5968  44.5968  44.8989  44.8989  45.7060  45.7060
    46.5319  46.5319  47.3923  47.3923  47.5375  47.5375  48.1526  48.1526
    48.3209  48.3209  50.2784  50.2784  50.6205  50.6205  51.0268  51.0269
    51.6446  51.6446  52.3632  52.3633  53.3387  53.3391  53.9382  53.9383
    54.7386  54.7390  54.8826

          k =-0.5000 0.0000 0.1317 (  3710 PWs)   bands (ev):

   -38.3925 -38.3925 -38.3779 -38.3779  -6.7603  -6.7603  -6.4397  -6.4397
    -6.1037  -6.1037  -6.0766  -6.0766  -5.7213  -5.7213  -5.7070  -5.7070
    -1.3933  -1.3933  -0.9969  -0.9969  -0.8800  -0.8800  -0.3174  -0.3174
    15.5581  15.5581  16.6314  16.6314  17.2887  17.2887  17.7526  17.7526
    18.3213  18.3213  19.5139  19.5139  19.7336  19.7336  20.2085  20.2085
    21.3003  21.3003  21.8504  21.8504  22.2121  22.2121  22.8664  22.8664
    32.0939  32.0939  32.7106  32.7106  33.1901  33.1901  33.5923  33.5923
    33.9228  33.9228  34.1414  34.1414  34.6331  34.6331  35.1946  35.1946
    35.3772  35.3772  35.9741  35.9741  38.1259  38.1259  39.7562  39.7562
    40.6937  40.6937  41.2780  41.2780  42.4262  42.4262  42.7322  42.7322
    43.3979  43.3979  44.2507  44.2507  44.8070  44.8070  45.3068  45.3068
    46.1378  46.1378  46.7087  46.7087  47.2842  47.2842  48.5104  48.5104
    49.6603  49.6603  50.6422  50.6422  50.7858  50.7858  51.1395  51.1396
    51.8103  51.8104  52.4453  52.4454  53.3868  53.3869  53.7340  53.7342
    54.3599  54.3601  54.6840

          k =-0.5000 0.0000-0.2634 (  3680 PWs)   bands (ev):

   -38.3835 -38.3835 -38.3742 -38.3742  -6.7873  -6.7873  -6.3950  -6.3950
    -6.0899  -6.0899  -6.0783  -6.0783  -5.7135  -5.7135  -5.7032  -5.7032
    -1.3835  -1.3835  -1.0038  -1.0038  -0.8238  -0.8238  -0.3878  -0.3878
    15.5531  15.5531  16.6800  16.6800  17.3894  17.3894  18.2437  18.2437
    18.2852  18.2852  19.2350  19.2350  19.4920  19.4920  19.7942  19.7942
    21.5317  21.5317  22.0244  22.0244  22.0791  22.0791  22.8455  22.8455
    32.2102  32.2102  32.4180  32.4180  33.3284  33.3284  33.5395  33.5395
    34.2971  34.2971  34.4901  34.4901  34.4970  34.4970  35.0650  35.0650
    35.1522  35.1522  35.9293  35.9293  38.4929  38.4929  40.3143  40.3143
    40.9730  40.9730  41.6242  41.6242  42.0750  42.0750  42.6943  42.6943
    43.1833  43.1833  43.4442  43.4442  43.9403  43.9403  44.8250  44.8250
    45.8897  45.8897  46.3770  46.3770  48.5125  48.5125  48.5309  48.5309
    50.0872  50.0872  50.4767  50.4767  50.6554  50.6554  51.1606  51.1606
    52.4270  52.4271  53.0928  53.0929  53.4197  53.4199  53.4575  53.4577
    54.0727  54.0727  55.0540

          k =-0.5000 0.2533 0.0000 (  3686 PWs)   bands (ev):

   -38.3858 -38.3858 -38.3757 -38.3757  -6.6754  -6.6754  -6.5898  -6.5898
    -6.1507  -6.1507  -6.1088  -6.1088  -5.6808  -5.6808  -5.6654  -5.6654
    -1.2676  -1.2676  -1.0332  -1.0332  -0.6784  -0.6784  -0.4226  -0.4226
    16.0068  16.0068  16.2167  16.2167  17.1081  17.1081  18.3426  18.3426
    18.5016  18.5016  19.0785  19.0785  19.7785  19.7785  19.9624  19.9624
    21.2280  21.2280  21.4965  21.4965  21.9841  21.9841  22.2512  22.2512
    32.3498  32.3498  33.1425  33.1425  33.6363  33.6363  33.8068  33.8068
    34.1812  34.1812  34.1878  34.1878  35.1949  35.1949  35.3986  35.3986
    35.8063  35.8063  35.9274  35.9274  38.7392  38.7392  39.1948  39.1948
    41.0296  41.0296  41.4994  41.4994  42.4316  42.4316  43.2334  43.2334
    43.7973  43.7973  44.1442  44.1442  44.4313  44.4313  45.8020  45.8020
    45.8442  45.8442  46.6551  46.6551  47.2473  47.2473  48.1002  48.1002
    48.4710  48.4710  49.0516  49.0516  49.3718  49.3718  51.1776  51.1776
    51.4624  51.4624  51.9948  51.9949  52.9412  52.9413  53.9552  53.9554
    54.3897  54.3898  55.4143

          k =-0.5000 0.2533 0.1317 (  3692 PWs)   bands (ev):

   -38.3842 -38.3842 -38.3800 -38.3800  -6.7169  -6.7169  -6.5677  -6.5677
    -6.1381  -6.1381  -6.0975  -6.0975  -5.6893  -5.6893  -5.6641  -5.6641
    -1.2484  -1.2484  -0.9944  -0.9944  -0.6965  -0.6966  -0.4784  -0.4784
    16.1252  16.1252  16.4132  16.4132  17.2176  17.2176  17.7980  17.7980
    18.3263  18.3263  19.2609  19.2609  19.8336  19.8336  20.2592  20.2592
    21.1176  21.1176  21.5760  21.5760  21.7236  21.7236  22.1897  22.1897
    32.3330  32.3330  32.9503  32.9503  33.5822  33.5822  33.8371  33.8371
    34.3312  34.3312  34.5364  34.5364  35.2177  35.2177  35.4510  35.4510
    35.6859  35.6859  35.9973  35.9973  39.0425  39.0425  39.7538  39.7538
    40.9611  40.9611  41.5635  41.5635  42.1888  42.1888  42.5934  42.5934
    43.6934  43.6934  44.0249  44.0249  44.6434  44.6434  44.9795  44.9795
    46.0069  46.0069  46.4892  46.4892  47.1306  47.1306  47.9109  47.9109
    48.2565  48.2565  49.1546  49.1546  50.1711  50.1711  50.5965  50.5965
    51.5345  51.5345  52.1646  52.1647  52.7289  52.7290  53.7489  53.7494
    55.0363  55.0367  55.3863

          k =-0.5000 0.2533-0.2634 (  3704 PWs)   bands (ev):

   -38.3869 -38.3869 -38.3829 -38.3829  -6.7503  -6.7503  -6.5615  -6.5615
    -6.1163  -6.1163  -6.0941  -6.0941  -5.6911  -5.6911  -5.6705  -5.6705
    -1.2255  -1.2255  -0.9580  -0.9580  -0.6949  -0.6949  -0.5569  -0.5569
    16.2298  16.2298  16.7854  16.7854  17.2955  17.2955  17.5749  17.5749
    17.7418  17.7418  19.3709  19.3709  20.1158  20.1158  20.4359  20.4359
    21.0987  21.0987  21.2102  21.2102  21.8246  21.8246  22.0427  22.0427
    32.3366  32.3366  32.7435  32.7435  33.6514  33.6514  33.8008  33.8008
    34.4588  34.4588  34.8137  34.8137  35.3377  35.3377  35.4079  35.4079
    35.6615  35.6615  36.0384  36.0384  39.5442  39.5442  40.3305  40.3305
    40.9161  40.9161  41.4145  41.4145  41.6185  41.6185  42.5608  42.5608
    43.2148  43.2148  44.0214  44.0214  44.3027  44.3027  45.1455  45.1455
    45.5251  45.5251  46.7563  46.7563  46.9657  46.9657  47.8734  47.8734
    48.0444  48.0444  48.8498  48.8498  49.7892  49.7892  50.9289  50.9290
    51.8272  51.8273  52.5516  52.5517  52.8319  52.8320  53.6175  53.6178
    54.8894  54.8895  55.5986

     the Fermi energy is    48.5301 ev

!    total energy              =   -1912.25439415 Ry
     Harris-Foulkes estimate   =   -1912.25439487 Ry
     estimated scf accuracy    <       0.00000099 Ry

     The total energy is the sum of the following terms:

     one-electron contribution =     331.83175257 Ry
     hartree contribution      =     133.81662030 Ry
     xc contribution           =    -217.29433572 Ry
     ewald contribution        =   -2160.24286413 Ry
     smearing contrib. (-TS)   =      -0.36556717 Ry

     convergence has been achieved in  11 iterations

     Forces acting on atoms (Ry/au):

     atom    1 type  1   force =     0.00000000   -0.07143521   -0.03983622
     atom    2 type  1   force =     0.00000000    0.07143521    0.03983622
     atom    3 type  1   force =     0.00000000   -0.07143521    0.03983622
     atom    4 type  1   force =     0.00000000    0.07143521   -0.03983622
     atom    5 type  1   force =     0.00000000    0.19199350   -0.30101216
     atom    6 type  1   force =     0.00000000   -0.19199350    0.30101216
     atom    7 type  1   force =     0.00000000    0.19199350    0.30101216
     atom    8 type  1   force =     0.00000000   -0.19199350   -0.30101216
     atom    9 type  2   force =     0.00000000   -0.17965906   -0.01923706
     atom   10 type  2   force =     0.00000000    0.17965906    0.01923706
     atom   11 type  2   force =     0.00000000   -0.17965906    0.01923706
     atom   12 type  2   force =     0.00000000    0.17965906   -0.01923706

     Total force =     0.816841     Total SCF correction =     0.000000


     entering subroutine stress ...

          total   stress  (Ry/bohr**3)                   (kbar)     P= 6779.47
   0.04988352   0.00000000   0.00000000       7338.12      0.00      0.00
   0.00000000   0.04311885   0.00000000          0.00   6343.00      0.00
   0.00000000   0.00000000   0.04525536          0.00      0.00   6657.29


     BFGS Geometry Optimization

     number of scf cycles    =   1
     number of bfgs steps    =   0

     enthalpy new            =   -1912.2543941484 Ry

     new trust radius        =       0.5000000000 bohr
     new conv_thr            =       0.0001000000 Ry

     new unit-cell volume =   1082.13680 a.u.^3 (   160.35613 Ang^3 )

CELL_PARAMETERS (alat=  7.01510508)
   1.085136619   0.000000000   0.000000000
   0.000000000   1.412806842   0.000000000
   0.000000000   0.000000000   2.044619111

ATOMIC_POSITIONS (crystal)
Co       0.750000000   0.825872733   0.435531750
Co       0.250000000   0.174127267   0.564468250
Co       0.750000000   0.325872733   0.064468250
Co       0.250000000   0.674127267   0.935531750
Co       0.250000000   0.538505802   0.280801636
Co       0.750000000   0.461494198   0.719198364
Co       0.250000000   0.038505802   0.219198364
Co       0.750000000   0.961494198   0.780801636
Si       0.250000000   0.201525412   0.893501367
Si       0.750000000   0.798474588   0.106498633
Si       0.250000000   0.701525412   0.606498633
Si       0.750000000   0.298474588   0.393501367



     Writing output data file Prototype-La-oP12-Co2Si.save
     NEW-OLD atomic charge density approx. for the potential
     NEW k-points:
        k(    1) = (   0.0000000   0.0000000   0.0000000), wk =   0.0833333
        k(    2) = (   0.0000000   0.0000000   0.1222722), wk =   0.1666667
        k(    3) = (   0.0000000   0.0000000  -0.2445443), wk =   0.0833333
        k(    4) = (   0.0000000   0.2359369   0.0000000), wk =   0.1666667
        k(    5) = (   0.0000000   0.2359369   0.1222722), wk =   0.3333333
        k(    6) = (   0.0000000   0.2359369  -0.2445443), wk =   0.1666667
        k(    7) = (  -0.4607715   0.0000000   0.0000000), wk =   0.0833333
        k(    8) = (  -0.4607715   0.0000000   0.1222722), wk =   0.1666667
        k(    9) = (  -0.4607715   0.0000000  -0.2445443), wk =   0.0833333
        k(   10) = (  -0.4607715   0.2359369   0.0000000), wk =   0.1666667
        k(   11) = (  -0.4607715   0.2359369   0.1222722), wk =   0.3333333
        k(   12) = (  -0.4607715   0.2359369  -0.2445443), wk =   0.1666667

     total cpu time spent up to now is      205.7 secs

     Self-consistent Calculation

     iteration #  1     ecut=    40.00 Ry     beta=0.70
     CG style diagonalization
     c_bands:  2 eigenvalues not converged
     c_bands:  1 eigenvalues not converged
     c_bands:  1 eigenvalues not converged
     c_bands:  1 eigenvalues not converged
     ethr =  1.00E-06,  avg # of iterations = 20.1

     total cpu time spent up to now is      262.5 secs

     total energy              =   -1912.95885909 Ry
     Harris-Foulkes estimate   =   -1927.28847605 Ry
     estimated scf accuracy    <      18.64280951 Ry

     iteration #  2     ecut=    40.00 Ry     beta=0.70
     CG style diagonalization
     ethr =  9.71E-03,  avg # of iterations =  3.6

     total cpu time spent up to now is      272.9 secs

     total energy              =   -1916.41946688 Ry
     Harris-Foulkes estimate   =   -1920.47735476 Ry
     estimated scf accuracy    <       6.12449834 Ry

     iteration #  3     ecut=    40.00 Ry     beta=0.70
     CG style diagonalization
     ethr =  3.19E-03,  avg # of iterations =  3.6

     total cpu time spent up to now is      283.8 secs

     total energy              =   -1918.57685499 Ry
     Harris-Foulkes estimate   =   -1919.12031565 Ry
     estimated scf accuracy    <       1.03948485 Ry

     iteration #  4     ecut=    40.00 Ry     beta=0.70
     CG style diagonalization
     ethr =  5.41E-04,  avg # of iterations =  3.5

     total cpu time spent up to now is      293.5 secs

     total energy              =   -1918.75930530 Ry
     Harris-Foulkes estimate   =   -1918.80902746 Ry
     estimated scf accuracy    <       0.11110945 Ry

     iteration #  5     ecut=    40.00 Ry     beta=0.70
     CG style diagonalization
     c_bands:  1 eigenvalues not converged
     ethr =  5.79E-05,  avg # of iterations =  3.7

     total cpu time spent up to now is      303.2 secs

     total energy              =   -1918.77783026 Ry
     Harris-Foulkes estimate   =   -1918.78303549 Ry
     estimated scf accuracy    <       0.01069615 Ry

     iteration #  6     ecut=    40.00 Ry     beta=0.70
     CG style diagonalization
     ethr =  5.57E-06,  avg # of iterations =  4.0

     total cpu time spent up to now is      314.6 secs

     total energy              =   -1918.78040422 Ry
     Harris-Foulkes estimate   =   -1918.78185668 Ry
     estimated scf accuracy    <       0.00320816 Ry

     iteration #  7     ecut=    40.00 Ry     beta=0.70
     CG style diagonalization
     ethr =  1.67E-06,  avg # of iterations =  3.6

     total cpu time spent up to now is      325.1 secs

     total energy              =   -1918.78118521 Ry
     Harris-Foulkes estimate   =   -1918.78134966 Ry
     estimated scf accuracy    <       0.00035185 Ry

     iteration #  8     ecut=    40.00 Ry     beta=0.70
     CG style diagonalization
     ethr =  1.83E-07,  avg # of iterations =  3.5

     total cpu time spent up to now is      333.5 secs

     End of self-consistent calculation

          k = 0.0000 0.0000 0.0000 (  3675 PWs)   bands (ev):

   -46.7441 -46.7354 -46.7310 -46.7155 -14.2492 -14.2306 -14.1320 -14.1246
   -14.1180 -14.1060 -14.0870 -14.0520 -13.9921 -13.9330 -13.8707 -13.8387
   -11.2875 -10.6387 -10.2875 -10.2440 -10.0517  -9.9336  -9.9155  -9.8578
     8.0830   8.6602   8.8796   9.1313   9.3271   9.3477   9.8810   9.9953
    10.3286  10.4254  10.4696  10.6311  10.7695  11.0914  11.3744  11.4054
    11.5801  11.6537  11.7038  12.0943  12.2952  12.5806  12.9852  13.2253
    24.2804  24.4088  24.7774  24.9211  25.1459  25.1492  25.1847  25.2793
    25.6931  25.7989  26.0225  26.1297  26.3516  26.5291  27.0241  27.1189
    27.2206  27.2406  27.5475  27.5694  28.9407  28.9582  31.3998  31.4020
    31.5555  31.5984  32.6804  32.7741  33.3596  33.4575  33.4843  33.5430
    33.8780  33.9462  34.7330  34.7883  34.8329  35.0005  35.2843  35.6148
    36.6969  36.8676  36.9473  37.3708  37.4559  37.6235  38.3382  38.9221
    39.3572  39.3610  39.6439  39.8826  40.1357  40.1387  40.7406  41.4597
    41.5751  41.5926  41.6638  41.7218  42.3019  42.4475  43.6335  43.7942
    44.2005  45.0650  45.4030

          k = 0.0000 0.0000 0.1223 (  3675 PWs)   bands (ev):

   -46.7501 -46.7331 -46.7295 -46.7141 -14.2277 -14.2123 -14.1465 -14.1298
   -14.1146 -14.1144 -14.0806 -14.0679 -13.9808 -13.9489 -13.8679 -13.8533
   -11.2049 -10.7643 -10.2153 -10.2007 -10.0656  -9.9342  -9.9259  -9.8992
     8.1417   8.5472   8.9905   9.1463   9.2813   9.4727   9.6515  10.1571
    10.2541  10.5897  10.5937  10.6397  10.7607  11.0530  11.1698  11.3485
    11.4648  11.8743  11.8971  11.9330  12.2588  12.4192  13.0126  13.1844
    24.2597  24.4481  24.7951  24.8241  24.9637  25.1907  25.3433  25.4630
    25.6828  25.8431  26.1619  26.3304  26.4050  26.6050  26.7799  27.0492
    27.1647  27.2906  27.3269  27.3969  29.2686  29.3694  31.0168  31.2982
    31.6428  32.0666  32.7419  32.9324  33.2890  33.3096  33.6467  33.6567
    33.6695  33.9737  34.6044  34.6726  34.8677  35.0777  35.4786  35.5099
    35.6057  35.9841  36.6769  37.4911  37.8644  38.0850  38.2765  38.5094
    38.5218  38.6648  39.7024  39.8931  40.0277  40.7911  41.1267  41.2346
    41.6233  41.8966  41.9008  42.1519  42.5917  43.1728  43.5547  44.3320
    44.9160  45.1475  45.3455

          k = 0.0000 0.0000-0.2445 (  3690 PWs)   bands (ev):

   -46.7481 -46.7481 -46.7303 -46.7303 -14.2036 -14.2036 -14.1736 -14.1736
   -14.1118 -14.1118 -14.0707 -14.0707 -13.9730 -13.9730 -13.8705 -13.8705
   -10.9997 -10.9997 -10.1572 -10.1572 -10.0178 -10.0178  -9.9300  -9.9300
     8.3089   8.3089   9.1946   9.1946   9.3045   9.3045   9.8437   9.8437
    10.5018  10.5018  10.7602  10.7602  10.7722  10.7722  11.3379  11.3379
    11.5058  11.5058  12.1138  12.1138  12.1249  12.1249  13.0904  13.0904
    24.4062  24.4062  24.5672  24.5672  25.1354  25.1354  25.5753  25.5753
    26.1214  26.1214  26.2603  26.2603  26.6024  26.6024  26.6080  26.6080
    27.1502  27.1502  27.1819  27.1819  29.9158  29.9158  30.6099  30.6099
    32.3375  32.3375  32.9675  32.9675  33.3747  33.3747  33.4662  33.4662
    34.1065  34.1065  34.3418  34.3418  34.6766  34.6766  35.1462  35.1462
    35.6959  35.6959  36.7160  36.7160  37.7820  37.7820  38.3975  38.3975
    38.6819  38.6819  39.5813  39.5813  40.6159  40.6159  41.2982  41.2982
    41.5390  41.5390  42.6021  42.6021  43.4840  43.4842  44.0136  44.0136
    44.6175  44.6176  45.6113

          k = 0.0000 0.2359 0.0000 (  3664 PWs)   bands (ev):

   -46.7474 -46.7442 -46.7116 -46.6929 -14.2957 -14.2906 -14.1223 -14.1062
   -14.0985 -14.0872 -14.0841 -14.0604 -13.9858 -13.9430 -13.8757 -13.8481
   -11.0127 -10.4985 -10.4753 -10.1904 -10.1237 -10.0725  -9.8625  -9.8368
     8.5603   9.1521   9.2354   9.2779   9.3897   9.3960   9.5004   9.6468
    10.0239  10.2427  10.2591  10.6220  10.7241  11.2670  11.4990  11.6103
    11.6789  11.7607  11.8409  11.8994  12.0748  12.1379  12.4050  12.4779
    24.7220  24.7985  24.9285  25.1433  25.4577  25.5945  25.7111  25.9510
    25.9569  26.0394  26.2070  26.2662  26.2886  26.7144  26.7974  27.2567
    27.2867  27.3347  27.3374  27.4091  29.1357  30.2436  31.4177  31.4969
    31.5014  32.0500  32.1144  32.3033  33.0082  33.1123  33.1781  33.5819
    33.8526  33.9137  34.0883  34.9477  35.0182  35.3433  35.7054  35.9748
    36.1088  36.1954  36.6176  36.9907  37.2248  37.5130  37.5431  37.8659
    38.5782  38.6007  39.1987  39.5241  39.8854  39.9496  40.5246  40.9207
    40.9955  41.6903  41.8248  42.0502  42.1293  42.3227  42.9787  43.2901
    43.9419  44.1699  45.6777

          k = 0.0000 0.2359 0.1223 (  3669 PWs)   bands (ev):

   -46.7428 -46.7376 -46.7223 -46.7087 -14.2921 -14.2858 -14.1232 -14.1123
   -14.1074 -14.0992 -14.0791 -14.0653 -13.9830 -13.9508 -13.8722 -13.8556
   -10.9448 -10.5842 -10.4479 -10.2106 -10.1172 -10.0207  -9.8810  -9.8655
     8.6230   9.0248   9.1723   9.3538   9.3692   9.3875   9.6318   9.8236
    10.0414  10.2059  10.3526  10.5014  10.7969  11.2907  11.4127  11.4717
    11.5528  11.6178  11.8186  11.9981  12.0436  12.2004  12.4062  12.4956
    24.7347  24.8021  25.0844  25.1541  25.4607  25.6580  25.6751  25.9533
    25.9690  25.9904  26.1367  26.2244  26.5046  26.7291  26.8958  27.0174
    27.1356  27.3054  27.3743  27.4251  29.5437  30.4529  31.4312  31.6882
    31.8325  31.9448  32.2117  32.4517  32.6405  32.8470  33.1170  33.6399
    33.6871  33.8340  34.0299  34.6837  34.8967  35.1836  35.3105  35.9863
    36.0304  36.3380  36.4732  36.7607  37.3722  37.6567  37.6958  38.2100
    38.2766  38.5257  38.9939  39.0352  39.5086  40.0078  40.6021  40.7219
    40.8705  41.5620  41.5857  42.0160  42.3489  43.3885  43.8742  43.9085
    43.9625  44.5432  45.2837

          k = 0.0000 0.2359-0.2445 (  3666 PWs)   bands (ev):

   -46.7337 -46.7337 -46.7193 -46.7193 -14.2778 -14.2778 -14.1272 -14.1272
   -14.1070 -14.1070 -14.0749 -14.0749 -13.9616 -13.9616 -13.8621 -13.8621
   -10.7754 -10.7754 -10.3370 -10.3370 -10.0163 -10.0163  -9.9062  -9.9062
     8.7957   8.7957   9.2452   9.2452   9.4230   9.4230   9.8841   9.8841
    10.0448  10.0448  10.4901  10.4901  11.0635  11.0635  11.3498  11.3498
    11.4009  11.4009  11.9573  11.9573  12.1488  12.1488  12.4603  12.4603
    24.8897  24.8897  24.9397  24.9397  25.7422  25.7422  25.8451  25.8451
    25.9441  25.9441  26.3053  26.3053  26.4964  26.4964  26.9427  26.9427
    27.1970  27.1970  27.3400  27.3400  30.4269  30.4269  31.2044  31.2044
    32.3452  32.3452  32.3673  32.3673  32.7963  32.7963  32.9294  32.9294
    33.9567  33.9567  34.3836  34.3836  34.5186  34.5186  35.5354  35.5354
    36.3666  36.3666  36.5251  36.5251  37.2961  37.2961  37.4474  37.4474
    38.2465  38.2465  39.5869  39.5869  39.9757  39.9757  40.3561  40.3561
    41.2390  41.2390  41.8842  41.8842  42.6378  42.6379  44.0504  44.0504
    45.1201  45.1202  46.0636

          k =-0.4608 0.0000 0.0000 (  3722 PWs)   bands (ev):

   -46.7600 -46.7600 -46.7590 -46.7590 -14.3411 -14.3411 -14.2616 -14.2616
   -14.1141 -14.1141 -14.0977 -14.0977 -13.9107 -13.9107 -13.8984 -13.8984
   -10.5937 -10.5937 -10.2587 -10.2587 -10.1811 -10.1811  -9.9127  -9.9127
     8.2773   8.2773   8.9674   8.9674   9.1718   9.1718   9.8150   9.8150
     9.8674   9.8674  10.9813  10.9813  11.1226  11.1226  11.4786  11.4786
    11.8351  11.8351  12.2271  12.2271  12.4621  12.4621  12.9578  12.9578
    24.7497  24.7497  25.3894  25.3894  25.5447  25.5447  25.5873  25.5873
    25.6384  25.6384  25.6689  25.6689  26.1187  26.1187  26.8199  26.8199
    27.0945  27.0945  27.1799  27.1799  29.2167  29.2167  30.7321  30.7321
    31.9543  31.9543  32.6390  32.6390  32.9551  32.9551  34.0576  34.0576
    34.8875  34.8875  35.2931  35.2931  35.7646  35.7646  36.2819  36.2819
    36.2979  36.2979  36.9786  36.9786  37.1525  37.1525  37.3272  37.3272
    37.9314  37.9314  39.4922  39.4922  39.7734  39.7734  40.1671  40.1671
    40.4374  40.4374  42.2330  42.2330  42.4421  42.4422  42.9001  42.9002
    43.3481  43.3481  43.6030

          k =-0.4608 0.0000 0.1223 (  3710 PWs)   bands (ev):

   -46.7552 -46.7552 -46.7492 -46.7492 -14.3545 -14.3545 -14.2340 -14.2340
   -14.1087 -14.1087 -14.0948 -14.0948 -13.9094 -13.9094 -13.8981 -13.8981
   -10.5809 -10.5809 -10.2547 -10.2547 -10.1807 -10.1807  -9.9307  -9.9307
     8.2665   8.2665   8.9000   8.9000   9.4269   9.4269   9.6566   9.6566
    10.1358  10.1358  10.8319  10.8319  10.9213  10.9213  11.3591  11.3591
    12.0100  12.0100  12.2484  12.2484  12.4410  12.4410  12.9499  12.9499
    24.8076  24.8076  25.2070  25.2070  25.4542  25.4542  25.5827  25.5827
    25.7831  25.7831  26.0110  26.0110  26.1813  26.1813  26.6560  26.6560
    26.8458  26.8458  27.2861  27.2861  29.3945  29.3945  31.1112  31.1112
    32.0198  32.0198  32.6402  32.6402  33.2602  33.2602  34.0113  34.0113
    34.1913  34.1913  34.9206  34.9206  35.3540  35.3540  35.5181  35.5181
    36.0341  36.0341  36.4639  36.4639  37.1705  37.1705  38.4704  38.4704
    39.1185  39.1185  39.2532  39.2532  39.9169  39.9169  40.3232  40.3232
    40.5737  40.5738  41.9902  41.9902  42.2507  42.2508  42.5198  42.5198
    42.9342  42.9344  44.6490

          k =-0.4608 0.0000-0.2445 (  3680 PWs)   bands (ev):

   -46.7390 -46.7390 -46.7315 -46.7315 -14.3533 -14.3533 -14.2097 -14.2097
   -14.0963 -14.0963 -14.0880 -14.0880 -13.9017 -13.9017 -13.8939 -13.8939
   -10.5669 -10.5669 -10.2575 -10.2575 -10.1707 -10.1707  -9.9515  -9.9515
     8.2482   8.2482   8.9039   8.9039   9.4871   9.4871   9.9303   9.9303
    10.1092  10.1092  10.7056  10.7056  10.7998  10.7998  11.1736  11.1736
    12.1786  12.1786  12.3120  12.3120  12.3592  12.3592  12.9491  12.9491
    24.8836  24.8836  25.0299  25.0299  25.5056  25.5056  25.5713  25.5713
    26.0314  26.0314  26.1509  26.1509  26.2736  26.2736  26.4646  26.4646
    26.6430  26.6430  27.3020  27.3020  29.5853  29.5853  31.5748  31.5748
    32.0398  32.0398  32.9875  32.9875  33.6264  33.6264  33.7053  33.7053
    33.7850  33.7850  34.0306  34.0306  34.5578  34.5578  35.5806  35.5806
    35.7924  35.7924  36.2829  36.2829  37.9301  37.9301  38.0410  38.0410
    39.7448  39.7448  39.9823  39.9823  40.0560  40.0560  40.3999  40.3999
    40.5853  40.5853  41.2772  41.2773  41.9605  41.9605  42.8967  42.8967
    43.1850  43.1850  44.7315

          k =-0.4608 0.2359 0.0000 (  3686 PWs)   bands (ev):

   -46.7465 -46.7465 -46.7357 -46.7357 -14.3252 -14.3252 -14.2910 -14.2910
   -14.1146 -14.1146 -14.1031 -14.1031 -13.8851 -13.8851 -13.8788 -13.8788
   -10.4767 -10.4767 -10.2835 -10.2835 -10.1146 -10.1146 -10.0081 -10.0081
     8.6383   8.6383   8.8114   8.8114   9.2075   9.2075  10.1118  10.1118
    10.1646  10.1646  10.6426  10.6426  11.0150  11.0150  11.1032  11.1032
    11.9782  11.9782  12.0721  12.0721  12.3359  12.3359  12.5087  12.5087
    25.0280  25.0280  25.4714  25.4714  25.6680  25.6680  25.7537  25.7537
    25.9517  25.9517  26.1292  26.1292  26.6405  26.6405  26.7769  26.7769
    27.1003  27.1003  27.1865  27.1865  30.0303  30.0303  30.7342  30.7342
    32.4066  32.4066  32.6661  32.6661  33.2398  33.2398  34.0031  34.0031
    34.2574  34.2574  34.5926  34.5926  35.0054  35.0054  35.8278  35.8278
    35.9033  35.9033  36.5855  36.5855  37.1585  37.1585  37.6900  37.6900
    38.0235  38.0235  38.6435  38.6435  38.8108  38.8108  40.3289  40.3289
    40.6940  40.6940  41.1422  41.1422  41.2841  41.2841  42.4057  42.4057
    44.5937  44.5938  44.9267

          k =-0.4608 0.2359 0.1223 (  3692 PWs)   bands (ev):

   -46.7537 -46.7537 -46.7344 -46.7344 -14.3361 -14.3361 -14.2820 -14.2820
   -14.1150 -14.1150 -14.1019 -14.1019 -13.8962 -13.8962 -13.8768 -13.8768
   -10.4620 -10.4620 -10.2661 -10.2661 -10.1252 -10.1252 -10.0314 -10.0314
     8.6701   8.6701   8.9201   8.9201   9.3214   9.3214   9.7166   9.7166
    10.1205  10.1205  10.6890  10.6890  11.0816  11.0816  11.3415  11.3415
    11.8906  11.8906  12.0929  12.0929  12.2227  12.2227  12.4779  12.4779
    25.0418  25.0418  25.4150  25.4150  25.6070  25.6070  25.7767  25.7767
    26.1005  26.1005  26.1767  26.1767  26.6348  26.6348  26.7654  26.7654
    27.0932  27.0932  27.2088  27.2088  30.2135  30.2135  31.0811  31.0811
    32.4189  32.4189  32.8297  32.8297  33.1903  33.1903  33.4402  33.4402
    34.1863  34.1863  34.2820  34.2820  34.9286  34.9286  35.2314  35.2314
    36.2274  36.2274  36.5242  36.5242  37.0356  37.0356  37.7054  37.7054
    38.0030  38.0030  38.6559  38.6559  39.3776  39.3776  39.8878  39.8878
    40.8684  40.8685  41.0531  41.0531  41.6896  41.6897  42.2919  42.2919
    44.4520  44.4523  45.0304

          k =-0.4608 0.2359-0.2445 (  3704 PWs)   bands (ev):

   -46.7636 -46.7636 -46.7384 -46.7384 -14.3512 -14.3512 -14.2810 -14.2810
   -14.1137 -14.1137 -14.1010 -14.1010 -13.8971 -13.8971 -13.8869 -13.8869
   -10.4463 -10.4463 -10.2488 -10.2488 -10.1301 -10.1301 -10.0624 -10.0624
     8.6903   8.6903   9.1493   9.1493   9.3655   9.3655   9.6341   9.6341
     9.7155   9.7155  10.7563  10.7563  11.2597  11.2597  11.5164  11.5164
    11.8401  11.8401  11.8856  11.8856  12.2778  12.2778  12.4019  12.4019
    25.0720  25.0720  25.2990  25.2990  25.6199  25.6199  25.8012  25.8012
    26.1445  26.1445  26.3101  26.3101  26.6690  26.6690  26.6782  26.6782
    27.1539  27.1539  27.1964  27.1964  30.4565  30.4565  31.5440  31.5440
    32.4755  32.4755  32.8210  32.8210  32.8440  32.8440  33.2616  33.2616
    33.4671  33.4671  34.4792  34.4792  34.8081  34.8081  35.5718  35.5718
    35.6845  35.6845  36.5269  36.5269  36.8640  36.8640  37.8749  37.8749
    37.8903  37.8903  38.5035  38.5035  39.2440  39.2440  40.3837  40.3837
    40.8091  40.8092  41.4148  41.4148  41.9442  41.9444  42.0275  42.0276
    44.4419  44.4419  45.1756

     the Fermi energy is    38.1848 ev

!    total energy              =   -1918.78120818 Ry
     Harris-Foulkes estimate   =   -1918.78125217 Ry
     estimated scf accuracy    <       0.00004781 Ry

     The total energy is the sum of the following terms:

     one-electron contribution =     123.68186122 Ry
     hartree contribution      =     171.38342171 Ry
     xc contribution           =    -210.04700602 Ry
     ewald contribution        =   -2003.35857574 Ry
     smearing contrib. (-TS)   =      -0.44090934 Ry

     convergence has been achieved in   8 iterations

     Forces acting on atoms (Ry/au):

     atom    1 type  1   force =     0.00000000   -0.05486190   -0.00886147
     atom    2 type  1   force =     0.00000000    0.05486190    0.00886147
     atom    3 type  1   force =     0.00000000   -0.05486190    0.00886147
     atom    4 type  1   force =     0.00000000    0.05486190   -0.00886147
     atom    5 type  1   force =     0.00000000    0.11811194   -0.16767781
     atom    6 type  1   force =     0.00000000   -0.11811194    0.16767781
     atom    7 type  1   force =     0.00000000    0.11811194    0.16767781
     atom    8 type  1   force =     0.00000000   -0.11811194   -0.16767781
     atom    9 type  2   force =     0.00000000   -0.10217102    0.00708691
     atom   10 type  2   force =     0.00000000    0.10217102   -0.00708691
     atom   11 type  2   force =     0.00000000   -0.10217102   -0.00708691
     atom   12 type  2   force =     0.00000000    0.10217102    0.00708691

     Total force =     0.471779     Total SCF correction =     0.000000


     entering subroutine stress ...

          total   stress  (Ry/bohr**3)                   (kbar)     P= 2449.59
   0.01821876   0.00000000   0.00000000       2680.07      0.00      0.00
   0.00000000   0.01514911   0.00000000          0.00   2228.51      0.00
   0.00000000   0.00000000   0.01658816          0.00      0.00   2440.20


     number of scf cycles    =   2
     number of bfgs steps    =   1

     enthalpy old            =   -1912.2543941484 Ry
     enthalpy new            =   -1918.7812081806 Ry

     CASE: enthalpy_new < enthalpy_old

     small trust_radius: resetting bfgs history

     new trust radius        =       2.9966074349 bohr
     new conv_thr            =       0.0001000000 Ry

     new unit-cell volume =   3072.05681 a.u.^3 (   455.23185 Ang^3 )

CELL_PARAMETERS (alat=  7.01510508)
   1.579382659   0.000000000   0.000000000
   0.000000000   1.947876176   0.000000000
   0.000000000   0.000000000   2.892530778

ATOMIC_POSITIONS (crystal)
Co       0.750000000   0.820337271   0.434913934
Co       0.250000000   0.179662729   0.565086066
Co       0.750000000   0.320337271   0.065086066
Co       0.250000000   0.679662729   0.934913934
Co       0.250000000   0.550423074   0.269111247
Co       0.750000000   0.449576926   0.730888753
Co       0.250000000   0.050423074   0.230888753
Co       0.750000000   0.949576926   0.769111247
Si       0.250000000   0.191216549   0.893995462
Si       0.750000000   0.808783451   0.106004538
Si       0.250000000   0.691216549   0.606004538
Si       0.750000000   0.308783451   0.393995462



     Writing output data file Prototype-La-oP12-Co2Si.save
     NEW-OLD atomic charge density approx. for the potential
     NEW k-points:
        k(    1) = (   0.0000000   0.0000000   0.0000000), wk =   0.0833333
        k(    2) = (   0.0000000   0.0000000   0.0864295), wk =   0.1666667
        k(    3) = (   0.0000000   0.0000000  -0.1728590), wk =   0.0833333
        k(    4) = (   0.0000000   0.1711266   0.0000000), wk =   0.1666667
        k(    5) = (   0.0000000   0.1711266   0.0864295), wk =   0.3333333
        k(    6) = (   0.0000000   0.1711266  -0.1728590), wk =   0.1666667
        k(    7) = (  -0.3165794   0.0000000   0.0000000), wk =   0.0833333
        k(    8) = (  -0.3165794   0.0000000   0.0864295), wk =   0.1666667
        k(    9) = (  -0.3165794   0.0000000  -0.1728590), wk =   0.0833333
        k(   10) = (  -0.3165794   0.1711266   0.0000000), wk =   0.1666667
        k(   11) = (  -0.3165794   0.1711266   0.0864295), wk =   0.3333333
        k(   12) = (  -0.3165794   0.1711266  -0.1728590), wk =   0.1666667

     total cpu time spent up to now is      337.5 secs

     Self-consistent Calculation

     iteration #  1     ecut=    40.00 Ry     beta=0.70
     CG style diagonalization
     c_bands:  2 eigenvalues not converged
     c_bands:  2 eigenvalues not converged
     c_bands:  1 eigenvalues not converged
     c_bands:  1 eigenvalues not converged
     c_bands:  2 eigenvalues not converged
     c_bands:  1 eigenvalues not converged
     c_bands:  1 eigenvalues not converged
     ethr =  1.00E-06,  avg # of iterations = 28.3

     total cpu time spent up to now is      417.1 secs

     total energy              =   -1816.05926485 Ry
     Harris-Foulkes estimate   =   -2081.78313022 Ry
     estimated scf accuracy    <     346.74612759 Ry

     iteration #  2     ecut=    40.00 Ry     beta=0.70
     CG style diagonalization
     ethr =  1.00E-02,  avg # of iterations =  6.2

     total cpu time spent up to now is      436.0 secs

     total energy              =   -1863.46951235 Ry
     Harris-Foulkes estimate   =   -1943.99581692 Ry
     estimated scf accuracy    <     118.88633844 Ry

     iteration #  3     ecut=    40.00 Ry     beta=0.70
     CG style diagonalization
     c_bands:  1 eigenvalues not converged
     ethr =  1.00E-02,  avg # of iterations =  6.8

     total cpu time spent up to now is      459.3 secs

     total energy              =   -1896.01723276 Ry
     Harris-Foulkes estimate   =   -1939.55346408 Ry
     estimated scf accuracy    <     109.19628708 Ry

     iteration #  4     ecut=    40.00 Ry     beta=0.70
     CG style diagonalization
     ethr =  1.00E-02,  avg # of iterations =  4.5

     total cpu time spent up to now is      472.3 secs

     total energy              =   -1906.19276562 Ry
     Harris-Foulkes estimate   =   -1907.37831642 Ry
     estimated scf accuracy    <       7.67827299 Ry

     iteration #  5     ecut=    40.00 Ry     beta=0.70
     CG style diagonalization
     ethr =  4.00E-03,  avg # of iterations =  3.7

     total cpu time spent up to now is      482.9 secs

     total energy              =   -1905.40535306 Ry
     Harris-Foulkes estimate   =   -1906.83050904 Ry
     estimated scf accuracy    <       4.56588795 Ry

     iteration #  6     ecut=    40.00 Ry     beta=0.70
     CG style diagonalization
     ethr =  2.38E-03,  avg # of iterations =  3.8

     total cpu time spent up to now is      495.0 secs

     total energy              =   -1905.62110651 Ry
     Harris-Foulkes estimate   =   -1906.56885780 Ry
     estimated scf accuracy    <       5.59926076 Ry

     iteration #  7     ecut=    40.00 Ry     beta=0.70
     CG style diagonalization
     ethr =  2.38E-03,  avg # of iterations =  3.0

     total cpu time spent up to now is      504.2 secs

     total energy              =   -1905.89310050 Ry
     Harris-Foulkes estimate   =   -1906.04375380 Ry
     estimated scf accuracy    <       0.27769006 Ry

     iteration #  8     ecut=    40.00 Ry     beta=0.70
     CG style diagonalization
     c_bands:  1 eigenvalues not converged
     c_bands:  1 eigenvalues not converged
     ethr =  1.45E-04,  avg # of iterations =  4.8

     total cpu time spent up to now is      519.6 secs

     total energy              =   -1906.02903137 Ry
     Harris-Foulkes estimate   =   -1906.09759282 Ry
     estimated scf accuracy    <       0.23892095 Ry

     iteration #  9     ecut=    40.00 Ry     beta=0.70
     CG style diagonalization
     ethr =  1.24E-04,  avg # of iterations =  3.2

     total cpu time spent up to now is      530.7 secs

     total energy              =   -1906.04988281 Ry
     Harris-Foulkes estimate   =   -1906.05819636 Ry
     estimated scf accuracy    <       0.02540590 Ry

     iteration # 10     ecut=    40.00 Ry     beta=0.70
     CG style diagonalization
     c_bands:  1 eigenvalues not converged
     ethr =  1.32E-05,  avg # of iterations =  4.2

     total cpu time spent up to now is      542.3 secs

     total energy              =   -1906.05847493 Ry
     Harris-Foulkes estimate   =   -1906.05938776 Ry
     estimated scf accuracy    <       0.00475324 Ry

     iteration # 11     ecut=    40.00 Ry     beta=0.70
     CG style diagonalization
     ethr =  2.48E-06,  avg # of iterations =  3.4

     total cpu time spent up to now is      550.8 secs

     total energy              =   -1906.05799970 Ry
     Harris-Foulkes estimate   =   -1906.05890594 Ry
     estimated scf accuracy    <       0.00230193 Ry

     iteration # 12     ecut=    40.00 Ry     beta=0.70
     CG style diagonalization
     ethr =  1.20E-06,  avg # of iterations =  3.7

     total cpu time spent up to now is      560.6 secs

     End of self-consistent calculation

          k = 0.0000 0.0000 0.0000 (  3675 PWs)   bands (ev):

   -66.3121 -66.2946 -66.2514 -66.2256 -39.2590 -39.2549 -39.2548 -39.2536
   -39.2383 -39.2304 -39.2301 -39.2270 -39.1725 -39.1688 -39.1586 -39.1564
   -36.1559 -36.1102 -36.0917 -36.0430 -35.9938 -35.9789 -35.9201 -35.8981
   -14.5013 -14.4594 -14.4236 -14.4124 -14.4079 -14.3733 -14.3643 -14.3451
   -14.3377 -14.3193 -14.3153 -14.3105 -14.2889 -14.2873 -14.2838 -14.2813
   -14.2740 -14.2448 -14.2270 -14.2144 -14.2112 -14.2058 -14.1716 -14.1711
     3.4263   3.4332   3.4556   3.4595   3.5051   3.5108   3.5263   3.6228
     3.6288   3.6593   3.6648   3.6673   3.6776   3.7828   3.7902   3.7930
     3.8147   3.8249   3.8633   3.8725   6.1840   7.3374   7.4344   8.0560
     8.5254   8.8670   8.9114   9.1349   9.1948   9.2906   9.3025   9.3502
     9.4826   9.5325   9.5894   9.6394   9.6682   9.7072   9.7563   9.8671
    10.0952  10.4706  10.5335  10.5354  10.5379  10.6129  10.7043  10.7923
    10.9813  11.0350  11.0782  11.2312  11.2497  11.2863  11.3854  11.3962
    11.4470  11.6023  11.6055  11.6476  11.8818  11.8854  11.9846  12.0630
    12.1675  12.4092  12.5829

          k = 0.0000 0.0000 0.0864 (  3675 PWs)   bands (ev):

   -66.3295 -66.2778 -66.2662 -66.2115 -39.2581 -39.2564 -39.2558 -39.2544
   -39.2353 -39.2334 -39.2300 -39.2245 -39.1700 -39.1662 -39.1598 -39.1513
   -36.1537 -36.1421 -36.1008 -36.0108 -35.9737 -35.9687 -35.9380 -35.8866
   -14.5065 -14.4591 -14.4301 -14.4114 -14.3975 -14.3793 -14.3722 -14.3687
   -14.3450 -14.3392 -14.3177 -14.3050 -14.2888 -14.2867 -14.2730 -14.2620
   -14.2509 -14.2454 -14.2322 -14.2163 -14.2162 -14.2140 -14.1649 -14.1601
     3.4206   3.4354   3.4401   3.4595   3.5133   3.5235   3.5515   3.6034
     3.6050   3.6130   3.6672   3.6822   3.6854   3.7482   3.8170   3.8178
     3.8324   3.8535   3.8684   3.8757   6.2901   6.9745   7.6632   7.9964
     8.6624   8.9248   8.9982   9.0685   9.2097   9.2494   9.3388   9.3788
     9.4667   9.5499   9.5580   9.5662   9.5787   9.7236   9.7745   9.9380
     9.9898  10.1157  10.1269  10.6183  10.7110  10.7569  10.7949  10.8984
    11.0556  11.0758  11.1197  11.1993  11.3086  11.3261  11.3500  11.3791
    11.3817  11.3937  11.6868  11.7827  11.8610  11.8655  12.0454  12.2753
    12.4378  12.5394  12.5871

          k = 0.0000 0.0000-0.1729 (  3690 PWs)   bands (ev):

   -66.3412 -66.3412 -66.2721 -66.2721 -39.2580 -39.2580 -39.2562 -39.2562
   -39.2319 -39.2319 -39.2290 -39.2290 -39.1671 -39.1671 -39.1522 -39.1522
   -36.1789 -36.1789 -36.0619 -36.0619 -36.0030 -36.0030 -35.9083 -35.9083
   -14.5070 -14.5070 -14.4146 -14.4146 -14.3856 -14.3856 -14.3830 -14.3830
   -14.3562 -14.3562 -14.3097 -14.3097 -14.2945 -14.2945 -14.2595 -14.2595
   -14.2564 -14.2564 -14.2449 -14.2449 -14.2404 -14.2404 -14.1597 -14.1597
     3.4198   3.4198   3.4364   3.4364   3.4767   3.4767   3.5297   3.5297
     3.6092   3.6092   3.6870   3.6870   3.7453   3.7453   3.8212   3.8212
     3.8460   3.8460   3.8492   3.8492   6.5702   6.5702   7.8501   7.8501
     8.8809   8.8809   9.0811   9.0811   9.1806   9.1806   9.4462   9.4462
     9.4880   9.4880   9.4892   9.4891   9.7220   9.7220   9.7227   9.7227
     9.8840   9.8840  10.2896  10.2896  10.8036  10.8036  10.9464  10.9464
    11.0757  11.0757  11.1346  11.1346  11.3339  11.3340  11.3659  11.3659
    11.3735  11.3735  11.7958  11.7958  11.9774  11.9774  12.2564  12.2565
    12.5291  12.5291  13.0237

          k = 0.0000 0.1711 0.0000 (  3664 PWs)   bands (ev):

   -66.3460 -66.2939 -66.1758 -66.1615 -39.2578 -39.2570 -39.2551 -39.2502
   -39.2375 -39.2341 -39.2234 -39.2231 -39.1694 -39.1628 -39.1565 -39.1541
   -36.1250 -36.1009 -36.0767 -36.0535 -35.9557 -35.9455 -35.9054 -35.8912
   -14.4425 -14.4105 -14.4079 -14.3933 -14.3798 -14.3768 -14.3766 -14.3551
   -14.3543 -14.3395 -14.3374 -14.3194 -14.2917 -14.2907 -14.2871 -14.2708
   -14.2526 -14.2420 -14.2330 -14.2282 -14.2276 -14.1888 -14.1811 -14.1486
     3.4400   3.4545   3.4907   3.5114   3.5213   3.5536   3.5942   3.6093
     3.6100   3.6564   3.6571   3.6912   3.6965   3.7432   3.8107   3.8433
     3.8481   3.8566   3.8651   3.9096   6.5811   7.4457   7.6170   7.8409
     8.6077   8.7887   8.9877   9.0752   9.1500   9.2721   9.3536   9.3709
     9.4397   9.5011   9.5144   9.6523   9.7935   9.8078   9.8409   9.8736
    10.0534  10.1991  10.3384  10.4013  10.4354  10.4762  10.5930  10.6062
    10.6758  10.8412  11.0271  11.0892  11.1568  11.1889  11.2796  11.4043
    11.4200  11.4313  11.4455  11.5305  11.6356  11.8108  11.9181  11.9299
    11.9578  12.0004  13.5085

          k = 0.0000 0.1711 0.0864 (  3669 PWs)   bands (ev):

   -66.3335 -66.2908 -66.2282 -66.1790 -39.2576 -39.2568 -39.2550 -39.2536
   -39.2353 -39.2322 -39.2293 -39.2250 -39.1675 -39.1618 -39.1561 -39.1513
   -36.1560 -36.1187 -36.0641 -36.0095 -35.9773 -35.9698 -35.9141 -35.8969
   -14.4613 -14.4220 -14.4077 -14.3976 -14.3846 -14.3731 -14.3729 -14.3678
   -14.3603 -14.3438 -14.3290 -14.3100 -14.2935 -14.2929 -14.2889 -14.2833
   -14.2711 -14.2489 -14.2216 -14.2174 -14.2166 -14.1950 -14.1769 -14.1599
     3.4391   3.4631   3.4844   3.5007   3.5203   3.5308   3.5476   3.5822
     3.6118   3.6565   3.6613   3.6756   3.7067   3.7500   3.8244   3.8282
     3.8614   3.8690   3.8787   3.8973   6.6758   7.2894   7.6178   7.8464
     8.6760   8.7610   8.9442   9.0424   9.2556   9.2713   9.2977   9.3588
     9.4388   9.5080   9.5562   9.6253   9.7403   9.8112   9.8212   9.8801
    10.0122  10.0918  10.2960  10.3265  10.5194  10.5584  10.6130  10.6802
    10.7384  10.8611  10.8709  11.0946  11.1218  11.1718  11.2184  11.3132
    11.3965  11.4417  11.4883  11.6098  11.6563  11.8909  11.9681  11.9871
    12.1240  12.3733  13.4527

          k = 0.0000 0.1711-0.1729 (  3666 PWs)   bands (ev):

   -66.2754 -66.2754 -66.2253 -66.2253 -39.2574 -39.2574 -39.2536 -39.2536
   -39.2334 -39.2334 -39.2283 -39.2283 -39.1644 -39.1644 -39.1551 -39.1551
   -36.1101 -36.1101 -36.0136 -36.0136 -35.9916 -35.9916 -35.9228 -35.9228
   -14.4366 -14.4366 -14.3934 -14.3934 -14.3840 -14.3840 -14.3624 -14.3624
   -14.3386 -14.3386 -14.3115 -14.3115 -14.3003 -14.3003 -14.2830 -14.2830
   -14.2637 -14.2637 -14.2235 -14.2235 -14.2105 -14.2105 -14.1720 -14.1720
     3.4658   3.4658   3.4910   3.4910   3.5154   3.5154   3.5791   3.5791
     3.6379   3.6379   3.6749   3.6749   3.7258   3.7258   3.8450   3.8450
     3.8497   3.8497   3.8838   3.8838   6.9444   6.9444   7.7522   7.7522
     8.6928   8.6928   9.0671   9.0671   9.1774   9.1774   9.3800   9.3800
     9.4552   9.4552   9.6529   9.6529   9.7177   9.7177   9.8002   9.8002
    10.0885  10.0885  10.1449  10.1449  10.6217  10.6217  10.7367  10.7367
    10.7390  10.7390  11.0233  11.0233  11.1374  11.1374  11.2007  11.2007
    11.4497  11.4497  11.5393  11.5393  11.7408  11.7408  12.0119  12.0120
    12.8422  12.8422  13.1874

          k =-0.3166 0.0000 0.0000 (  3722 PWs)   bands (ev):

   -66.4011 -66.4011 -66.3714 -66.3714 -39.2565 -39.2565 -39.2547 -39.2547
   -39.2349 -39.2349 -39.2341 -39.2341 -39.1858 -39.1858 -39.1762 -39.1762
   -36.1341 -36.1341 -36.1119 -36.1119 -36.0901 -36.0901 -36.0688 -36.0688
   -14.5242 -14.5242 -14.4388 -14.4388 -14.4067 -14.4067 -14.4004 -14.4004
   -14.3652 -14.3652 -14.3244 -14.3244 -14.2832 -14.2832 -14.2826 -14.2826
   -14.2715 -14.2715 -14.2385 -14.2385 -14.2171 -14.2171 -14.2101 -14.2101
     3.3887   3.3887   3.4056   3.4056   3.5152   3.5152   3.5436   3.5436
     3.6356   3.6356   3.6415   3.6415   3.6770   3.6770   3.7200   3.7200
     3.7330   3.7330   3.7490   3.7490   7.3200   7.3200   7.5533   7.5533
     8.6004   8.6004   9.0955   9.0955   9.1899   9.1899   9.6482   9.6482
     9.6803   9.6803   9.9376   9.9376  10.0401  10.0401  10.1080  10.1080
    10.1781  10.1781  10.3288  10.3288  10.4408  10.4408  10.5366  10.5366
    10.7318  10.7318  10.9188  10.9188  10.9339  10.9339  11.1004  11.1004
    11.3200  11.3200  11.5658  11.5657  11.6337  11.6337  11.9666  11.9666
    12.0098  12.0099  12.2468

          k =-0.3166 0.0000 0.0864 (  3710 PWs)   bands (ev):

   -66.3605 -66.3605 -66.3524 -66.3524 -39.2563 -39.2563 -39.2547 -39.2547
   -39.2340 -39.2340 -39.2301 -39.2301 -39.1826 -39.1826 -39.1741 -39.1741
   -36.1211 -36.1211 -36.0955 -36.0955 -36.0795 -36.0795 -36.0289 -36.0289
   -14.5132 -14.5132 -14.4369 -14.4369 -14.4103 -14.4103 -14.3796 -14.3796
   -14.3578 -14.3578 -14.3151 -14.3151 -14.2936 -14.2936 -14.2740 -14.2740
   -14.2578 -14.2578 -14.2311 -14.2311 -14.2190 -14.2190 -14.2144 -14.2144
     3.4143   3.4143   3.4304   3.4304   3.4973   3.4973   3.5306   3.5306
     3.6296   3.6296   3.6679   3.6679   3.6997   3.6997   3.7326   3.7326
     3.7586   3.7586   3.7807   3.7807   7.3692   7.3692   7.5480   7.5480
     8.4804   8.4804   9.1327   9.1327   9.2306   9.2306   9.5246   9.5246
     9.6806   9.6806   9.8529   9.8529   9.9838   9.9838  10.1031  10.1031
    10.1845  10.1845  10.3424  10.3424  10.4922  10.4922  10.6539  10.6539
    10.8073  10.8073  10.9048  10.9048  10.9580  10.9580  11.1900  11.1901
    11.3971  11.3971  11.5120  11.5120  11.6139  11.6139  11.8310  11.8309
    12.1148  12.1148  12.4795

          k =-0.3166 0.0000-0.1729 (  3680 PWs)   bands (ev):

   -66.3117 -66.3117 -66.2557 -66.2557 -39.2554 -39.2554 -39.2547 -39.2547
   -39.2291 -39.2291 -39.2267 -39.2267 -39.1765 -39.1765 -39.1705 -39.1705
   -36.0743 -36.0743 -36.0328 -36.0328 -36.0286 -36.0286 -36.0035 -36.0035
   -14.5175 -14.5175 -14.4044 -14.4044 -14.3932 -14.3932 -14.3654 -14.3654
   -14.3254 -14.3254 -14.3122 -14.3122 -14.2852 -14.2852 -14.2679 -14.2679
   -14.2352 -14.2352 -14.2326 -14.2326 -14.2053 -14.2053 -14.2011 -14.2011
     3.4327   3.4327   3.4351   3.4351   3.5402   3.5402   3.5590   3.5590
     3.6482   3.6482   3.6840   3.6840   3.7516   3.7516   3.7553   3.7553
     3.7974   3.7974   3.8324   3.8324   7.4522   7.4522   7.5277   7.5277
     8.3701   8.3701   9.1571   9.1571   9.3288   9.3288   9.3605   9.3605
     9.6924   9.6924   9.8556   9.8556   9.9273   9.9273  10.0967  10.0967
    10.2084  10.2084  10.4154  10.4154  10.4326  10.4326  10.4624  10.4624
    10.9696  10.9696  10.9910  10.9911  11.0796  11.0796  11.3484  11.3484
    11.4182  11.4182  11.4468  11.4468  11.4564  11.4564  11.9297  11.9297
    12.2579  12.2579  12.7607

          k =-0.3166 0.1711 0.0000 (  3686 PWs)   bands (ev):

   -66.3154 -66.3154 -66.2884 -66.2884 -39.2563 -39.2563 -39.2541 -39.2541
   -39.2326 -39.2326 -39.2298 -39.2298 -39.1834 -39.1834 -39.1767 -39.1767
   -36.0785 -36.0785 -36.0768 -36.0768 -36.0397 -36.0397 -36.0253 -36.0253
   -14.4406 -14.4406 -14.4119 -14.4119 -14.4038 -14.4038 -14.3637 -14.3637
   -14.3439 -14.3439 -14.3153 -14.3153 -14.2879 -14.2879 -14.2876 -14.2876
   -14.2405 -14.2405 -14.2377 -14.2377 -14.2185 -14.2185 -14.2179 -14.2179
     3.4553   3.4553   3.4868   3.4868   3.5402   3.5402   3.5889   3.5889
     3.6419   3.6419   3.6490   3.6490   3.7162   3.7162   3.7443   3.7443
     3.7670   3.7670   3.7695   3.7695   7.5608   7.5608   7.7276   7.7276
     8.7943   8.7943   8.9230   8.9230   9.3463   9.3463   9.6429   9.6429
     9.6460   9.6460   9.8085   9.8085   9.8996   9.8996  10.0110  10.0110
    10.0949  10.0949  10.2258  10.2258  10.2834  10.2834  10.4483  10.4483
    10.5688  10.5688  10.7401  10.7401  10.8021  10.8021  11.2321  11.2321
    11.2597  11.2597  11.4226  11.4226  11.5259  11.5259  11.6222  11.6222
    12.3184  12.3592  12.3594

          k =-0.3166 0.1711 0.0864 (  3692 PWs)   bands (ev):

   -66.3630 -66.3630 -66.2687 -66.2687 -39.2573 -39.2573 -39.2556 -39.2556
   -39.2307 -39.2307 -39.2303 -39.2303 -39.1781 -39.1781 -39.1751 -39.1751
   -36.0964 -36.0964 -36.0713 -36.0713 -36.0444 -36.0444 -36.0253 -36.0253
   -14.4529 -14.4529 -14.4127 -14.4127 -14.3996 -14.3996 -14.3760 -14.3760
   -14.3491 -14.3491 -14.3132 -14.3132 -14.2981 -14.2981 -14.2804 -14.2804
   -14.2485 -14.2485 -14.2368 -14.2368 -14.2252 -14.2252 -14.2136 -14.2136
     3.4480   3.4480   3.4901   3.4901   3.5329   3.5329   3.5569   3.5569
     3.6132   3.6132   3.6596   3.6596   3.7029   3.7029   3.7433   3.7433
     3.7892   3.7892   3.8068   3.8068   7.5983   7.5983   7.7322   7.7322
     8.6584   8.6584   8.9950   8.9950   9.3501   9.3501   9.5381   9.5381
     9.7002   9.7002   9.7595   9.7595   9.8257   9.8257   9.9850   9.9850
    10.0561  10.0561  10.2180  10.2180  10.3527  10.3527  10.5017  10.5017
    10.6562  10.6562  10.6851  10.6851  10.9595  10.9595  11.1203  11.1204
    11.3311  11.3310  11.3904  11.3904  11.5046  11.5046  11.6714  11.6714
    12.2967  12.2968  12.4427

          k =-0.3166 0.1711-0.1729 (  3704 PWs)   bands (ev):

   -66.4042 -66.4042 -66.2872 -66.2872 -39.2584 -39.2584 -39.2573 -39.2573
   -39.2305 -39.2305 -39.2270 -39.2270 -39.1786 -39.1786 -39.1766 -39.1766
   -36.1096 -36.1096 -36.0990 -36.0990 -36.0637 -36.0637 -36.0260 -36.0260
   -14.4625 -14.4625 -14.4223 -14.4223 -14.4018 -14.4018 -14.3774 -14.3774
   -14.3550 -14.3550 -14.3216 -14.3216 -14.3087 -14.3087 -14.2870 -14.2870
   -14.2520 -14.2520 -14.2455 -14.2455 -14.2293 -14.2293 -14.2138 -14.2138
     3.4514   3.4514   3.4904   3.4904   3.5130   3.5130   3.5250   3.5250
     3.6040   3.6040   3.6430   3.6430   3.7022   3.7022   3.7138   3.7138
     3.7894   3.7894   3.8248   3.8248   7.6486   7.6486   7.7290   7.7290
     8.5459   8.5459   9.0350   9.0350   9.3131   9.3131   9.5676   9.5676
     9.6490   9.6490   9.7492   9.7492   9.8644   9.8644   9.8945   9.8945
    10.0012  10.0012  10.1886  10.1886  10.3539  10.3539  10.5528  10.5528
    10.6742  10.6742  10.7826  10.7826  11.0047  11.0048  11.2126  11.2126
    11.2189  11.2190  11.4461  11.4462  11.4637  11.4637  11.7022  11.7022
    12.3034  12.3034  12.4305

     the Fermi energy is    10.7149 ev

!    total energy              =   -1906.05836566 Ry
     Harris-Foulkes estimate   =   -1906.05842126 Ry
     estimated scf accuracy    <       0.00006465 Ry

     The total energy is the sum of the following terms:

     one-electron contribution =    -691.99576393 Ry
     hartree contribution      =     396.18794044 Ry
     xc contribution           =    -191.92224601 Ry
     ewald contribution        =   -1416.76933816 Ry
     smearing contrib. (-TS)   =      -1.55895800 Ry

     convergence has been achieved in  12 iterations

     Forces acting on atoms (Ry/au):

     atom    1 type  1   force =     0.00000000    0.00081198    0.00459699
     atom    2 type  1   force =     0.00000000   -0.00081198   -0.00459699
     atom    3 type  1   force =     0.00000000    0.00081198   -0.00459699
     atom    4 type  1   force =     0.00000000   -0.00081198    0.00459699
     atom    5 type  1   force =     0.00000000    0.00557356   -0.01289973
     atom    6 type  1   force =     0.00000000   -0.00557356    0.01289973
     atom    7 type  1   force =     0.00000000    0.00557356    0.01289973
     atom    8 type  1   force =     0.00000000   -0.00557356   -0.01289973
     atom    9 type  2   force =     0.00000000   -0.01030194    0.00050741
     atom   10 type  2   force =     0.00000000    0.01030194   -0.00050741
     atom   11 type  2   force =     0.00000000   -0.01030194   -0.00050741
     atom   12 type  2   force =     0.00000000    0.01030194    0.00050741

     Total force =     0.036091     Total SCF correction =     0.000000


     entering subroutine stress ...

          total   stress  (Ry/bohr**3)                   (kbar)     P=-1595.30
  -0.01158804   0.00000000   0.00000000      -1704.66      0.00      0.00
   0.00000000  -0.01019759   0.00000000          0.00  -1500.12      0.00
   0.00000000   0.00000000  -0.01074827          0.00      0.00  -1581.12


     number of scf cycles    =   3
     number of bfgs steps    =   2

     enthalpy old            =   -1918.7812081806 Ry
     enthalpy new            =   -1906.0583656560 Ry

     CASE: enthalpy_new > enthalpy_old

     new trust radius        =       1.1142243103 bohr

     trust_radius < trust_radius_min

     resetting bfgs history

     Message from routine bfgs:
     history already reset at previous step: stopping
     new conv_thr            =       0.0001000000 Ry

     new unit-cell volume =   1277.97665 a.u.^3 (   189.37660 Ang^3 )

CELL_PARAMETERS (alat=  7.01510508)
   1.156374790   0.000000000   0.000000000
   0.000000000   1.482010786   0.000000000
   0.000000000   0.000000000   2.160082799

ATOMIC_POSITIONS (crystal)
Co       0.750000000   0.825310252   0.435472123
Co       0.250000000   0.174689748   0.564527877
Co       0.750000000   0.325310252   0.064527877
Co       0.250000000   0.674689748   0.935472123
Co       0.250000000   0.539716764   0.279673378
Co       0.750000000   0.460283236   0.720326622
Co       0.250000000   0.039716764   0.220326622
Co       0.750000000   0.960283236   0.779673378
Si       0.250000000   0.200477887   0.893549053
Si       0.750000000   0.799522113   0.106450947
Si       0.250000000   0.700477887   0.606450947
Si       0.750000000   0.299522113   0.393549053



     Writing output data file Prototype-La-oP12-Co2Si.save
     NEW-OLD atomic charge density approx. for the potential
     NEW k-points:
        k(    1) = (   0.0000000   0.0000000   0.0000000), wk =   0.0833333
        k(    2) = (   0.0000000   0.0000000   0.1157363), wk =   0.1666667
        k(    3) = (   0.0000000   0.0000000  -0.2314726), wk =   0.0833333
        k(    4) = (   0.0000000   0.2249196   0.0000000), wk =   0.1666667
        k(    5) = (   0.0000000   0.2249196   0.1157363), wk =   0.3333333
        k(    6) = (   0.0000000   0.2249196  -0.2314726), wk =   0.1666667
        k(    7) = (  -0.4323858   0.0000000   0.0000000), wk =   0.0833333
        k(    8) = (  -0.4323858   0.0000000   0.1157363), wk =   0.1666667
        k(    9) = (  -0.4323858   0.0000000  -0.2314726), wk =   0.0833333
        k(   10) = (  -0.4323858   0.2249196   0.0000000), wk =   0.1666667
        k(   11) = (  -0.4323858   0.2249196   0.1157363), wk =   0.3333333
        k(   12) = (  -0.4323858   0.2249196  -0.2314726), wk =   0.1666667

     total cpu time spent up to now is      564.7 secs

     Self-consistent Calculation

     iteration #  1     ecut=    40.00 Ry     beta=0.70
     CG style diagonalization
     c_bands:  1 eigenvalues not converged
     c_bands:  2 eigenvalues not converged
     c_bands:  4 eigenvalues not converged
     c_bands:  1 eigenvalues not converged
     c_bands:  4 eigenvalues not converged
     c_bands:  1 eigenvalues not converged
     c_bands:  1 eigenvalues not converged
     c_bands:  2 eigenvalues not converged
     ethr =  1.00E-06,  avg # of iterations = 33.6

     total cpu time spent up to now is      657.5 secs

     total energy              =   -1820.79875892 Ry
     Harris-Foulkes estimate   =   -2085.49602261 Ry
     estimated scf accuracy    <     330.77895736 Ry

     iteration #  2     ecut=    40.00 Ry     beta=0.70
     CG style diagonalization
     ethr =  1.00E-02,  avg # of iterations =  7.9

     total cpu time spent up to now is      681.5 secs

     total energy              =   -1884.87198032 Ry
     Harris-Foulkes estimate   =   -1955.95922465 Ry
     estimated scf accuracy    <     106.68942441 Ry

     iteration #  3     ecut=    40.00 Ry     beta=0.70
     CG style diagonalization
     ethr =  1.00E-02,  avg # of iterations =  5.6

     total cpu time spent up to now is      697.3 secs

     total energy              =   -1912.63436133 Ry
     Harris-Foulkes estimate   =   -1928.00409845 Ry
     estimated scf accuracy    <      30.68096599 Ry

     iteration #  4     ecut=    40.00 Ry     beta=0.70
     CG style diagonalization
     ethr =  1.00E-02,  avg # of iterations =  3.7

     total cpu time spent up to now is      707.7 secs

     total energy              =   -1919.32592417 Ry
     Harris-Foulkes estimate   =   -1921.44694738 Ry
     estimated scf accuracy    <       4.52443469 Ry

     iteration #  5     ecut=    40.00 Ry     beta=0.70
     CG style diagonalization
     ethr =  2.36E-03,  avg # of iterations =  3.7

     total cpu time spent up to now is      718.8 secs

     total energy              =   -1920.39728505 Ry
     Harris-Foulkes estimate   =   -1921.05804338 Ry
     estimated scf accuracy    <       1.50018804 Ry

     iteration #  6     ecut=    40.00 Ry     beta=0.70
     CG style diagonalization
     ethr =  7.81E-04,  avg # of iterations =  3.3

     total cpu time spent up to now is      728.0 secs

     total energy              =   -1920.68352516 Ry
     Harris-Foulkes estimate   =   -1920.79256036 Ry
     estimated scf accuracy    <       0.22509105 Ry

     iteration #  7     ecut=    40.00 Ry     beta=0.70
     CG style diagonalization
     c_bands:  1 eigenvalues not converged
     c_bands:  1 eigenvalues not converged
     c_bands:  1 eigenvalues not converged
     c_bands:  1 eigenvalues not converged
     ethr =  1.17E-04,  avg # of iterations =  3.7

     total cpu time spent up to now is      738.5 secs

     total energy              =   -1920.72771263 Ry
     Harris-Foulkes estimate   =   -1920.73001241 Ry
     estimated scf accuracy    <       0.00423432 Ry

     iteration #  8     ecut=    40.00 Ry     beta=0.70
     CG style diagonalization
     c_bands:  1 eigenvalues not converged
     c_bands:  1 eigenvalues not converged
     c_bands:  1 eigenvalues not converged
     ethr =  2.21E-06,  avg # of iterations =  4.9

     total cpu time spent up to now is      751.7 secs

     total energy              =   -1920.73013564 Ry
     Harris-Foulkes estimate   =   -1920.73046801 Ry
     estimated scf accuracy    <       0.00068106 Ry

     iteration #  9     ecut=    40.00 Ry     beta=0.70
     CG style diagonalization
     ethr =  3.55E-07,  avg # of iterations =  3.7

     total cpu time spent up to now is      761.8 secs

     total energy              =   -1920.73028114 Ry
     Harris-Foulkes estimate   =   -1920.73034095 Ry
     estimated scf accuracy    <       0.00011612 Ry

     iteration # 10     ecut=    40.00 Ry     beta=0.70
     CG style diagonalization
     ethr =  6.05E-08,  avg # of iterations =  3.6

     total cpu time spent up to now is      771.5 secs

     End of self-consistent calculation

          k = 0.0000 0.0000 0.0000 (  3675 PWs)   bands (ev):

   -51.6906 -51.6710 -51.6692 -51.6445 -19.1986 -19.1776 -19.1460 -19.1326
   -19.1295 -19.1274 -19.1086 -19.0787 -19.0489 -19.0242 -18.9982 -18.9730
   -16.8681 -16.5464 -16.2969 -16.2676 -16.1708 -16.1089 -16.0824 -16.0770
     3.3028   3.6847   3.9307   4.0175   4.2130   4.2937   4.5971   4.7598
     4.8415   4.9263   5.0424   5.1670   5.2484   5.4041   5.5362   5.6353
     5.7777   5.7979   5.8359   6.0490   6.1668   6.3599   6.7033   6.8396
    19.9863  20.0125  20.2094  20.3447  20.5168  20.5318  20.5613  20.5894
    20.9305  20.9683  21.0570  21.0780  21.2636  21.3608  21.5968  21.8749
    21.9522  21.9944  21.9953  22.0788  22.9361  23.8452  25.4278  25.6941
    26.0664  26.2153  26.7624  27.3809  27.7645  27.8969  27.9191  27.9242
    28.0983  28.3270  28.4320  28.7669  29.0476  29.1055  29.2720  29.8063
    30.1403  30.7723  31.0261  31.1262  31.3450  31.3492  31.8793  32.5497
    32.7847  32.8253  33.0262  33.0875  33.2666  33.4216  34.3523  34.5155
    34.5757  34.6665  34.8458  34.9615  35.0439  35.0892  36.1425  36.5167
    36.9605  37.6228  38.4441

          k = 0.0000 0.0000 0.1157 (  3675 PWs)   bands (ev):

   -51.6996 -51.6674 -51.6663 -51.6399 -19.1820 -19.1746 -19.1542 -19.1466
   -19.1213 -19.1128 -19.1035 -19.0943 -19.0445 -19.0403 -18.9922 -18.9830
   -16.8272 -16.6041 -16.2556 -16.2547 -16.1774 -16.1039 -16.1018 -16.0888
     3.3427   3.6111   3.9977   4.0445   4.2190   4.3064   4.4136   4.7958
     4.8749   5.0469   5.0997   5.1802   5.2451   5.4613   5.4638   5.5219
     5.6750   5.9388   5.9483   5.9652   6.1552   6.2708   6.7184   6.8115
    19.9721  20.0316  20.2692  20.3307  20.3313  20.5551  20.6359  20.7299
    20.8399  20.9806  21.2293  21.3119  21.3317  21.3354  21.4754  21.8173
    21.8470  21.9002  21.9510  21.9819  23.2560  24.0372  25.0979  25.4112
    26.2536  26.6192  26.9150  27.4885  27.5489  27.5626  27.9769  28.0715
    28.2319  28.3117  28.6873  28.7529  29.0661  29.0746  29.2797  29.2989
    29.6512  29.9772  30.4162  31.2355  31.7196  31.8001  31.9876  32.2621
    32.2930  32.3396  33.0797  33.2508  33.3723  33.9894  34.0196  34.3730
    34.5983  34.8193  34.9906  35.3284  35.5702  35.8446  36.2482  36.9243
    37.4142  37.7258  37.9198

          k = 0.0000 0.0000-0.2315 (  3690 PWs)   bands (ev):

   -51.6964 -51.6964 -51.6633 -51.6633 -19.1810 -19.1810 -19.1662 -19.1662
   -19.1141 -19.1141 -19.0953 -19.0953 -19.0524 -19.0524 -18.9966 -18.9966
   -16.7251 -16.7251 -16.2263 -16.2263 -16.1591 -16.1591 -16.0981 -16.0981
     3.4502   3.4502   4.1171   4.1171   4.1887   4.1887   4.5404   4.5404
     5.1059   5.1059   5.1669   5.1669   5.2724   5.2724   5.5465   5.5465
     5.6907   5.6907   6.0769   6.0769   6.0900   6.0900   6.7564   6.7564
    20.0668  20.0668  20.1141  20.1141  20.4588  20.4588  20.8202  20.8202
[...]

     total energy              =   -1922.21327099 Ry
     Harris-Foulkes estimate   =   -1923.96524478 Ry
     estimated scf accuracy    <       3.77072850 Ry

     iteration #  6     ecut=    40.00 Ry     beta=0.70
     CG style diagonalization
     ethr =  1.96E-03,  avg # of iterations =  3.9

     total cpu time spent up to now is     1140.8 secs

     total energy              =   -1922.82446187 Ry
     Harris-Foulkes estimate   =   -1923.25130385 Ry
     estimated scf accuracy    <       0.79820380 Ry

     iteration #  7     ecut=    40.00 Ry     beta=0.70
     CG style diagonalization
     c_bands:  1 eigenvalues not converged
     ethr =  4.16E-04,  avg # of iterations =  3.9

     total cpu time spent up to now is     1158.8 secs

     total energy              =   -1923.06513399 Ry
     Harris-Foulkes estimate   =   -1923.09350203 Ry
     estimated scf accuracy    <       0.06544558 Ry

     iteration #  8     ecut=    40.00 Ry     beta=0.70
     CG style diagonalization
     c_bands:  1 eigenvalues not converged
     ethr =  3.41E-05,  avg # of iterations =  4.2

     total cpu time spent up to now is     1177.6 secs

     total energy              =   -1923.06930114 Ry
     Harris-Foulkes estimate   =   -1923.08311573 Ry
     estimated scf accuracy    <       0.03052603 Ry

     iteration #  9     ecut=    40.00 Ry     beta=0.70
     CG style diagonalization
     ethr =  1.59E-05,  avg # of iterations =  3.5

     total cpu time spent up to now is     1193.2 secs

     total energy              =   -1923.07174250 Ry
     Harris-Foulkes estimate   =   -1923.07401277 Ry
     estimated scf accuracy    <       0.00404501 Ry

     iteration # 10     ecut=    40.00 Ry     beta=0.70
     CG style diagonalization
     c_bands:  1 eigenvalues not converged
     ethr =  2.11E-06,  avg # of iterations =  4.1

     total cpu time spent up to now is     1213.3 secs

     total energy              =   -1923.07300956 Ry
     Harris-Foulkes estimate   =   -1923.07319972 Ry
     estimated scf accuracy    <       0.00033763 Ry

     iteration # 11     ecut=    40.00 Ry     beta=0.70
     CG style diagonalization
     ethr =  1.76E-07,  avg # of iterations =  4.2

     total cpu time spent up to now is     1232.2 secs

     End of self-consistent calculation

          k = 0.0000 0.0000 0.0000 (  5479 PWs)   bands (ev):

   -52.3354 -52.3270 -52.3186 -52.3125 -19.4756 -19.4630 -19.4257 -19.4243
   -19.4212 -19.4191 -19.4183 -19.3877 -19.3321 -19.3103 -19.2906 -19.2774
   -16.7975 -16.4757 -16.2353 -16.1900 -16.0965 -16.0343 -16.0085 -16.0017
     3.1848   3.5498   3.8131   3.8955   4.0997   4.1584   4.4586   4.6269
     4.7016   4.7941   4.9061   5.0151   5.0893   5.2578   5.3767   5.4624
     5.6405   5.6483   5.6617   5.9037   5.9844   6.1930   6.5711   6.6803
    20.0284  20.0482  20.2519  20.3817  20.5609  20.5815  20.6027  20.6319
    20.9817  21.0232  21.1002  21.1284  21.3117  21.4121  21.6472  21.9302
    22.0104  22.0367  22.0524  22.1412  22.8330  23.7570  25.2935  25.5602
    26.0271  26.1781  26.7130  27.3399  27.7465  27.8627  27.8784  27.8791
    28.0810  28.2885  28.3586  28.7440  29.0124  29.0597  29.2661  29.7748
    30.0999  30.7327  30.9679  31.0749  31.2959  31.2964  31.7566  32.4835
    32.7389  32.7724  32.9897  33.0481  33.2287  33.3926  34.2449  34.4736
    34.5128  34.5908  34.7964  34.8649  34.9859  35.0214  36.0641  36.4826
    36.9269  37.5226  38.3178

          k = 0.0000 0.0000 0.1157 (  5469 PWs)   bands (ev):

   -52.3343 -52.3230 -52.3191 -52.3116 -19.4672 -19.4524 -19.4335 -19.4268
   -19.4243 -19.4162 -19.4150 -19.3952 -19.3275 -19.3007 -19.2861 -19.2843
   -16.7579 -16.5391 -16.1891 -16.1771 -16.1036 -16.0321 -16.0254 -16.0134
     3.2257   3.4769   3.8858   3.9196   4.0915   4.1905   4.2929   4.6665
     4.7389   4.9060   4.9686   5.0114   5.0872   5.2961   5.3129   5.3740
     5.5255   5.7706   5.7816   5.8052   5.9646   6.1100   6.5850   6.6637
    20.0156  20.0678  20.3041  20.3726  20.3750  20.5969  20.6802  20.7780
    20.8851  21.0253  21.2832  21.3628  21.3821  21.3872  21.5255  21.8694
    21.9031  21.9573  22.0107  22.0321  23.1472  23.9400  24.9817  25.3075
    26.2169  26.5538  26.8673  27.4475  27.5160  27.5408  27.9524  28.0360
    28.2157  28.2834  28.6213  28.7140  29.0177  29.0567  29.2357  29.2584
    29.6119  29.9330  30.3679  31.1851  31.6653  31.7535  31.9246  32.2161
    32.2432  32.2833  33.0378  33.1732  33.3209  33.8835  33.9568  34.3208
    34.5901  34.7993  34.9365  35.2672  35.5239  35.7547  36.1129  36.9016
    37.2888  37.5854  37.8377

          k = 0.0000 0.0000-0.2315 (  5474 PWs)   bands (ev):

   -52.3274 -52.3274 -52.3181 -52.3181 -19.4546 -19.4545 -19.4295 -19.4295
   -19.4290 -19.4290 -19.4075 -19.4075 -19.3161 -19.3161 -19.2844 -19.2844
   -16.6570 -16.6570 -16.1529 -16.1529 -16.0843 -16.0843 -16.0241 -16.0241
     3.3355   3.3355   3.9890   3.9890   4.0682   4.0682   4.4193   4.4193
     4.9413   4.9413   5.0361   5.0361   5.1126   5.1126   5.3997   5.3997
     5.5479   5.5479   5.8947   5.8947   5.9412   5.9412   6.6226   6.6226
    20.1105  20.1105  20.1484  20.1484  20.5003  20.5003  20.8665  20.8665
    21.1767  21.1767  21.3508  21.3508  21.4417  21.4417  21.4878  21.4878
    21.8649  21.8649  21.9274  21.9274  23.8681  23.8681  24.7796  24.7796
    26.7527  26.7527  27.2121  27.2121  27.5850  27.5850  27.9039  27.9039
    28.5186  28.5186  28.5787  28.5788  28.6503  28.6503  29.0740  29.0740
    29.5052  29.5052  30.5410  30.5410  31.6433  31.6433  32.1625  32.1625
    32.1837  32.1837  32.8628  32.8628  33.8067  33.8067  34.3830  34.3830
    34.5851  34.5851  35.4371  35.4371  36.3059  36.3062  36.6841  36.6842
    37.0325  37.0326  38.6434

          k = 0.0000 0.2249 0.0000 (  5457 PWs)   bands (ev):

   -52.3280 -52.3234 -52.3222 -52.3087 -19.4956 -19.4935 -19.4294 -19.4149
   -19.4088 -19.4085 -19.4024 -19.3990 -19.3247 -19.3116 -19.2897 -19.2785
   -16.6477 -16.3692 -16.3551 -16.1757 -16.1479 -16.1151 -15.9845 -15.9819
     3.5597   3.9905   4.0328   4.0668   4.1290   4.1731   4.2940   4.3258
     4.5362   4.7284   4.7651   4.9253   5.0249   5.3703   5.4958   5.6125
     5.6718   5.6872   5.7280   5.7879   5.8867   5.9624   6.0969   6.1565
    20.3439  20.3560  20.4572  20.5191  20.7375  20.8478  20.9734  21.0727
    21.1673  21.1685  21.3225  21.3437  21.3508  21.5519  21.6033  21.8550
    21.9084  21.9344  21.9479  21.9940  23.6485  24.2933  25.3853  25.8197
    26.2295  26.5114  26.5196  26.9662  27.2180  27.2837  27.4000  27.9733
    28.0751  28.0845  28.0993  28.9277  29.1139  29.5259  29.5281  29.5719
    30.0656  30.0858  30.5230  30.6770  30.9918  31.1263  31.2559  31.4409
    31.8348  32.0432  32.6904  32.9650  33.1582  33.3298  33.5988  33.7464
    34.2279  34.7496  34.7596  34.9165  34.9450  35.1799  35.7292  36.0601
    36.5649  36.6736  38.1595

          k = 0.0000 0.2249 0.1157 (  5457 PWs)   bands (ev):

   -52.3273 -52.3250 -52.3208 -52.3093 -19.4931 -19.4834 -19.4240 -19.4184
   -19.4150 -19.4142 -19.4092 -19.4009 -19.3260 -19.3135 -19.2857 -19.2742
   -16.6140 -16.4279 -16.3265 -16.1990 -16.1347 -16.0803 -16.0006 -15.9931
     3.6036   3.8847   4.0107   4.1125   4.1443   4.1732   4.3079   4.4618
     4.5502   4.6938   4.8218   4.8749   5.0786   5.3889   5.4369   5.5335
     5.5617   5.6034   5.7457   5.8597   5.8695   5.9966   6.1017   6.1656
    20.3336  20.3514  20.5579  20.5619  20.7435  20.9096  20.9494  21.1164
    21.1391  21.1747  21.2051  21.2402  21.4804  21.6673  21.6683  21.6936
    21.8224  21.8604  21.9551  22.0416  23.9414  24.4615  25.3887  25.8596
    26.1619  26.4683  26.7198  26.9415  27.0478  27.3485  27.4068  27.7624
    27.8842  28.1138  28.1905  28.7140  29.0243  29.2716  29.3131  29.7133
    29.7619  30.2682  30.3375  30.6364  31.0831  31.1605  31.3909  31.6684
    31.8550  31.8805  32.2951  32.6849  32.9064  33.2708  33.7105  33.9445
    33.9983  34.6564  34.7190  34.9005  35.1940  36.2153  36.3356  36.5410
    36.5870  36.9636  38.0342

          k = 0.0000 0.2249-0.2315 (  5464 PWs)   bands (ev):

   -52.3260 -52.3260 -52.3183 -52.3183 -19.4840 -19.4840 -19.4228 -19.4228
   -19.4224 -19.4224 -19.4065 -19.4065 -19.3217 -19.3217 -19.2798 -19.2798
   -16.5280 -16.5280 -16.2681 -16.2681 -16.0758 -16.0758 -16.0158 -16.0158
     3.7201   3.7201   4.0711   4.0711   4.1556   4.1556   4.4601   4.4602
     4.5987   4.5987   4.8899   4.8899   5.2358   5.2358   5.4470   5.4470
     5.4723   5.4723   5.8215   5.8215   5.9583   5.9584   6.1428   6.1428
    20.3916  20.3916  20.4704  20.4704  21.0032  21.0032  21.0401  21.0402
    21.0986  21.0986  21.3374  21.3374  21.3849  21.3849  21.6831  21.6831
    21.9140  21.9140  21.9245  21.9245  24.5391  24.5391  25.3387  25.3387
    26.4617  26.4617  26.9644  26.9644  27.1131  27.1131  27.4116  27.4116
    28.0387  28.0387  28.5959  28.5959  28.6546  28.6546  29.5545  29.5545
    30.1473  30.1473  30.2228  30.2228  31.0313  31.0313  31.2560  31.2560
    31.8005  31.8005  32.8487  32.8487  33.3226  33.3226  33.5116  33.5116
    34.4347  34.4347  34.8001  34.8002  35.5261  35.5263  36.7112  36.7113
    37.8997  37.8998  38.4078

          k =-0.4324 0.0000 0.0000 (  5484 PWs)   bands (ev):

   -52.3302 -52.3302 -52.3225 -52.3225 -19.5019 -19.5019 -19.4830 -19.4830
   -19.4132 -19.4132 -19.4127 -19.4127 -19.2965 -19.2965 -19.2913 -19.2913
   -16.4688 -16.4688 -16.2063 -16.2063 -16.1592 -16.1592 -16.0169 -16.0169
     3.3140   3.3140   3.8209   3.8209   3.9868   3.9868   4.4184   4.4184
     4.5003   4.5003   5.1710   5.1710   5.2591   5.2591   5.5023   5.5023
     5.7727   5.7727   6.0063   6.0063   6.1039   6.1039   6.5581   6.5581
    20.2498  20.2498  20.6890  20.6890  20.7256  20.7256  20.7779  20.7779
    20.8706  20.8706  20.8897  20.8897  21.1059  21.1059  21.6061  21.6061
    21.8130  21.8130  22.0888  22.0888  23.9506  23.9506  25.1338  25.1338
    26.4471  26.4471  27.1998  27.1998  27.4125  27.4125  28.2960  28.2960
    29.1009  29.1009  29.5333  29.5333  29.5656  29.5656  29.8855  29.8855
    30.2732  30.2732  30.8137  30.8137  30.8887  30.8887  30.9190  30.9190
    31.5529  31.5529  32.8135  32.8135  32.9718  32.9718  33.3189  33.3189
    33.3926  33.3926  34.9991  34.9991  35.1623  35.1623  35.9144  35.9146
    35.9530  35.9531  36.3171

          k =-0.4324 0.0000 0.1157 (  5466 PWs)   bands (ev):

   -52.3251 -52.3251 -52.3207 -52.3207 -19.5086 -19.5086 -19.4714 -19.4714
   -19.4109 -19.4109 -19.4077 -19.4077 -19.2919 -19.2919 -19.2907 -19.2907
   -16.4627 -16.4627 -16.2065 -16.2065 -16.1580 -16.1580 -16.0238 -16.0238
     3.3032   3.3032   3.7738   3.7738   4.1543   4.1543   4.3150   4.3150
     4.6642   4.6642   5.0776   5.0776   5.1396   5.1396   5.4557   5.4556
     5.8751   5.8751   5.9856   5.9856   6.1087   6.1087   6.5569   6.5569
    20.3004  20.3004  20.5534  20.5534  20.6944  20.6944  20.8099  20.8099
    20.9041  20.9041  21.1013  21.1013  21.1565  21.1565  21.5055  21.5055
    21.6877  21.6877  22.1270  22.1270  24.0501  24.0501  25.2989  25.2989
    26.5914  26.5914  27.2425  27.2425  27.5190  27.5190  28.4430  28.4430
    28.5351  28.5351  28.9852  28.9852  29.2151  29.2151  29.5557  29.5557
    29.9784  29.9784  30.4844  30.4844  30.8544  30.8544  31.9575  31.9575
    32.3048  32.3048  32.5048  32.5048  33.1811  33.1811  33.5118  33.5118
    33.6247  33.6247  34.7127  34.7127  35.1325  35.1326  35.3630  35.3631
    35.8890  35.8891  37.4912

          k =-0.4324 0.0000-0.2315 (  5456 PWs)   bands (ev):

   -52.3258 -52.3258 -52.3163 -52.3163 -19.5203 -19.5203 -19.4629 -19.4629
   -19.4094 -19.4094 -19.3987 -19.3987 -19.2898 -19.2898 -19.2894 -19.2894
   -16.4565 -16.4565 -16.2085 -16.2085 -16.1547 -16.1547 -16.0316 -16.0316
     3.2904   3.2904   3.7609   3.7609   4.2055   4.2055   4.4565   4.4565
     4.6410   4.6410   5.0105   5.0105   5.0695   5.0695   5.3729   5.3729
     5.9482   5.9482   6.0419   6.0419   6.0486   6.0486   6.5558   6.5558
    20.3478  20.3478  20.4602  20.4602  20.7334  20.7334  20.7687  20.7687
    21.0548  21.0548  21.1534  21.1534  21.2867  21.2867  21.3528  21.3528
    21.5701  21.5701  22.1423  22.1423  24.1509  24.1509  25.5138  25.5138
    26.6471  26.6471  27.5683  27.5683  27.6039  27.6039  28.1312  28.1312
    28.2423  28.2423  28.4634  28.4634  28.9962  28.9962  29.2329  29.2329
    30.1059  30.1059  30.2072  30.2072  31.3364  31.3364  31.3638  31.3638
    32.8811  32.8811  33.3025  33.3025  33.3247  33.3247  33.5369  33.5369
    33.6946  33.6946  34.1157  34.1157  34.8838  34.8839  35.8315  35.8316
    36.1038  36.1039  37.4217

          k =-0.4324 0.2249 0.0000 (  5462 PWs)   bands (ev):

   -52.3219 -52.3219 -52.3218 -52.3218 -19.4964 -19.4964 -19.4890 -19.4890
   -19.4166 -19.4166 -19.4126 -19.4126 -19.2913 -19.2913 -19.2904 -19.2904
   -16.3817 -16.3817 -16.2323 -16.2323 -16.1308 -16.1308 -16.0780 -16.0780
     3.6408   3.6408   3.7825   3.7825   3.9617   3.9617   4.6023   4.6023
     4.6654   4.6654   4.9750   4.9750   5.2126   5.2126   5.2743   5.2743
     5.8636   5.8636   5.8764   5.8764   6.0597   6.0597   6.1833   6.1833
    20.4870  20.4870  20.7317  20.7317  20.8350  20.8350  20.9243  20.9243
    21.0403  21.0403  21.2349  21.2349  21.4986  21.4986  21.5957  21.5957
    21.8550  21.8550  22.0134  22.0134  24.6355  24.6355  25.2048  25.2048
    26.7549  26.7549  27.3569  27.3569  27.4865  27.4865  28.0523  28.0523
    28.5505  28.5505  28.8145  28.8145  29.1001  29.1001  29.6955  29.6955
    29.8889  29.8889  30.3490  30.3490  30.7913  30.7913  31.2348  31.2348
    31.5398  31.5398  32.0294  32.0294  32.3091  32.3091  33.4979  33.4979
    33.7090  33.7090  34.2967  34.2968  34.4898  34.4899  34.9479  34.9480
    37.2450  37.2453  37.3308

          k =-0.4324 0.2249 0.1157 (  5456 PWs)   bands (ev):

   -52.3227 -52.3227 -52.3194 -52.3194 -19.5033 -19.5033 -19.4822 -19.4822
   -19.4163 -19.4163 -19.4115 -19.4115 -19.2920 -19.2920 -19.2864 -19.2864
   -16.3749 -16.3749 -16.2252 -16.2252 -16.1347 -16.1347 -16.0882 -16.0882
     3.6394   3.6394   3.8524   3.8524   4.0567   4.0567   4.3503   4.3503
     4.6271   4.6271   4.9986   4.9986   5.2622   5.2622   5.4367   5.4367
     5.7991   5.7991   5.8827   5.8827   6.0146   6.0146   6.1669   6.1669
    20.5072  20.5072  20.7249  20.7249  20.7967  20.7967  20.9341  20.9341
    21.1374  21.1374  21.2176  21.2176  21.4839  21.4839  21.5665  21.5665
    21.8976  21.8976  22.0131  22.0131  24.7460  24.7460  25.3762  25.3762
    26.8955  26.8955  27.3296  27.3296  27.5309  27.5309  27.8981  27.8981
    28.2900  28.2900  28.4564  28.4564  29.0294  29.0294  29.3025  29.3025
    30.1070  30.1070  30.3111  30.3111  30.6966  30.6966  31.3404  31.3404
    31.5659  31.5659  32.0339  32.0339  32.7426  32.7426  33.1540  33.1540
    33.9540  33.9540  34.1855  34.1855  34.6648  34.6648  35.0731  35.0731
    36.9565  36.9569  37.6066

          k =-0.4324 0.2249-0.2315 (  5484 PWs)   bands (ev):

   -52.3264 -52.3264 -52.3257 -52.3257 -19.5168 -19.5168 -19.4869 -19.4869
   -19.4158 -19.4158 -19.4154 -19.4154 -19.2930 -19.2930 -19.2910 -19.2910
   -16.3680 -16.3680 -16.2180 -16.2180 -16.1368 -16.1368 -16.1013 -16.1013
     3.6364   3.6364   4.0049   4.0049   4.1010   4.1010   4.2921   4.2921
     4.3554   4.3554   5.0499   5.0499   5.3638   5.3638   5.5724   5.5724
     5.7606   5.7606   5.7657   5.7657   6.0319   6.0319   6.1276   6.1276
    20.5365  20.5365  20.6770  20.6770  20.7814  20.7814  20.9710  20.9710
    21.1754  21.1754  21.2556  21.2556  21.4930  21.4930  21.4992  21.4992
    21.9374  21.9374  22.0172  22.0172  24.8779  24.8779  25.5877  25.5877
    27.0234  27.0234  27.3208  27.3208  27.4493  27.4493  27.7015  27.7015
    27.7178  27.7178  28.7207  28.7207  28.8887  28.8887  29.5486  29.5486
    29.5724  29.5724  30.2336  30.2336  30.5645  30.5645  31.5241  31.5241
    31.5495  31.5495  32.0000  32.0000  32.7327  32.7327  33.6617  33.6617
    33.8256  33.8256  34.2107  34.2108  34.7961  34.7962  35.1305  35.1305
    36.9330  36.9333  37.6242

     the Fermi energy is    31.7403 ev

!    total energy              =   -1923.07313063 Ry
     Harris-Foulkes estimate   =   -1923.07313748 Ry
     estimated scf accuracy    <       0.00000879 Ry

     The total energy is the sum of the following terms:

     one-electron contribution =     -24.20909789 Ry
     hartree contribution      =     203.40452923 Ry
     xc contribution           =    -205.91062407 Ry
     ewald contribution        =   -1895.83219599 Ry
     smearing contrib. (-TS)   =      -0.52574191 Ry

     convergence has been achieved in  11 iterations

     Forces acting on atoms (Ry/au):

     atom    1 type  1   force =     0.00000000   -0.04301801   -0.00608014
     atom    2 type  1   force =     0.00000000    0.04301801    0.00608014
     atom    3 type  1   force =     0.00000000   -0.04301801    0.00608014
     atom    4 type  1   force =     0.00000000    0.04301801   -0.00608014
     atom    5 type  1   force =     0.00000000    0.07481355   -0.10978006
     atom    6 type  1   force =     0.00000000   -0.07481355    0.10978006
     atom    7 type  1   force =     0.00000000    0.07481355    0.10978006
     atom    8 type  1   force =     0.00000000   -0.07481355   -0.10978006
     atom    9 type  2   force =     0.00000000   -0.06245815   -0.01358857
     atom   10 type  2   force =     0.00000000    0.06245815    0.01358857
     atom   11 type  2   force =     0.00000000   -0.06245815    0.01358857
     atom   12 type  2   force =     0.00000000    0.06245815   -0.01358857

     Total force =     0.307388     Total SCF correction =     0.000000


     entering subroutine stress ...

          total   stress  (Ry/bohr**3)                   (kbar)     P= 1231.80
   0.00911305   0.00000000   0.00000000       1340.58      0.00      0.00
   0.00000000   0.00763138   0.00000000          0.00   1122.61      0.00
   0.00000000   0.00000000   0.00837640          0.00      0.00   1232.21


     Writing output data file Prototype-La-oP12-Co2Si.save
 
     init_run     :      3.87s CPU      4.85s WALL (       2 calls)
     electrons    :   1058.95s CPU   1211.72s WALL (       5 calls)
     update_pot   :      2.06s CPU      2.10s WALL (       3 calls)
     forces       :      3.94s CPU      4.18s WALL (       5 calls)
     stress       :     14.16s CPU     14.39s WALL (       5 calls)

     Called by init_run:
     wfcinit      :      2.85s CPU      3.79s WALL (       2 calls)
     potinit      :      0.45s CPU      0.46s WALL (       2 calls)

     Called by electrons:
     c_bands      :   1038.94s CPU   1165.82s WALL (      52 calls)
     sum_band     :     19.52s CPU     26.86s WALL (      52 calls)
     v_of_rho     :      0.09s CPU      0.11s WALL (      57 calls)
     mix_rho      :      0.11s CPU      0.13s WALL (      52 calls)

     Called by c_bands:
     init_us_2    :      1.76s CPU      1.99s WALL (    1392 calls)
     ccgdiagg     :    971.24s CPU   1077.16s WALL (     717 calls)
     wfcrot       :     68.85s CPU     89.10s WALL (     729 calls)

     Called by *cgdiagg:
     h_psi        :    674.46s CPU    791.27s WALL (  427599 calls)
     cdiaghg      :      3.90s CPU      4.26s WALL (     729 calls)

     Called by h_psi:
     add_vuspsi   :    148.62s CPU    158.03s WALL (  427599 calls)

     General routines
     calbec       :    356.41s CPU    381.17s WALL (  854589 calls)
     fft          :      0.21s CPU      0.24s WALL (     251 calls)
     fftw         :    300.38s CPU    365.58s WALL ( 1093170 calls)
     davcio       :      0.93s CPU      3.11s WALL (    2016 calls)
 
     Parallel routines
     fft_scatter  :    137.19s CPU    167.55s WALL ( 1093421 calls)
 
     PWSCF        : 18m 3.48s CPU    20m39.79s WALL

 
   This run was terminated on:  17:51:44  22Mar2018            

=------------------------------------------------------------------------------=
   JOB DONE.
=------------------------------------------------------------------------------=
