
     Program PWSCF v.5.0.2 starts on 22Mar2018 at 17:32:55 

     This program is part of the open-source Quantum ESPRESSO suite
     for quantum simulation of materials; please cite
         "P. Giannozzi et al., J. Phys.:Condens. Matter 21 395502 (2009);
          URL http://www.quantum-espresso.org", 
     in publications or presentations arising from this work. More details at
     http://www.quantum-espresso.org/quote.php

     Parallel version (MPI), running on     4 processors
     R & G space division:  proc/nbgrp/npool/nimage =       4

     Current dimensions of program PWSCF are:
     Max number of different atomic species (ntypx) = 10
     Max number of k-points (npk) =  40000
     Max angular momentum in pseudopotentials (lmaxx) =  3
     Waiting for input...
     Reading input from standard input

     Subspace diagonalization in iterative solution of the eigenvalue problem:
     a serial algorithm will be used

 
     Parallelization info
     --------------------
     sticks:   dense  smooth     PW     G-vecs:    dense   smooth      PW
     Min         164     164     48                 3132     3132     524
     Max         165     165     49                 3135     3135     527
     Sum         657     657    193                12533    12533    2103
 


     bravais-lattice index     =            0
     lattice parameter (alat)  =       7.1317  a.u.
     unit-cell volume          =     362.7211 (a.u.)^3
     number of atoms/cell      =            4
     number of atomic types    =            2
     number of electrons       =        74.00
     number of Kohn-Sham states=           44
     kinetic-energy cutoff     =      40.0000  Ry
     charge density cutoff     =     160.0000  Ry
     convergence threshold     =      1.0E-04
     mixing beta               =       0.7000
     number of iterations used =            8  plain     mixing
     Exchange-correlation      = SLA-PZ-NOGX-NOGC ( 1 1 0 0 0)
     EXX-fraction              =        0.00
     nstep                     =           50


     celldm(1)=   7.131665  celldm(2)=   0.000000  celldm(3)=   0.000000
     celldm(4)=   0.000000  celldm(5)=   0.000000  celldm(6)=   0.000000

     crystal axes: (cart. coord. in units of alat)
               a(1) = (   1.000000   0.000000   0.000000 )  
               a(2) = (   0.000000   1.000000   0.000000 )  
               a(3) = (   0.000000   0.000000   1.000000 )  

     reciprocal axes: (cart. coord. in units 2 pi/alat)
               b(1) = (  1.000000  0.000000  0.000000 )  
               b(2) = (  0.000000  1.000000  0.000000 )  
               b(3) = (  0.000000  0.000000  1.000000 )  


     PseudoPot. # 1 for Tb read from file:
     /home/cwx6513/pp.La/Tb.UPF
     MD5 check sum: 3d6088a3f0cf7fd2e110c43f7f8e95c2
     Pseudo is Norm-conserving, Zval = 19.0
     Generated in analytical, separable form
     Using radial grid of 1263 points,  6 beta functions with: 
                l(1) =   0
                l(2) =   0
                l(3) =   1
                l(4) =   1
                l(5) =   2
                l(6) =   3

     PseudoPot. # 2 for Eu read from file:
     /home/cwx6513/pp.La/Eu.UPF
     MD5 check sum: 5efdbbfc50c6a10138933a6429836ad2
     Pseudo is Norm-conserving, Zval = 17.0
     Generated in analytical, separable form
     Using radial grid of 1261 points,  6 beta functions with: 
                l(1) =   0
                l(2) =   0
                l(3) =   1
                l(4) =   1
                l(5) =   2
                l(6) =   3

     atomic species   valence    mass     pseudopotential
        Cu            19.00    63.54600     Tb( 1.00)
        Au            17.00   196.96600     Eu( 1.00)

     48 Sym. Ops., with inversion, found



   Cartesian axes

     site n.     atom                  positions (alat units)
         1           Cu  tau(   1) = (   0.0000000   0.5000000   0.5000000  )
         2           Cu  tau(   2) = (   0.5000000   0.5000000   0.0000000  )
         3           Cu  tau(   3) = (   0.5000000   0.0000000   0.5000000  )
         4           Au  tau(   4) = (   0.0000000   0.0000000   0.0000000  )

     number of k points=   100  gaussian smearing, width (Ry)=  0.1000

     Number of k-points >= 100: set verbosity='high' to print them.

     Dense  grid:    12533 G-vectors     FFT dimensions: (  30,  30,  30)

     Largest allocated arrays     est. size (Mb)     dimensions
        Kohn-Sham Wavefunctions         0.27 Mb     (    400,   44)
        NL pseudopotentials             0.49 Mb     (    400,   80)
        Each V/rho on FFT grid          0.11 Mb     (   7200)
        Each G-vector array             0.02 Mb     (   3134)
        G-vector shells                 0.02 Mb     (   3134)
     Largest temporary arrays     est. size (Mb)     dimensions
        Each subspace H/S matrix        0.03 Mb     (  44,  44)
        Each <psi_i|beta_j> matrix      0.05 Mb     (     80,   44)
        Arrays for rho mixing           0.88 Mb     (   7200,   8)

     Initial potential from superposition of free atoms

     Starting from uniform charge
     Starting wfc are    0 randomized atomic wfcs

     total cpu time spent up to now is        2.0 secs

     Self-consistent Calculation

     iteration #  1     ecut=    40.00 Ry     beta=0.70
     CG style diagonalization
     c_bands:  1 eigenvalues not converged
     c_bands:  1 eigenvalues not converged
     c_bands:  1 eigenvalues not converged
     c_bands:  1 eigenvalues not converged
     c_bands:  1 eigenvalues not converged
     c_bands:  1 eigenvalues not converged
     c_bands:  2 eigenvalues not converged
     c_bands:  2 eigenvalues not converged
     c_bands:  1 eigenvalues not converged
     c_bands:  1 eigenvalues not converged
     c_bands:  1 eigenvalues not converged
     c_bands:  1 eigenvalues not converged
     c_bands:  1 eigenvalues not converged
     c_bands:  2 eigenvalues not converged
     c_bands:  1 eigenvalues not converged
     c_bands:  1 eigenvalues not converged
     c_bands:  1 eigenvalues not converged
     c_bands:  2 eigenvalues not converged
     ethr =  1.00E-02,  avg # of iterations = 10.7

     total cpu time spent up to now is       19.0 secs

     total energy              =    -796.83093925 Ry
     Harris-Foulkes estimate   =    -967.89314679 Ry
     estimated scf accuracy    <     225.89838489 Ry

     iteration #  2     ecut=    40.00 Ry     beta=0.70
     CG style diagonalization
     ethr =  1.00E-02,  avg # of iterations =  7.6

     total cpu time spent up to now is       31.6 secs

     total energy              =    -843.26940712 Ry
     Harris-Foulkes estimate   =    -875.92422388 Ry
     estimated scf accuracy    <      46.68421791 Ry

     iteration #  3     ecut=    40.00 Ry     beta=0.70
     CG style diagonalization
     ethr =  1.00E-02,  avg # of iterations =  6.0

     total cpu time spent up to now is       41.4 secs

     total energy              =    -857.13326019 Ry
     Harris-Foulkes estimate   =    -868.69273683 Ry
     estimated scf accuracy    <      26.19342289 Ry

     iteration #  4     ecut=    40.00 Ry     beta=0.70
     CG style diagonalization
     ethr =  1.00E-02,  avg # of iterations =  4.2

     total cpu time spent up to now is       47.6 secs

     total energy              =    -861.81690394 Ry
     Harris-Foulkes estimate   =    -861.97975135 Ry
     estimated scf accuracy    <       0.32206307 Ry

     iteration #  5     ecut=    40.00 Ry     beta=0.70
     CG style diagonalization
     c_bands:  1 eigenvalues not converged
     c_bands:  1 eigenvalues not converged
     ethr =  4.35E-04,  avg # of iterations =  4.3

     total cpu time spent up to now is       54.1 secs

     total energy              =    -861.93851180 Ry
     Harris-Foulkes estimate   =    -861.95544214 Ry
     estimated scf accuracy    <       0.03886813 Ry

     iteration #  6     ecut=    40.00 Ry     beta=0.70
     CG style diagonalization
     c_bands:  1 eigenvalues not converged
     c_bands:  1 eigenvalues not converged
     c_bands:  1 eigenvalues not converged
     c_bands:  1 eigenvalues not converged
     c_bands:  1 eigenvalues not converged
     c_bands:  1 eigenvalues not converged
     c_bands:  1 eigenvalues not converged
     c_bands:  1 eigenvalues not converged
     c_bands:  1 eigenvalues not converged
     c_bands:  1 eigenvalues not converged
     c_bands:  1 eigenvalues not converged
     c_bands:  1 eigenvalues not converged
     c_bands:  1 eigenvalues not converged
     c_bands:  1 eigenvalues not converged
     c_bands:  1 eigenvalues not converged
     ethr =  5.25E-05,  avg # of iterations =  4.0

     total cpu time spent up to now is       62.6 secs

     total energy              =    -861.94438016 Ry
     Harris-Foulkes estimate   =    -861.94855481 Ry
     estimated scf accuracy    <       0.00772049 Ry

     iteration #  7     ecut=    40.00 Ry     beta=0.70
     CG style diagonalization
     c_bands:  1 eigenvalues not converged
     c_bands:  1 eigenvalues not converged
     c_bands:  1 eigenvalues not converged
     ethr =  1.04E-05,  avg # of iterations =  3.8

     total cpu time spent up to now is       68.2 secs

     total energy              =    -861.94590121 Ry
     Harris-Foulkes estimate   =    -861.94602152 Ry
     estimated scf accuracy    <       0.00026337 Ry

     iteration #  8     ecut=    40.00 Ry     beta=0.70
     CG style diagonalization
     c_bands:  1 eigenvalues not converged
     c_bands:  1 eigenvalues not converged
     c_bands:  1 eigenvalues not converged
     c_bands:  1 eigenvalues not converged
     ethr =  3.56E-07,  avg # of iterations =  4.6

     total cpu time spent up to now is       74.9 secs

     End of self-consistent calculation

     Number of k-points >= 100: set verbosity='high' to print the bands.

     the Fermi energy is    38.8357 ev

!    total energy              =    -861.94603989 Ry
     Harris-Foulkes estimate   =    -861.94605462 Ry
     estimated scf accuracy    <       0.00000609 Ry

     The total energy is the sum of the following terms:

     one-electron contribution =      29.94013843 Ry
     hartree contribution      =      76.21899232 Ry
     xc contribution           =     -86.95149334 Ry
     ewald contribution        =    -881.06222466 Ry
     smearing contrib. (-TS)   =      -0.09145264 Ry

     convergence has been achieved in   8 iterations

     Forces acting on atoms (Ry/au):

     atom    1 type  1   force =     0.00000000    0.00000000    0.00000000
     atom    2 type  1   force =     0.00000000    0.00000000    0.00000000
     atom    3 type  1   force =     0.00000000    0.00000000    0.00000000
     atom    4 type  2   force =     0.00000000    0.00000000    0.00000000

     Total force =     0.000000     Total SCF correction =     0.000000


     entering subroutine stress ...

          total   stress  (Ry/bohr**3)                   (kbar)     P= 2056.60
   0.01398049   0.00000000   0.00000000       2056.60      0.00      0.00
   0.00000000   0.01398049   0.00000000          0.00   2056.60      0.00
   0.00000000   0.00000000   0.01398049          0.00      0.00   2056.60


     BFGS Geometry Optimization

     number of scf cycles    =   1
     number of bfgs steps    =   0

     enthalpy new            =    -861.9460398889 Ry

     new trust radius        =       0.5000000000 bohr
     new conv_thr            =       0.0001000000 Ry

     new unit-cell volume =    525.13076 a.u.^3 (    77.81635 Ang^3 )

CELL_PARAMETERS (alat=  7.13166486)
   1.131266415   0.000000000   0.000000000
   0.000000000   1.131266415   0.000000000
   0.000000000   0.000000000   1.131266415

ATOMIC_POSITIONS (crystal)
Cu       0.000000000   0.500000000   0.500000000
Cu       0.500000000   0.500000000   0.000000000
Cu       0.500000000   0.000000000   0.500000000
Au       0.000000000   0.000000000   0.000000000



     Writing output data file Prototype-La-cP4-Cu3Au.save
     NEW-OLD atomic charge density approx. for the potential
     NEW k-points: (use verbosity='high' to print them)

     total cpu time spent up to now is       78.1 secs

     Self-consistent Calculation

     iteration #  1     ecut=    40.00 Ry     beta=0.70
     CG style diagonalization
     c_bands:  4 eigenvalues not converged
     c_bands:  4 eigenvalues not converged
     c_bands:  3 eigenvalues not converged
     c_bands:  3 eigenvalues not converged
     c_bands:  1 eigenvalues not converged
     c_bands:  3 eigenvalues not converged
     c_bands:  1 eigenvalues not converged
     c_bands:  4 eigenvalues not converged
     c_bands:  4 eigenvalues not converged
     c_bands:  1 eigenvalues not converged
     c_bands:  2 eigenvalues not converged
     c_bands:  5 eigenvalues not converged
     c_bands:  1 eigenvalues not converged
     c_bands:  1 eigenvalues not converged
     c_bands:  1 eigenvalues not converged
     c_bands:  3 eigenvalues not converged
     c_bands:  4 eigenvalues not converged
     ethr =  1.00E-06,  avg # of iterations = 20.6

     total cpu time spent up to now is      107.9 secs

     total energy              =    -850.78921917 Ry
     Harris-Foulkes estimate   =    -875.54647210 Ry
     estimated scf accuracy    <      31.93815035 Ry

     iteration #  2     ecut=    40.00 Ry     beta=0.70
     CG style diagonalization
     ethr =  1.00E-02,  avg # of iterations =  4.1

     total cpu time spent up to now is      114.1 secs

     total energy              =    -859.54171150 Ry
     Harris-Foulkes estimate   =    -865.06799212 Ry
     estimated scf accuracy    <       8.99629045 Ry

     iteration #  3     ecut=    40.00 Ry     beta=0.70
     CG style diagonalization
     ethr =  1.00E-02,  avg # of iterations =  3.6

     total cpu time spent up to now is      122.3 secs

     total energy              =    -861.50845241 Ry
     Harris-Foulkes estimate   =    -862.75502488 Ry
     estimated scf accuracy    <       2.89471742 Ry

     iteration #  4     ecut=    40.00 Ry     beta=0.70
     CG style diagonalization
     ethr =  3.91E-03,  avg # of iterations =  3.2

     total cpu time spent up to now is      126.9 secs

     total energy              =    -862.01887865 Ry
     Harris-Foulkes estimate   =    -862.02002001 Ry
     estimated scf accuracy    <       0.00329650 Ry

     iteration #  5     ecut=    40.00 Ry     beta=0.70
     CG style diagonalization
     c_bands:  1 eigenvalues not converged
     c_bands:  1 eigenvalues not converged
     c_bands:  1 eigenvalues not converged
     c_bands:  1 eigenvalues not converged
     c_bands:  1 eigenvalues not converged
     c_bands:  1 eigenvalues not converged
     c_bands:  1 eigenvalues not converged
     c_bands:  1 eigenvalues not converged
     c_bands:  1 eigenvalues not converged
     c_bands:  1 eigenvalues not converged
     ethr =  4.45E-06,  avg # of iterations =  5.5

     total cpu time spent up to now is      136.2 secs

     total energy              =    -862.02830754 Ry
     Harris-Foulkes estimate   =    -862.03106914 Ry
     estimated scf accuracy    <       0.00402543 Ry

     iteration #  6     ecut=    40.00 Ry     beta=0.70
     CG style diagonalization
     ethr =  4.45E-06,  avg # of iterations =  3.8

     total cpu time spent up to now is      142.8 secs

     total energy              =    -862.02972549 Ry
     Harris-Foulkes estimate   =    -862.03037160 Ry
     estimated scf accuracy    <       0.00216389 Ry

     iteration #  7     ecut=    40.00 Ry     beta=0.70
     CG style diagonalization
     ethr =  2.92E-06,  avg # of iterations =  3.0

     total cpu time spent up to now is      150.9 secs

     total energy              =    -862.02972221 Ry
     Harris-Foulkes estimate   =    -862.02987541 Ry
     estimated scf accuracy    <       0.00035751 Ry

     iteration #  8     ecut=    40.00 Ry     beta=0.70
     CG style diagonalization
     ethr =  4.83E-07,  avg # of iterations =  3.4

     total cpu time spent up to now is      156.2 secs

     End of self-consistent calculation

     Number of k-points >= 100: set verbosity='high' to print the bands.

     the Fermi energy is    24.4852 ev

!    total energy              =    -862.02978783 Ry
     Harris-Foulkes estimate   =    -862.02979114 Ry
     estimated scf accuracy    <       0.00000398 Ry

     The total energy is the sum of the following terms:

     one-electron contribution =    -112.61137492 Ry
     hartree contribution      =     113.79439188 Ry
     xc contribution           =     -84.24327909 Ry
     ewald contribution        =    -778.82823691 Ry
     smearing contrib. (-TS)   =      -0.14128878 Ry

     convergence has been achieved in   8 iterations

     Forces acting on atoms (Ry/au):

     atom    1 type  1   force =     0.00000000    0.00000000    0.00000000
     atom    2 type  1   force =     0.00000000    0.00000000    0.00000000
     atom    3 type  1   force =     0.00000000    0.00000000    0.00000000
     atom    4 type  2   force =     0.00000000    0.00000000    0.00000000

     Total force =     0.000000     Total SCF correction =     0.000000


     entering subroutine stress ...

          total   stress  (Ry/bohr**3)                   (kbar)     P=-1037.21
  -0.00705084   0.00000000   0.00000000      -1037.21      0.00      0.00
   0.00000000  -0.00705084   0.00000000          0.00  -1037.21      0.00
   0.00000000   0.00000000  -0.00705084          0.00      0.00  -1037.21


     number of scf cycles    =   2
     number of bfgs steps    =   1

     enthalpy old            =    -861.9460398889 Ry
     enthalpy new            =    -862.0297878323 Ry

     CASE: enthalpy_new < enthalpy_old

     small trust_radius: resetting bfgs history

     new trust radius        =       0.8078763702 bohr
     new conv_thr            =       0.0000010000 Ry

     new unit-cell volume =    293.50826 a.u.^3 (    43.49344 Ang^3 )

CELL_PARAMETERS (alat=  7.13166486)
   0.931856808   0.000000000   0.000000000
   0.000000000   0.931856808   0.000000000
   0.000000000   0.000000000   0.931856808

ATOMIC_POSITIONS (crystal)
Cu       0.000000000   0.500000000   0.500000000
Cu       0.500000000   0.500000000   0.000000000
Cu       0.500000000   0.000000000   0.500000000
Au       0.000000000   0.000000000   0.000000000



     Writing output data file Prototype-La-cP4-Cu3Au.save
     NEW-OLD atomic charge density approx. for the potential
     NEW k-points: (use verbosity='high' to print them)

     total cpu time spent up to now is      159.5 secs

     Self-consistent Calculation

     iteration #  1     ecut=    40.00 Ry     beta=0.70
     CG style diagonalization
     c_bands:  5 eigenvalues not converged
     c_bands:  2 eigenvalues not converged
     c_bands:  5 eigenvalues not converged
     c_bands:  4 eigenvalues not converged
     c_bands:  1 eigenvalues not converged
     c_bands:  1 eigenvalues not converged
     c_bands:  1 eigenvalues not converged
     c_bands:  3 eigenvalues not converged
     c_bands:  1 eigenvalues not converged
     c_bands:  1 eigenvalues not converged
     c_bands:  2 eigenvalues not converged
     c_bands:  1 eigenvalues not converged
     c_bands:  4 eigenvalues not converged
     c_bands:  3 eigenvalues not converged
     c_bands:  2 eigenvalues not converged
     c_bands:  1 eigenvalues not converged
     c_bands:  1 eigenvalues not converged
     c_bands:  2 eigenvalues not converged
     c_bands:  2 eigenvalues not converged
     c_bands:  1 eigenvalues not converged
     c_bands:  1 eigenvalues not converged
     c_bands:  1 eigenvalues not converged
     c_bands:  1 eigenvalues not converged
     c_bands:  2 eigenvalues not converged
     c_bands:  2 eigenvalues not converged
     c_bands:  1 eigenvalues not converged
     c_bands:  2 eigenvalues not converged
     c_bands:  2 eigenvalues not converged
     c_bands:  2 eigenvalues not converged
     c_bands:  1 eigenvalues not converged
     c_bands:  5 eigenvalues not converged
     c_bands:  2 eigenvalues not converged
     c_bands:  1 eigenvalues not converged
     c_bands:  3 eigenvalues not converged
     c_bands:  2 eigenvalues not converged
     c_bands:  3 eigenvalues not converged
     c_bands:  1 eigenvalues not converged
     c_bands:  2 eigenvalues not converged
     c_bands:  1 eigenvalues not converged
     c_bands:  1 eigenvalues not converged
     c_bands:  1 eigenvalues not converged
     c_bands:  1 eigenvalues not converged
     c_bands:  2 eigenvalues not converged
     c_bands:  1 eigenvalues not converged
     c_bands:  1 eigenvalues not converged
     c_bands:  2 eigenvalues not converged
     c_bands:  1 eigenvalues not converged
     c_bands:  1 eigenvalues not converged
     c_bands:  1 eigenvalues not converged
     c_bands:  1 eigenvalues not converged
     ethr =  1.00E-06,  avg # of iterations = 23.9

     total cpu time spent up to now is      197.8 secs

     total energy              =    -844.18797328 Ry
     Harris-Foulkes estimate   =    -890.69196873 Ry
     estimated scf accuracy    <      59.38078418 Ry

     iteration #  2     ecut=    40.00 Ry     beta=0.70
     CG style diagonalization
     ethr =  1.00E-02,  avg # of iterations =  4.8

     total cpu time spent up to now is      206.3 secs

     total energy              =    -859.03951320 Ry
     Harris-Foulkes estimate   =    -861.91208399 Ry
     estimated scf accuracy    <       4.32325685 Ry

     iteration #  3     ecut=    40.00 Ry     beta=0.70
     CG style diagonalization
     ethr =  5.84E-03,  avg # of iterations =  3.7

     total cpu time spent up to now is      214.5 secs

     total energy              =    -859.94183294 Ry
     Harris-Foulkes estimate   =    -860.25478430 Ry
     estimated scf accuracy    <       0.50013887 Ry

     iteration #  4     ecut=    40.00 Ry     beta=0.70
     CG style diagonalization
     c_bands:  1 eigenvalues not converged
     ethr =  6.76E-04,  avg # of iterations =  3.9

     total cpu time spent up to now is      220.3 secs

     total energy              =    -860.08762338 Ry
     Harris-Foulkes estimate   =    -860.12566664 Ry
     estimated scf accuracy    <       0.06906139 Ry

     iteration #  5     ecut=    40.00 Ry     beta=0.70
     CG style diagonalization
     c_bands:  1 eigenvalues not converged
     c_bands:  1 eigenvalues not converged
     c_bands:  1 eigenvalues not converged
     c_bands:  1 eigenvalues not converged
     c_bands:  1 eigenvalues not converged
     c_bands:  1 eigenvalues not converged
     ethr =  9.33E-05,  avg # of iterations =  3.9

     total cpu time spent up to now is      226.6 secs

     total energy              =    -860.10312952 Ry
     Harris-Foulkes estimate   =    -860.10343695 Ry
     estimated scf accuracy    <       0.00055260 Ry

     iteration #  6     ecut=    40.00 Ry     beta=0.70
     CG style diagonalization
     c_bands:  1 eigenvalues not converged
     c_bands:  3 eigenvalues not converged
     c_bands:  1 eigenvalues not converged
     c_bands:  1 eigenvalues not converged
     c_bands:  1 eigenvalues not converged
     c_bands:  1 eigenvalues not converged
     c_bands:  1 eigenvalues not converged
     c_bands:  1 eigenvalues not converged
     c_bands:  1 eigenvalues not converged
     c_bands:  1 eigenvalues not converged
     c_bands:  1 eigenvalues not converged
     c_bands:  1 eigenvalues not converged
     c_bands:  1 eigenvalues not converged
     c_bands:  1 eigenvalues not converged
     c_bands:  1 eigenvalues not converged
     c_bands:  1 eigenvalues not converged
     c_bands:  1 eigenvalues not converged
     c_bands:  1 eigenvalues not converged
     c_bands:  2 eigenvalues not converged
     c_bands:  1 eigenvalues not converged
     c_bands:  1 eigenvalues not converged
     c_bands:  1 eigenvalues not converged
     c_bands:  1 eigenvalues not converged
     ethr =  7.47E-07,  avg # of iterations =  5.8

     total cpu time spent up to now is      236.2 secs

     total energy              =    -860.10395746 Ry
     Harris-Foulkes estimate   =    -860.10401239 Ry
     estimated scf accuracy    <       0.00010311 Ry

     iteration #  7     ecut=    40.00 Ry     beta=0.70
     CG style diagonalization
     c_bands:  1 eigenvalues not converged
     c_bands:  1 eigenvalues not converged
     c_bands:  1 eigenvalues not converged
     c_bands:  1 eigenvalues not converged
     c_bands:  1 eigenvalues not converged
     ethr =  1.39E-07,  avg # of iterations =  3.6

     total cpu time spent up to now is      244.3 secs

     total energy              =    -860.10398734 Ry
     Harris-Foulkes estimate   =    -860.10398799 Ry
     estimated scf accuracy    <       0.00000125 Ry

     iteration #  8     ecut=    40.00 Ry     beta=0.70
     CG style diagonalization
     c_bands:  1 eigenvalues not converged
     ethr =  1.69E-09,  avg # of iterations =  4.8

     total cpu time spent up to now is      251.4 secs

     End of self-consistent calculation

     Number of k-points >= 100: set verbosity='high' to print the bands.

     the Fermi energy is    49.7735 ev

!    total energy              =    -860.10398896 Ry
     Harris-Foulkes estimate   =    -860.10398897 Ry
     estimated scf accuracy    <       0.00000003 Ry

     The total energy is the sum of the following terms:

     one-electron contribution =     116.63768702 Ry
     hartree contribution      =      58.01534179 Ry
     xc contribution           =     -89.19723295 Ry
     ewald contribution        =    -945.49099982 Ry
     smearing contrib. (-TS)   =      -0.06878499 Ry

     convergence has been achieved in   8 iterations

     Forces acting on atoms (Ry/au):

     atom    1 type  1   force =     0.00000000    0.00000000    0.00000000
     atom    2 type  1   force =     0.00000000    0.00000000    0.00000000
     atom    3 type  1   force =     0.00000000    0.00000000    0.00000000
     atom    4 type  2   force =     0.00000000    0.00000000    0.00000000

     Total force =     0.000000     Total SCF correction =     0.000000


     entering subroutine stress ...

          total   stress  (Ry/bohr**3)                   (kbar)     P= 6329.65
   0.04302808   0.00000000   0.00000000       6329.65      0.00      0.00
   0.00000000   0.04302808   0.00000000          0.00   6329.65      0.00
   0.00000000   0.00000000   0.04302808          0.00      0.00   6329.65


     number of scf cycles    =   3
     number of bfgs steps    =   2

     enthalpy old            =    -862.0297878323 Ry
     enthalpy new            =    -860.1039889556 Ry

     CASE: enthalpy_new > enthalpy_old

     new trust radius        =       0.1848256344 bohr

     trust_radius < trust_radius_min

     resetting bfgs history

     Message from routine bfgs:
     history already reset at previous step: stopping
     new conv_thr            =       0.0000010000 Ry

     new unit-cell volume =    357.61471 a.u.^3 (    52.99303 Ang^3 )

CELL_PARAMETERS (alat=  7.13166486)
   0.995285164   0.000000000   0.000000000
   0.000000000   0.995285164   0.000000000
   0.000000000   0.000000000   0.995285164

ATOMIC_POSITIONS (crystal)
Cu       0.000000000   0.500000000   0.500000000
Cu       0.500000000   0.500000000   0.000000000
Cu       0.500000000   0.000000000   0.500000000
Au       0.000000000   0.000000000   0.000000000



     Writing output data file Prototype-La-cP4-Cu3Au.save
     NEW-OLD atomic charge density approx. for the potential
     NEW k-points: (use verbosity='high' to print them)

     total cpu time spent up to now is      254.1 secs

     Self-consistent Calculation

     iteration #  1     ecut=    40.00 Ry     beta=0.70
     CG style diagonalization
     c_bands:  1 eigenvalues not converged
     c_bands:  1 eigenvalues not converged
     c_bands:  4 eigenvalues not converged
     c_bands:  5 eigenvalues not converged
     c_bands:  5 eigenvalues not converged
     c_bands:  1 eigenvalues not converged
     c_bands:  1 eigenvalues not converged
     c_bands:  3 eigenvalues not converged
     c_bands:  3 eigenvalues not converged
     c_bands:  5 eigenvalues not converged
     c_bands:  5 eigenvalues not converged
     c_bands:  5 eigenvalues not converged
     c_bands:  5 eigenvalues not converged
     c_bands:  4 eigenvalues not converged
     c_bands:  5 eigenvalues not converged
     c_bands:  4 eigenvalues not converged
     c_bands:  1 eigenvalues not converged
     c_bands:  1 eigenvalues not converged
     c_bands:  5 eigenvalues not converged
     c_bands:  5 eigenvalues not converged
     c_bands:  5 eigenvalues not converged
     c_bands:  5 eigenvalues not converged
     c_bands:  1 eigenvalues not converged
     c_bands:  5 eigenvalues not converged
     c_bands:  2 eigenvalues not converged
     c_bands:  5 eigenvalues not converged
     c_bands:  5 eigenvalues not converged
     c_bands:  5 eigenvalues not converged
     c_bands:  3 eigenvalues not converged
     c_bands:  1 eigenvalues not converged
     c_bands:  1 eigenvalues not converged
     c_bands:  1 eigenvalues not converged
     c_bands:  1 eigenvalues not converged
     c_bands:  5 eigenvalues not converged
     c_bands:  3 eigenvalues not converged
     c_bands:  5 eigenvalues not converged
     c_bands:  5 eigenvalues not converged
     c_bands:  1 eigenvalues not converged
     ethr =  1.00E-06,  avg # of iterations = 16.7

     total cpu time spent up to now is      279.6 secs

     total energy              =    -859.58937652 Ry
     Harris-Foulkes estimate   =    -865.10129733 Ry
     estimated scf accuracy    <       7.17897643 Ry

     iteration #  2     ecut=    40.00 Ry     beta=0.70
     CG style diagonalization
     ethr =  9.70E-03,  avg # of iterations =  3.8

     total cpu time spent up to now is      286.5 secs

     total energy              =    -861.69568868 Ry
     Harris-Foulkes estimate   =    -862.19040119 Ry
     estimated scf accuracy    <       0.76389688 Ry

     iteration #  3     ecut=    40.00 Ry     beta=0.70
     CG style diagonalization
     ethr =  1.03E-03,  avg # of iterations =  3.7

     total cpu time spent up to now is      294.4 secs

     total energy              =    -861.85865016 Ry
     Harris-Foulkes estimate   =    -861.88030079 Ry
     estimated scf accuracy    <       0.03781634 Ry

     iteration #  4     ecut=    40.00 Ry     beta=0.70
     CG style diagonalization
     c_bands:  1 eigenvalues not converged
     c_bands:  1 eigenvalues not converged
     ethr =  5.11E-05,  avg # of iterations =  3.9

     total cpu time spent up to now is      302.5 secs

     total energy              =    -861.87043124 Ry
     Harris-Foulkes estimate   =    -861.87200008 Ry
     estimated scf accuracy    <       0.00331492 Ry

     iteration #  5     ecut=    40.00 Ry     beta=0.70
     CG style diagonalization
     c_bands:  1 eigenvalues not converged
     c_bands:  1 eigenvalues not converged
     c_bands:  1 eigenvalues not converged
     c_bands:  1 eigenvalues not converged
     c_bands:  1 eigenvalues not converged
     c_bands:  1 eigenvalues not converged
     c_bands:  1 eigenvalues not converged
     c_bands:  1 eigenvalues not converged
     c_bands:  1 eigenvalues not converged
     c_bands:  1 eigenvalues not converged
     ethr =  4.48E-06,  avg # of iterations =  3.9

     total cpu time spent up to now is      309.2 secs

     total energy              =    -861.87112683 Ry
     Harris-Foulkes estimate   =    -861.87116397 Ry
     estimated scf accuracy    <       0.00007524 Ry

     iteration #  6     ecut=    40.00 Ry     beta=0.70
     CG style diagonalization
     c_bands:  1 eigenvalues not converged
     c_bands:  1 eigenvalues not converged
     ethr =  1.02E-07,  avg # of iterations =  4.0

     total cpu time spent up to now is      317.6 secs

     total energy              =    -861.87116158 Ry
     Harris-Foulkes estimate   =    -861.87116371 Ry
     estimated scf accuracy    <       0.00000339 Ry

     iteration #  7     ecut=    40.00 Ry     beta=0.70
     CG style diagonalization
     ethr =  4.59E-09,  avg # of iterations =  4.0

     total cpu time spent up to now is      326.6 secs

     End of self-consistent calculation

     Number of k-points >= 100: set verbosity='high' to print the bands.

     the Fermi energy is    39.5036 ev

!    total energy              =    -861.87116306 Ry
     Harris-Foulkes estimate   =    -861.87116320 Ry
     estimated scf accuracy    <       0.00000017 Ry

     The total energy is the sum of the following terms:

     one-electron contribution =      35.62387183 Ry
     hartree contribution      =      74.91447003 Ry
     xc contribution           =     -87.08391801 Ry
     ewald contribution        =    -885.23596736 Ry
     smearing contrib. (-TS)   =      -0.08961955 Ry

     convergence has been achieved in   7 iterations

     Forces acting on atoms (Ry/au):

     atom    1 type  1   force =     0.00000000    0.00000000    0.00000000
     atom    2 type  1   force =     0.00000000    0.00000000    0.00000000
     atom    3 type  1   force =     0.00000000    0.00000000    0.00000000
     atom    4 type  2   force =     0.00000000    0.00000000    0.00000000

     Total force =     0.000000     Total SCF correction =     0.000000


     entering subroutine stress ...

          total   stress  (Ry/bohr**3)                   (kbar)     P= 2263.73
   0.01538851   0.00000000   0.00000000       2263.73      0.00      0.00
   0.00000000   0.01538851   0.00000000          0.00   2263.73      0.00
   0.00000000   0.00000000   0.01538851          0.00      0.00   2263.73


     The maximum number of steps has been reached.

     End of BFGS Geometry Optimization
Begin final coordinates
     new unit-cell volume =    357.61471 a.u.^3 (    52.99303 Ang^3 )

CELL_PARAMETERS (alat=  7.13166486)
   0.995285164   0.000000000   0.000000000
   0.000000000   0.995285164   0.000000000
   0.000000000   0.000000000   0.995285164

ATOMIC_POSITIONS (crystal)
Cu       0.000000000   0.500000000   0.500000000
Cu       0.500000000   0.500000000   0.000000000
Cu       0.500000000   0.000000000   0.500000000
Au       0.000000000   0.000000000   0.000000000
End final coordinates



     A final scf calculation at the relaxed structure.
     The G-vectors are recalculated for the final unit cell
     Results may differ from those at the preceding step.
 
     Parallelization info
     --------------------
     sticks:   dense  smooth     PW     G-vecs:    dense   smooth      PW
     Min         160     160     48                 3048     3048     524
     Max         161     161     49                 3051     3051     527
     Sum         641     641    193                12197    12197    2103
 


     bravais-lattice index     =            0
     lattice parameter (alat)  =       7.1317  a.u.
     unit-cell volume          =     357.6147 (a.u.)^3
     number of atoms/cell      =            4
     number of atomic types    =            2
     number of electrons       =        74.00
     number of Kohn-Sham states=           44
     kinetic-energy cutoff     =      40.0000  Ry
     charge density cutoff     =     160.0000  Ry
     convergence threshold     =      1.0E-06
     mixing beta               =       0.7000
     number of iterations used =            8  plain     mixing
     Exchange-correlation      = SLA-PZ-NOGX-NOGC ( 1 1 0 0 0)
     EXX-fraction              =        0.00

     celldm(1)=   7.131665  celldm(2)=   0.000000  celldm(3)=   0.000000
     celldm(4)=   0.000000  celldm(5)=   0.000000  celldm(6)=   0.000000

     crystal axes: (cart. coord. in units of alat)
               a(1) = (   0.995285   0.000000   0.000000 )  
               a(2) = (   0.000000   0.995285   0.000000 )  
               a(3) = (   0.000000   0.000000   0.995285 )  

     reciprocal axes: (cart. coord. in units 2 pi/alat)
               b(1) = (  1.004737  0.000000  0.000000 )  
               b(2) = (  0.000000  1.004737  0.000000 )  
               b(3) = (  0.000000  0.000000  1.004737 )  


     PseudoPot. # 1 for Tb read from file:
     /home/cwx6513/pp.La/Tb.UPF
     MD5 check sum: 3d6088a3f0cf7fd2e110c43f7f8e95c2
     Pseudo is Norm-conserving, Zval = 19.0
     Generated in analytical, separable form
     Using radial grid of 1263 points,  6 beta functions with: 
                l(1) =   0
                l(2) =   0
                l(3) =   1
                l(4) =   1
                l(5) =   2
                l(6) =   3

     PseudoPot. # 2 for Eu read from file:
     /home/cwx6513/pp.La/Eu.UPF
     MD5 check sum: 5efdbbfc50c6a10138933a6429836ad2
     Pseudo is Norm-conserving, Zval = 17.0
     Generated in analytical, separable form
     Using radial grid of 1261 points,  6 beta functions with: 
                l(1) =   0
                l(2) =   0
                l(3) =   1
                l(4) =   1
                l(5) =   2
                l(6) =   3

     atomic species   valence    mass     pseudopotential
        Cu            19.00    63.54600     Tb( 1.00)
        Au            17.00   196.96600     Eu( 1.00)

     48 Sym. Ops., with inversion, found



   Cartesian axes

     site n.     atom                  positions (alat units)
         1           Cu  tau(   1) = (   0.0000000   0.4976426   0.4976426  )
         2           Cu  tau(   2) = (   0.4976426   0.4976426   0.0000000  )
         3           Cu  tau(   3) = (   0.4976426   0.0000000   0.4976426  )
         4           Au  tau(   4) = (   0.0000000   0.0000000   0.0000000  )

     number of k points=   100  gaussian smearing, width (Ry)=  0.1000

     Number of k-points >= 100: set verbosity='high' to print them.

     Dense  grid:    12197 G-vectors     FFT dimensions: (  30,  30,  30)

     Largest allocated arrays     est. size (Mb)     dimensions
        Kohn-Sham Wavefunctions         0.27 Mb     (    398,   44)
        NL pseudopotentials             0.49 Mb     (    398,   80)
        Each V/rho on FFT grid          0.11 Mb     (   7200)
        Each G-vector array             0.02 Mb     (   3050)
        G-vector shells                 0.00 Mb     (    173)
     Largest temporary arrays     est. size (Mb)     dimensions
        Each subspace H/S matrix        0.03 Mb     (  44,  44)
        Each <psi_i|beta_j> matrix      0.05 Mb     (     80,   44)
        Arrays for rho mixing           0.88 Mb     (   7200,   8)

     Initial potential from superposition of free atoms

     Starting from uniform charge
     Starting wfc are    0 randomized atomic wfcs

     Writing output data file Prototype-La-cP4-Cu3Au.save

     total cpu time spent up to now is      329.9 secs

     Self-consistent Calculation

     iteration #  1     ecut=    40.00 Ry     beta=0.70
     CG style diagonalization
     c_bands:  2 eigenvalues not converged
     c_bands:  3 eigenvalues not converged
     c_bands:  2 eigenvalues not converged
     c_bands:  3 eigenvalues not converged
     c_bands:  3 eigenvalues not converged
     c_bands:  3 eigenvalues not converged
     c_bands:  3 eigenvalues not converged
     c_bands:  3 eigenvalues not converged
     c_bands:  4 eigenvalues not converged
     c_bands:  4 eigenvalues not converged
     c_bands:  2 eigenvalues not converged
     c_bands:  5 eigenvalues not converged
     c_bands:  4 eigenvalues not converged
     c_bands:  3 eigenvalues not converged
     c_bands:  5 eigenvalues not converged
     c_bands:  3 eigenvalues not converged
     c_bands:  3 eigenvalues not converged
     c_bands:  4 eigenvalues not converged
     c_bands:  3 eigenvalues not converged
     c_bands:  4 eigenvalues not converged
     c_bands:  2 eigenvalues not converged
     c_bands:  3 eigenvalues not converged
     c_bands:  4 eigenvalues not converged
     c_bands:  5 eigenvalues not converged
     c_bands:  4 eigenvalues not converged
     c_bands:  1 eigenvalues not converged
     c_bands:  3 eigenvalues not converged
     c_bands:  2 eigenvalues not converged
     c_bands:  4 eigenvalues not converged
     c_bands:  3 eigenvalues not converged
     c_bands:  4 eigenvalues not converged
     c_bands:  3 eigenvalues not converged
     c_bands:  4 eigenvalues not converged
     c_bands:  4 eigenvalues not converged
     c_bands:  4 eigenvalues not converged
     c_bands:  4 eigenvalues not converged
     c_bands:  5 eigenvalues not converged
     c_bands:  5 eigenvalues not converged
     c_bands:  1 eigenvalues not converged
     c_bands:  2 eigenvalues not converged
     c_bands:  4 eigenvalues not converged
     c_bands:  4 eigenvalues not converged
     c_bands:  3 eigenvalues not converged
     c_bands:  4 eigenvalues not converged
     c_bands:  4 eigenvalues not converged
     c_bands:  3 eigenvalues not converged
     c_bands:  4 eigenvalues not converged
     c_bands:  5 eigenvalues not converged
     c_bands:  5 eigenvalues not converged
     c_bands:  5 eigenvalues not converged
     c_bands:  3 eigenvalues not converged
     c_bands:  3 eigenvalues not converged
     c_bands:  5 eigenvalues not converged
     c_bands:  4 eigenvalues not converged
     c_bands:  5 eigenvalues not converged
     c_bands:  4 eigenvalues not converged
     c_bands:  4 eigenvalues not converged
     c_bands:  5 eigenvalues not converged
     c_bands:  5 eigenvalues not converged
     c_bands:  5 eigenvalues not converged
     c_bands:  4 eigenvalues not converged
     c_bands:  3 eigenvalues not converged
     c_bands:  4 eigenvalues not converged
     c_bands:  5 eigenvalues not converged
     c_bands:  5 eigenvalues not converged
     c_bands:  4 eigenvalues not converged
     c_bands:  4 eigenvalues not converged
     c_bands:  1 eigenvalues not converged
     c_bands:  5 eigenvalues not converged
     c_bands:  3 eigenvalues not converged
     c_bands:  5 eigenvalues not converged
     c_bands:  2 eigenvalues not converged
     c_bands:  4 eigenvalues not converged
     c_bands:  4 eigenvalues not converged
     c_bands:  5 eigenvalues not converged
     c_bands:  3 eigenvalues not converged
     c_bands:  4 eigenvalues not converged
     c_bands:  5 eigenvalues not converged
     c_bands:  5 eigenvalues not converged
     c_bands:  4 eigenvalues not converged
     c_bands:  4 eigenvalues not converged
     c_bands:  4 eigenvalues not converged
     c_bands:  5 eigenvalues not converged
     c_bands:  5 eigenvalues not converged
     c_bands:  1 eigenvalues not converged
     c_bands:  5 eigenvalues not converged
     c_bands:  5 eigenvalues not converged
     c_bands:  4 eigenvalues not converged
     c_bands:  4 eigenvalues not converged
     c_bands:  5 eigenvalues not converged
     c_bands:  5 eigenvalues not converged
     c_bands:  3 eigenvalues not converged
     c_bands:  5 eigenvalues not converged
     c_bands:  3 eigenvalues not converged
     c_bands:  5 eigenvalues not converged
     c_bands:  5 eigenvalues not converged
     c_bands:  5 eigenvalues not converged
     c_bands:  3 eigenvalues not converged
     c_bands:  3 eigenvalues not converged
     c_bands:  4 eigenvalues not converged
     ethr =  1.00E-06,  avg # of iterations = 42.4

     total cpu time spent up to now is      388.9 secs

     total energy              =    -790.78441593 Ry
     Harris-Foulkes estimate   =    -966.31297508 Ry
     estimated scf accuracy    <     230.99041299 Ry

     iteration #  2     ecut=    40.00 Ry     beta=0.70
     CG style diagonalization
     c_bands:  1 eigenvalues not converged
     c_bands:  1 eigenvalues not converged
     c_bands:  1 eigenvalues not converged
     c_bands:  1 eigenvalues not converged
     c_bands:  1 eigenvalues not converged
     c_bands:  1 eigenvalues not converged
     c_bands:  1 eigenvalues not converged
     c_bands:  1 eigenvalues not converged
     c_bands:  1 eigenvalues not converged
     c_bands:  1 eigenvalues not converged
     c_bands:  1 eigenvalues not converged
     c_bands:  1 eigenvalues not converged
     c_bands:  1 eigenvalues not converged
     c_bands:  1 eigenvalues not converged
     c_bands:  1 eigenvalues not converged
     c_bands:  1 eigenvalues not converged
     ethr =  1.00E-02,  avg # of iterations =  8.2

     total cpu time spent up to now is      402.5 secs

     total energy              =    -823.57707731 Ry
     Harris-Foulkes estimate   =    -883.17693274 Ry
     estimated scf accuracy    <      91.12206311 Ry

     iteration #  3     ecut=    40.00 Ry     beta=0.70
     CG style diagonalization
     c_bands:  1 eigenvalues not converged
     c_bands:  1 eigenvalues not converged
     c_bands:  1 eigenvalues not converged
     ethr =  1.00E-02,  avg # of iterations =  7.0

     total cpu time spent up to now is      413.9 secs

     total energy              =    -855.59086503 Ry
     Harris-Foulkes estimate   =    -874.17796150 Ry
     estimated scf accuracy    <      42.84880786 Ry

     iteration #  4     ecut=    40.00 Ry     beta=0.70
     CG style diagonalization
     ethr =  1.00E-02,  avg # of iterations =  4.5

     total cpu time spent up to now is      420.6 secs

     total energy              =    -861.63909145 Ry
     Harris-Foulkes estimate   =    -862.02966486 Ry
     estimated scf accuracy    <       1.01421139 Ry

     iteration #  5     ecut=    40.00 Ry     beta=0.70
     CG style diagonalization
     ethr =  1.37E-03,  avg # of iterations =  3.8

     negative rho (up, down):  0.176E-04 0.000E+00

     total cpu time spent up to now is      427.2 secs

     total energy              =    -861.80298890 Ry
     Harris-Foulkes estimate   =    -861.86384847 Ry
     estimated scf accuracy    <       0.11514823 Ry

     iteration #  6     ecut=    40.00 Ry     beta=0.70
     CG style diagonalization
     c_bands:  1 eigenvalues not converged
     c_bands:  1 eigenvalues not converged
     c_bands:  1 eigenvalues not converged
     c_bands:  1 eigenvalues not converged
     c_bands:  1 eigenvalues not converged
     c_bands:  1 eigenvalues not converged
     c_bands:  1 eigenvalues not converged
     c_bands:  1 eigenvalues not converged
     c_bands:  1 eigenvalues not converged
     c_bands:  1 eigenvalues not converged
     c_bands:  1 eigenvalues not converged
     c_bands:  1 eigenvalues not converged
     c_bands:  1 eigenvalues not converged
     c_bands:  1 eigenvalues not converged
     c_bands:  1 eigenvalues not converged
     c_bands:  1 eigenvalues not converged
     c_bands:  1 eigenvalues not converged
     ethr =  1.56E-04,  avg # of iterations =  4.2

     total cpu time spent up to now is      434.5 secs

     total energy              =    -861.82743889 Ry
     Harris-Foulkes estimate   =    -861.85312212 Ry
     estimated scf accuracy    <       0.05980133 Ry

     iteration #  7     ecut=    40.00 Ry     beta=0.70
     CG style diagonalization
     ethr =  8.08E-05,  avg # of iterations =  3.3

     total cpu time spent up to now is      439.5 secs

     total energy              =    -861.83445507 Ry
     Harris-Foulkes estimate   =    -861.83543497 Ry
     estimated scf accuracy    <       0.00188664 Ry

     iteration #  8     ecut=    40.00 Ry     beta=0.70
     CG style diagonalization
     c_bands:  2 eigenvalues not converged
     c_bands:  1 eigenvalues not converged
     c_bands:  1 eigenvalues not converged
     c_bands:  1 eigenvalues not converged
     c_bands:  1 eigenvalues not converged
     c_bands:  1 eigenvalues not converged
     c_bands:  1 eigenvalues not converged
     c_bands:  1 eigenvalues not converged
     c_bands:  2 eigenvalues not converged
     c_bands:  1 eigenvalues not converged
     c_bands:  1 eigenvalues not converged
     c_bands:  1 eigenvalues not converged
     c_bands:  1 eigenvalues not converged
     c_bands:  1 eigenvalues not converged
     c_bands:  1 eigenvalues not converged
     c_bands:  1 eigenvalues not converged
     c_bands:  1 eigenvalues not converged
     c_bands:  1 eigenvalues not converged
     c_bands:  1 eigenvalues not converged
     c_bands:  1 eigenvalues not converged
     c_bands:  1 eigenvalues not converged
     c_bands:  1 eigenvalues not converged
     c_bands:  1 eigenvalues not converged
     c_bands:  1 eigenvalues not converged
     c_bands:  1 eigenvalues not converged
     c_bands:  1 eigenvalues not converged
     c_bands:  1 eigenvalues not converged
     c_bands:  1 eigenvalues not converged
     ethr =  2.55E-06,  avg # of iterations =  4.8

     total cpu time spent up to now is      447.7 secs

     total energy              =    -861.83549437 Ry
     Harris-Foulkes estimate   =    -861.83557216 Ry
     estimated scf accuracy    <       0.00024059 Ry

     iteration #  9     ecut=    40.00 Ry     beta=0.70
     CG style diagonalization
     c_bands:  1 eigenvalues not converged
     c_bands:  1 eigenvalues not converged
     c_bands:  1 eigenvalues not converged
     c_bands:  1 eigenvalues not converged
     c_bands:  1 eigenvalues not converged
     ethr =  3.25E-07,  avg # of iterations =  3.5

     total cpu time spent up to now is      452.8 secs

     total energy              =    -861.83551049 Ry
     Harris-Foulkes estimate   =    -861.83553147 Ry
     estimated scf accuracy    <       0.00005023 Ry

     iteration # 10     ecut=    40.00 Ry     beta=0.70
     CG style diagonalization
     ethr =  6.79E-08,  avg # of iterations =  3.4

     total cpu time spent up to now is      458.4 secs

     End of self-consistent calculation

     Number of k-points >= 100: set verbosity='high' to print the bands.

     the Fermi energy is    39.5058 ev

!    total energy              =    -861.83551984 Ry
     Harris-Foulkes estimate   =    -861.83552053 Ry
     estimated scf accuracy    <       0.00000077 Ry

     The total energy is the sum of the following terms:

     one-electron contribution =      35.66925468 Ry
     hartree contribution      =      74.90159888 Ry
     xc contribution           =     -87.08084548 Ry
     ewald contribution        =    -885.23596736 Ry
     smearing contrib. (-TS)   =      -0.08956056 Ry

     convergence has been achieved in  10 iterations

     Forces acting on atoms (Ry/au):

     atom    1 type  1   force =     0.00000000    0.00000000    0.00000000
     atom    2 type  1   force =     0.00000000    0.00000000    0.00000000
     atom    3 type  1   force =     0.00000000    0.00000000    0.00000000
     atom    4 type  2   force =     0.00000000    0.00000000    0.00000000

     Total force =     0.000000     Total SCF correction =     0.000000


     entering subroutine stress ...

          total   stress  (Ry/bohr**3)                   (kbar)     P= 2230.04
   0.01515953   0.00000000   0.00000000       2230.04      0.00      0.00
   0.00000000   0.01515953   0.00000000          0.00   2230.04      0.00
   0.00000000   0.00000000   0.01515953          0.00      0.00   2230.04


     Writing output data file Prototype-La-cP4-Cu3Au.save
 
     init_run     :      2.96s CPU      3.39s WALL (       2 calls)
     electrons    :    400.41s CPU    443.97s WALL (       5 calls)
     update_pot   :      0.89s CPU      2.12s WALL (       3 calls)
     forces       :      1.75s CPU      2.00s WALL (       5 calls)
     stress       :      4.54s CPU      4.61s WALL (       5 calls)

     Called by init_run:
     wfcinit      :      2.64s CPU      3.05s WALL (       2 calls)
     potinit      :      0.13s CPU      0.13s WALL (       2 calls)

     Called by electrons:
     c_bands      :    383.38s CPU    406.51s WALL (      41 calls)
     sum_band     :     16.68s CPU     17.35s WALL (      41 calls)
     v_of_rho     :      0.03s CPU      0.03s WALL (      46 calls)
     mix_rho      :      0.02s CPU      0.02s WALL (      41 calls)

     Called by c_bands:
     init_us_2    :      1.64s CPU      1.80s WALL (    9400 calls)
     ccgdiagg     :    323.39s CPU    335.39s WALL (    4553 calls)
     wfcrot       :     60.85s CPU     65.66s WALL (    4653 calls)

     Called by *cgdiagg:
     h_psi        :    262.59s CPU    281.30s WALL (  995164 calls)
     cdiaghg      :      2.73s CPU      3.04s WALL (    4653 calls)

     Called by h_psi:
     add_vuspsi   :     16.09s CPU     25.29s WALL (  995164 calls)

     General routines
     calbec       :     74.33s CPU     69.80s WALL ( 1986675 calls)
     fft          :      0.03s CPU      0.04s WALL (     207 calls)
     fftw         :    204.30s CPU    207.15s WALL ( 2570886 calls)
     davcio       :      1.26s CPU      7.81s WALL (   13500 calls)
 
     Parallel routines
     fft_scatter  :     78.18s CPU     82.96s WALL ( 2571093 calls)
 
     PWSCF        :  6m51.48s CPU     7m39.94s WALL

 
   This run was terminated on:  17:40:35  22Mar2018            

=------------------------------------------------------------------------------=
   JOB DONE.
=------------------------------------------------------------------------------=
