
     Program PWSCF v.5.0.2 starts on 22Mar2018 at  0:36:49 

     This program is part of the open-source Quantum ESPRESSO suite
     for quantum simulation of materials; please cite
         "P. Giannozzi et al., J. Phys.:Condens. Matter 21 395502 (2009);
          URL http://www.quantum-espresso.org", 
     in publications or presentations arising from this work. More details at
     http://www.quantum-espresso.org/quote.php

     Parallel version (MPI), running on     4 processors
     R & G space division:  proc/nbgrp/npool/nimage =       4

     Current dimensions of program PWSCF are:
     Max number of different atomic species (ntypx) = 10
     Max number of k-points (npk) =  40000
     Max angular momentum in pseudopotentials (lmaxx) =  3
     Waiting for input...
     Reading input from standard input

     Subspace diagonalization in iterative solution of the eigenvalue problem:
     a serial algorithm will be used

 
     Parallelization info
     --------------------
     sticks:   dense  smooth     PW     G-vecs:    dense   smooth      PW
     Min         267     267     77                11587    11587    1762
     Max         268     268     79                11596    11596    1765
     Sum        1069    1069    313                46361    46361    7055
 


     bravais-lattice index     =            0
     lattice parameter (alat)  =       9.9235  a.u.
     unit-cell volume          =    1361.0366 (a.u.)^3
     number of atoms/cell      =           12
     number of atomic types    =            2
     number of electrons       =       248.00
     number of Kohn-Sham states=          149
     kinetic-energy cutoff     =      40.0000  Ry
     charge density cutoff     =     160.0000  Ry
     convergence threshold     =      1.0E-04
     mixing beta               =       0.7000
     number of iterations used =            8  plain     mixing
     Exchange-correlation      = SLA-PZ-NOGX-NOGC ( 1 1 0 0 0)
     EXX-fraction              =        0.00
     nstep                     =           50


     celldm(1)=   9.923489  celldm(2)=   0.000000  celldm(3)=   0.000000
     celldm(4)=   0.000000  celldm(5)=   0.000000  celldm(6)=   0.000000

     crystal axes: (cart. coord. in units of alat)
               a(1) = (   1.000000   0.000000   0.000000 )  
               a(2) = (  -0.500000   0.866025   0.000000 )  
               a(3) = (   0.000000   0.000000   1.608222 )  

     reciprocal axes: (cart. coord. in units 2 pi/alat)
               b(1) = (  1.000000  0.577350  0.000000 )  
               b(2) = (  0.000000  1.154701  0.000000 )  
               b(3) = (  0.000000  0.000000  0.621805 )  


     PseudoPot. # 1 for Ce read from file:
     /home/jld5415/pp.La/Ce.UPF
     MD5 check sum: 44451aa79a44a00cf2bc029dc19922f6
     Pseudo is Norm-conserving, Zval = 12.0
     Generated in analytical, separable form
     Using radial grid of 1255 points,  6 beta functions with: 
                l(1) =   0
                l(2) =   0
                l(3) =   1
                l(4) =   1
                l(5) =   2
                l(6) =   3

     PseudoPot. # 2 for Lu read from file:
     /home/jld5415/pp.La/La.UPF
     MD5 check sum: 4fc038260c66a0bf25fb4835376efb80
     Pseudo is Norm-conserving, Zval = 25.0
     Generated in analytical, separable form
     Using radial grid of 1271 points,  6 beta functions with: 
                l(1) =   0
                l(2) =   0
                l(3) =   1
                l(4) =   1
                l(5) =   2
                l(6) =   3

     atomic species   valence    mass     pseudopotential
        Mg            12.00    24.30500     Ce( 1.00)
        Zn            25.00    65.39000     Lu( 1.00)

     24 Sym. Ops., with inversion, found (12 have fractional translation)



   Cartesian axes

     site n.     atom                  positions (alat units)
         1           Mg  tau(   1) = (  -0.0000005   0.5773506   0.1003820  )
         2           Mg  tau(   2) = (   0.5000005   0.2886748   0.9044931  )
         3           Mg  tau(   3) = (   0.5000005   0.2886748   1.5078402  )
         4           Mg  tau(   4) = (  -0.0000005   0.5773506   0.7037291  )
         5           Zn  tau(   5) = (   0.0000000   0.0000000   0.0000000  )
         6           Zn  tau(   6) = (   0.0000000   0.0000000   0.8041111  )
         7           Zn  tau(   7) = (   0.0000000   0.2950739   1.2061667  )
         8           Zn  tau(   8) = (   0.7444585   0.1475370   0.4020556  )
         9           Zn  tau(   9) = (   0.2555415   0.1475370   0.4020556  )
        10           Zn  tau(  10) = (   0.2444585   0.7184884   1.2061667  )
        11           Zn  tau(  11) = (  -0.2444585   0.7184884   1.2061667  )
        12           Zn  tau(  12) = (   0.5000000   0.5709515   0.4020556  )

     number of k points=    12  gaussian smearing, width (Ry)=  0.1000
                       cart. coord. in units 2pi/alat
        k(    1) = (   0.0000000   0.0000000   0.0000000), wk =   0.0833333
        k(    2) = (   0.0000000   0.0000000   0.1554512), wk =   0.1666667
        k(    3) = (   0.0000000   0.0000000  -0.3109023), wk =   0.0833333
        k(    4) = (   0.0000000   0.3849002   0.0000000), wk =   0.1666667
        k(    5) = (   0.0000000   0.3849002   0.1554512), wk =   0.3333333
        k(    6) = (   0.0000000   0.3849002  -0.3109023), wk =   0.1666667
        k(    7) = (  -0.5000000  -0.2886751   0.0000000), wk =   0.0833333
        k(    8) = (  -0.5000000  -0.2886751   0.1554512), wk =   0.1666667
        k(    9) = (  -0.5000000  -0.2886751  -0.3109023), wk =   0.0833333
        k(   10) = (  -0.5000000   0.0962250   0.0000000), wk =   0.1666667
        k(   11) = (  -0.5000000   0.0962250   0.1554512), wk =   0.3333333
        k(   12) = (  -0.5000000   0.0962250  -0.3109023), wk =   0.1666667

     Dense  grid:    46361 G-vectors     FFT dimensions: (  40,  40,  72)

     Largest allocated arrays     est. size (Mb)     dimensions
        Kohn-Sham Wavefunctions         3.36 Mb     (   1478,  149)
        NL pseudopotentials             5.41 Mb     (   1478,  240)
        Each V/rho on FFT grid          0.44 Mb     (  28800)
        Each G-vector array             0.09 Mb     (  11589)
        G-vector shells                 0.09 Mb     (  11589)
     Largest temporary arrays     est. size (Mb)     dimensions
        Each subspace H/S matrix        0.34 Mb     ( 149, 149)
        Each <psi_i|beta_j> matrix      0.55 Mb     (    240,  149)
        Arrays for rho mixing           3.52 Mb     (  28800,   8)

     Initial potential from superposition of free atoms

     Starting from uniform charge
     Starting wfc are    0 randomized atomic wfcs

     total cpu time spent up to now is        4.6 secs

     Self-consistent Calculation

     iteration #  1     ecut=    40.00 Ry     beta=0.70
     CG style diagonalization
     c_bands:  1 eigenvalues not converged
     c_bands:  1 eigenvalues not converged
     c_bands:  2 eigenvalues not converged
     ethr =  1.00E-02,  avg # of iterations = 23.1

     total cpu time spent up to now is      205.1 secs

     total energy              =   -2862.28074626 Ry
     Harris-Foulkes estimate   =   -5712.81528541 Ry
     estimated scf accuracy    <    3410.49033326 Ry

     iteration #  2     ecut=    40.00 Ry     beta=0.70
     CG style diagonalization
     ethr =  1.00E-02,  avg # of iterations = 17.4

     total cpu time spent up to now is      342.5 secs

     total energy              =   -2962.80185303 Ry
     Harris-Foulkes estimate   =   -4553.65354682 Ry
     estimated scf accuracy    <    2799.23837505 Ry

     iteration #  3     ecut=    40.00 Ry     beta=0.70
     CG style diagonalization
     c_bands:  5 eigenvalues not converged
     c_bands:  5 eigenvalues not converged
     ethr =  1.00E-02,  avg # of iterations = 17.0

     total cpu time spent up to now is      485.5 secs

     total energy              =   -3916.67425215 Ry
     Harris-Foulkes estimate   =   -4163.33458244 Ry
     estimated scf accuracy    <     676.83961339 Ry

     iteration #  4     ecut=    40.00 Ry     beta=0.70
     CG style diagonalization
     c_bands:  1 eigenvalues not converged
     ethr =  1.00E-02,  avg # of iterations =  6.7

     total cpu time spent up to now is      542.4 secs

     total energy              =   -3934.50800968 Ry
     Harris-Foulkes estimate   =   -3965.80482092 Ry
     estimated scf accuracy    <     115.92688137 Ry

     iteration #  5     ecut=    40.00 Ry     beta=0.70
     CG style diagonalization
     ethr =  1.00E-02,  avg # of iterations =  4.1

     total cpu time spent up to now is      576.1 secs

     total energy              =   -3929.04231149 Ry
     Harris-Foulkes estimate   =   -3945.50663222 Ry
     estimated scf accuracy    <      53.61927047 Ry

     iteration #  6     ecut=    40.00 Ry     beta=0.70
     CG style diagonalization
     ethr =  1.00E-02,  avg # of iterations =  3.5

     total cpu time spent up to now is      601.4 secs

     total energy              =   -3927.78301614 Ry
     Harris-Foulkes estimate   =   -3933.51379803 Ry
     estimated scf accuracy    <      13.60128738 Ry

     iteration #  7     ecut=    40.00 Ry     beta=0.70
     CG style diagonalization
     ethr =  5.48E-03,  avg # of iterations =  4.0

     total cpu time spent up to now is      630.8 secs

     total energy              =   -3930.56146622 Ry
     Harris-Foulkes estimate   =   -3930.73200236 Ry
     estimated scf accuracy    <       0.43549423 Ry

     iteration #  8     ecut=    40.00 Ry     beta=0.70
     CG style diagonalization
     c_bands:  1 eigenvalues not converged
     c_bands:  2 eigenvalues not converged
     c_bands:  4 eigenvalues not converged
     c_bands:  3 eigenvalues not converged
     c_bands:  3 eigenvalues not converged
     c_bands:  2 eigenvalues not converged
     c_bands:  2 eigenvalues not converged
     c_bands:  4 eigenvalues not converged
     c_bands:  4 eigenvalues not converged
     c_bands:  2 eigenvalues not converged
     ethr =  1.76E-04,  avg # of iterations =  5.8

     total cpu time spent up to now is      675.7 secs

     total energy              =   -3930.80309475 Ry
     Harris-Foulkes estimate   =   -3930.82795835 Ry
     estimated scf accuracy    <       0.10796155 Ry

     iteration #  9     ecut=    40.00 Ry     beta=0.70
     CG style diagonalization
     c_bands:  1 eigenvalues not converged
     c_bands:  1 eigenvalues not converged
     c_bands:  2 eigenvalues not converged
     c_bands:  1 eigenvalues not converged
     ethr =  4.35E-05,  avg # of iterations =  4.2

     total cpu time spent up to now is      706.6 secs

     total energy              =   -3930.76308000 Ry
     Harris-Foulkes estimate   =   -3930.84625399 Ry
     estimated scf accuracy    <       0.19467168 Ry

     iteration # 10     ecut=    40.00 Ry     beta=0.70
     CG style diagonalization
     ethr =  4.35E-05,  avg # of iterations =  3.7

     total cpu time spent up to now is      732.8 secs

     total energy              =   -3930.79718207 Ry
     Harris-Foulkes estimate   =   -3930.79755207 Ry
     estimated scf accuracy    <       0.00094139 Ry

     iteration # 11     ecut=    40.00 Ry     beta=0.70
     CG style diagonalization
     c_bands:  1 eigenvalues not converged
     c_bands:  1 eigenvalues not converged
     ethr =  3.80E-07,  avg # of iterations =  6.2

     total cpu time spent up to now is      783.6 secs

     total energy              =   -3930.79913301 Ry
     Harris-Foulkes estimate   =   -3930.79918870 Ry
     estimated scf accuracy    <       0.00010603 Ry

     iteration # 12     ecut=    40.00 Ry     beta=0.70
     CG style diagonalization
     ethr =  4.28E-08,  avg # of iterations =  4.0

     total cpu time spent up to now is      813.4 secs

     End of self-consistent calculation

          k = 0.0000 0.0000 0.0000 (  5769 PWs)   bands (ev):

  -102.1775-102.1775-102.1451-102.1447-102.1447-102.0254-101.9641-101.9278
   -58.0451 -58.0134 -57.8237 -57.8236 -57.8236 -57.8236 -57.7756 -57.7072
   -57.7003 -57.7002 -57.6917 -57.6916 -57.6756 -57.6756 -57.6659 -57.6515
   -57.6515 -57.6218 -57.6104 -57.5765 -57.4963 -57.4963 -57.4747 -57.4747
    -2.8381  -2.6708  -2.4412  -2.2607   0.6433   0.8348   1.0778   1.2858
     1.2858   1.3241   1.3242   1.6119   1.6119   1.7299   1.9030   1.9030
     2.1709   2.4217   2.4217   2.4587   2.5382   2.5383   2.8292   2.9589
     2.9589   2.9866   2.9866   3.0100   3.0100   3.1055   3.1119   3.1936
     3.1936   3.1965   3.2374   3.2374   3.3128   3.3129   3.6365   3.6366
     3.7665   3.7665   3.8985   3.9015  12.0560  12.9173  14.2401  14.2401
    14.5660  14.7217  14.7217  15.1205  15.1206  15.1646  15.3358  15.5723
    15.5723  16.5090  17.6431  19.0076  20.3955  20.9627  20.9627  22.2977
    22.2977  23.3854  24.5961  24.5961  24.9924  24.9924  25.4742  25.6167
    25.6167  29.1994  29.1994  29.9404  30.9736  30.9737  32.5101  33.2104
    33.6162  33.6163  33.6856  33.6856  34.3884  34.9177  35.1250  35.5204
    35.6462  35.8962  35.8962  35.9515  35.9515  36.0854  36.0854  36.8052
    36.8942  37.2059  37.2060  37.3276  37.6348  37.6664  37.6664  38.0982
    38.0983  38.4277  38.4279  38.5015  38.7803  38.8666  38.8667  38.9075
    38.9077  39.4490  39.4492  39.6492  39.9162

          k = 0.0000 0.0000 0.1555 (  5780 PWs)   bands (ev):

  -102.1878-102.1878-102.1663-102.1663-102.1074-102.0560-101.9559-101.9509
   -58.0405 -58.0127 -57.8283 -57.8283 -57.8256 -57.8256 -57.7788 -57.7155
   -57.7038 -57.7037 -57.6997 -57.6996 -57.6675 -57.6675 -57.6595 -57.6595
   -57.6460 -57.6259 -57.6205 -57.5815 -57.4959 -57.4959 -57.4769 -57.4769
    -2.8204  -2.7082  -2.4020  -2.2809   0.6625   0.7886   1.1708   1.2901
     1.2901   1.3176   1.3176   1.6012   1.6475   1.6475   1.8497   1.8497
     2.2442   2.4309   2.4504   2.4504   2.5280   2.5281   2.8967   2.9595
     2.9595   2.9666   2.9666   3.0617   3.0617   3.1046   3.1094   3.1537
     3.2053   3.2053   3.2101   3.2101   3.2884   3.2884   3.6580   3.6580
     3.7501   3.7501   3.8985   3.8996  12.1947  12.8227  14.2875  14.2875
    14.5225  14.6030  14.6031  15.0645  15.2323  15.2324  15.3091  15.5274
    15.5274  16.1514  18.3803  19.2120  20.4487  21.1040  21.1040  22.0122
    22.0122  22.2370  24.7236  24.7236  25.2855  25.2855  25.6477  25.6477
    26.4957  28.0961  28.0962  29.0398  32.1769  32.1770  33.0447  33.5741
    33.7959  33.7959  33.9800  33.9801  34.2394  34.9095  34.9252  35.5570
    35.5570  35.7556  35.7556  35.8068  36.0611  36.1655  36.1655  36.7773
    36.7774  36.8022  36.9155  37.0328  37.0329  37.2090  37.7559  37.9384
    37.9384  38.3147  38.4709  38.4709  38.6564  38.6565  38.8950  38.8951
    38.9942  39.0442  39.3455  40.1736  40.1739

          k = 0.0000 0.0000-0.3109 (  5780 PWs)   bands (ev):

  -102.1654-102.1654-102.1354-102.1353-102.1353-102.1353-101.9488-101.9488
   -58.0195 -58.0195 -57.8212 -57.8212 -57.8212 -57.8212 -57.7829 -57.7829
   -57.6946 -57.6945 -57.6945 -57.6945 -57.6677 -57.6677 -57.6677 -57.6677
   -57.6158 -57.6158 -57.6134 -57.6134 -57.4848 -57.4848 -57.4848 -57.4848
    -2.7722  -2.7721  -2.3338  -2.3337   0.7126   0.7126   1.3026   1.3027
     1.3027   1.3027   1.3718   1.3718   1.7417   1.7418   1.7418   1.7418
     2.3495   2.3496   2.4982   2.4982   2.4982   2.4982   2.9596   2.9596
     2.9596   2.9596   3.0361   3.0361   3.1108   3.1108   3.1415   3.1415
     3.1415   3.1415   3.2414   3.2414   3.2414   3.2414   3.7071   3.7071
     3.7071   3.7071   3.8999   3.9000  12.5207  12.5208  14.4200  14.4200
    14.4201  14.4201  14.6571  14.6572  15.4036  15.4036  15.4037  15.4037
    15.6758  15.6760  19.2980  19.2981  20.8357  20.8357  21.5074  21.5074
    21.5074  21.5074  25.0421  25.0421  25.0422  25.0422  26.6677  26.6677
    26.6677  26.6677  27.8003  27.8005  33.3712  33.3713  33.6304  33.6305
    33.6305  33.6305  34.5083  34.5084  34.6866  34.6866  34.6866  34.6867
    35.7474  35.7474  35.7474  35.7475  36.0983  36.0983  36.2640  36.2640
    36.5725  36.5726  36.5726  36.5726  37.0028  37.0028  37.9321  37.9321
    38.0736  38.0736  38.0737  38.0738  38.6980  38.6981  38.7486  38.7486
    38.7487  38.7487  39.8185  39.8187  40.4495

          k = 0.0000 0.3849 0.0000 (  5787 PWs)   bands (ev):

  -102.1973-102.1763-102.1708-102.1365-102.1290-102.0898-101.9681-101.9480
   -57.9856 -57.9658 -57.8589 -57.8478 -57.8113 -57.8065 -57.7973 -57.7080
   -57.7060 -57.6983 -57.6940 -57.6919 -57.6848 -57.6817 -57.6802 -57.6698
   -57.6485 -57.6417 -57.6385 -57.5792 -57.5050 -57.4962 -57.4885 -57.4733
    -2.7401  -2.5926  -2.5185  -2.3686   0.9894   1.1445   1.2407   1.4532
     1.5101   1.5233   1.6705   1.7356   1.8015   1.8843   2.0037   2.0150
     2.1919   2.3267   2.5030   2.5285   2.5919   2.6570   2.6778   2.7190
     2.7412   2.8030   2.8087   2.8165   2.9652   2.9872   3.0224   3.0617
     3.0936   3.1244   3.1797   3.2190   3.3043   3.3186   3.3435   3.4956
     3.4959   3.5261   3.6524   3.7989  12.1785  12.6265  13.8443  13.9683
    14.0286  14.3633  14.7380  14.9281  15.4710  15.5216  15.6960  15.8624
    15.8628  16.4975  17.2081  18.2152  18.5870  20.9407  21.4679  22.9631
    23.3134  23.5590  24.8207  25.4317  25.7420  26.7429  26.9136  27.2535
    27.8753  28.2373  29.2113  31.0209  31.0267  31.1497  31.8357  32.0227
    32.5339  32.6930  32.8795  32.9027  33.0405  33.6636  34.2450  34.8134
    34.8290  35.1626  35.4387  35.5688  35.6598  35.6979  35.7818  36.1106
    36.1823  36.3685  36.9832  37.2866  37.3112  37.5702  37.7673  37.8829
    38.0712  38.1993  38.7203  39.1026  39.2699  39.6272  39.7671  40.2539
    40.2959  40.3220  40.3375  40.5316  40.8154

          k = 0.0000 0.3849 0.1555 (  5804 PWs)   bands (ev):

  -102.1973-102.1797-102.1776-102.1651-102.1477-102.1313-101.9868-101.9502
   -57.9881 -57.9745 -57.8551 -57.8489 -57.8098 -57.8080 -57.7864 -57.7253
   -57.7073 -57.7058 -57.7039 -57.7019 -57.6999 -57.6960 -57.6789 -57.6753
   -57.6387 -57.6349 -57.6273 -57.5871 -57.5010 -57.4936 -57.4907 -57.4841
    -2.7267  -2.6339  -2.4772  -2.3826   1.0020   1.0918   1.3176   1.4426
     1.4949   1.5916   1.6816   1.7271   1.7663   1.8239   1.8905   1.9729
     2.2993   2.4099   2.5177   2.5256   2.6147   2.6237   2.6489   2.6652
     2.7324   2.8109   2.8122   2.9003   2.9184   3.0152   3.0537   3.0592
     3.0900   3.1506   3.1909   3.2005   3.2781   3.3088   3.3636   3.4569
     3.4777   3.5041   3.6916   3.7833  12.2718  12.6262  13.8163  13.9037
    14.1401  14.2631  14.5360  14.8150  15.4139  15.5512  15.7133  15.8204
    16.0338  16.4763  17.4899  18.1881  18.9735  21.0225  21.3998  21.6608
    23.3540  23.6526  25.1140  25.7656  26.4912  26.5173  26.6605  27.4455
    27.9946  28.2584  28.9276  30.3296  30.8035  31.4233  31.9498  31.9813
    32.3253  32.7143  32.7518  32.9477  33.4206  33.9175  34.4090  34.6200
    34.7376  34.8491  35.4142  35.5616  35.5877  35.6910  36.1214  36.4081
    36.5546  36.6622  36.7690  37.3133  37.4274  37.6954  37.9752  38.2383
    38.2450  38.3893  38.5854  38.5885  38.7702  39.4955  39.5568  39.5725
    39.7069  40.1932  40.2894  40.8332  40.9710

          k = 0.0000 0.3849-0.3109 (  5816 PWs)   bands (ev):

  -102.1988-102.1987-102.1791-102.1791-102.1548-102.1547-101.9796-101.9796
   -57.9869 -57.9869 -57.8552 -57.8552 -57.8124 -57.8123 -57.7631 -57.7631
   -57.7073 -57.7073 -57.7034 -57.7033 -57.6983 -57.6983 -57.6777 -57.6777
   -57.6380 -57.6380 -57.6026 -57.6026 -57.4999 -57.4999 -57.4893 -57.4893
    -2.6889  -2.6887  -2.4218  -2.4216   1.0358   1.0358   1.4033   1.4033
     1.5796   1.5796   1.7069   1.7069   1.7253   1.7253   1.8896   1.8896
     2.4331   2.4331   2.5593   2.5593   2.5598   2.5598   2.6417   2.6417
     2.7645   2.7645   2.8592   2.8592   2.9911   2.9911   3.0754   3.0754
     3.1304   3.1304   3.2289   3.2289   3.2370   3.2370   3.4078   3.4078
     3.4722   3.4722   3.7443   3.7444  12.4904  12.4905  13.9286  13.9287
    14.0654  14.0655  14.5597  14.5598  15.5152  15.5154  15.7023  15.7024
    16.3314  16.3315  17.9635  17.9637  20.0725  20.0725  21.2188  21.2188
    23.4758  23.4758  25.8053  25.8053  26.0649  26.0650  27.6492  27.6493
    28.1771  28.1771  29.1992  29.1993  31.0014  31.0014  32.0520  32.0520
    32.3114  32.3115  32.9511  32.9511  33.5376  33.5376  34.5726  34.5727
    34.9700  34.9700  35.6412  35.6412  35.9465  35.9465  35.9922  35.9922
    36.9873  36.9873  37.4284  37.4284  37.6036  37.6037  37.9861  37.9862
    38.0449  38.0449  38.5710  38.5711  38.7872  38.7873  39.2909  39.2909
    39.9833  39.9835  40.3749  40.3751  40.8769

          k =-0.5000-0.2887 0.0000 (  5800 PWs)   bands (ev):

  -102.2220-102.2014-102.1659-102.1400-102.1370-102.1145-101.9682-101.9547
   -57.9600 -57.9507 -57.8846 -57.8593 -57.8053 -57.8041 -57.7980 -57.7097
   -57.7089 -57.7057 -57.7050 -57.6952 -57.6947 -57.6835 -57.6835 -57.6717
   -57.6514 -57.6498 -57.6421 -57.5779 -57.5083 -57.4994 -57.4886 -57.4724
    -2.6851  -2.5665  -2.5453  -2.4257   1.0891   1.2072   1.2949   1.5445
     1.6320   1.6908   1.8058   1.8167   1.8415   2.0041   2.0933   2.2131
     2.3141   2.3514   2.3966   2.5010   2.5481   2.5841   2.5874   2.5936
     2.6556   2.6625   2.7460   2.7515   2.8042   2.8873   2.9905   3.0161
     3.0589   3.1202   3.1327   3.1907   3.2589   3.2756   3.3102   3.3981
     3.4580   3.4979   3.6611   3.7972  12.0320  13.0907  13.4189  13.7494
    13.8367  14.2741  14.9358  14.9364  15.5490  15.5697  15.7168  15.9186
    15.9281  16.4834  17.0536  17.7924  18.7893  21.0938  21.1440  23.0789
    23.3977  23.6382  24.9143  25.2420  26.0944  27.5416  27.8538  28.1983
    29.0288  29.2878  29.4404  30.1266  30.3203  30.8436  31.2761  31.5192
    31.7118  32.3577  32.5733  33.0110  33.1008  33.5341  33.9813  34.3153
    34.4678  34.7071  34.7421  35.2077  35.6337  35.8930  36.0149  36.1099
    36.4171  36.7791  37.3493  37.3969  37.4263  37.5610  37.7332  37.7587
    37.9420  37.9438  37.9739  38.2608  39.1099  39.7193  40.0147  40.0756
    40.2810  40.9134  40.9230  41.1518  41.2663

          k =-0.5000-0.2887 0.1555 (  5822 PWs)   bands (ev):

  -102.2383-102.2006-102.1864-102.1852-102.1717-102.1141-101.9948-101.9677
   -57.9647 -57.9527 -57.8810 -57.8738 -57.8099 -57.8059 -57.7916 -57.7229
   -57.7130 -57.7112 -57.7043 -57.7029 -57.7027 -57.7011 -57.6828 -57.6800
   -57.6515 -57.6452 -57.6220 -57.5888 -57.5106 -57.5012 -57.4935 -57.4784
    -2.6755  -2.6057  -2.5059  -2.4363   1.0970   1.1673   1.3691   1.5570
     1.6207   1.6827   1.7084   1.7989   1.8582   2.0210   2.1126   2.2226
     2.2988   2.3200   2.4361   2.4956   2.5288   2.5397   2.5720   2.6266
     2.6995   2.7014   2.7119   2.7370   2.8215   2.8842   2.9931   3.0390
     3.0538   3.1688   3.1717   3.1924   3.2602   3.2727   3.2962   3.3827
     3.4073   3.4565   3.6921   3.7810  12.1388  12.8712  13.5787  13.8101
    13.9106  14.1754  14.7400  14.7438  15.3684  15.6249  15.8146  15.8870
    16.1173  16.4647  17.3119  17.8506  19.1015  21.1170  21.1510  21.6561
    23.3909  23.5820  25.4537  26.1157  26.6715  27.0026  27.2958  28.4685
    29.0740  29.4025  29.8776  30.1850  30.2634  30.7722  31.0179  31.2545
    31.3268  32.4264  32.4316  32.8111  32.8385  33.0947  34.1778  34.3663
    34.5460  34.8645  35.2575  35.2863  35.3602  35.6589  35.8648  36.3221
    36.8278  36.9068  37.1556  37.3423  37.5824  37.6146  37.9020  38.0284
    38.2039  38.2862  38.3453  38.9323  39.0839  39.3374  39.9098  40.0022
    40.1056  40.2199  40.3700  40.6311  40.8521

          k =-0.5000-0.2887-0.3109 (  5804 PWs)   bands (ev):

  -102.1990-102.1989-102.1860-102.1860-102.1336-102.1335-101.9500-101.9500
   -57.9610 -57.9609 -57.8751 -57.8751 -57.8073 -57.8073 -57.7585 -57.7585
   -57.7052 -57.7052 -57.7014 -57.7014 -57.6949 -57.6948 -57.6804 -57.6804
   -57.6476 -57.6475 -57.5919 -57.5919 -57.4975 -57.4975 -57.4909 -57.4909
    -2.6474  -2.6472  -2.4642  -2.4639   1.1244   1.1245   1.5116   1.5116
     1.5917   1.5917   1.7550   1.7550   1.9171   1.9171   2.2412   2.2413
     2.2562   2.2563   2.4907   2.4907   2.5043   2.5043   2.6141   2.6142
     2.6961   2.6961   2.7309   2.7309   2.8658   2.8658   3.0091   3.0091
     3.1335   3.1335   3.2471   3.2471   3.2579   3.2579   3.3208   3.3208
     3.3765   3.3765   3.7421   3.7422  12.4555  12.4555  13.9764  13.9764
    13.9793  13.9795  14.3817  14.3819  15.6188  15.6189  15.7717  15.7718
    16.3676  16.3678  17.7299  17.7301  20.0962  20.0962  21.1588  21.1588
    23.3879  23.3879  26.3659  26.3659  26.4086  26.4086  28.5007  28.5008
    29.3215  29.3216  29.6790  29.6791  30.6748  30.6748  30.8363  30.8364
    31.3955  31.3955  32.4422  32.4422  33.2386  33.2386  34.2975  34.2976
    34.5986  34.5987  35.4817  35.4817  35.6143  35.6143  35.9876  35.9876
    36.8158  36.8158  37.7584  37.7584  38.2345  38.2346  38.3206  38.3206
    38.3467  38.3467  38.5273  38.5275  38.9378  38.9378  39.4862  39.4864
    39.7214  39.7218  40.3809  40.3812  40.7205

          k =-0.5000 0.0962 0.0000 (  5827 PWs)   bands (ev):

  -102.2452-102.2063-102.2024-102.1791-102.1587-102.1129-102.0062-101.9750
   -57.9668 -57.9575 -57.8859 -57.8721 -57.8040 -57.8028 -57.7987 -57.7133
   -57.7117 -57.7079 -57.7058 -57.7007 -57.6957 -57.6865 -57.6829 -57.6816
   -57.6604 -57.6508 -57.6450 -57.5863 -57.5094 -57.5012 -57.4942 -57.4863
    -2.6882  -2.5638  -2.5481  -2.4231   1.1860   1.3121   1.3153   1.5247
     1.5353   1.5817   1.6441   1.8085   1.9306   2.0002   2.1011   2.1012
     2.1866   2.3442   2.4048   2.5243   2.5453   2.5695   2.6185   2.6483
     2.7210   2.7479   2.8031   2.8051   2.8443   2.9106   2.9605   3.0032
     3.0391   3.1190   3.1633   3.2193   3.2284   3.2939   3.3580   3.3781
     3.4682   3.4915   3.6271   3.6916  12.0677  12.8418  13.4711  13.7475
    14.2812  14.4368  14.7702  14.8506  14.8859  15.6277  15.8637  15.9072
    16.2812  16.4527  17.1234  17.8156  18.7429  20.6126  20.7120  23.5251
    23.6684  24.4135  25.0769  25.5235  25.9361  26.8697  27.4411  27.9876
    28.6587  28.7524  29.7902  30.1272  30.5747  30.9807  31.8420  31.8427
    32.1287  32.4275  32.6542  32.6918  33.2116  33.3472  33.9189  34.1755
    34.5011  34.7091  34.8153  35.0739  35.3658  35.4075  35.5858  35.8894
    36.1324  36.4652  36.5488  36.7725  37.6647  37.7403  37.8784  38.3179
    38.5388  38.7332  38.7478  39.1122  39.1262  39.5395  39.5587  40.0161
    40.4668  40.6500  40.8052  40.9068  41.1181

          k =-0.5000 0.0962 0.1555 (  5825 PWs)   bands (ev):

  -102.2144-102.2065-102.1868-102.1864-102.1724-102.1343-101.9963-101.9756
   -57.9639 -57.9544 -57.8856 -57.8750 -57.8053 -57.8014 -57.7915 -57.7254
   -57.7135 -57.7109 -57.7074 -57.7058 -57.7008 -57.6938 -57.6839 -57.6799
   -57.6534 -57.6499 -57.6238 -57.5861 -57.5054 -57.4993 -57.4964 -57.4869
    -2.6780  -2.6065  -2.5051  -2.4334   1.1921   1.2511   1.4026   1.5016
     1.5392   1.6277   1.6735   1.7597   1.8504   1.9086   2.1015   2.1555
     2.2058   2.3683   2.4178   2.5312   2.5747   2.5794   2.6111   2.6703
     2.6858   2.7103   2.7778   2.8154   2.8870   2.9263   2.9513   3.0311
     3.0611   3.1598   3.1699   3.2209   3.2389   3.2820   3.3264   3.3486
     3.4396   3.4755   3.6402   3.6857  12.1771  12.8073  13.4078  13.7179
    14.1997  14.2914  14.7725  14.8524  15.1203  15.5512  15.7595  15.8254
    16.3354  16.4531  17.4067  17.8844  19.0732  20.6041  20.6816  21.7190
    24.4215  24.4786  25.4339  25.9373  26.3635  26.9379  27.3457  27.9015
    28.3303  28.9253  29.7744  29.9617  30.6420  30.7595  31.4808  31.9981
    32.0418  32.3116  32.6180  32.7286  32.9442  33.4650  33.9514  34.1303
    34.4791  34.6647  34.7850  35.0289  35.4250  35.6710  35.6893  36.0993
    36.4911  36.5848  36.9028  37.1470  37.4305  37.6177  37.8622  38.0779
    38.3318  38.4408  38.8249  39.0793  39.1211  39.4439  39.9885  40.1360
    40.3072  40.4888  40.6171  41.0933  41.1432

          k =-0.5000 0.0962-0.3109 (  5824 PWs)   bands (ev):

  -102.1965-102.1965-102.1845-102.1844-102.1660-102.1660-101.9860-101.9860
   -57.9589 -57.9589 -57.8795 -57.8794 -57.8052 -57.8052 -57.7597 -57.7596
   -57.7099 -57.7099 -57.7075 -57.7075 -57.6975 -57.6975 -57.6815 -57.6814
   -57.6538 -57.6538 -57.6006 -57.6006 -57.4997 -57.4997 -57.4942 -57.4942
    -2.6493  -2.6491  -2.4624  -2.4622   1.2136   1.2136   1.4725   1.4725
     1.6020   1.6020   1.7245   1.7245   1.7973   1.7973   2.1184   2.1185
     2.3070   2.3070   2.5052   2.5052   2.5984   2.5984   2.6211   2.6211
     2.6943   2.6943   2.7837   2.7838   2.9152   2.9152   3.0023   3.0023
     3.1486   3.1486   3.2311   3.2311   3.2610   3.2610   3.2787   3.2787
     3.4364   3.4364   3.6665   3.6665  12.4834  12.4835  13.6067  13.6067
    14.1274  14.1276  14.7475  14.7476  15.5217  15.5219  15.6445  15.6446
    16.4144  16.4146  17.8060  17.8062  20.0673  20.0673  20.6566  20.6567
    24.4473  24.4473  25.9187  25.9187  26.6444  26.6444  27.9809  27.9809
    28.8576  28.8576  29.6206  29.6206  30.3774  30.3775  31.2972  31.2973
    31.9345  31.9345  33.0608  33.0608  33.2943  33.2943  34.1632  34.1632
    34.5169  34.5169  34.8091  34.8091  35.7057  35.7057  36.1361  36.1361
    36.7469  36.7469  37.1274  37.1274  37.5628  37.5628  37.9361  37.9361
    38.2300  38.2300  38.5929  38.5930  39.2854  39.2855  40.1384  40.1386
    40.5322  40.5323  40.6867  40.6868  41.1832

     the Fermi energy is    35.5094 ev

!    total energy              =   -3930.79912798 Ry
     Harris-Foulkes estimate   =   -3930.79917449 Ry
     estimated scf accuracy    <       0.00004759 Ry

     The total energy is the sum of the following terms:

     one-electron contribution =   -1369.06492962 Ry
     hartree contribution      =     826.09263959 Ry
     xc contribution           =    -319.59375959 Ry
     ewald contribution        =   -3067.64216080 Ry
     smearing contrib. (-TS)   =      -0.59091757 Ry

     convergence has been achieved in  12 iterations

     Forces acting on atoms (Ry/au):

     atom    1 type  1   force =     0.00000000    0.00000000   -0.01686086
     atom    2 type  1   force =     0.00000000    0.00000000   -0.01686086
     atom    3 type  1   force =     0.00000000    0.00000000    0.01686086
     atom    4 type  1   force =     0.00000000    0.00000000    0.01686086
     atom    5 type  2   force =     0.00000000    0.00000000    0.00000000
     atom    6 type  2   force =     0.00000000    0.00000000    0.00000000
     atom    7 type  2   force =     0.00000000    0.16724328    0.00000000
     atom    8 type  2   force =    -0.14483693    0.08362164    0.00000000
     atom    9 type  2   force =     0.14483693    0.08362164    0.00000000
     atom   10 type  2   force =    -0.14483693   -0.08362164    0.00000000
     atom   11 type  2   force =     0.14483693   -0.08362164    0.00000000
     atom   12 type  2   force =     0.00000000   -0.16724328    0.00000000

     Total force =     0.411046     Total SCF correction =     0.000000


     entering subroutine stress ...

          total   stress  (Ry/bohr**3)                   (kbar)     P= 1125.42
   0.00779933   0.00000000   0.00000000       1147.32      0.00      0.00
   0.00000000   0.00779933   0.00000000          0.00   1147.32      0.00
   0.00000000   0.00000000   0.00735280          0.00      0.00   1081.63


     BFGS Geometry Optimization

     number of scf cycles    =   1
     number of bfgs steps    =   0

     enthalpy new            =   -3930.7991279817 Ry

     new trust radius        =       0.5000000000 bohr
     new conv_thr            =       0.0001000000 Ry

     new unit-cell volume =   1650.88153 a.u.^3 (   244.63540 Ang^3 )

CELL_PARAMETERS (alat=  9.92348860)
   1.067764947   0.000000000   0.000000000
  -0.533882474   0.924711570   0.000000000
   0.000000000   0.000000000   1.710963844

ATOMIC_POSITIONS (crystal)
Mg       0.333333000   0.666667000   0.062050821
Mg       0.666667000   0.333333000   0.562050821
Mg       0.666667000   0.333333000   0.937949179
Mg       0.333333000   0.666667000   0.437949179
Zn       0.000000000   0.000000000   0.000000000
Zn       0.000000000   0.000000000   0.500000000
Zn       0.173742672   0.347485345   0.750000000
Zn       0.826257328   0.173742672   0.250000000
Zn       0.347485345   0.173742672   0.250000000
Zn       0.652514655   0.826257328   0.750000000
Zn       0.173742672   0.826257328   0.750000000
Zn       0.826257328   0.652514655   0.250000000



     Writing output data file Prototype-La-hP12-MgZn2.save
     NEW-OLD atomic charge density approx. for the potential
     NEW k-points:
        k(    1) = (   0.0000000   0.0000000   0.0000000), wk =   0.0833333
        k(    2) = (   0.0000000   0.0000000   0.1461165), wk =   0.1666667
        k(    3) = (   0.0000000   0.0000000  -0.2922329), wk =   0.0833333
        k(    4) = (   0.0000000   0.3604728   0.0000000), wk =   0.1666667
        k(    5) = (   0.0000000   0.3604728   0.1461165), wk =   0.3333333
        k(    6) = (   0.0000000   0.3604728  -0.2922329), wk =   0.1666667
        k(    7) = (  -0.4682679  -0.2703546   0.0000000), wk =   0.0833333
        k(    8) = (  -0.4682679  -0.2703546   0.1461165), wk =   0.1666667
        k(    9) = (  -0.4682679  -0.2703546  -0.2922329), wk =   0.0833333
        k(   10) = (  -0.4682679   0.0901182   0.0000000), wk =   0.1666667
        k(   11) = (  -0.4682679   0.0901182   0.1461165), wk =   0.3333333
        k(   12) = (  -0.4682679   0.0901182  -0.2922329), wk =   0.1666667

     total cpu time spent up to now is      826.2 secs

     Self-consistent Calculation

     iteration #  1     ecut=    40.00 Ry     beta=0.70
     CG style diagonalization
     c_bands:  1 eigenvalues not converged
     c_bands:  2 eigenvalues not converged
     c_bands:  4 eigenvalues not converged
     c_bands:  1 eigenvalues not converged
     c_bands:  1 eigenvalues not converged
     c_bands:  5 eigenvalues not converged
     c_bands:  5 eigenvalues not converged
     c_bands:  1 eigenvalues not converged
     c_bands:  5 eigenvalues not converged
     ethr =  1.00E-06,  avg # of iterations = 26.1

     total cpu time spent up to now is     1037.7 secs

     total energy              =   -3905.35567196 Ry
     Harris-Foulkes estimate   =   -3952.61058366 Ry
     estimated scf accuracy    <      56.72325784 Ry

     iteration #  2     ecut=    40.00 Ry     beta=0.70
     CG style diagonalization
     ethr =  1.00E-02,  avg # of iterations =  4.9

     total cpu time spent up to now is     1074.9 secs

     total energy              =   -3914.77673419 Ry
     Harris-Foulkes estimate   =   -3950.02193439 Ry
     estimated scf accuracy    <      67.57903103 Ry

     iteration #  3     ecut=    40.00 Ry     beta=0.70
     CG style diagonalization
     ethr =  1.00E-02,  avg # of iterations =  4.3

     total cpu time spent up to now is     1105.1 secs

     total energy              =   -3930.77194349 Ry
     Harris-Foulkes estimate   =   -3931.53889814 Ry
     estimated scf accuracy    <       1.36675714 Ry

     iteration #  4     ecut=    40.00 Ry     beta=0.70
     CG style diagonalization
     ethr =  5.51E-04,  avg # of iterations =  4.5

     total cpu time spent up to now is     1139.8 secs

     total energy              =   -3931.40282773 Ry
     Harris-Foulkes estimate   =   -3931.55631101 Ry
     estimated scf accuracy    <       0.34842231 Ry

     iteration #  5     ecut=    40.00 Ry     beta=0.70
     CG style diagonalization
     ethr =  1.40E-04,  avg # of iterations =  3.7

     total cpu time spent up to now is     1166.3 secs

     total energy              =   -3931.47980404 Ry
     Harris-Foulkes estimate   =   -3931.49186334 Ry
     estimated scf accuracy    <       0.02270336 Ry

     iteration #  6     ecut=    40.00 Ry     beta=0.70
     CG style diagonalization
     c_bands:  1 eigenvalues not converged
     c_bands:  3 eigenvalues not converged
     c_bands:  1 eigenvalues not converged
     c_bands:  1 eigenvalues not converged
     ethr =  9.15E-06,  avg # of iterations =  4.7

     total cpu time spent up to now is     1202.1 secs

     total energy              =   -3931.48833226 Ry
     Harris-Foulkes estimate   =   -3931.48957323 Ry
     estimated scf accuracy    <       0.00223058 Ry

     iteration #  7     ecut=    40.00 Ry     beta=0.70
     CG style diagonalization
     c_bands:  1 eigenvalues not converged
     c_bands:  2 eigenvalues not converged
     c_bands:  1 eigenvalues not converged
     ethr =  8.99E-07,  avg # of iterations =  4.5

     total cpu time spent up to now is     1232.8 secs

     total energy              =   -3931.48928310 Ry
     Harris-Foulkes estimate   =   -3931.48951937 Ry
     estimated scf accuracy    <       0.00043189 Ry

     iteration #  8     ecut=    40.00 Ry     beta=0.70
     CG style diagonalization
     c_bands:  1 eigenvalues not converged
     ethr =  1.74E-07,  avg # of iterations =  3.8

     total cpu time spent up to now is     1254.8 secs

     End of self-consistent calculation

          k = 0.0000 0.0000 0.0000 (  5769 PWs)   bands (ev):

  -107.3758-107.3357-107.3357-107.3140-107.3140-107.1996-107.0696-107.0187
   -64.0790 -64.0669 -63.9815 -63.9815 -63.9811 -63.9810 -63.8988 -63.8988
   -63.8935 -63.8903 -63.8858 -63.8858 -63.8835 -63.8835 -63.8820 -63.8820
   -63.8664 -63.8598 -63.7254 -63.7020 -63.6314 -63.6314 -63.6271 -63.6271
    -9.1821  -9.1066  -8.9952  -8.9175  -4.4613  -4.3798  -4.1352  -4.1352
    -4.1310  -4.1310  -4.1038  -3.8263  -3.8048  -3.8048  -3.5782  -3.5781
    -3.5107  -3.4216  -3.4216  -3.4044  -3.2830  -3.2830  -3.1199  -3.1199
    -3.1094  -3.1094  -3.0695  -3.0365  -3.0302  -2.9890  -2.9890  -2.9513
    -2.9513  -2.9222  -2.9064  -2.9064  -2.8561  -2.8561  -2.6800  -2.6799
    -2.6368  -2.6368  -2.5981  -2.5867   7.3934   8.3840   8.3840   8.4902
     8.6093   8.6093   8.7073   8.9817   8.9978   8.9978   9.0829   9.1876
     9.1876  10.8327  12.5675  13.7473  15.2064  15.2064  15.3834  16.0460
    16.0460  18.1675  19.2477  19.2477  19.5361  19.7747  19.7747  20.0074
    20.0074  23.2089  23.3529  23.3530  24.5783  24.5784  26.2121  26.2612
    27.3060  27.3060  27.6478  27.6479  28.1228  28.3198  28.7063  28.8154
    29.2154  29.3848  29.3848  29.5866  29.5866  29.6826  29.6826  30.0623
    30.6036  31.1133  31.1134  31.2362  31.2362  31.2652  31.2652  31.5726
    31.5988  31.5989  31.7809  31.7810  32.2597  32.2600  32.5147  32.7761
    32.7887  32.9194  32.9194  33.0091  33.2366

          k = 0.0000 0.0000 0.1461 (  5780 PWs)   bands (ev):

  -107.3661-107.3661-107.3396-107.3396-107.3164-107.2421-107.0560-107.0456
   -64.0764 -64.0667 -63.9844 -63.9844 -63.9834 -63.9834 -63.8928 -63.8928
   -63.8911 -63.8904 -63.8904 -63.8889 -63.8881 -63.8881 -63.8854 -63.8854
   -63.8702 -63.8657 -63.7216 -63.7080 -63.6330 -63.6329 -63.6276 -63.6276
    -9.1739  -9.1230  -8.9786  -8.9262  -4.4504  -4.3896  -4.1366  -4.1366
    -4.1293  -4.1293  -4.0659  -3.8732  -3.7826  -3.7825  -3.6290  -3.6290
    -3.4833  -3.4104  -3.3821  -3.3821  -3.2936  -3.2936  -3.1171  -3.1171
    -3.1057  -3.1057  -3.0449  -3.0431  -3.0377  -2.9850  -2.9850  -2.9390
    -2.9385  -2.9385  -2.9270  -2.9269  -2.8706  -2.8706  -2.6795  -2.6795
    -2.6451  -2.6451  -2.5992  -2.5935   7.5131   8.2919   8.4108   8.4108
     8.5636   8.5636   8.5753   8.9825   9.0359   9.0359   9.1662   9.1663
     9.3934  10.4981  12.9996  13.7552  15.2968  15.2968  15.5090  15.8840
    15.8840  17.1432  19.3461  19.3461  19.8674  19.8674  20.1468  20.1468
    20.5564  22.3077  22.3078  22.6871  25.7172  25.7172  26.1898  26.8117
    27.3960  27.3960  27.8814  27.8814  28.0549  28.2808  28.5856  28.8721
    29.3072  29.3072  29.3141  29.3448  29.3448  29.7260  29.7260  29.9028
    30.2308  30.2308  30.6358  30.6359  30.6879  31.2175  31.2175  31.5668
    31.5668  31.6585  32.0856  32.1773  32.1773  32.3341  32.3342  32.5551
    32.8004  33.1572  33.3251  33.5087  34.0366

          k = 0.0000 0.0000-0.2922 (  5780 PWs)   bands (ev):

  -107.3858-107.3858-107.3003-107.3003-107.3003-107.3002-107.0442-107.0442
   -64.0677 -64.0676 -63.9813 -63.9812 -63.9812 -63.9812 -63.9105 -63.9105
   -63.8941 -63.8941 -63.8940 -63.8940 -63.8820 -63.8820 -63.8820 -63.8820
   -63.8634 -63.8634 -63.7167 -63.7167 -63.6290 -63.6290 -63.6290 -63.6290
    -9.1518  -9.1517  -8.9492  -8.9491  -4.4298  -4.4298  -4.1340  -4.1339
    -4.1339  -4.1339  -3.9722  -3.9722  -3.7108  -3.7108  -3.7108  -3.7107
    -3.4496  -3.4495  -3.3228  -3.3227  -3.3227  -3.3227  -3.1147  -3.1147
    -3.1146  -3.1146  -3.0258  -3.0257  -2.9930  -2.9930  -2.9609  -2.9609
    -2.9609  -2.9609  -2.9007  -2.9007  -2.9007  -2.9007  -2.6640  -2.6640
    -2.6640  -2.6640  -2.5936  -2.5935   7.8331   7.8332   8.4793   8.4794
     8.4794   8.4795   8.7610   8.7610   9.1098   9.1099   9.1099   9.1099
     9.9391   9.9392  13.5743  13.5744  15.5724  15.5724  15.5724  15.5725
    16.0309  16.0309  19.5976  19.5976  19.5977  19.5977  21.0587  21.0587
    21.0587  21.0587  21.7476  21.7477  26.5982  26.5982  27.0230  27.0231
    27.0231  27.0231  28.1217  28.1217  28.5977  28.5977  28.5977  28.5977
    28.8624  28.8625  29.4197  29.4197  29.4197  29.4198  29.5798  29.5798
    29.9640  29.9640  29.9640  29.9641  31.0750  31.0751  31.3001  31.3001
    31.3001  31.3001  32.1893  32.1894  32.3833  32.3833  32.3834  32.3834
    33.0207  33.0208  33.6486  33.6488  34.4068

          k = 0.0000 0.3605 0.0000 (  5787 PWs)   bands (ev):

  -107.4151-107.3710-107.3632-107.3091-107.2943-107.2629-107.0753-107.0372
   -64.0610 -64.0571 -63.9960 -63.9928 -63.9824 -63.9813 -63.9044 -63.9043
   -63.8951 -63.8949 -63.8912 -63.8891 -63.8859 -63.8839 -63.8765 -63.8762
   -63.8750 -63.8713 -63.7192 -63.7052 -63.6379 -63.6340 -63.6320 -63.6269
    -9.1396  -9.0685  -9.0334  -8.9617  -4.2731  -4.2235  -4.0350  -4.0203
    -3.9930  -3.8831  -3.8772  -3.8740  -3.7614  -3.6348  -3.6276  -3.5538
    -3.4914  -3.4877  -3.3665  -3.3539  -3.2883  -3.2529  -3.2337  -3.2295
    -3.2226  -3.1972  -3.1582  -3.1422  -3.0989  -3.0919  -3.0622  -3.0394
    -2.9643  -2.9546  -2.9322  -2.8659  -2.8576  -2.8447  -2.8356  -2.7689
    -2.7683  -2.7609  -2.6842  -2.6241   7.5170   7.8994   8.2050   8.3213
     8.3883   8.4520   8.8104   8.8348   9.1277   9.1416   9.3092   9.3128
    10.1951  10.9414  11.8911  12.5835  13.0379  15.1303  15.4599  16.8953
    17.9581  18.4651  19.3644  19.5690  20.2704  20.8186  21.0576  21.5946
    21.6771  22.0902  23.2876  24.7056  24.7543  24.8060  25.6456  25.6662
    26.0359  26.1353  26.6829  26.7522  26.9678  27.0535  27.8340  28.4756
    28.6029  28.7436  28.7703  29.2464  29.2759  29.3459  29.5062  29.8101
    29.8453  29.9082  30.2868  30.3256  30.7844  30.9578  31.0323  31.4687
    31.7104  31.8901  32.4658  32.4700  32.8024  32.8468  33.1801  33.2293
    33.6755  33.7943  34.1252  34.2140  34.3427

          k = 0.0000 0.3605 0.1461 (  5804 PWs)   bands (ev):

  -107.3925-107.3907-107.3777-107.3476-107.3367-107.3172-107.1005-107.0407
   -64.0620 -64.0600 -63.9948 -63.9933 -63.9828 -63.9808 -63.9050 -63.9013
   -63.8997 -63.8955 -63.8939 -63.8934 -63.8901 -63.8879 -63.8857 -63.8828
   -63.8730 -63.8697 -63.7208 -63.7100 -63.6367 -63.6363 -63.6319 -63.6292
    -9.1331  -9.0885  -9.0136  -8.9684  -4.2650  -4.2349  -4.0387  -4.0289
    -3.9668  -3.8806  -3.8791  -3.8731  -3.7383  -3.7196  -3.6459  -3.6018
    -3.4778  -3.4152  -3.3569  -3.3468  -3.2872  -3.2618  -3.2604  -3.2534
    -3.2145  -3.1893  -3.1660  -3.1379  -3.1043  -3.0854  -3.0582  -3.0380
    -2.9501  -2.9419  -2.9242  -2.8828  -2.8599  -2.8561  -2.8299  -2.7874
    -2.7861  -2.7625  -2.6665  -2.6342   7.6009   7.9130   8.2348   8.3061
     8.3469   8.4082   8.7421   8.7917   9.1209   9.1738   9.2673   9.2931
    10.3060  10.8100  11.9851  12.4186  13.6008  15.1739  15.4069  16.0806
    17.9746  18.2299  19.5547  20.3313  20.5276  20.6298  20.9680  21.6835
    21.7883  22.1404  22.8732  24.2018  24.6194  25.1918  25.5112  25.7133
    25.9750  26.2365  26.4554  26.7574  27.0629  27.6400  27.8163  28.1971
    28.2862  28.5193  28.9486  29.2475  29.3309  29.5056  29.5466  29.7482
    30.0086  30.1248  30.3548  30.5770  30.8333  31.2736  31.3675  31.5163
    31.6604  31.8865  32.2289  32.3309  32.4314  32.4718  32.8382  33.0700
    33.3442  33.7607  34.0714  34.2944  34.3038

          k = 0.0000 0.3605-0.2922 (  5816 PWs)   bands (ev):

  -107.3957-107.3957-107.3855-107.3854-107.3481-107.3481-107.0881-107.0881
   -64.0638 -64.0638 -63.9954 -63.9954 -63.9838 -63.9838 -63.9047 -63.9047
   -63.8972 -63.8971 -63.8960 -63.8959 -63.8895 -63.8894 -63.8852 -63.8851
   -63.8724 -63.8724 -63.7152 -63.7152 -63.6387 -63.6387 -63.6315 -63.6315
    -9.1149  -9.1147  -8.9871  -8.9870  -4.2548  -4.2548  -4.0398  -4.0397
    -3.9019  -3.9019  -3.8806  -3.8805  -3.7316  -3.7316  -3.6765  -3.6765
    -3.4147  -3.4146  -3.3265  -3.3265  -3.3051  -3.3051  -3.2631  -3.2631
    -3.1906  -3.1906  -3.1620  -3.1620  -3.0923  -3.0923  -3.0426  -3.0426
    -2.9198  -2.9198  -2.9007  -2.9007  -2.8873  -2.8873  -2.8144  -2.8144
    -2.7793  -2.7793  -2.6496  -2.6495   7.8011   7.8012   8.3108   8.3110
     8.3156   8.3156   8.6977   8.6979   9.1818   9.1819   9.2382   9.2383
    10.5439  10.5440  12.2089  12.2090  14.7376  14.7376  15.2877  15.2877
    18.0507  18.0508  20.0703  20.0703  20.5941  20.5941  21.4956  21.4956
    22.2024  22.2025  23.0870  23.0870  24.7768  24.7769  25.6550  25.6550
    26.1072  26.1072  26.6785  26.6785  27.2282  27.2282  28.2858  28.2859
    28.4027  28.4028  29.1131  29.1131  29.3010  29.3011  29.5744  29.5744
    30.4761  30.4761  30.8615  30.8615  31.2489  31.2490  31.2583  31.2584
    31.4230  31.4231  31.9799  31.9799  32.4654  32.4656  33.0248  33.0249
    33.1788  33.1789  33.7829  33.7831  34.6993

          k =-0.4683-0.2704 0.0000 (  5800 PWs)   bands (ev):

  -107.4109-107.4097-107.3724-107.3294-107.3202-107.2946-107.0749-107.0451
   -64.0537 -64.0535 -64.0023 -63.9982 -63.9822 -63.9819 -63.9029 -63.9014
   -63.9010 -63.8949 -63.8939 -63.8895 -63.8895 -63.8877 -63.8806 -63.8788
   -63.8774 -63.8760 -63.7223 -63.7071 -63.6414 -63.6344 -63.6331 -63.6254
    -9.1154  -9.0562  -9.0462  -8.9862  -4.2269  -4.1919  -3.9792  -3.9317
    -3.9005  -3.8190  -3.7616  -3.7469  -3.7140  -3.6855  -3.6637  -3.5798
    -3.5031  -3.4447  -3.3868  -3.3464  -3.3286  -3.3209  -3.2704  -3.2539
    -3.2411  -3.2332  -3.1861  -3.1828  -3.1734  -3.1374  -3.1182  -3.0679
    -2.9806  -2.9764  -2.9277  -2.8907  -2.8680  -2.8549  -2.8418  -2.8132
    -2.8128  -2.7665  -2.6776  -2.6250   7.4843   7.9736   8.1575   8.1789
     8.3117   8.4094   8.8064   8.9109   9.1561   9.1797   9.3323   9.3423
    10.6424  11.0253  11.4825  11.8888  13.1660  15.1678  15.2476  17.0548
    18.0578  18.5950  19.3294  19.4542  20.4793  21.6856  21.8101  22.0520
    23.1995  23.2127  23.6623  23.7500  24.1335  24.2688  24.7783  25.1275
    25.2746  25.8942  26.2072  26.5117  27.0441  27.1255  27.5491  28.0465
    28.2625  28.5034  28.5969  28.9460  29.5865  29.6026  29.6699  29.8070
    29.9707  30.0064  30.1886  30.2816  30.5210  30.6099  31.1562  31.1836
    31.3171  31.7408  31.7702  32.5995  32.6781  33.3509  33.3864  33.4884
    33.6469  34.1286  34.2172  34.6219  34.7631

          k =-0.4683-0.2704 0.1461 (  5822 PWs)   bands (ev):

  -107.4475-107.4209-107.3958-107.3828-107.3704-107.3001-107.0972-107.0728
   -64.0563 -64.0553 -64.0035 -64.0014 -63.9864 -63.9820 -63.9079 -63.9052
   -63.8991 -63.8954 -63.8944 -63.8933 -63.8929 -63.8913 -63.8849 -63.8829
   -63.8803 -63.8752 -63.7182 -63.7133 -63.6431 -63.6368 -63.6364 -63.6272
    -9.1106  -9.0760  -9.0263  -8.9915  -4.2234  -4.1963  -3.9632  -3.9308
    -3.9107  -3.7889  -3.7887  -3.7670  -3.7628  -3.6878  -3.6346  -3.5667
    -3.5477  -3.4191  -3.4117  -3.3569  -3.3146  -3.3067  -3.2764  -3.2659
    -3.2413  -3.2344  -3.2214  -3.1937  -3.1641  -3.1322  -3.1089  -3.0742
    -2.9592  -2.9566  -2.9086  -2.8943  -2.8719  -2.8574  -2.8461  -2.8384
    -2.8211  -2.7838  -2.6680  -2.6362   7.5621   7.9566   8.1871   8.2343
     8.2565   8.3647   8.7404   8.8479   9.1535   9.2083   9.2918   9.3246
    10.6835  10.9759  11.5201  11.8603  13.6282  15.1761  15.2355  16.1126
    18.0493  18.2687  19.7288  20.5629  20.7151  21.2376  21.4199  22.2989
    23.2974  23.3331  23.4677  24.0215  24.0265  24.1988  24.6017  24.8801
    25.1163  25.9064  26.0347  26.5111  26.7452  26.9757  27.8995  27.9837
    28.2050  28.7790  28.8676  28.8709  29.2537  29.4662  29.4932  29.5424
    30.0941  30.2131  30.4640  30.6551  30.8793  30.9052  31.3218  31.4185
    31.4947  32.1653  32.1821  32.2758  32.5836  32.9117  33.1032  33.3216
    33.3637  33.5127  33.6078  34.4615  34.5041

          k =-0.4683-0.2704-0.2922 (  5804 PWs)   bands (ev):

  -107.3941-107.3940-107.3859-107.3858-107.3371-107.3370-107.0363-107.0363
   -64.0567 -64.0567 -63.9995 -63.9995 -63.9843 -63.9842 -63.9020 -63.9019
   -63.8949 -63.8948 -63.8937 -63.8937 -63.8874 -63.8874 -63.8826 -63.8826
   -63.8774 -63.8773 -63.7102 -63.7102 -63.6367 -63.6367 -63.6328 -63.6328
    -9.0967  -9.0965  -9.0055  -9.0053  -4.2099  -4.2098  -3.9280  -3.9280
    -3.8806  -3.8806  -3.7665  -3.7664  -3.7147  -3.7147  -3.6219  -3.6219
    -3.4746  -3.4746  -3.3760  -3.3760  -3.2825  -3.2825  -3.2759  -3.2759
    -3.2562  -3.2561  -3.2099  -3.2099  -3.1384  -3.1384  -3.0860  -3.0860
    -2.9232  -2.9232  -2.8975  -2.8975  -2.8643  -2.8643  -2.8496  -2.8496
    -2.8229  -2.8229  -2.6510  -2.6510   7.7723   7.7723   8.2709   8.2709
     8.2913   8.2916   8.6999   8.7001   9.2183   9.2184   9.2709   9.2710
    10.8142  10.8143  11.7292  11.7293  14.7252  14.7252  15.2159  15.2160
    18.0698  18.0698  20.4998  20.4999  20.8732  20.8732  22.3173  22.3174
    23.2630  23.2630  23.4239  23.4240  24.1656  24.1657  24.4620  24.4620
    25.3176  25.3177  26.3940  26.3941  26.9673  26.9673  27.8143  27.8144
    28.3066  28.3067  28.9944  28.9944  29.3426  29.3426  29.7790  29.7790
    30.1007  30.1007  31.0856  31.0856  31.3213  31.3214  31.5578  31.5579
    31.6209  31.6209  32.0710  32.0710  32.6205  32.6206  32.7983  32.7984
    33.3258  33.3259  33.9602  34.2526  34.2533

          k =-0.4683 0.0901 0.0000 (  5827 PWs)   bands (ev):

  -107.4608-107.4243-107.4130-107.3781-107.3492-107.2953-107.1321-107.0771
   -64.0588 -64.0578 -64.0039 -64.0034 -63.9841 -63.9826 -63.9050 -63.9039
   -63.9017 -63.8983 -63.8974 -63.8961 -63.8931 -63.8882 -63.8824 -63.8808
   -63.8786 -63.8771 -63.7227 -63.7112 -63.6411 -63.6380 -63.6351 -63.6340
    -9.1161  -9.0557  -9.0467  -8.9858  -4.1741  -4.1419  -3.9890  -3.9849
    -3.9541  -3.8752  -3.7899  -3.7892  -3.7720  -3.6347  -3.5835  -3.5737
    -3.5615  -3.4737  -3.3644  -3.3623  -3.3187  -3.3125  -3.2798  -3.2443
    -3.2059  -3.2004  -3.1999  -3.1853  -3.1341  -3.1267  -3.1055  -3.0735
    -2.9993  -2.9953  -2.9383  -2.8733  -2.8651  -2.8496  -2.8447  -2.8331
    -2.7888  -2.7700  -2.6923  -2.6839   7.5430   7.7909   8.0592   8.2322
     8.5197   8.5201   8.7783   8.8439   9.1032   9.1809   9.3039   9.3414
    10.5310  11.0736  11.5478  12.0054  13.1446  14.8847  14.9727  17.2756
    18.6031  18.8280  19.4723  19.8041  20.2873  20.9685  21.4002  21.8858
    22.7241  22.7896  23.5262  23.8807  24.2059  24.5894  25.3842  25.6587
    25.7670  26.1737  26.3682  26.7145  26.7275  27.2481  27.7139  27.8165
    28.1679  28.1861  28.3360  28.8032  28.9594  29.1075  29.2013  29.3827
    29.4485  30.0055  30.1622  30.4856  30.8215  31.2346  31.4078  31.6863
    31.9213  32.0585  32.2115  32.4608  32.8975  32.9855  33.0696  33.3422
    33.5377  34.0611  34.1662  34.4162  34.8030

          k =-0.4683 0.0901 0.1461 (  5825 PWs)   bands (ev):

  -107.4308-107.4218-107.3953-107.3890-107.3642-107.3208-107.1117-107.0754
   -64.0577 -64.0568 -64.0041 -64.0023 -63.9833 -63.9821 -63.9070 -63.9050
   -63.9028 -63.8982 -63.8958 -63.8951 -63.8929 -63.8866 -63.8858 -63.8828
   -63.8780 -63.8762 -63.7199 -63.7105 -63.6397 -63.6387 -63.6351 -63.6331
    -9.1111  -9.0761  -9.0261  -8.9909  -4.1717  -4.1494  -3.9972  -3.9914
    -3.9243  -3.8588  -3.7994  -3.7745  -3.7599  -3.6947  -3.6422  -3.6023
    -3.5027  -3.4251  -3.3838  -3.3448  -3.3258  -3.3019  -3.2685  -3.2481
    -3.2255  -3.2128  -3.1991  -3.1881  -3.1296  -3.1194  -3.0940  -3.0748
    -2.9847  -2.9755  -2.9175  -2.8767  -2.8730  -2.8562  -2.8523  -2.8404
    -2.7982  -2.7780  -2.6923  -2.6830   7.6152   7.8492   8.0840   8.1862
     8.3934   8.4882   8.7583   8.8479   9.1520   9.1626   9.2642   9.3172
    10.5998  10.9728  11.6416  11.9537  13.6211  14.8909  14.9508  16.1739
    18.8271  18.8781  19.7250  20.3361  20.4917  20.9582  21.4374  21.8991
    22.3575  22.8727  23.3738  23.9001  24.2392  24.5508  25.1427  25.3466
    25.8247  26.0820  26.3191  26.7108  26.7472  27.3722  27.7649  27.9428
    28.0389  28.0895  28.3659  28.5789  28.9787  29.2489  29.3630  29.6994
    29.7659  30.2116  30.4030  30.6814  30.8182  30.9514  31.2864  31.5640
    31.6446  31.9821  32.2361  32.5236  32.7761  32.9773  33.0633  33.3120
    33.7972  33.9916  34.2283  34.3812  34.5237

          k =-0.4683 0.0901-0.2922 (  5824 PWs)   bands (ev):

  -107.3982-107.3981-107.3873-107.3872-107.3694-107.3693-107.0944-107.0944
   -64.0576 -64.0576 -64.0019 -64.0019 -63.9838 -63.9838 -63.9043 -63.9043
   -63.8985 -63.8985 -63.8948 -63.8948 -63.8918 -63.8918 -63.8847 -63.8847
   -63.8780 -63.8779 -63.7145 -63.7145 -63.6381 -63.6381 -63.6353 -63.6353
    -9.0971  -9.0969  -9.0052  -9.0050  -4.1602  -4.1602  -3.9976  -3.9975
    -3.8716  -3.8716  -3.7931  -3.7930  -3.7227  -3.7227  -3.6723  -3.6722
    -3.4312  -3.4312  -3.3632  -3.3631  -3.3113  -3.3113  -3.2487  -3.2487
    -3.2283  -3.2283  -3.2006  -3.2006  -3.1242  -3.1242  -3.0820  -3.0820
    -2.9523  -2.9523  -2.8981  -2.8981  -2.8733  -2.8733  -2.8523  -2.8523
    -2.7968  -2.7968  -2.6870  -2.6870   7.7944   7.7945   8.1498   8.1499
     8.3375   8.3377   8.7917   8.7919   9.1904   9.1905   9.2489   9.2490
    10.7653  10.7654  11.8349  11.8350  14.7206  14.7206  14.9271  14.9271
    18.8394  18.8394  20.2119  20.2119  20.8138  20.8138  21.9481  21.9481
    22.7622  22.7622  23.2634  23.2635  24.2410  24.2411  24.9464  24.9464
    25.8304  25.8304  26.8282  26.8282  27.0996  27.0996  27.9161  27.9161
    28.1418  28.1419  28.2498  28.2498  29.2949  29.2949  29.5574  29.5574
    30.2664  30.2665  30.6848  30.6849  30.9103  30.9104  31.3856  31.3857
    31.6862  31.6863  31.9196  31.9196  32.8322  32.8323  33.4394  33.4396
    33.9157  33.9161  34.2501  34.2505  34.5709

     the Fermi energy is    29.0758 ev

!    total energy              =   -3931.48939283 Ry
     Harris-Foulkes estimate   =   -3931.48946541 Ry
     estimated scf accuracy    <       0.00008480 Ry

     The total energy is the sum of the following terms:

     one-electron contribution =   -1637.21892817 Ry
     hartree contribution      =     902.80733769 Ry
     xc contribution           =    -314.92139306 Ry
     ewald contribution        =   -2881.52700931 Ry
     smearing contrib. (-TS)   =      -0.62939997 Ry

     convergence has been achieved in   8 iterations

     Forces acting on atoms (Ry/au):

     atom    1 type  1   force =     0.00000000    0.00000000    0.00386879
     atom    2 type  1   force =     0.00000000    0.00000000    0.00386879
     atom    3 type  1   force =     0.00000000    0.00000000   -0.00386879
     atom    4 type  1   force =     0.00000000    0.00000000   -0.00386879
     atom    5 type  2   force =     0.00000000    0.00000000    0.00000000
     atom    6 type  2   force =     0.00000000    0.00000000    0.00000000
     atom    7 type  2   force =     0.00000000   -0.05446446    0.00000000
     atom    8 type  2   force =     0.04716761   -0.02723223    0.00000000
     atom    9 type  2   force =    -0.04716761   -0.02723223    0.00000000
     atom   10 type  2   force =     0.04716761    0.02723223    0.00000000
     atom   11 type  2   force =    -0.04716761    0.02723223    0.00000000
     atom   12 type  2   force =     0.00000000    0.05446446    0.00000000

     Total force =     0.133634     Total SCF correction =     0.000000


     entering subroutine stress ...

          total   stress  (Ry/bohr**3)                   (kbar)     P= -303.06
  -0.00187650   0.00000000   0.00000000       -276.04      0.00      0.00
   0.00000000  -0.00187650   0.00000000          0.00   -276.04      0.00
   0.00000000   0.00000000  -0.00242755          0.00      0.00   -357.11


     number of scf cycles    =   2
     number of bfgs steps    =   1

     enthalpy old            =   -3930.7991279817 Ry
     enthalpy new            =   -3931.4893928282 Ry

     CASE: enthalpy_new < enthalpy_old

     small trust_radius: resetting bfgs history

     new trust radius        =       0.4931700037 bohr
     new conv_thr            =       0.0000544645 Ry

     new unit-cell volume =   1408.61058 a.u.^3 (   208.73455 Ang^3 )

CELL_PARAMETERS (alat=  9.92348860)
   1.017673422   0.000000000   0.000000000
  -0.508836711   0.881331037   0.000000000
   0.000000000   0.000000000   1.607127464

ATOMIC_POSITIONS (crystal)
Mg       0.333333000   0.666667000   0.062278682
Mg       0.666667000   0.333333000   0.562278682
Mg       0.666667000   0.333333000   0.937721318
Mg       0.333333000   0.666667000   0.437721318
Zn       0.000000000   0.000000000   0.000000000
Zn       0.000000000   0.000000000   0.500000000
Zn       0.170775023   0.341550046   0.750000000
Zn       0.829224977   0.170775023   0.250000000
Zn       0.341550046   0.170775023   0.250000000
Zn       0.658449954   0.829224977   0.750000000
Zn       0.170775023   0.829224977   0.750000000
Zn       0.829224977   0.658449954   0.250000000



     Writing output data file Prototype-La-hP12-MgZn2.save
     NEW-OLD atomic charge density approx. for the potential
     NEW k-points:
        k(    1) = (   0.0000000   0.0000000   0.0000000), wk =   0.0833333
        k(    2) = (   0.0000000   0.0000000   0.1555570), wk =   0.1666667
        k(    3) = (   0.0000000   0.0000000  -0.3111141), wk =   0.0833333
        k(    4) = (   0.0000000   0.3782158   0.0000000), wk =   0.1666667
        k(    5) = (   0.0000000   0.3782158   0.1555570), wk =   0.3333333
        k(    6) = (   0.0000000   0.3782158  -0.3111141), wk =   0.1666667
        k(    7) = (  -0.4913168  -0.2836619   0.0000000), wk =   0.0833333
        k(    8) = (  -0.4913168  -0.2836619   0.1555570), wk =   0.1666667
        k(    9) = (  -0.4913168  -0.2836619  -0.3111141), wk =   0.0833333
        k(   10) = (  -0.4913168   0.0945540   0.0000000), wk =   0.1666667
        k(   11) = (  -0.4913168   0.0945540   0.1555570), wk =   0.3333333
        k(   12) = (  -0.4913168   0.0945540  -0.3111141), wk =   0.1666667

     total cpu time spent up to now is     1264.7 secs

     Self-consistent Calculation

     iteration #  1     ecut=    40.00 Ry     beta=0.70
     CG style diagonalization
     c_bands:  1 eigenvalues not converged
     c_bands:  4 eigenvalues not converged
     c_bands:  1 eigenvalues not converged
     c_bands:  2 eigenvalues not converged
     c_bands:  1 eigenvalues not converged
     c_bands:  1 eigenvalues not converged
     c_bands:  2 eigenvalues not converged
     c_bands:  3 eigenvalues not converged
     c_bands:  3 eigenvalues not converged
     c_bands:  2 eigenvalues not converged
     c_bands:  2 eigenvalues not converged
     ethr =  1.00E-06,  avg # of iterations = 23.2

     total cpu time spent up to now is     1408.3 secs

     total energy              =   -3910.69149574 Ry
     Harris-Foulkes estimate   =   -3947.31850261 Ry
     estimated scf accuracy    <      43.86090318 Ry

     iteration #  2     ecut=    40.00 Ry     beta=0.70
     CG style diagonalization
     ethr =  1.00E-02,  avg # of iterations =  4.9

     total cpu time spent up to now is     1437.6 secs

     total energy              =   -3914.51827627 Ry
     Harris-Foulkes estimate   =   -3947.01378601 Ry
     estimated scf accuracy    <      66.23451814 Ry

     iteration #  3     ecut=    40.00 Ry     beta=0.70
     CG style diagonalization
     ethr =  1.00E-02,  avg # of iterations =  4.1

     total cpu time spent up to now is     1462.1 secs

     total energy              =   -3929.93410864 Ry
     Harris-Foulkes estimate   =   -3931.62320740 Ry
     estimated scf accuracy    <       3.58274598 Ry

     iteration #  4     ecut=    40.00 Ry     beta=0.70
     CG style diagonalization
     ethr =  1.44E-03,  avg # of iterations =  3.8

     total cpu time spent up to now is     1486.0 secs

     total energy              =   -3931.02127962 Ry
     Harris-Foulkes estimate   =   -3931.12601970 Ry
     estimated scf accuracy    <       0.20567300 Ry

     iteration #  5     ecut=    40.00 Ry     beta=0.70
     CG style diagonalization
     c_bands:  1 eigenvalues not converged
     c_bands:  1 eigenvalues not converged
     c_bands:  1 eigenvalues not converged
     c_bands:  1 eigenvalues not converged
     ethr =  8.29E-05,  avg # of iterations =  4.6

     total cpu time spent up to now is     1515.7 secs

     total energy              =   -3931.10781199 Ry
     Harris-Foulkes estimate   =   -3931.12465505 Ry
     estimated scf accuracy    <       0.03567523 Ry

     iteration #  6     ecut=    40.00 Ry     beta=0.70
     CG style diagonalization
     c_bands:  1 eigenvalues not converged
     c_bands:  1 eigenvalues not converged
     c_bands:  1 eigenvalues not converged
     ethr =  1.44E-05,  avg # of iterations =  4.3

     total cpu time spent up to now is     1543.6 secs

     total energy              =   -3931.11814846 Ry
     Harris-Foulkes estimate   =   -3931.12053699 Ry
     estimated scf accuracy    <       0.00478574 Ry

     iteration #  7     ecut=    40.00 Ry     beta=0.70
     CG style diagonalization
     c_bands:  1 eigenvalues not converged
     c_bands:  1 eigenvalues not converged
     c_bands:  1 eigenvalues not converged
     ethr =  1.93E-06,  avg # of iterations =  4.4

     total cpu time spent up to now is     1571.9 secs

     total energy              =   -3931.11973832 Ry
     Harris-Foulkes estimate   =   -3931.12029714 Ry
     estimated scf accuracy    <       0.00105943 Ry

     iteration #  8     ecut=    40.00 Ry     beta=0.70
     CG style diagonalization
     c_bands:  1 eigenvalues not converged
     ethr =  4.27E-07,  avg # of iterations =  3.8

     total cpu time spent up to now is     1594.7 secs

     total energy              =   -3931.12007637 Ry
     Harris-Foulkes estimate   =   -3931.12013790 Ry
     estimated scf accuracy    <       0.00012347 Ry

     iteration #  9     ecut=    40.00 Ry     beta=0.70
     CG style diagonalization
     ethr =  4.98E-08,  avg # of iterations =  4.0

     total cpu time spent up to now is     1619.1 secs

     End of self-consistent calculation

          k = 0.0000 0.0000 0.0000 (  5769 PWs)   bands (ev):

  -103.1814-103.1814-103.1501-103.1501-103.1451-103.0222-103.0197-102.9789
   -59.1485 -59.1114 -58.9545 -58.9545 -58.9536 -58.9536 -58.9429 -58.8610
   -58.8602 -58.8602 -58.8597 -58.8482 -58.8482 -58.8271 -58.8271 -58.8043
   -58.8043 -58.7789 -58.7682 -58.7629 -58.7019 -58.7019 -58.6785 -58.6785
    -4.0111  -3.8520  -3.6757  -3.5062  -0.2403  -0.0329   0.1046   0.3439
     0.3440   0.3864   0.3864   0.5145   0.5145   0.7284   0.7942   0.7942
     1.1242   1.3427   1.3427   1.3821   1.4063   1.4063   1.6883   1.8084
     1.8085   1.8096   1.8096   1.8401   1.8401   1.9398   1.9465   2.0104
     2.0213   2.0213   2.0571   2.0571   2.1184   2.1185   2.4452   2.4452
     2.5273   2.5274   2.6212   2.6254  11.1980  12.0552  13.1574  13.1574
    13.3736  13.5994  13.5994  13.9844  13.9845  14.0371  14.1910  14.3871
    14.3871  15.3982  16.5906  18.0601  19.4711  19.7291  19.7291  21.0223
    21.0224  22.4390  23.5467  23.5468  23.9203  23.9203  24.5618  24.6120
    24.6120  28.1296  28.1296  28.8713  29.8441  29.8442  31.4863  31.9545
    32.4157  32.4157  32.4464  32.4465  33.1312  33.6605  33.9934  34.2724
    34.2765  34.6010  34.6010  34.6038  34.6038  34.7582  34.7582  35.6147
    35.8071  35.9599  36.2883  36.2883  36.5074  36.5074  36.7379  36.8663
    36.8664  37.2424  37.2424  37.3855  37.3925  37.3925  37.5461  37.5591
    37.5593  38.2770  38.2771  38.5313  38.7799

          k = 0.0000 0.0000 0.1556 (  5780 PWs)   bands (ev):

  -103.1924-103.1923-103.1726-103.1726-103.1075-103.0519-103.0126-103.0035
   -59.1436 -59.1122 -58.9590 -58.9590 -58.9562 -58.9562 -58.9461 -58.8804
   -58.8631 -58.8630 -58.8566 -58.8566 -58.8292 -58.8191 -58.8190 -58.8118
   -58.8118 -58.7830 -58.7778 -58.7664 -58.7010 -58.7010 -58.6808 -58.6808
    -3.9948  -3.8895  -3.6368  -3.5245  -0.2216  -0.0922   0.2061   0.3482
     0.3482   0.3780   0.3780   0.5505   0.5505   0.6098   0.7441   0.7442
     1.1920   1.3582   1.3641   1.3641   1.4038   1.4039   1.7478   1.7930
     1.7930   1.8054   1.8055   1.8904   1.8904   1.9387   1.9431   1.9732
     2.0301   2.0301   2.0314   2.0314   2.0990   2.0991   2.4558   2.4558
     2.5158   2.5158   2.6211   2.6228  11.3374  11.9690  13.2022  13.2022
    13.3409  13.4937  13.4937  13.9237  14.0817  14.0817  14.1781  14.3462
    14.3463  15.0335  17.3129  18.2345  19.5434  19.8669  19.8669  20.7492
    20.7492  21.3020  23.6837  23.6837  24.3094  24.3094  24.5247  24.5247
    25.5839  26.9985  26.9985  28.0327  31.0642  31.0643  31.7965  32.3707
    32.6003  32.6003  32.7514  32.7514  33.1854  33.5149  33.8064  34.3139
    34.3139  34.4257  34.4943  34.4943  34.7513  34.8398  34.8399  35.4535
    35.6416  35.6485  35.6486  35.9804  35.9804  36.2654  36.6054  36.6055
    36.8652  37.1352  37.1352  37.2462  37.3589  37.3590  37.5658  37.5658
    37.7162  38.0459  38.2368  38.8554  38.8555

          k = 0.0000 0.0000-0.3111 (  5780 PWs)   bands (ev):

  -103.1631-103.1630-103.1382-103.1381-103.1381-103.1381-103.0021-103.0021
   -59.1219 -59.1219 -58.9527 -58.9526 -58.9526 -58.9526 -58.9453 -58.9453
   -58.8524 -58.8523 -58.8523 -58.8523 -58.8194 -58.8194 -58.8193 -58.8193
   -58.7998 -58.7998 -58.7734 -58.7733 -58.6896 -58.6896 -58.6896 -58.6896
    -3.9502  -3.9501  -3.5729  -3.5727  -0.1718  -0.1718   0.3614   0.3615
     0.3615   0.3615   0.3980   0.3980   0.6421   0.6421   0.6421   0.6421
     1.2864   1.2864   1.3937   1.3937   1.3937   1.3937   1.7956   1.7956
     1.7956   1.7956   1.8704   1.8704   1.9460   1.9461   1.9673   1.9673
     1.9673   1.9673   2.0600   2.0600   2.0600   2.0600   2.4867   2.4867
     2.4867   2.4867   2.6228   2.6229  11.6677  11.6677  13.3259  13.3259
    13.3260  13.3261  13.5020  13.5022  14.2346  14.2346  14.2347  14.2347
    14.5475  14.5477  18.2362  18.2363  19.9500  19.9501  20.2611  20.2611
    20.2611  20.2611  24.0318  24.0319  24.0319  24.0319  25.5491  25.5491
    25.5492  25.5492  26.8586  26.8587  32.1697  32.1698  32.4566  32.4567
    32.4568  32.4568  33.2159  33.2160  33.5315  33.5316  33.5316  33.5316
    34.5549  34.5549  34.5550  34.5550  34.7826  34.7826  34.8575  34.8575
    35.3219  35.3220  35.3220  35.3220  36.0603  36.0603  36.6510  36.6510
    36.6510  36.6510  36.9945  36.9946  37.5294  37.5294  37.5294  37.5294
    37.6108  37.6109  38.6191  38.6192  39.2103

          k = 0.0000 0.3782 0.0000 (  5787 PWs)   bands (ev):

  -103.2031-103.1820-103.1793-103.1427-103.1328-103.0876-103.0274-103.0035
   -59.0977 -59.0744 -58.9912 -58.9768 -58.9632 -58.9478 -58.9425 -58.8626
   -58.8551 -58.8543 -58.8538 -58.8420 -58.8419 -58.8376 -58.8308 -58.8280
   -58.8182 -58.7962 -58.7927 -58.7672 -58.7100 -58.7016 -58.6920 -58.6765
    -3.9298  -3.7852  -3.7417  -3.5945   0.0633   0.2327   0.2422   0.4418
     0.4794   0.5342   0.5593   0.6892   0.7900   0.8041   0.9445   0.9646
     1.1209   1.2397   1.3902   1.4334   1.4569   1.5503   1.5535   1.6098
     1.6247   1.6569   1.6693   1.6758   1.8095   1.8362   1.8452   1.8972
     1.9275   1.9725   2.0092   2.0384   2.1190   2.1345   2.1595   2.2971
     2.3082   2.3095   2.4577   2.5524  11.3255  11.7394  12.8092  12.8821
    13.0290  13.2950  13.6288  13.8229  14.2867  14.3349  14.6334  14.6361
    14.6927  15.2970  16.2168  17.1936  17.4053  19.7446  20.2486  21.8410
    22.2569  22.6150  23.7235  24.4435  24.5955  25.5581  25.7353  26.1749
    26.5992  27.1569  28.0835  29.8068  29.8711  30.1184  30.5722  30.6965
    31.4429  31.4594  31.5224  31.6987  32.0217  32.3667  33.0410  33.5418
    33.8048  33.8348  34.1743  34.3369  34.4302  34.4770  34.4791  34.9796
    35.0294  35.2426  35.8444  35.9469  36.1446  36.2019  36.5029  36.5299
    37.0331  37.0979  37.4507  37.7223  38.1215  38.4193  38.4365  38.8344
    39.1554  39.1684  39.2337  39.2434  39.5742

          k = 0.0000 0.3782 0.1556 (  5804 PWs)   bands (ev):

  -103.2057-103.1889-103.1820-103.1704-103.1487-103.1376-103.0417-103.0038
   -59.0996 -59.0836 -58.9880 -58.9810 -58.9503 -58.9457 -58.9442 -58.8894
   -58.8634 -58.8631 -58.8599 -58.8532 -58.8497 -58.8446 -58.8272 -58.8237
   -58.8074 -58.7933 -58.7894 -58.7734 -58.7058 -58.6971 -58.6962 -58.6877
    -3.9174  -3.8301  -3.6967  -3.6074   0.0752   0.1590   0.3354   0.4338
     0.4942   0.5689   0.5791   0.6718   0.7092   0.8042   0.8428   0.9095
     1.2223   1.3142   1.4035   1.4290   1.4866   1.5015   1.5410   1.5516
     1.6178   1.6680   1.6865   1.7445   1.7737   1.8535   1.8769   1.8971
     1.9246   1.9895   2.0190   2.0215   2.0960   2.1212   2.1771   2.2731
     2.2750   2.3097   2.4809   2.5410  11.4220  11.7572  12.8032  12.8652
    13.0351  13.2019  13.4874  13.6986  14.2431  14.3580  14.5178  14.5960
    14.9220  15.2751  16.4812  17.1505  17.8559  19.8223  20.1827  20.6369
    22.2954  22.5873  24.0034  24.6337  25.3220  25.5295  25.5459  26.2949
    26.7549  27.1547  27.7531  29.2983  29.6684  30.2345  30.6923  30.7040
    31.1502  31.5055  31.5998  31.6431  32.1990  32.7011  33.2507  33.4420
    33.5304  33.6161  34.0532  34.3446  34.4593  34.4737  34.8651  35.2486
    35.3169  35.3863  35.5648  36.0103  36.1502  36.6498  36.8098  36.9762
    37.0811  37.2548  37.2952  37.3168  37.5917  38.1779  38.1944  38.3767
    38.6298  38.9450  39.0608  39.7026  39.8865

          k = 0.0000 0.3782-0.3111 (  5816 PWs)   bands (ev):

  -103.2084-103.2083-103.1884-103.1884-103.1566-103.1565-103.0354-103.0354
   -59.0970 -59.0970 -58.9882 -58.9882 -58.9480 -58.9480 -58.9258 -58.9258
   -58.8642 -58.8642 -58.8561 -58.8561 -58.8478 -58.8477 -58.8265 -58.8265
   -58.7926 -58.7926 -58.7865 -58.7865 -58.7036 -58.7036 -58.6938 -58.6938
    -3.8823  -3.8821  -3.6440  -3.6438   0.1061   0.1061   0.4095   0.4095
     0.5660   0.5661   0.6279   0.6279   0.6762   0.6762   0.8476   0.8476
     1.3422   1.3422   1.4423   1.4423   1.4501   1.4501   1.5293   1.5293
     1.6445   1.6445   1.7156   1.7156   1.8299   1.8299   1.9120   1.9120
     1.9527   1.9527   2.0521   2.0521   2.0593   2.0593   2.2163   2.2163
     2.2849   2.2849   2.5143   2.5143  11.6436  11.6437  12.8799  12.8800
    13.0172  13.0172  13.4654  13.4655  14.3292  14.3293  14.4916  14.4916
    15.1539  15.1540  16.9328  16.9330  19.0279  19.0280  20.0087  20.0087
    22.4085  22.4086  24.6743  24.6743  24.9543  24.9543  26.5035  26.5035
    26.9966  26.9967  28.1640  28.1641  29.8834  29.8834  30.7613  30.7614
    31.0809  31.0810  31.7916  31.7916  32.2583  32.2583  33.4442  33.4443
    33.6974  33.6975  34.4771  34.4772  34.5903  34.5903  34.7005  34.7005
    35.7785  35.7785  36.2242  36.2242  36.5120  36.5120  36.7092  36.7092
    36.9508  36.9509  37.4601  37.4602  37.5416  37.5417  38.0390  38.0392
    38.8445  38.8446  38.9310  38.9313  39.6890

          k =-0.4913-0.2837 0.0000 (  5800 PWs)   bands (ev):

  -103.2316-103.2200-103.1675-103.1480-103.1350-103.1151-103.0257-103.0055
   -59.0764 -59.0622 -59.0164 -58.9861 -58.9650 -58.9431 -58.9427 -58.8664
   -58.8600 -58.8575 -58.8548 -58.8519 -58.8470 -58.8392 -58.8364 -58.8294
   -58.8181 -58.8036 -58.7965 -58.7656 -58.7125 -58.7046 -58.6927 -58.6761
    -3.8841  -3.7822  -3.7452  -3.6417   0.1547   0.2796   0.2866   0.4627
     0.5744   0.6002   0.7286   0.7540   0.8295   0.9661   1.0158   1.1442
     1.2277   1.3006   1.3036   1.3792   1.4210   1.4559   1.4939   1.4980
     1.5294   1.5728   1.6311   1.6392   1.6865   1.7463   1.8333   1.8354
     1.8931   1.9677   1.9678   2.0154   2.0858   2.1015   2.1245   2.2130
     2.2488   2.3004   2.4659   2.5512  11.1919  12.1676  12.4028  12.7242
    12.8612  13.2179  13.8092  13.8264  14.3558  14.3797  14.6815  14.6900
    14.8034  15.2653  15.9839  16.7627  17.5879  19.9126  19.9181  22.0053
    22.3370  22.6929  23.7841  24.2599  24.9010  26.4160  26.7939  26.9262
    27.9211  28.0736  28.3171  28.8092  29.0515  29.4538  30.0737  30.2349
    30.5213  31.2696  31.3874  31.5869  32.0528  32.3917  32.6580  33.1264
    33.4249  33.4950  33.6456  34.0187  34.4114  34.8725  34.9382  35.0031
    35.0247  35.5034  35.9742  35.9850  36.0289  36.3154  36.4595  36.4614
    36.6471  36.8050  36.8963  37.1697  37.7854  38.4977  38.7813  38.9262
    39.2434  39.6791  39.8608  40.1009  40.1245

          k =-0.4913-0.2837 0.1556 (  5822 PWs)   bands (ev):

  -103.2500-103.2098-103.2008-103.1955-103.1752-103.1163-103.0466-103.0226
   -59.0796 -59.0653 -59.0130 -59.0044 -58.9551 -58.9474 -58.9444 -58.8846
   -58.8679 -58.8640 -58.8601 -58.8598 -58.8542 -58.8452 -58.8291 -58.8261
   -58.8055 -58.8027 -58.7989 -58.7748 -58.7147 -58.7059 -58.6970 -58.6827
    -3.8753  -3.8123  -3.7147  -3.6515   0.1615   0.2243   0.3681   0.4845
     0.5751   0.5944   0.6551   0.7049   0.8396   0.9579   1.0610   1.1507
     1.2131   1.2625   1.3445   1.3785   1.4116   1.4213   1.4736   1.5291
     1.5849   1.5860   1.5951   1.6255   1.6980   1.7449   1.8341   1.8747
     1.8770   2.0003   2.0091   2.0120   2.0888   2.0964   2.1124   2.2013
     2.2109   2.2657   2.4828   2.5393  11.2989  11.9983  12.5539  12.7814
    12.8670  13.1254  13.6479  13.6720  14.2401  14.4228  14.5876  14.6541
    15.0358  15.2584  16.2511  16.8072  17.9507  19.9258  19.9318  20.6390
    22.3355  22.5478  24.3227  24.9421  25.7042  25.8901  26.1750  27.2727
    27.9170  28.1918  28.6096  28.9865  29.0124  29.4026  29.7578  30.0436
    30.1329  31.3115  31.3720  31.5254  31.6920  31.9104  33.0072  33.1501
    33.2467  33.7379  33.9178  34.1242  34.3115  34.4072  34.6284  35.0193
    35.6922  35.7275  35.8088  36.1128  36.3312  36.3328  36.7499  36.8047
    36.9948  37.0186  37.1458  37.7459  37.8689  38.1347  38.7004  38.7491
    38.7648  39.0385  39.1274  39.5029  39.7011

          k =-0.4913-0.2837-0.3111 (  5804 PWs)   bands (ev):

  -103.2099-103.2099-103.2034-103.2034-103.1356-103.1356-102.9969-102.9969
   -59.0746 -59.0745 -59.0078 -59.0078 -58.9456 -58.9456 -58.9214 -58.9214
   -58.8588 -58.8587 -58.8524 -58.8524 -58.8459 -58.8458 -58.8272 -58.8272
   -58.8015 -58.8015 -58.7763 -58.7763 -58.7014 -58.7014 -58.6951 -58.6951
    -3.8497  -3.8495  -3.6771  -3.6769   0.1862   0.1862   0.4829   0.4829
     0.5482   0.5482   0.6493   0.6493   0.8794   0.8794   1.1771   1.1771
     1.1829   1.1830   1.3786   1.3786   1.4109   1.4109   1.4969   1.4969
     1.5900   1.5900   1.6150   1.6150   1.7322   1.7322   1.8471   1.8471
     1.9559   1.9559   2.0694   2.0694   2.0813   2.0813   2.1387   2.1387
     2.1995   2.1995   2.5134   2.5134  11.6114  11.6115  12.9103  12.9105
    12.9384  12.9385  13.3415  13.3417  14.4218  14.4219  14.5524  14.5525
    15.2073  15.2074  16.6732  16.6734  19.0349  19.0349  19.9519  19.9519
    22.3430  22.3430  25.2312  25.2312  25.2769  25.2770  27.4560  27.4561
    28.1347  28.1347  28.4412  28.4413  29.4105  29.4105  29.4895  29.4895
    30.2944  30.2945  31.3504  31.3504  32.0305  32.0306  32.9834  32.9834
    33.4790  33.4791  34.0876  34.0876  34.3392  34.3392  34.9068  34.9068
    35.5775  35.5775  36.5947  36.5948  36.9642  36.9642  37.1123  37.1124
    37.2127  37.2127  37.4184  37.4185  37.6537  37.6538  38.3364  38.3365
    38.3598  38.3600  39.1880  39.1884  39.5354

          k =-0.4913 0.0946 0.0000 (  5827 PWs)   bands (ev):

  -103.2580-103.2194-103.2124-103.1831-103.1636-103.1142-103.0694-103.0305
   -59.0823 -59.0698 -59.0158 -58.9970 -58.9658 -58.9428 -58.9419 -58.8697
   -58.8644 -58.8603 -58.8586 -58.8532 -58.8489 -58.8398 -58.8382 -58.8317
   -58.8277 -58.8060 -58.8024 -58.7738 -58.7141 -58.7067 -58.6975 -58.6893
    -3.8863  -3.7803  -3.7472  -3.6401   0.2341   0.3010   0.3763   0.4402
     0.5383   0.5402   0.5833   0.7368   0.8546   0.9413   1.0474   1.0502
     1.1153   1.2553   1.3459   1.3991   1.4397   1.4500   1.5115   1.5178
     1.6121   1.6307   1.6655   1.6811   1.7016   1.7680   1.8116   1.8278
     1.8791   1.9665   1.9927   2.0414   2.0582   2.1097   2.1648   2.1844
     2.2724   2.3030   2.4358   2.4614  11.2283  11.9108  12.4590  12.7733
    13.1959  13.3719  13.7070  13.7771  13.8204  14.4267  14.6335  14.6787
    15.1143  15.2735  16.0987  16.7855  17.5488  19.4744  19.5552  22.4362
    22.7148  23.2773  23.9395  24.4549  24.7465  25.6597  26.2667  26.9258
    27.5799  27.5871  28.5313  28.8956  29.2303  29.7033  30.5761  30.7629
    30.8192  31.3037  31.3894  31.5559  32.1253  32.1393  32.7274  32.9659
    33.1823  33.3794  33.5952  33.9783  34.1548  34.1806  34.5226  34.6599
    34.8734  35.2745  35.2986  35.7596  36.4689  36.5676  36.7959  37.1014
    37.3235  37.3382  37.5460  37.7285  37.9324  38.3223  38.3665  38.7627
    39.2376  39.4432  39.4885  39.6659  39.9375

          k =-0.4913 0.0946 0.1556 (  5825 PWs)   bands (ev):

  -103.2262-103.2152-103.1984-103.1911-103.1799-103.1400-103.0536-103.0304
   -59.0793 -59.0676 -59.0157 -59.0039 -58.9555 -58.9444 -58.9399 -58.8895
   -58.8690 -58.8629 -58.8590 -58.8545 -58.8514 -58.8489 -58.8315 -58.8277
   -58.8073 -58.8043 -58.8008 -58.7727 -58.7099 -58.7042 -58.6998 -58.6905
    -3.8771  -3.8126  -3.7145  -3.6495   0.2381   0.2785   0.4194   0.4472
     0.5178   0.5902   0.6038   0.6875   0.7934   0.8479   1.0480   1.0904
     1.1434   1.2964   1.3306   1.4106   1.4549   1.4720   1.4982   1.5497
     1.5675   1.6034   1.6527   1.6843   1.7413   1.7764   1.8053   1.8720
     1.8865   1.9895   2.0073   2.0447   2.0633   2.0999   2.1403   2.1567
     2.2527   2.2857   2.4402   2.4603  11.3369  11.9176  12.4320  12.7013
    13.1269  13.2088  13.6724  13.7459  14.0713  14.3495  14.5368  14.6156
    15.1577  15.2684  16.3687  16.8423  17.9301  19.4695  19.5285  20.7020
    23.2899  23.3501  24.3071  24.7798  25.2776  25.7460  26.2743  26.7859
    27.1709  27.7856  28.5211  28.7539  29.3031  29.5534  30.2616  30.7313
    30.8527  31.2221  31.4272  31.5637  31.7403  32.3322  32.7168  32.9897
    33.1644  33.3689  33.4882  33.8167  34.1948  34.4124  34.5667  34.9019
    35.2947  35.4780  35.7526  35.9173  36.2457  36.3913  36.7262  36.8809
    37.1460  37.1784  37.5325  37.8682  37.9391  38.3434  38.7056  38.9100
    39.1120  39.2596  39.4280  39.7698  39.8987

          k =-0.4913 0.0946-0.3111 (  5824 PWs)   bands (ev):

  -103.2080-103.2080-103.1915-103.1914-103.1713-103.1713-103.0431-103.0431
   -59.0735 -59.0735 -59.0100 -59.0099 -58.9443 -58.9443 -58.9226 -58.9226
   -58.8639 -58.8639 -58.8561 -58.8561 -58.8507 -58.8507 -58.8294 -58.8293
   -58.8061 -58.8061 -58.7846 -58.7846 -58.7038 -58.7038 -58.6981 -58.6981
    -3.8510  -3.8507  -3.6761  -3.6758   0.2540   0.2540   0.4553   0.4553
     0.5657   0.5657   0.6525   0.6525   0.7430   0.7430   1.0612   1.0613
     1.2399   1.2399   1.3999   1.3999   1.4791   1.4791   1.5043   1.5043
     1.5896   1.5896   1.6532   1.6533   1.7693   1.7693   1.8467   1.8467
     1.9697   1.9697   2.0543   2.0543   2.0861   2.0861   2.0972   2.0972
     2.2511   2.2511   2.4521   2.4521  11.6369  11.6370  12.6206  12.6206
    13.0302  13.0304  13.6494  13.6496  14.3545  14.3547  14.4505  14.4506
    15.2275  15.2277  16.7567  16.7569  19.0128  19.0129  19.5087  19.5087
[...]

  -103.0520-103.0519-103.0376-103.0372-103.0372-103.0127-102.9595-102.8766
   -58.8606 -58.8390 -58.6785 -58.6785 -58.6758 -58.6726 -58.6726 -58.6201
   -58.5730 -58.5730 -58.5718 -58.5718 -58.5473 -58.5472 -58.5459 -58.5435
   -58.5435 -58.5009 -58.4904 -58.4886 -58.4261 -58.4261 -58.4190 -58.4190
    -3.7306  -3.6214  -3.3606  -3.2445   0.0166   0.1482   0.4482   0.6040
     0.6040   0.6360   0.6360   0.8045   0.8045   0.8636   0.9960   0.9960
     1.4554   1.6302   1.6381   1.6381   1.6745   1.6746   2.0260   2.0772
     2.0772   2.0925   2.0926   2.1768   2.1768   2.2319   2.2366   2.2599
     2.3175   2.3175   2.3277   2.3278   2.3970   2.3970   2.7564   2.7565
     2.8190   2.8190   2.9367   2.9389  11.5207  12.1350  13.4471  13.4472
    13.5949  13.7455  13.7456  14.1687  14.3391  14.3391  14.4307  14.6127
    14.6127  15.2699  17.5234  18.4778  19.7829  20.1153  20.1153  21.0047
    21.0047  21.5194  23.9252  23.9252  24.5375  24.5375  24.7832  24.7832
    25.8246  27.2524  27.2524  28.2975  31.3346  31.3346  32.1025  32.6572
    32.8578  32.8578  33.0306  33.0306  33.4434  33.7999  34.0761  34.5626
    34.5626  34.6861  34.7661  34.7661  35.0595  35.1204  35.1204  35.7470
    35.8844  35.9211  35.9211  36.2236  36.2236  36.4769  36.8874  36.8875
    37.0241  37.4281  37.4281  37.4824  37.6100  37.6103  37.8466  37.8467
    37.9573  38.3084  38.4893  39.1196  39.1197

          k = 0.0000 0.0000-0.3117 (  6032 PWs)   bands (ev):

  -103.0945-103.0945-103.0945-103.0945-103.0822-103.0821-102.9718-102.9718
   -58.8538 -58.8538 -58.6851 -58.6851 -58.6851 -58.6851 -58.6708 -58.6708
   -58.5819 -58.5818 -58.5818 -58.5818 -58.5507 -58.5507 -58.5507 -58.5507
   -58.5223 -58.5223 -58.5091 -58.5091 -58.4311 -58.4311 -58.4311 -58.4311
    -3.6849  -3.6848  -3.2951  -3.2950   0.0673   0.0673   0.6172   0.6172
     0.6172   0.6172   0.6418   0.6418   0.8921   0.8921   0.8921   0.8921
     1.5552   1.5552   1.6623   1.6623   1.6623   1.6623   2.0807   2.0807
     2.0807   2.0807   2.1520   2.1520   2.2314   2.2314   2.2501   2.2501
     2.2501   2.2501   2.3581   2.3581   2.3581   2.3582   2.7869   2.7869
     2.7869   2.7869   2.9361   2.9361  11.8437  11.8437  13.5731  13.5731
    13.5731  13.5732  13.7436  13.7437  14.4961  14.4961  14.4962  14.4962
    14.7894  14.7895  18.4817  18.4818  20.1634  20.1634  20.4953  20.4953
    20.4954  20.4954  24.2733  24.2733  24.2733  24.2733  25.7914  25.7914
    25.7914  25.7914  27.1019  27.1020  32.4634  32.4635  32.7285  32.7285
    32.7285  32.7286  33.4743  33.4743  33.7824  33.7824  33.7824  33.7825
    34.8109  34.8109  34.8109  34.8110  35.1037  35.1038  35.1288  35.1288
    35.5980  35.5980  35.5980  35.5981  36.2690  36.2690  36.9360  36.9361
    36.9361  36.9361  37.1864  37.1864  37.7618  37.7618  37.7619  37.7621
    37.8384  37.8387  38.8628  38.8628  39.4443

          k = 0.0000 0.3794 0.0000 (  5964 PWs)   bands (ev):

  -103.0873-103.0719-103.0235-103.0180-103.0171-103.0008-102.9240-102.8945
   -58.8224 -58.8062 -58.7164 -58.6915 -58.6865 -58.6628 -58.6581 -58.5871
   -58.5812 -58.5728 -58.5693 -58.5635 -58.5617 -58.5559 -58.5505 -58.5485
   -58.5349 -58.5151 -58.5036 -58.4807 -58.4356 -58.4343 -58.4149 -58.4080
    -3.6620  -3.5147  -3.4682  -3.3173   0.3082   0.4788   0.4869   0.6924
     0.7386   0.7943   0.8121   0.9481   1.0613   1.0622   1.2137   1.2259
     1.3894   1.5151   1.6640   1.7118   1.7322   1.8268   1.8299   1.8942
     1.9045   1.9402   1.9548   1.9556   2.0979   2.1255   2.1260   2.1871
     2.2232   2.2575   2.3026   2.3247   2.4110   2.4285   2.4567   2.5946
     2.6019   2.6095   2.7597   2.8567  11.5056  11.9280  13.0424  13.1201
    13.2564  13.5404  13.8749  14.0759  14.5517  14.6053  14.9011  14.9082
    14.9125  15.5474  16.4493  17.4471  17.6413  19.9797  20.5032  22.0930
    22.4987  22.8388  23.9676  24.6847  24.8401  25.8264  26.0023  26.4255
    26.8748  27.4343  28.3477  30.0734  30.1354  30.3933  30.8434  30.9789
    31.6932  31.7500  31.8114  31.9635  32.2744  32.6543  33.3142  33.8122
    34.0496  34.1091  34.4588  34.5964  34.7067  34.7452  34.7471  35.2400
    35.3100  35.4950  36.1178  36.2384  36.4030  36.4825  36.7888  36.7896
    37.2464  37.3113  37.7228  38.0319  38.3612  38.7001  38.7102  39.1512
    39.4151  39.4185  39.4527  39.5297  39.8074

          k = 0.0000 0.3794 0.1559 (  5968 PWs)   bands (ev):

  -103.0807-103.0651-103.0436-103.0356-103.0229-102.9960-102.9157-102.9065
   -58.8165 -58.8032 -58.7158 -58.7030 -58.6730 -58.6624 -58.6604 -58.6059
   -58.5824 -58.5790 -58.5739 -58.5714 -58.5609 -58.5546 -58.5468 -58.5409
   -58.5243 -58.5135 -58.5087 -58.4874 -58.4316 -58.4311 -58.4167 -58.4120
    -3.6494  -3.5603  -3.4221  -3.3306   0.3192   0.4047   0.5848   0.6867
     0.7523   0.8270   0.8334   0.9299   0.9680   1.0763   1.1021   1.1806
     1.4958   1.5874   1.6791   1.7086   1.7629   1.7780   1.8196   1.8307
     1.9003   1.9529   1.9672   2.0298   2.0597   2.1431   2.1579   2.1882
     2.2203   2.2763   2.3096   2.3125   2.3878   2.4137   2.4745   2.5693
     2.5742   2.6069   2.7819   2.8469  11.6014  11.9463  13.0277  13.0999
    13.2788  13.4441  13.7253  13.9501  14.5062  14.6252  14.7865  14.8701
    15.1564  15.5263  16.7253  17.4062  18.0867  20.0648  20.4346  20.8624
    22.5392  22.8328  24.2537  24.8780  25.5896  25.7779  25.8044  26.5504
    27.0289  27.4249  28.0209  29.5581  29.9335  30.5025  30.9728  30.9799
    31.4244  31.7791  31.8647  31.9226  32.4746  32.9695  33.5287  33.7178
    33.7940  33.8938  34.3339  34.6086  34.7237  34.7299  35.1446  35.5362
    35.5807  35.6618  35.8247  36.2928  36.4189  36.8890  37.0657  37.2544
    37.3107  37.4969  37.5788  37.5887  37.8450  38.4615  38.4855  38.6508
    38.8946  39.2072  39.3108  39.9430  39.9962

          k = 0.0000 0.3794-0.3117 (  5974 PWs)   bands (ev):

  -103.0732-103.0732-103.0564-103.0564-103.0061-103.0061-102.9186-102.9186
   -58.8135 -58.8135 -58.7114 -58.7113 -58.6642 -58.6642 -58.6441 -58.6441
   -58.5811 -58.5811 -58.5721 -58.5721 -58.5587 -58.5587 -58.5413 -58.5413
   -58.5142 -58.5142 -58.5022 -58.5022 -58.4237 -58.4237 -58.4225 -58.4225
    -3.6135  -3.6134  -3.3679  -3.3678   0.3509   0.3509   0.6636   0.6636
     0.8221   0.8221   0.8833   0.8833   0.9362   0.9362   1.1196   1.1196
     1.6180   1.6181   1.7182   1.7182   1.7267   1.7267   1.8090   1.8090
     1.9259   1.9259   2.0012   2.0012   2.1189   2.1189   2.2046   2.2046
     2.2386   2.2386   2.3429   2.3429   2.3495   2.3495   2.5155   2.5155
     2.5824   2.5824   2.8190   2.8190  11.8252  11.8253  13.1118  13.1119
    13.2552  13.2552  13.7114  13.7115  14.5947  14.5948  14.7627  14.7628
    15.4030  15.4030  17.1879  17.1880  19.2485  19.2485  20.2618  20.2618
    22.6546  22.6546  24.9339  24.9340  25.2012  25.2012  26.7762  26.7762
    27.2604  27.2604  28.4173  28.4173  30.1513  30.1513  31.0434  31.0434
    31.3552  31.3552  32.0609  32.0609  32.5331  32.5331  33.7031  33.7032
    33.9818  33.9818  34.7484  34.7484  34.8783  34.8783  34.9747  34.9747
    36.0471  36.0471  36.4927  36.4927  36.7599  36.7599  36.9876  36.9877
    37.1971  37.1971  37.7015  37.7016  37.8190  37.8190  38.3166  38.3168
    39.0914  39.0917  39.2231  39.2234  39.9269

          k =-0.4928-0.2845 0.0000 (  5952 PWs)   bands (ev):

  -103.0839-103.0641-103.0389-103.0232-103.0009-102.9646-102.9076-102.8767
   -58.8007 -58.7805 -58.7331 -58.7077 -58.6901 -58.6587 -58.6510 -58.5857
   -58.5846 -58.5677 -58.5653 -58.5616 -58.5616 -58.5548 -58.5500 -58.5400
   -58.5389 -58.5129 -58.5099 -58.4758 -58.4405 -58.4285 -58.4181 -58.4013
    -3.6151  -3.5093  -3.4724  -3.3666   0.4019   0.5191   0.5435   0.7101
     0.8278   0.8550   0.9830   1.0076   1.1120   1.2354   1.2988   1.4378
     1.5133   1.5640   1.5796   1.6516   1.6988   1.7271   1.7641   1.7732
     1.8153   1.8426   1.9150   1.9154   1.9670   2.0334   2.1155   2.1296
     2.1854   2.2527   2.2572   2.3020   2.3798   2.3938   2.4170   2.5091
     2.5512   2.5990   2.7663   2.8574  11.3636  12.3756  12.6233  12.9555
    13.0835  13.4613  14.0562  14.0827  14.6225  14.6507  14.9597  14.9681
    14.9840  15.5205  16.2446  17.0217  17.8316  20.1651  20.1713  22.2566
    22.5816  22.9133  24.0355  24.4940  25.1519  26.6785  27.0744  27.2103
    28.1824  28.3471  28.5627  29.0963  29.3074  29.7473  30.3821  30.5066
    30.7836  31.5194  31.6563  31.8973  32.3129  32.6510  32.9666  33.3857
    33.6927  33.7616  33.8957  34.2916  34.6648  35.1476  35.1916  35.2481
    35.3074  35.7895  36.2671  36.2890  36.3266  36.6068  36.7269  36.7300
    36.9333  37.0652  37.1315  37.4037  38.0372  38.7550  39.0468  39.1922
    39.4877  39.9582  40.0186  40.1306  40.3666

          k =-0.4928-0.2845 0.1559 (  5978 PWs)   bands (ev):

  -103.0901-103.0873-103.0738-103.0568-103.0205-102.9946-102.9110-102.9040
   -58.8024 -58.7888 -58.7323 -58.7230 -58.6764 -58.6576 -58.6551 -58.6071
   -58.5831 -58.5791 -58.5782 -58.5768 -58.5715 -58.5621 -58.5463 -58.5397
   -58.5211 -58.5144 -58.5105 -58.4905 -58.4393 -58.4276 -58.4181 -58.4131
    -3.6062  -3.5409  -3.4409  -3.3762   0.4094   0.4706   0.6189   0.7336
     0.8292   0.8494   0.9068   0.9587   1.1211   1.2379   1.3290   1.4451
     1.5033   1.5291   1.6209   1.6533   1.6874   1.6911   1.7513   1.7977
     1.8638   1.8713   1.8721   1.9010   1.9805   2.0320   2.1287   2.1600
     2.1649   2.2897   2.2959   2.2990   2.3815   2.3939   2.4035   2.4961
     2.5108   2.5606   2.7849   2.8452  11.4720  12.1917  12.7784  13.0148
    13.1009  13.3660  13.8992  13.9124  14.4923  14.6919  14.8633  14.9304
    15.2580  15.5106  16.5129  17.0757  18.1843  20.1812  20.1847  20.8645
    22.5802  22.7895  24.5811  25.1917  25.9441  26.1448  26.4486  27.5553
    28.1698  28.4624  28.8953  29.2440  29.2860  29.6969  30.0532  30.3089
    30.4092  31.5672  31.6397  31.8196  31.9514  32.1770  33.2773  33.4116
    33.5286  33.9964  34.1983  34.3977  34.5616  34.6641  34.9011  35.3150
    35.9602  36.0052  36.0956  36.3970  36.6038  36.6054  36.9970  37.0919
    37.1981  37.3088  37.3975  38.0188  38.1200  38.3988  39.0054  39.0246
    39.0353  39.2989  39.3881  39.7285  39.9367

          k =-0.4928-0.2845-0.3117 (  5948 PWs)   bands (ev):

  -103.0670-103.0670-103.0283-103.0282-102.9832-102.9832-102.8850-102.8850
   -58.7907 -58.7907 -58.7276 -58.7276 -58.6566 -58.6566 -58.6372 -58.6372
   -58.5762 -58.5761 -58.5722 -58.5722 -58.5630 -58.5630 -58.5367 -58.5367
   -58.5109 -58.5109 -58.4910 -58.4910 -58.4267 -58.4267 -58.4133 -58.4133
    -3.5792  -3.5791  -3.4023  -3.4022   0.4341   0.4341   0.7365   0.7365
     0.7960   0.7960   0.9046   0.9046   1.1611   1.1611   1.4506   1.4506
     1.4713   1.4713   1.6493   1.6493   1.6897   1.6897   1.7729   1.7729
     1.8644   1.8644   1.8986   1.8986   2.0165   2.0165   2.1369   2.1369
     2.2425   2.2425   2.3594   2.3594   2.3706   2.3706   2.4386   2.4386
     2.4944   2.4944   2.8187   2.8187  11.7910  11.7911  13.1465  13.1466
    13.1747  13.1747  13.5761  13.5762  14.6890  14.6891  14.8262  14.8262
    15.4501  15.4502  16.9422  16.9423  19.2614  19.2614  20.2057  20.2057
    22.5855  22.5855  25.4808  25.4809  25.5440  25.5440  27.7261  27.7262
    28.3934  28.3935  28.7192  28.7193  29.6893  29.6894  29.7885  29.7885
    30.5515  30.5515  31.6074  31.6074  32.3049  32.3049  33.2609  33.2610
    33.7426  33.7426  34.3722  34.3722  34.6095  34.6095  35.1633  35.1633
    35.8642  35.8642  36.8654  36.8655  37.2522  37.2522  37.3940  37.3941
    37.4269  37.4270  37.6904  37.6906  37.9421  37.9422  38.6164  38.6166
    38.6339  38.6339  39.4388  39.4393  39.7859

          k =-0.4928 0.0948 0.0000 (  5974 PWs)   bands (ev):

  -103.0855-103.0726-103.0523-103.0315-103.0271-103.0116-102.9333-102.9026
   -58.8023 -58.7840 -58.7383 -58.7072 -58.6933 -58.6608 -58.6554 -58.5874
   -58.5808 -58.5790 -58.5690 -58.5680 -58.5631 -58.5631 -58.5552 -58.5434
   -58.5375 -58.5176 -58.5169 -58.4829 -58.4417 -58.4287 -58.4152 -58.4103
    -3.6172  -3.5076  -3.4749  -3.3642   0.4831   0.5388   0.6361   0.6925
     0.7932   0.7976   0.8456   0.9916   1.1173   1.2115   1.3178   1.3363
     1.4037   1.5305   1.6140   1.6745   1.7154   1.7183   1.7937   1.7984
     1.8896   1.9120   1.9468   1.9647   1.9895   2.0551   2.0993   2.1111
     2.1724   2.2528   2.2875   2.3311   2.3480   2.4008   2.4636   2.4791
     2.5717   2.5989   2.7327   2.7669  11.4018  12.1184  12.6861  12.9968
    13.4351  13.6183  13.9495  14.0321  14.0364  14.6990  14.9110  14.9552
    15.3597  15.5168  16.3516  17.0444  17.7911  19.7195  19.8084  22.6862
    22.9371  23.5313  24.1914  24.7007  24.9994  25.9309  26.5402  27.2033
    27.8496  27.8508  28.7969  29.1757  29.5147  29.9810  30.8498  31.0327
    31.0967  31.5627  31.6745  31.8146  32.3807  32.4232  32.9951  33.2361
    33.4689  33.6679  33.8735  34.2373  34.4232  34.4459  34.8083  34.9049
    35.1563  35.5471  35.5550  36.0103  36.7588  36.8179  37.0357  37.3712
    37.5771  37.6326  37.7942  38.0300  38.1664  38.5943  38.6271  39.0395
    39.4919  39.6922  39.7805  39.9152  40.1833

          k =-0.4928 0.0948 0.1559 (  5979 PWs)   bands (ev):

  -103.1033-103.0811-103.0476-103.0419-103.0227-103.0186-102.9236-102.9129
   -58.8022 -58.7898 -58.7360 -58.7187 -58.6749 -58.6599 -58.6560 -58.6075
   -58.5864 -58.5787 -58.5740 -58.5728 -58.5683 -58.5668 -58.5436 -58.5420
   -58.5211 -58.5174 -58.5149 -58.4898 -58.4340 -58.4297 -58.4205 -58.4141
    -3.6075  -3.5414  -3.4410  -3.3739   0.4876   0.5221   0.6761   0.7006
     0.7715   0.8461   0.8628   0.9437   1.0560   1.1141   1.3362   1.3783
     1.4107   1.5667   1.6056   1.6848   1.7291   1.7463   1.7798   1.8268
     1.8487   1.8800   1.9352   1.9709   2.0259   2.0630   2.0907   2.1633
     2.1739   2.2821   2.2952   2.3356   2.3538   2.3909   2.4360   2.4502
     2.5500   2.5823   2.7405   2.7640  11.5112  12.1154  12.6499  12.9309
    13.3688  13.4501  13.9235  13.9952  14.3055  14.6198  14.8110  14.8880
    15.4056  15.5133  16.6263  17.1063  18.1623  19.7094  19.7748  20.9261
    23.5421  23.6034  24.5624  25.0309  25.5352  26.0180  26.5266  27.0545
    27.4370  28.0586  28.8090  29.0133  29.5898  29.8163  30.5338  31.0091
    31.1290  31.4867  31.6961  31.8255  32.0112  32.5915  32.9844  33.2502
    33.4486  33.6581  33.7682  34.0944  34.4679  34.6855  34.8293  35.1710
    35.5669  35.7434  36.0149  36.1864  36.5047  36.6672  36.9790  37.1519
    37.4067  37.4409  37.8143  38.1282  38.1899  38.5925  38.9768  39.1910
    39.3561  39.5223  39.6825  40.0543  40.1529

          k =-0.4928 0.0948-0.3117 (  5974 PWs)   bands (ev):

  -103.0703-103.0703-103.0476-103.0476-103.0252-103.0251-102.9153-102.9153
   -58.7957 -58.7957 -58.7282 -58.7281 -58.6574 -58.6574 -58.6412 -58.6412
   -58.5801 -58.5800 -58.5715 -58.5714 -58.5664 -58.5664 -58.5440 -58.5440
   -58.5173 -58.5172 -58.4998 -58.4998 -58.4262 -58.4262 -58.4223 -58.4223
    -3.5808  -3.5806  -3.4013  -3.4011   0.5011   0.5011   0.7109   0.7109
     0.8187   0.8187   0.9069   0.9069   1.0100   1.0100   1.3493   1.3493
     1.5086   1.5086   1.6753   1.6753   1.7584   1.7584   1.7809   1.7809
     1.8657   1.8657   1.9384   1.9384   2.0557   2.0557   2.1380   2.1380
     2.2582   2.2583   2.3465   2.3465   2.3786   2.3786   2.3877   2.3877
     2.5476   2.5476   2.7545   2.7545  11.8168  11.8168  12.8464  12.8465
    13.2732  13.2733  13.8972  13.8973  14.6175  14.6176  14.7179  14.7179
    15.4759  15.4760  17.0222  17.0222  19.2342  19.2342  19.7526  19.7526
    23.5637  23.5637  25.0475  25.0475  25.7571  25.7571  27.0629  27.0629
    28.0380  28.0381  28.7523  28.7523  29.4153  29.4153  30.3446  30.3446
    30.9652  30.9652  32.1185  32.1185  32.3721  32.3722  33.2262  33.2262
    33.5673  33.5673  33.8098  33.8098  34.8264  34.8264  35.1094  35.1094
    35.8608  35.8608  36.1636  36.1637  36.5891  36.5891  37.0688  37.0688
    37.3932  37.3932  37.7091  37.7092  38.3329  38.3330  39.1640  39.1642
    39.5607  39.5610  39.7221  39.7225  40.1679

     the Fermi energy is    34.5564 ev

!    total energy              =   -3931.40954133 Ry
     Harris-Foulkes estimate   =   -3931.40956036 Ry
     estimated scf accuracy    <       0.00002098 Ry

     The total energy is the sum of the following terms:

     one-electron contribution =   -1408.36990964 Ry
     hartree contribution      =     837.30377235 Ry
     xc contribution           =    -318.95647015 Ry
     ewald contribution        =   -3040.79663363 Ry
     smearing contrib. (-TS)   =      -0.59030026 Ry

     convergence has been achieved in  15 iterations

     Forces acting on atoms (Ry/au):

     atom    1 type  1   force =     0.00000000    0.00000000   -0.01477639
     atom    2 type  1   force =     0.00000000    0.00000000   -0.01477639
     atom    3 type  1   force =     0.00000000    0.00000000    0.01477639
     atom    4 type  1   force =     0.00000000    0.00000000    0.01477639
     atom    5 type  2   force =     0.00000000    0.00000000    0.00000000
     atom    6 type  2   force =     0.00000000    0.00000000    0.00000000
     atom    7 type  2   force =     0.00000000    0.15691769    0.00000000
     atom    8 type  2   force =    -0.13589471    0.07845885    0.00000000
     atom    9 type  2   force =     0.13589471    0.07845885    0.00000000
     atom   10 type  2   force =    -0.13589471   -0.07845885    0.00000000
     atom   11 type  2   force =     0.13589471   -0.07845885    0.00000000
     atom   12 type  2   force =     0.00000000   -0.15691769    0.00000000

     Total force =     0.385503     Total SCF correction =     0.000000


     entering subroutine stress ...

          total   stress  (Ry/bohr**3)                   (kbar)     P=  954.80
   0.00650472   0.00000000   0.00000000        956.88      0.00      0.00
   0.00000000   0.00650472   0.00000000          0.00    956.88      0.00
   0.00000000   0.00000000   0.00646229          0.00      0.00    950.64


     Writing output data file Prototype-La-hP12-MgZn2.save
 
     init_run     :      6.79s CPU      8.55s WALL (       2 calls)
     electrons    :   2436.91s CPU   2762.62s WALL (       5 calls)
     update_pot   :      3.03s CPU      3.15s WALL (       3 calls)
     forces       :      7.31s CPU      7.64s WALL (       5 calls)
     stress       :     32.70s CPU     33.26s WALL (       5 calls)

     Called by init_run:
     wfcinit      :      5.70s CPU      7.43s WALL (       2 calls)
     potinit      :      0.49s CPU      0.50s WALL (       2 calls)

     Called by electrons:
     c_bands      :   2396.54s CPU   2701.19s WALL (      50 calls)
     sum_band     :     39.75s CPU     54.72s WALL (      50 calls)
     v_of_rho     :      0.13s CPU      0.17s WALL (      55 calls)
     mix_rho      :      0.14s CPU      0.18s WALL (      50 calls)

     Called by c_bands:
     init_us_2    :      2.47s CPU      2.89s WALL (    1344 calls)
     ccgdiagg     :   2240.46s CPU   2505.53s WALL (     720 calls)
     wfcrot       :    158.90s CPU    197.99s WALL (     732 calls)

     Called by *cgdiagg:
     h_psi        :   1484.08s CPU   1777.45s WALL (  575121 calls)
     cdiaghg      :      8.65s CPU      9.51s WALL (     732 calls)

     Called by h_psi:
     add_vuspsi   :    394.61s CPU    403.14s WALL (  575121 calls)

     General routines
     calbec       :    783.66s CPU    851.37s WALL ( 1149630 calls)
     fft          :      0.21s CPU      0.25s WALL (     243 calls)
     fftw         :    633.82s CPU    833.64s WALL ( 1456314 calls)
     davcio       :      2.09s CPU      4.90s WALL (    1944 calls)
 
     Parallel routines
     fft_scatter  :    261.18s CPU    356.46s WALL ( 1456557 calls)
 
     PWSCF        : 41m27.22s CPU    46m58.95s WALL

 
   This run was terminated on:   1:23:48  22Mar2018            

=------------------------------------------------------------------------------=
   JOB DONE.
=------------------------------------------------------------------------------=
