
     Program PWSCF v.5.0.2 starts on 14Mar2018 at 12:13:27 

     This program is part of the open-source Quantum ESPRESSO suite
     for quantum simulation of materials; please cite
         "P. Giannozzi et al., J. Phys.:Condens. Matter 21 395502 (2009);
          URL http://www.quantum-espresso.org", 
     in publications or presentations arising from this work. More details at
     http://www.quantum-espresso.org/quote.php

     Parallel version (MPI), running on    20 processors
     R & G space division:  proc/nbgrp/npool/nimage =      20

     Current dimensions of program PWSCF are:
     Max number of different atomic species (ntypx) = 10
     Max number of k-points (npk) =  40000
     Max angular momentum in pseudopotentials (lmaxx) =  3
     Waiting for input...
     Reading input from standard input
               file Na.pbe-spn-kjpaw_psl.0.2.UPF: wavefunction(s)  2P 3P renormalized
               file Cl.pbe-n-kjpaw_psl.0.1.UPF: wavefunction(s)  3S 3P renormalized

     Subspace diagonalization in iterative solution of the eigenvalue problem:
     scalapack distributed-memory algorithm (size of sub-group:  3*  3 procs)

 
     Parallelization info
     --------------------
     sticks:   dense  smooth     PW     G-vecs:    dense   smooth      PW
     Min          55      55     18                  963      963     186
     Max          56      56     19                  964      964     187
     Sum        1105    1105    367                19271    19271    3731
 


     bravais-lattice index     =            0
     lattice parameter (alat)  =       7.7487  a.u.
     unit-cell volume          =     306.9197 (a.u.)^3
     number of atoms/cell      =            2
     number of atomic types    =            2
     number of electrons       =        16.00
     number of Kohn-Sham states=            8
     kinetic-energy cutoff     =      60.0000  Ry
     charge density cutoff     =     240.0000  Ry
     convergence threshold     =      1.0E-08
     mixing beta               =       0.7000
     number of iterations used =            8  plain     mixing
     Exchange-correlation      =  SLA  PW   PBX  PBC ( 1 4 3 4 0)
     EXX-fraction              =        0.00
     nstep                     =           50


     celldm(1)=   7.748682  celldm(2)=   0.000000  celldm(3)=   0.000000
     celldm(4)=   0.000000  celldm(5)=   0.000000  celldm(6)=   0.000000

     crystal axes: (cart. coord. in units of alat)
               a(1) = (   1.000000   0.000000   0.000000 )  
               a(2) = (   0.004706   0.956399   0.000000 )  
               a(3) = (  -0.470962   0.458676   0.689767 )  

     reciprocal axes: (cart. coord. in units 2 pi/alat)
               b(1) = (  1.000000 -0.004921  0.686057 )  
               b(2) = (  0.000000  1.045588 -0.695287 )  
               b(3) = (  0.000000  0.000000  1.449766 )  


     PseudoPot. # 1 for Na read from file:
     /projects/e20438/bin/espresso/pseudo/Na.pbe-spn-kjpaw_psl.0.2.UPF
     MD5 check sum: af6cebf537ceac8ff9d4cdfd6fc7ff14
     Pseudo is Projector augmented-wave, Zval =  9.0
     Generated using "atomic" code by A. Dal Corso  v.5.0.2 svn rev. 9415
     Shape of augmentation charge: PSQ
     Using radial grid of 1121 points,  4 beta functions with: 
                l(1) =   0
                l(2) =   0
                l(3) =   1
                l(4) =   1
     Q(r) pseudized with 0 coefficients 


     PseudoPot. # 2 for Cl read from file:
     /projects/e20438/bin/espresso/pseudo/Cl.pbe-n-kjpaw_psl.0.1.UPF
     MD5 check sum: 39501d8aaca1fada178cfed307344fc1
     Pseudo is Projector augmented-wave + core cor, Zval =  7.0
     Generated using "atomic" code by A. Dal Corso  v.5.0.2 svn rev. 9415
     Shape of augmentation charge: PSQ
     Using radial grid of 1157 points,  4 beta functions with: 
                l(1) =   0
                l(2) =   0
                l(3) =   1
                l(4) =   1
     Q(r) pseudized with 0 coefficients 


     atomic species   valence    mass     pseudopotential
        Na             9.00    22.98977     Na( 1.00)
        Cl             7.00    35.45270     Cl( 1.00)

     No symmetry found



   Cartesian axes

     site n.     atom                  positions (alat units)
         1           Na  tau(   1) = (   0.1167633   1.2420979   0.4944601  )
         2           Cl  tau(   2) = (   0.6120573   0.7614482   0.4941503  )

     number of k points=    62
                       cart. coord. in units 2pi/alat
        k(    1) = (   0.0000000   0.0000000   0.0000000), wk =   0.0166667
        k(    2) = (   0.0000000   0.0000000   0.2416276), wk =   0.0333333
        k(    3) = (   0.0000000   0.0000000   0.4832553), wk =   0.0333333
        k(    4) = (   0.0000000   0.0000000  -0.7248829), wk =   0.0166667
        k(    5) = (   0.0000000   0.2091177  -0.1390574), wk =   0.0333333
        k(    6) = (   0.0000000   0.2091177   0.1025702), wk =   0.0333333
        k(    7) = (   0.0000000   0.2091177   0.3441979), wk =   0.0333333
        k(    8) = (   0.0000000   0.2091177  -0.8639403), wk =   0.0333333
        k(    9) = (   0.0000000   0.2091177  -0.6223127), wk =   0.0333333
        k(   10) = (   0.0000000   0.2091177  -0.3806851), wk =   0.0333333
        k(   11) = (   0.0000000   0.4182354  -0.2781149), wk =   0.0333333
        k(   12) = (   0.0000000   0.4182354  -0.0364872), wk =   0.0333333
        k(   13) = (   0.0000000   0.4182354   0.2051404), wk =   0.0333333
        k(   14) = (   0.0000000   0.4182354  -1.0029978), wk =   0.0333333
        k(   15) = (   0.0000000   0.4182354  -0.7613701), wk =   0.0333333
        k(   16) = (   0.0000000   0.4182354  -0.5197425), wk =   0.0333333
        k(   17) = (   0.2500000  -0.0012301   0.1715142), wk =   0.0333333
        k(   18) = (   0.2500000  -0.0012301   0.4131419), wk =   0.0333333
        k(   19) = (   0.2500000  -0.0012301   0.6547695), wk =   0.0333333
        k(   20) = (   0.2500000  -0.0012301  -0.5533687), wk =   0.0333333
        k(   21) = (   0.2500000  -0.0012301  -0.3117411), wk =   0.0333333
        k(   22) = (   0.2500000  -0.0012301  -0.0701134), wk =   0.0333333
        k(   23) = (   0.2500000   0.2078875   0.0324568), wk =   0.0333333
        k(   24) = (   0.2500000   0.2078875   0.2740844), wk =   0.0333333
        k(   25) = (   0.2500000   0.2078875   0.5157121), wk =   0.0333333
        k(   26) = (   0.2500000   0.2078875  -0.6924261), wk =   0.0333333
        k(   27) = (   0.2500000   0.2078875  -0.4507985), wk =   0.0333333
        k(   28) = (   0.2500000   0.2078875  -0.2091708), wk =   0.0333333
        k(   29) = (   0.2500000   0.4170052  -0.1066006), wk =   0.0333333
        k(   30) = (   0.2500000   0.4170052   0.1350270), wk =   0.0333333
        k(   31) = (   0.2500000   0.4170052   0.3766546), wk =   0.0333333
        k(   32) = (   0.2500000   0.4170052  -0.8314836), wk =   0.0333333
        k(   33) = (   0.2500000   0.4170052  -0.5898559), wk =   0.0333333
        k(   34) = (   0.2500000   0.4170052  -0.3482283), wk =   0.0333333
        k(   35) = (   0.2500000  -0.4194655   0.4496291), wk =   0.0333333
        k(   36) = (   0.2500000  -0.4194655   0.6912567), wk =   0.0333333
        k(   37) = (   0.2500000  -0.4194655   0.9328844), wk =   0.0333333
        k(   38) = (   0.2500000  -0.4194655  -0.2752538), wk =   0.0333333
        k(   39) = (   0.2500000  -0.4194655  -0.0336262), wk =   0.0333333
        k(   40) = (   0.2500000  -0.4194655   0.2080014), wk =   0.0333333
        k(   41) = (   0.2500000  -0.2103478   0.3105716), wk =   0.0333333
        k(   42) = (   0.2500000  -0.2103478   0.5521993), wk =   0.0333333
        k(   43) = (   0.2500000  -0.2103478   0.7938269), wk =   0.0333333
        k(   44) = (   0.2500000  -0.2103478  -0.4143113), wk =   0.0333333
        k(   45) = (   0.2500000  -0.2103478  -0.1726836), wk =   0.0333333
        k(   46) = (   0.2500000  -0.2103478   0.0689440), wk =   0.0333333
        k(   47) = (  -0.5000000   0.0024603  -0.3430284), wk =   0.0166667
        k(   48) = (  -0.5000000   0.0024603  -0.1014008), wk =   0.0333333
        k(   49) = (  -0.5000000   0.0024603   0.1402268), wk =   0.0333333
        k(   50) = (  -0.5000000   0.0024603  -1.0679114), wk =   0.0166667
        k(   51) = (  -0.5000000   0.2115780  -0.4820859), wk =   0.0333333
        k(   52) = (  -0.5000000   0.2115780  -0.2404582), wk =   0.0333333
        k(   53) = (  -0.5000000   0.2115780   0.0011694), wk =   0.0333333
        k(   54) = (  -0.5000000   0.2115780  -1.2069688), wk =   0.0333333
        k(   55) = (  -0.5000000   0.2115780  -0.9653411), wk =   0.0333333
        k(   56) = (  -0.5000000   0.2115780  -0.7237135), wk =   0.0333333
        k(   57) = (  -0.5000000   0.4206957  -0.6211433), wk =   0.0333333
        k(   58) = (  -0.5000000   0.4206957  -0.3795157), wk =   0.0333333
        k(   59) = (  -0.5000000   0.4206957  -0.1378880), wk =   0.0333333
        k(   60) = (  -0.5000000   0.4206957  -1.3460262), wk =   0.0333333
        k(   61) = (  -0.5000000   0.4206957  -1.1043986), wk =   0.0333333
        k(   62) = (  -0.5000000   0.4206957  -0.8627709), wk =   0.0333333

     Dense  grid:    19271 G-vectors     FFT dimensions: (  40,  40,  40)

     Largest allocated arrays     est. size (Mb)     dimensions
        Kohn-Sham Wavefunctions         0.02 Mb     (    124,    8)
        NL pseudopotentials             0.03 Mb     (    124,   16)
        Each V/rho on FFT grid          0.05 Mb     (   3200)
        Each G-vector array             0.01 Mb     (    964)
        G-vector shells                 0.01 Mb     (    964)
     Largest temporary arrays     est. size (Mb)     dimensions
        Each subspace H/S matrix        0.00 Mb     (   2,   2)
        Each <psi_i|beta_j> matrix      0.00 Mb     (     16,    8)
        Arrays for rho mixing           0.39 Mb     (   3200,   8)

     Check: negative/imaginary core charge=   -0.000006    0.000000

     Initial potential from superposition of free atoms

     starting charge   15.49915, renormalised to   16.00000
     Starting wfc are   12 randomized atomic wfcs
