
     Program PWSCF v.5.0.2 starts on 14Mar2018 at 12:13:31 

     This program is part of the open-source Quantum ESPRESSO suite
     for quantum simulation of materials; please cite
         "P. Giannozzi et al., J. Phys.:Condens. Matter 21 395502 (2009);
          URL http://www.quantum-espresso.org", 
     in publications or presentations arising from this work. More details at
     http://www.quantum-espresso.org/quote.php

     Parallel version (MPI), running on    20 processors
     R & G space division:  proc/nbgrp/npool/nimage =      20

     Current dimensions of program PWSCF are:
     Max number of different atomic species (ntypx) = 10
     Max number of k-points (npk) =  40000
     Max angular momentum in pseudopotentials (lmaxx) =  3
     Waiting for input...
     Reading input from standard input
               file Na.pbe-spn-kjpaw_psl.0.2.UPF: wavefunction(s)  2P 3P renormalized
               file Cl.pbe-n-kjpaw_psl.0.1.UPF: wavefunction(s)  3S 3P renormalized

     Subspace diagonalization in iterative solution of the eigenvalue problem:
     scalapack distributed-memory algorithm (size of sub-group:  3*  3 procs)

 
     Parallelization info
     --------------------
     sticks:   dense  smooth     PW     G-vecs:    dense   smooth      PW
     Min          37      37     12                  787      787     145
     Max          38      38     13                  792      792     149
     Sum         759     759    241                15789    15789    2915
 


     bravais-lattice index     =            0
     lattice parameter (alat)  =       6.3117  a.u.
     unit-cell volume          =     251.1501 (a.u.)^3
     number of atoms/cell      =            2
     number of atomic types    =            2
     number of electrons       =        16.00
     number of Kohn-Sham states=            8
     kinetic-energy cutoff     =      60.0000  Ry
     charge density cutoff     =     240.0000  Ry
     convergence threshold     =      1.0E-08
     mixing beta               =       0.7000
     number of iterations used =            8  plain     mixing
     Exchange-correlation      =  SLA  PW   PBX  PBC ( 1 4 3 4 0)
     EXX-fraction              =        0.00
     nstep                     =           50


     celldm(1)=   6.311685  celldm(2)=   0.000000  celldm(3)=   0.000000
     celldm(4)=   0.000000  celldm(5)=   0.000000  celldm(6)=   0.000000

     crystal axes: (cart. coord. in units of alat)
               a(1) = (   1.000000   0.000000   0.000000 )  
               a(2) = (   0.000685   1.000000   0.000000 )  
               a(3) = (   1.024243   1.041913   0.998844 )  

     reciprocal axes: (cart. coord. in units 2 pi/alat)
               b(1) = (  1.000000 -0.000685 -1.024714 )  
               b(2) = (  0.000000  1.000000 -1.043119 )  
               b(3) = (  0.000000  0.000000  1.001158 )  


     PseudoPot. # 1 for Na read from file:
     /projects/e20438/bin/espresso/pseudo/Na.pbe-spn-kjpaw_psl.0.2.UPF
     MD5 check sum: af6cebf537ceac8ff9d4cdfd6fc7ff14
     Pseudo is Projector augmented-wave, Zval =  9.0
     Generated using "atomic" code by A. Dal Corso  v.5.0.2 svn rev. 9415
     Shape of augmentation charge: PSQ
     Using radial grid of 1121 points,  4 beta functions with: 
                l(1) =   0
                l(2) =   0
                l(3) =   1
                l(4) =   1
     Q(r) pseudized with 0 coefficients 


     PseudoPot. # 2 for Cl read from file:
     /projects/e20438/bin/espresso/pseudo/Cl.pbe-n-kjpaw_psl.0.1.UPF
     MD5 check sum: 39501d8aaca1fada178cfed307344fc1
     Pseudo is Projector augmented-wave + core cor, Zval =  7.0
     Generated using "atomic" code by A. Dal Corso  v.5.0.2 svn rev. 9415
     Shape of augmentation charge: PSQ
     Using radial grid of 1157 points,  4 beta functions with: 
                l(1) =   0
                l(2) =   0
                l(3) =   1
                l(4) =   1
     Q(r) pseudized with 0 coefficients 


     atomic species   valence    mass     pseudopotential
        Na             9.00    22.98977     Na( 1.00)
        Cl             7.00    35.45270     Cl( 1.00)

     No symmetry found



   Cartesian axes

     site n.     atom                  positions (alat units)
         1           Na  tau(   1) = (   1.6246594   1.8944119   0.9599382  )
         2           Cl  tau(   2) = (   1.1011451   1.3943931   0.4691542  )

     number of k points=    31
                       cart. coord. in units 2pi/alat
        k(    1) = (   0.0000000   0.0000000   0.0000000), wk =   0.0333333
        k(    2) = (   0.0000000   0.0000000   0.2002316), wk =   0.0666667
        k(    3) = (   0.0000000   0.0000000   0.4004631), wk =   0.0666667
        k(    4) = (   0.0000000   0.2500001  -0.2607798), wk =   0.0666667
        k(    5) = (   0.0000000   0.2500001  -0.0605482), wk =   0.0666667
        k(    6) = (   0.0000000   0.2500001   0.1396834), wk =   0.0666667
        k(    7) = (   0.0000000   0.2500001  -0.6612429), wk =   0.0666667
        k(    8) = (   0.0000000   0.2500001  -0.4610113), wk =   0.0666667
        k(    9) = (   0.0000000  -0.5000001   0.5215596), wk =   0.0333333
        k(   10) = (   0.0000000  -0.5000001   0.7217911), wk =   0.0666667
        k(   11) = (   0.0000000  -0.5000001   0.9220227), wk =   0.0666667
        k(   12) = (   0.3333333  -0.0002282  -0.3415715), wk =   0.0666667
        k(   13) = (   0.3333333  -0.0002282  -0.1413399), wk =   0.0666667
        k(   14) = (   0.3333333  -0.0002282   0.0588917), wk =   0.0666667
        k(   15) = (   0.3333333  -0.0002282  -0.7420346), wk =   0.0666667
        k(   16) = (   0.3333333  -0.0002282  -0.5418030), wk =   0.0666667
        k(   17) = (   0.3333333   0.2497719  -0.6023513), wk =   0.0666667
        k(   18) = (   0.3333333   0.2497719  -0.4021197), wk =   0.0666667
        k(   19) = (   0.3333333   0.2497719  -0.2018881), wk =   0.0666667
        k(   20) = (   0.3333333   0.2497719  -1.0028144), wk =   0.0666667
        k(   21) = (   0.3333333   0.2497719  -0.8025828), wk =   0.0666667
        k(   22) = (   0.3333333  -0.5002283   0.1799881), wk =   0.0666667
        k(   23) = (   0.3333333  -0.5002283   0.3802196), wk =   0.0666667
        k(   24) = (   0.3333333  -0.5002283   0.5804512), wk =   0.0666667
        k(   25) = (   0.3333333  -0.5002283  -0.2204751), wk =   0.0666667
        k(   26) = (   0.3333333  -0.5002283  -0.0202435), wk =   0.0666667
        k(   27) = (   0.3333333  -0.2502283  -0.0807917), wk =   0.0666667
        k(   28) = (   0.3333333  -0.2502283   0.1194399), wk =   0.0666667
        k(   29) = (   0.3333333  -0.2502283   0.3196714), wk =   0.0666667
        k(   30) = (   0.3333333  -0.2502283  -0.4812548), wk =   0.0666667
        k(   31) = (   0.3333333  -0.2502283  -0.2810233), wk =   0.0666667

     Dense  grid:    15789 G-vectors     FFT dimensions: (  32,  32,  60)

     Largest allocated arrays     est. size (Mb)     dimensions
        Kohn-Sham Wavefunctions         0.01 Mb     (    107,    8)
        NL pseudopotentials             0.03 Mb     (    107,   16)
        Each V/rho on FFT grid          0.05 Mb     (   3072)
        Each G-vector array             0.01 Mb     (    792)
        G-vector shells                 0.01 Mb     (    792)
     Largest temporary arrays     est. size (Mb)     dimensions
        Each subspace H/S matrix        0.00 Mb     (   2,   2)
        Each <psi_i|beta_j> matrix      0.00 Mb     (     16,    8)
        Arrays for rho mixing           0.38 Mb     (   3072,   8)

     Check: negative/imaginary core charge=   -0.000006    0.000000

     Initial potential from superposition of free atoms

     starting charge   15.49915, renormalised to   16.00000
     Starting wfc are   12 randomized atomic wfcs
