
     Program PWSCF v.5.0.2 starts on 14Mar2018 at 12:13:32 

     This program is part of the open-source Quantum ESPRESSO suite
     for quantum simulation of materials; please cite
         "P. Giannozzi et al., J. Phys.:Condens. Matter 21 395502 (2009);
          URL http://www.quantum-espresso.org", 
     in publications or presentations arising from this work. More details at
     http://www.quantum-espresso.org/quote.php

     Parallel version (MPI), running on    20 processors
     R & G space division:  proc/nbgrp/npool/nimage =      20

     Current dimensions of program PWSCF are:
     Max number of different atomic species (ntypx) = 10
     Max number of k-points (npk) =  40000
     Max angular momentum in pseudopotentials (lmaxx) =  3
     Waiting for input...
     Reading input from standard input
               file Na.pbe-spn-kjpaw_psl.0.2.UPF: wavefunction(s)  2P 3P renormalized
               file Cl.pbe-n-kjpaw_psl.0.1.UPF: wavefunction(s)  3S 3P renormalized

     Subspace diagonalization in iterative solution of the eigenvalue problem:
     scalapack distributed-memory algorithm (size of sub-group:  3*  3 procs)

 
     Parallelization info
     --------------------
     sticks:   dense  smooth     PW     G-vecs:    dense   smooth      PW
     Min          47      47     15                  961      961     178
     Max          48      48     16                  963      963     182
     Sum         943     943    309                19229    19229    3591
 


     bravais-lattice index     =            0
     lattice parameter (alat)  =       7.5396  a.u.
     unit-cell volume          =     305.5873 (a.u.)^3
     number of atoms/cell      =            2
     number of atomic types    =            2
     number of electrons       =        16.00
     number of Kohn-Sham states=            8
     kinetic-energy cutoff     =      60.0000  Ry
     charge density cutoff     =     240.0000  Ry
     convergence threshold     =      1.0E-08
     mixing beta               =       0.7000
     number of iterations used =            8  plain     mixing
     Exchange-correlation      =  SLA  PW   PBX  PBC ( 1 4 3 4 0)
     EXX-fraction              =        0.00
     nstep                     =           50


     celldm(1)=   7.539591  celldm(2)=   0.000000  celldm(3)=   0.000000
     celldm(4)=   0.000000  celldm(5)=   0.000000  celldm(6)=   0.000000

     crystal axes: (cart. coord. in units of alat)
               a(1) = (   1.000000   0.000000   0.000000 )  
               a(2) = (   0.535471   0.869893   0.000000 )  
               a(3) = (   0.464590  -0.286107   0.819646 )  

     reciprocal axes: (cart. coord. in units 2 pi/alat)
               b(1) = (  1.000000 -0.615560 -0.781686 )  
               b(2) = (  0.000000  1.149567  0.401270 )  
               b(3) = (  0.000000  0.000000  1.220040 )  


     PseudoPot. # 1 for Na read from file:
     /projects/e20438/bin/espresso/pseudo/Na.pbe-spn-kjpaw_psl.0.2.UPF
     MD5 check sum: af6cebf537ceac8ff9d4cdfd6fc7ff14
     Pseudo is Projector augmented-wave, Zval =  9.0
     Generated using "atomic" code by A. Dal Corso  v.5.0.2 svn rev. 9415
     Shape of augmentation charge: PSQ
     Using radial grid of 1121 points,  4 beta functions with: 
                l(1) =   0
                l(2) =   0
                l(3) =   1
                l(4) =   1
     Q(r) pseudized with 0 coefficients 


     PseudoPot. # 2 for Cl read from file:
     /projects/e20438/bin/espresso/pseudo/Cl.pbe-n-kjpaw_psl.0.1.UPF
     MD5 check sum: 39501d8aaca1fada178cfed307344fc1
     Pseudo is Projector augmented-wave + core cor, Zval =  7.0
     Generated using "atomic" code by A. Dal Corso  v.5.0.2 svn rev. 9415
     Shape of augmentation charge: PSQ
     Using radial grid of 1157 points,  4 beta functions with: 
                l(1) =   0
                l(2) =   0
                l(3) =   1
                l(4) =   1
     Q(r) pseudized with 0 coefficients 


     atomic species   valence    mass     pseudopotential
        Na             9.00    22.98977     Na( 1.00)
        Cl             7.00    35.45270     Cl( 1.00)

     No symmetry found



   Cartesian axes

     site n.     atom                  positions (alat units)
         1           Na  tau(   1) = (   1.3237010  -0.2220464   0.7577545  )
         2           Cl  tau(   2) = (   1.3591111   0.3558382   0.3479745  )

     number of k points=    62
                       cart. coord. in units 2pi/alat
        k(    1) = (   0.0000000   0.0000000   0.0000000), wk =   0.0166667
        k(    2) = (   0.0000000   0.0000000   0.2033399), wk =   0.0333333
        k(    3) = (   0.0000000   0.0000000   0.4066799), wk =   0.0333333
        k(    4) = (   0.0000000   0.0000000  -0.6100198), wk =   0.0166667
        k(    5) = (   0.0000000   0.2299133   0.0802539), wk =   0.0333333
        k(    6) = (   0.0000000   0.2299133   0.2835939), wk =   0.0333333
        k(    7) = (   0.0000000   0.2299133   0.4869338), wk =   0.0333333
        k(    8) = (   0.0000000   0.2299133  -0.5297658), wk =   0.0333333
        k(    9) = (   0.0000000   0.2299133  -0.3264259), wk =   0.0333333
        k(   10) = (   0.0000000   0.2299133  -0.1230860), wk =   0.0333333
        k(   11) = (   0.0000000   0.4598266   0.1605079), wk =   0.0333333
        k(   12) = (   0.0000000   0.4598266   0.3638478), wk =   0.0333333
        k(   13) = (   0.0000000   0.4598266   0.5671877), wk =   0.0333333
        k(   14) = (   0.0000000   0.4598266  -0.4495119), wk =   0.0333333
        k(   15) = (   0.0000000   0.4598266  -0.2461720), wk =   0.0333333
        k(   16) = (   0.0000000   0.4598266  -0.0428321), wk =   0.0333333
        k(   17) = (   0.2500000  -0.1538900  -0.1954216), wk =   0.0333333
        k(   18) = (   0.2500000  -0.1538900   0.0079183), wk =   0.0333333
        k(   19) = (   0.2500000  -0.1538900   0.2112582), wk =   0.0333333
        k(   20) = (   0.2500000  -0.1538900  -0.8054414), wk =   0.0333333
        k(   21) = (   0.2500000  -0.1538900  -0.6021015), wk =   0.0333333
        k(   22) = (   0.2500000  -0.1538900  -0.3987615), wk =   0.0333333
        k(   23) = (   0.2500000   0.0760233  -0.1151677), wk =   0.0333333
        k(   24) = (   0.2500000   0.0760233   0.0881722), wk =   0.0333333
        k(   25) = (   0.2500000   0.0760233   0.2915122), wk =   0.0333333
        k(   26) = (   0.2500000   0.0760233  -0.7251875), wk =   0.0333333
        k(   27) = (   0.2500000   0.0760233  -0.5218475), wk =   0.0333333
        k(   28) = (   0.2500000   0.0760233  -0.3185076), wk =   0.0333333
        k(   29) = (   0.2500000   0.3059366  -0.0349137), wk =   0.0333333
        k(   30) = (   0.2500000   0.3059366   0.1684262), wk =   0.0333333
        k(   31) = (   0.2500000   0.3059366   0.3717661), wk =   0.0333333
        k(   32) = (   0.2500000   0.3059366  -0.6449335), wk =   0.0333333
        k(   33) = (   0.2500000   0.3059366  -0.4415936), wk =   0.0333333
        k(   34) = (   0.2500000   0.3059366  -0.2382537), wk =   0.0333333
        k(   35) = (   0.2500000  -0.6137166  -0.3559295), wk =   0.0333333
        k(   36) = (   0.2500000  -0.6137166  -0.1525896), wk =   0.0333333
        k(   37) = (   0.2500000  -0.6137166   0.0507504), wk =   0.0333333
        k(   38) = (   0.2500000  -0.6137166  -0.9659493), wk =   0.0333333
        k(   39) = (   0.2500000  -0.6137166  -0.7626093), wk =   0.0333333
        k(   40) = (   0.2500000  -0.6137166  -0.5592694), wk =   0.0333333
        k(   41) = (   0.2500000  -0.3838033  -0.2756756), wk =   0.0333333
        k(   42) = (   0.2500000  -0.3838033  -0.0723356), wk =   0.0333333
        k(   43) = (   0.2500000  -0.3838033   0.1310043), wk =   0.0333333
        k(   44) = (   0.2500000  -0.3838033  -0.8856953), wk =   0.0333333
        k(   45) = (   0.2500000  -0.3838033  -0.6823554), wk =   0.0333333
        k(   46) = (   0.2500000  -0.3838033  -0.4790155), wk =   0.0333333
        k(   47) = (  -0.5000000   0.3077800   0.3908432), wk =   0.0166667
        k(   48) = (  -0.5000000   0.3077800   0.5941832), wk =   0.0333333
        k(   49) = (  -0.5000000   0.3077800   0.7975231), wk =   0.0333333
        k(   50) = (  -0.5000000   0.3077800  -0.2191765), wk =   0.0166667
        k(   51) = (  -0.5000000   0.5376933   0.4710972), wk =   0.0333333
        k(   52) = (  -0.5000000   0.5376933   0.6744371), wk =   0.0333333
        k(   53) = (  -0.5000000   0.5376933   0.8777770), wk =   0.0333333
        k(   54) = (  -0.5000000   0.5376933  -0.1389226), wk =   0.0333333
        k(   55) = (  -0.5000000   0.5376933   0.0644173), wk =   0.0333333
        k(   56) = (  -0.5000000   0.5376933   0.2677573), wk =   0.0333333
        k(   57) = (  -0.5000000   0.7676066   0.5513511), wk =   0.0333333
        k(   58) = (  -0.5000000   0.7676066   0.7546910), wk =   0.0333333
        k(   59) = (  -0.5000000   0.7676066   0.9580310), wk =   0.0333333
        k(   60) = (  -0.5000000   0.7676066  -0.0586687), wk =   0.0333333
        k(   61) = (  -0.5000000   0.7676066   0.1446713), wk =   0.0333333
        k(   62) = (  -0.5000000   0.7676066   0.3480112), wk =   0.0333333

     Dense  grid:    19229 G-vectors     FFT dimensions: (  40,  40,  40)

     Largest allocated arrays     est. size (Mb)     dimensions
        Kohn-Sham Wavefunctions         0.02 Mb     (    129,    8)
        NL pseudopotentials             0.03 Mb     (    129,   16)
        Each V/rho on FFT grid          0.05 Mb     (   3200)
        Each G-vector array             0.01 Mb     (    962)
        G-vector shells                 0.01 Mb     (    962)
     Largest temporary arrays     est. size (Mb)     dimensions
        Each subspace H/S matrix        0.00 Mb     (   2,   2)
        Each <psi_i|beta_j> matrix      0.00 Mb     (     16,    8)
        Arrays for rho mixing           0.39 Mb     (   3200,   8)

     Check: negative/imaginary core charge=   -0.000006    0.000000

     Initial potential from superposition of free atoms

     starting charge   15.49915, renormalised to   16.00000
     Starting wfc are   12 randomized atomic wfcs
