
     Program PWSCF v.5.0.2 starts on 14Mar2018 at 12:13:28 

     This program is part of the open-source Quantum ESPRESSO suite
     for quantum simulation of materials; please cite
         "P. Giannozzi et al., J. Phys.:Condens. Matter 21 395502 (2009);
          URL http://www.quantum-espresso.org", 
     in publications or presentations arising from this work. More details at
     http://www.quantum-espresso.org/quote.php

     Parallel version (MPI), running on    20 processors
     R & G space division:  proc/nbgrp/npool/nimage =      20

     Current dimensions of program PWSCF are:
     Max number of different atomic species (ntypx) = 10
     Max number of k-points (npk) =  40000
     Max angular momentum in pseudopotentials (lmaxx) =  3
     Waiting for input...
     Reading input from standard input
               file Na.pbe-spn-kjpaw_psl.0.2.UPF: wavefunction(s)  2P 3P renormalized
               file Cl.pbe-n-kjpaw_psl.0.1.UPF: wavefunction(s)  3S 3P renormalized

     Subspace diagonalization in iterative solution of the eigenvalue problem:
     scalapack distributed-memory algorithm (size of sub-group:  3*  3 procs)

 
     Parallelization info
     --------------------
     sticks:   dense  smooth     PW     G-vecs:    dense   smooth      PW
     Min          38      38     12                  789      789     147
     Max          39      39     13                  791      791     151
     Sum         763     763    245                15791    15791    2963
 


     bravais-lattice index     =            0
     lattice parameter (alat)  =       6.3117  a.u.
     unit-cell volume          =     251.0483 (a.u.)^3
     number of atoms/cell      =            2
     number of atomic types    =            2
     number of electrons       =        16.00
     number of Kohn-Sham states=            8
     kinetic-energy cutoff     =      60.0000  Ry
     charge density cutoff     =     240.0000  Ry
     convergence threshold     =      1.0E-08
     mixing beta               =       0.7000
     number of iterations used =            8  plain     mixing
     Exchange-correlation      =  SLA  PW   PBX  PBC ( 1 4 3 4 0)
     EXX-fraction              =        0.00
     nstep                     =           50


     celldm(1)=   6.311685  celldm(2)=   0.000000  celldm(3)=   0.000000
     celldm(4)=   0.000000  celldm(5)=   0.000000  celldm(6)=   0.000000

     crystal axes: (cart. coord. in units of alat)
               a(1) = (   1.000000   0.000000   0.000000 )  
               a(2) = (   0.981264   0.999824   0.000000 )  
               a(3) = (  -0.052810   0.003305   0.998614 )  

     reciprocal axes: (cart. coord. in units 2 pi/alat)
               b(1) = (  1.000000 -0.981436  0.056132 )  
               b(2) = (  0.000000  1.000176 -0.003311 )  
               b(3) = (  0.000000  0.000000  1.001388 )  


     PseudoPot. # 1 for Na read from file:
     /projects/e20438/bin/espresso/pseudo/Na.pbe-spn-kjpaw_psl.0.2.UPF
     MD5 check sum: af6cebf537ceac8ff9d4cdfd6fc7ff14
     Pseudo is Projector augmented-wave, Zval =  9.0
     Generated using "atomic" code by A. Dal Corso  v.5.0.2 svn rev. 9415
     Shape of augmentation charge: PSQ
     Using radial grid of 1121 points,  4 beta functions with: 
                l(1) =   0
                l(2) =   0
                l(3) =   1
                l(4) =   1
     Q(r) pseudized with 0 coefficients 


     PseudoPot. # 2 for Cl read from file:
     /projects/e20438/bin/espresso/pseudo/Cl.pbe-n-kjpaw_psl.0.1.UPF
     MD5 check sum: 39501d8aaca1fada178cfed307344fc1
     Pseudo is Projector augmented-wave + core cor, Zval =  7.0
     Generated using "atomic" code by A. Dal Corso  v.5.0.2 svn rev. 9415
     Shape of augmentation charge: PSQ
     Using radial grid of 1157 points,  4 beta functions with: 
                l(1) =   0
                l(2) =   0
                l(3) =   1
                l(4) =   1
     Q(r) pseudized with 0 coefficients 


     atomic species   valence    mass     pseudopotential
        Na             9.00    22.98977     Na( 1.00)
        Cl             7.00    35.45270     Cl( 1.00)

     No symmetry found



   Cartesian axes

     site n.     atom                  positions (alat units)
         1           Na  tau(   1) = (   0.7615148   0.3240427   0.2262313  )
         2           Cl  tau(   2) = (   1.2572100   0.8189813   0.7029372  )

     number of k points=    62
                       cart. coord. in units 2pi/alat
        k(    1) = (   0.0000000   0.0000000   0.0000000), wk =   0.0166667
        k(    2) = (   0.0000000   0.0000000   0.1668980), wk =   0.0333333
        k(    3) = (   0.0000000   0.0000000   0.3337961), wk =   0.0333333
        k(    4) = (   0.0000000   0.0000000  -0.5006941), wk =   0.0166667
        k(    5) = (   0.0000000   0.2000351  -0.0006621), wk =   0.0333333
        k(    6) = (   0.0000000   0.2000351   0.1662359), wk =   0.0333333
        k(    7) = (   0.0000000   0.2000351   0.3331339), wk =   0.0333333
        k(    8) = (   0.0000000   0.2000351  -0.5013562), wk =   0.0333333
        k(    9) = (   0.0000000   0.2000351  -0.3344582), wk =   0.0333333
        k(   10) = (   0.0000000   0.2000351  -0.1675601), wk =   0.0333333
        k(   11) = (   0.0000000   0.4000702  -0.0013242), wk =   0.0333333
        k(   12) = (   0.0000000   0.4000702   0.1655738), wk =   0.0333333
        k(   13) = (   0.0000000   0.4000702   0.3324718), wk =   0.0333333
        k(   14) = (   0.0000000   0.4000702  -0.5020183), wk =   0.0333333
        k(   15) = (   0.0000000   0.4000702  -0.3351203), wk =   0.0333333
        k(   16) = (   0.0000000   0.4000702  -0.1682223), wk =   0.0333333
        k(   17) = (   0.2500000  -0.2453591   0.0140329), wk =   0.0333333
        k(   18) = (   0.2500000  -0.2453591   0.1809310), wk =   0.0333333
        k(   19) = (   0.2500000  -0.2453591   0.3478290), wk =   0.0333333
        k(   20) = (   0.2500000  -0.2453591  -0.4866611), wk =   0.0333333
        k(   21) = (   0.2500000  -0.2453591  -0.3197631), wk =   0.0333333
        k(   22) = (   0.2500000  -0.2453591  -0.1528651), wk =   0.0333333
        k(   23) = (   0.2500000  -0.0453240   0.0133708), wk =   0.0333333
        k(   24) = (   0.2500000  -0.0453240   0.1802689), wk =   0.0333333
        k(   25) = (   0.2500000  -0.0453240   0.3471669), wk =   0.0333333
        k(   26) = (   0.2500000  -0.0453240  -0.4873233), wk =   0.0333333
        k(   27) = (   0.2500000  -0.0453240  -0.3204252), wk =   0.0333333
        k(   28) = (   0.2500000  -0.0453240  -0.1535272), wk =   0.0333333
        k(   29) = (   0.2500000   0.1547111   0.0127087), wk =   0.0333333
        k(   30) = (   0.2500000   0.1547111   0.1796067), wk =   0.0333333
        k(   31) = (   0.2500000   0.1547111   0.3465048), wk =   0.0333333
        k(   32) = (   0.2500000   0.1547111  -0.4879854), wk =   0.0333333
        k(   33) = (   0.2500000   0.1547111  -0.3210873), wk =   0.0333333
        k(   34) = (   0.2500000   0.1547111  -0.1541893), wk =   0.0333333
        k(   35) = (   0.2500000  -0.6454293   0.0153572), wk =   0.0333333
        k(   36) = (   0.2500000  -0.6454293   0.1822552), wk =   0.0333333
        k(   37) = (   0.2500000  -0.6454293   0.3491532), wk =   0.0333333
        k(   38) = (   0.2500000  -0.6454293  -0.4853369), wk =   0.0333333
        k(   39) = (   0.2500000  -0.6454293  -0.3184389), wk =   0.0333333
        k(   40) = (   0.2500000  -0.6454293  -0.1515409), wk =   0.0333333
        k(   41) = (   0.2500000  -0.4453942   0.0146951), wk =   0.0333333
        k(   42) = (   0.2500000  -0.4453942   0.1815931), wk =   0.0333333
        k(   43) = (   0.2500000  -0.4453942   0.3484911), wk =   0.0333333
        k(   44) = (   0.2500000  -0.4453942  -0.4859990), wk =   0.0333333
        k(   45) = (   0.2500000  -0.4453942  -0.3191010), wk =   0.0333333
        k(   46) = (   0.2500000  -0.4453942  -0.1522030), wk =   0.0333333
        k(   47) = (  -0.5000000   0.4907182  -0.0280659), wk =   0.0166667
        k(   48) = (  -0.5000000   0.4907182   0.1388321), wk =   0.0333333
        k(   49) = (  -0.5000000   0.4907182   0.3057302), wk =   0.0333333
        k(   50) = (  -0.5000000   0.4907182  -0.5287600), wk =   0.0166667
        k(   51) = (  -0.5000000   0.6907533  -0.0287280), wk =   0.0333333
        k(   52) = (  -0.5000000   0.6907533   0.1381700), wk =   0.0333333
        k(   53) = (  -0.5000000   0.6907533   0.3050681), wk =   0.0333333
        k(   54) = (  -0.5000000   0.6907533  -0.5294221), wk =   0.0333333
        k(   55) = (  -0.5000000   0.6907533  -0.3625241), wk =   0.0333333
        k(   56) = (  -0.5000000   0.6907533  -0.1956260), wk =   0.0333333
        k(   57) = (  -0.5000000   0.8907884  -0.0293901), wk =   0.0333333
        k(   58) = (  -0.5000000   0.8907884   0.1375079), wk =   0.0333333
        k(   59) = (  -0.5000000   0.8907884   0.3044059), wk =   0.0333333
        k(   60) = (  -0.5000000   0.8907884  -0.5300842), wk =   0.0333333
        k(   61) = (  -0.5000000   0.8907884  -0.3631862), wk =   0.0333333
        k(   62) = (  -0.5000000   0.8907884  -0.1962881), wk =   0.0333333

     Dense  grid:    15791 G-vectors     FFT dimensions: (  32,  45,  32)

     Largest allocated arrays     est. size (Mb)     dimensions
        Kohn-Sham Wavefunctions         0.01 Mb     (    106,    8)
        NL pseudopotentials             0.03 Mb     (    106,   16)
        Each V/rho on FFT grid          0.04 Mb     (   2880)
        Each G-vector array             0.01 Mb     (    790)
        G-vector shells                 0.01 Mb     (    790)
     Largest temporary arrays     est. size (Mb)     dimensions
        Each subspace H/S matrix        0.00 Mb     (   2,   2)
        Each <psi_i|beta_j> matrix      0.00 Mb     (     16,    8)
        Arrays for rho mixing           0.35 Mb     (   2880,   8)

     Check: negative/imaginary core charge=   -0.000006    0.000000

     Initial potential from superposition of free atoms

     starting charge   15.49915, renormalised to   16.00000
     Starting wfc are   12 randomized atomic wfcs
