
     Program PWSCF v.5.0.2 starts on 14Mar2018 at 12:13:28 

     This program is part of the open-source Quantum ESPRESSO suite
     for quantum simulation of materials; please cite
         "P. Giannozzi et al., J. Phys.:Condens. Matter 21 395502 (2009);
          URL http://www.quantum-espresso.org", 
     in publications or presentations arising from this work. More details at
     http://www.quantum-espresso.org/quote.php

     Parallel version (MPI), running on    20 processors
     R & G space division:  proc/nbgrp/npool/nimage =      20

     Current dimensions of program PWSCF are:
     Max number of different atomic species (ntypx) = 10
     Max number of k-points (npk) =  40000
     Max angular momentum in pseudopotentials (lmaxx) =  3
     Waiting for input...
     Reading input from standard input
               file Na.pbe-spn-kjpaw_psl.0.2.UPF: wavefunction(s)  2P 3P renormalized
               file Cl.pbe-n-kjpaw_psl.0.1.UPF: wavefunction(s)  3S 3P renormalized

     Subspace diagonalization in iterative solution of the eigenvalue problem:
     scalapack distributed-memory algorithm (size of sub-group:  3*  3 procs)

 
     Parallelization info
     --------------------
     sticks:   dense  smooth     PW     G-vecs:    dense   smooth      PW
     Min          46      46     16                  982      982     206
     Max          47      47     17                  984      984     209
     Sum         923     923    329                19649    19649    4143
 


     bravais-lattice index     =            0
     lattice parameter (alat)  =       7.2978  a.u.
     unit-cell volume          =     313.4450 (a.u.)^3
     number of atoms/cell      =            2
     number of atomic types    =            2
     number of electrons       =        16.00
     number of Kohn-Sham states=            8
     kinetic-energy cutoff     =      60.0000  Ry
     charge density cutoff     =     240.0000  Ry
     convergence threshold     =      1.0E-08
     mixing beta               =       0.7000
     number of iterations used =            8  plain     mixing
     Exchange-correlation      =  SLA  PW   PBX  PBC ( 1 4 3 4 0)
     EXX-fraction              =        0.00
     nstep                     =           50


     celldm(1)=   7.297791  celldm(2)=   0.000000  celldm(3)=   0.000000
     celldm(4)=   0.000000  celldm(5)=   0.000000  celldm(6)=   0.000000

     crystal axes: (cart. coord. in units of alat)
               a(1) = (   1.000000   0.000000   0.000000 )  
               a(2) = (   1.444125   0.911015   0.000000 )  
               a(3) = (  -0.035573   0.657313   0.885241 )  

     reciprocal axes: (cart. coord. in units 2 pi/alat)
               b(1) = (  1.000000 -1.585182  1.217221 )  
               b(2) = (  0.000000  1.097677 -0.815052 )  
               b(3) = (  0.000000  0.000000  1.129636 )  


     PseudoPot. # 1 for Na read from file:
     /projects/e20438/bin/espresso/pseudo/Na.pbe-spn-kjpaw_psl.0.2.UPF
     MD5 check sum: af6cebf537ceac8ff9d4cdfd6fc7ff14
     Pseudo is Projector augmented-wave, Zval =  9.0
     Generated using "atomic" code by A. Dal Corso  v.5.0.2 svn rev. 9415
     Shape of augmentation charge: PSQ
     Using radial grid of 1121 points,  4 beta functions with: 
                l(1) =   0
                l(2) =   0
                l(3) =   1
                l(4) =   1
     Q(r) pseudized with 0 coefficients 


     PseudoPot. # 2 for Cl read from file:
     /projects/e20438/bin/espresso/pseudo/Cl.pbe-n-kjpaw_psl.0.1.UPF
     MD5 check sum: 39501d8aaca1fada178cfed307344fc1
     Pseudo is Projector augmented-wave + core cor, Zval =  7.0
     Generated using "atomic" code by A. Dal Corso  v.5.0.2 svn rev. 9415
     Shape of augmentation charge: PSQ
     Using radial grid of 1157 points,  4 beta functions with: 
                l(1) =   0
                l(2) =   0
                l(3) =   1
                l(4) =   1
     Q(r) pseudized with 0 coefficients 


     atomic species   valence    mass     pseudopotential
        Na             9.00    22.98977     Na( 1.00)
        Cl             7.00    35.45270     Cl( 1.00)

     No symmetry found



   Cartesian axes

     site n.     atom                  positions (alat units)
         1           Na  tau(   1) = (   1.4579462   0.7422162   0.0507967  )
         2           Cl  tau(   2) = (   1.9223734   1.0795696   0.5063368  )

     number of k points=    31
                       cart. coord. in units 2pi/alat
        k(    1) = (   0.0000000   0.0000000   0.0000000), wk =   0.0333333
        k(    2) = (   0.0000000   0.0000000   0.2259272), wk =   0.0666667
        k(    3) = (   0.0000000   0.0000000   0.4518544), wk =   0.0666667
        k(    4) = (   0.0000000   0.2744192  -0.2037629), wk =   0.0666667
        k(    5) = (   0.0000000   0.2744192   0.0221643), wk =   0.0666667
        k(    6) = (   0.0000000   0.2744192   0.2480915), wk =   0.0666667
        k(    7) = (   0.0000000   0.2744192  -0.6556173), wk =   0.0666667
        k(    8) = (   0.0000000   0.2744192  -0.4296901), wk =   0.0666667
        k(    9) = (   0.0000000  -0.5488383   0.4075258), wk =   0.0333333
        k(   10) = (   0.0000000  -0.5488383   0.6334530), wk =   0.0666667
        k(   11) = (   0.0000000  -0.5488383   0.8593802), wk =   0.0666667
        k(   12) = (   0.3333333  -0.5283939   0.4057403), wk =   0.0666667
        k(   13) = (   0.3333333  -0.5283939   0.6316674), wk =   0.0666667
        k(   14) = (   0.3333333  -0.5283939   0.8575946), wk =   0.0666667
        k(   15) = (   0.3333333  -0.5283939  -0.0461141), wk =   0.0666667
        k(   16) = (   0.3333333  -0.5283939   0.1798131), wk =   0.0666667
        k(   17) = (   0.3333333  -0.2539748   0.2019773), wk =   0.0666667
        k(   18) = (   0.3333333  -0.2539748   0.4279045), wk =   0.0666667
        k(   19) = (   0.3333333  -0.2539748   0.6538317), wk =   0.0666667
        k(   20) = (   0.3333333  -0.2539748  -0.2498770), wk =   0.0666667
        k(   21) = (   0.3333333  -0.2539748  -0.0239498), wk =   0.0666667
        k(   22) = (   0.3333333  -1.0772322   0.8132661), wk =   0.0666667
        k(   23) = (   0.3333333  -1.0772322   1.0391933), wk =   0.0666667
        k(   24) = (   0.3333333  -1.0772322   1.2651205), wk =   0.0666667
        k(   25) = (   0.3333333  -1.0772322   0.3614117), wk =   0.0666667
        k(   26) = (   0.3333333  -1.0772322   0.5873389), wk =   0.0666667
        k(   27) = (   0.3333333  -0.8028131   0.6095032), wk =   0.0666667
        k(   28) = (   0.3333333  -0.8028131   0.8354304), wk =   0.0666667
        k(   29) = (   0.3333333  -0.8028131   1.0613575), wk =   0.0666667
        k(   30) = (   0.3333333  -0.8028131   0.1576488), wk =   0.0666667
        k(   31) = (   0.3333333  -0.8028131   0.3835760), wk =   0.0666667

     Dense  grid:    19649 G-vectors     FFT dimensions: (  36,  64,  40)

     Largest allocated arrays     est. size (Mb)     dimensions
        Kohn-Sham Wavefunctions         0.02 Mb     (    129,    8)
        NL pseudopotentials             0.03 Mb     (    129,   16)
        Each V/rho on FFT grid          0.07 Mb     (   4608)
        Each G-vector array             0.01 Mb     (    983)
        G-vector shells                 0.01 Mb     (    983)
     Largest temporary arrays     est. size (Mb)     dimensions
        Each subspace H/S matrix        0.00 Mb     (   2,   2)
        Each <psi_i|beta_j> matrix      0.00 Mb     (     16,    8)
        Arrays for rho mixing           0.56 Mb     (   4608,   8)

     Check: negative/imaginary core charge=   -0.000005    0.000000

     Initial potential from superposition of free atoms

     starting charge   15.49915, renormalised to   16.00000
     Starting wfc are   12 randomized atomic wfcs
