
     Program PWSCF v.5.0.2 starts on 14Mar2018 at 12:13:29 

     This program is part of the open-source Quantum ESPRESSO suite
     for quantum simulation of materials; please cite
         "P. Giannozzi et al., J. Phys.:Condens. Matter 21 395502 (2009);
          URL http://www.quantum-espresso.org", 
     in publications or presentations arising from this work. More details at
     http://www.quantum-espresso.org/quote.php

     Parallel version (MPI), running on    20 processors
     R & G space division:  proc/nbgrp/npool/nimage =      20

     Current dimensions of program PWSCF are:
     Max number of different atomic species (ntypx) = 10
     Max number of k-points (npk) =  40000
     Max angular momentum in pseudopotentials (lmaxx) =  3
     Waiting for input...
     Reading input from standard input
               file Na.pbe-spn-kjpaw_psl.0.2.UPF: wavefunction(s)  2P 3P renormalized
               file Cl.pbe-n-kjpaw_psl.0.1.UPF: wavefunction(s)  3S 3P renormalized

     Subspace diagonalization in iterative solution of the eigenvalue problem:
     scalapack distributed-memory algorithm (size of sub-group:  3*  3 procs)

 
     Parallelization info
     --------------------
     sticks:   dense  smooth     PW     G-vecs:    dense   smooth      PW
     Min          48      48     15                  958      958     173
     Max          49      49     16                  960      960     176
     Sum         961     961    309                19187    19187    3479
 


     bravais-lattice index     =            0
     lattice parameter (alat)  =       7.7758  a.u.
     unit-cell volume          =     305.4113 (a.u.)^3
     number of atoms/cell      =            2
     number of atomic types    =            2
     number of electrons       =        16.00
     number of Kohn-Sham states=            8
     kinetic-energy cutoff     =      60.0000  Ry
     charge density cutoff     =     240.0000  Ry
     convergence threshold     =      1.0E-08
     mixing beta               =       0.7000
     number of iterations used =            8  plain     mixing
     Exchange-correlation      =  SLA  PW   PBX  PBC ( 1 4 3 4 0)
     EXX-fraction              =        0.00
     nstep                     =           50


     celldm(1)=   7.775823  celldm(2)=   0.000000  celldm(3)=   0.000000
     celldm(4)=   0.000000  celldm(5)=   0.000000  celldm(6)=   0.000000

     crystal axes: (cart. coord. in units of alat)
               a(1) = (   1.000000   0.000000   0.000000 )  
               a(2) = (   0.492957   0.834054   0.000000 )  
               a(3) = (   0.999940   0.534408   0.778847 )  

     reciprocal axes: (cart. coord. in units 2 pi/alat)
               b(1) = (  1.000000 -0.591038 -0.878330 )  
               b(2) = (  0.000000  1.198964 -0.822672 )  
               b(3) = (  0.000000  0.000000  1.283949 )  


     PseudoPot. # 1 for Na read from file:
     /projects/e20438/bin/espresso/pseudo/Na.pbe-spn-kjpaw_psl.0.2.UPF
     MD5 check sum: af6cebf537ceac8ff9d4cdfd6fc7ff14
     Pseudo is Projector augmented-wave, Zval =  9.0
     Generated using "atomic" code by A. Dal Corso  v.5.0.2 svn rev. 9415
     Shape of augmentation charge: PSQ
     Using radial grid of 1121 points,  4 beta functions with: 
                l(1) =   0
                l(2) =   0
                l(3) =   1
                l(4) =   1
     Q(r) pseudized with 0 coefficients 


     PseudoPot. # 2 for Cl read from file:
     /projects/e20438/bin/espresso/pseudo/Cl.pbe-n-kjpaw_psl.0.1.UPF
     MD5 check sum: 39501d8aaca1fada178cfed307344fc1
     Pseudo is Projector augmented-wave + core cor, Zval =  7.0
     Generated using "atomic" code by A. Dal Corso  v.5.0.2 svn rev. 9415
     Shape of augmentation charge: PSQ
     Using radial grid of 1157 points,  4 beta functions with: 
                l(1) =   0
                l(2) =   0
                l(3) =   1
                l(4) =   1
     Q(r) pseudized with 0 coefficients 


     atomic species   valence    mass     pseudopotential
        Na             9.00    22.98977     Na( 1.00)
        Cl             7.00    35.45270     Cl( 1.00)

     No symmetry found



   Cartesian axes

     site n.     atom                  positions (alat units)
         1           Na  tau(   1) = (   0.8132858   0.0171026   0.0127293  )
         2           Cl  tau(   2) = (   1.3132857   0.2842887   0.4021261  )

     number of k points=    62
                       cart. coord. in units 2pi/alat
        k(    1) = (   0.0000000   0.0000000   0.0000000), wk =   0.0166667
        k(    2) = (   0.0000000   0.0000000   0.2139916), wk =   0.0333333
        k(    3) = (   0.0000000   0.0000000   0.4279832), wk =   0.0333333
        k(    4) = (   0.0000000   0.0000000  -0.6419747), wk =   0.0166667
        k(    5) = (   0.0000000   0.2397927  -0.1645345), wk =   0.0333333
        k(    6) = (   0.0000000   0.2397927   0.0494571), wk =   0.0333333
        k(    7) = (   0.0000000   0.2397927   0.2634487), wk =   0.0333333
        k(    8) = (   0.0000000   0.2397927  -0.8065092), wk =   0.0333333
        k(    9) = (   0.0000000   0.2397927  -0.5925177), wk =   0.0333333
        k(   10) = (   0.0000000   0.2397927  -0.3785261), wk =   0.0333333
        k(   11) = (   0.0000000   0.4795855  -0.3290690), wk =   0.0333333
        k(   12) = (   0.0000000   0.4795855  -0.1150774), wk =   0.0333333
        k(   13) = (   0.0000000   0.4795855   0.0989142), wk =   0.0333333
        k(   14) = (   0.0000000   0.4795855  -0.9710437), wk =   0.0333333
        k(   15) = (   0.0000000   0.4795855  -0.7570521), wk =   0.0333333
        k(   16) = (   0.0000000   0.4795855  -0.5430606), wk =   0.0333333
        k(   17) = (   0.2500000  -0.1477595  -0.2195824), wk =   0.0333333
        k(   18) = (   0.2500000  -0.1477595  -0.0055908), wk =   0.0333333
        k(   19) = (   0.2500000  -0.1477595   0.2084008), wk =   0.0333333
        k(   20) = (   0.2500000  -0.1477595  -0.8615571), wk =   0.0333333
        k(   21) = (   0.2500000  -0.1477595  -0.6475656), wk =   0.0333333
        k(   22) = (   0.2500000  -0.1477595  -0.4335740), wk =   0.0333333
        k(   23) = (   0.2500000   0.0920332  -0.3841169), wk =   0.0333333
        k(   24) = (   0.2500000   0.0920332  -0.1701253), wk =   0.0333333
        k(   25) = (   0.2500000   0.0920332   0.0438663), wk =   0.0333333
        k(   26) = (   0.2500000   0.0920332  -1.0260916), wk =   0.0333333
        k(   27) = (   0.2500000   0.0920332  -0.8121000), wk =   0.0333333
        k(   28) = (   0.2500000   0.0920332  -0.5981085), wk =   0.0333333
        k(   29) = (   0.2500000   0.3318260  -0.5486514), wk =   0.0333333
        k(   30) = (   0.2500000   0.3318260  -0.3346598), wk =   0.0333333
        k(   31) = (   0.2500000   0.3318260  -0.1206682), wk =   0.0333333
        k(   32) = (   0.2500000   0.3318260  -1.1906261), wk =   0.0333333
        k(   33) = (   0.2500000   0.3318260  -0.9766345), wk =   0.0333333
        k(   34) = (   0.2500000   0.3318260  -0.7626429), wk =   0.0333333
        k(   35) = (   0.2500000  -0.6273449   0.1094866), wk =   0.0333333
        k(   36) = (   0.2500000  -0.6273449   0.3234782), wk =   0.0333333
        k(   37) = (   0.2500000  -0.6273449   0.5374698), wk =   0.0333333
        k(   38) = (   0.2500000  -0.6273449  -0.5324882), wk =   0.0333333
        k(   39) = (   0.2500000  -0.6273449  -0.3184966), wk =   0.0333333
        k(   40) = (   0.2500000  -0.6273449  -0.1045050), wk =   0.0333333
        k(   41) = (   0.2500000  -0.3875522  -0.0550479), wk =   0.0333333
        k(   42) = (   0.2500000  -0.3875522   0.1589437), wk =   0.0333333
        k(   43) = (   0.2500000  -0.3875522   0.3729353), wk =   0.0333333
        k(   44) = (   0.2500000  -0.3875522  -0.6970226), wk =   0.0333333
        k(   45) = (   0.2500000  -0.3875522  -0.4830311), wk =   0.0333333
        k(   46) = (   0.2500000  -0.3875522  -0.2690395), wk =   0.0333333
        k(   47) = (  -0.5000000   0.2955190   0.4391648), wk =   0.0166667
        k(   48) = (  -0.5000000   0.2955190   0.6531564), wk =   0.0333333
        k(   49) = (  -0.5000000   0.2955190   0.8671479), wk =   0.0333333
        k(   50) = (  -0.5000000   0.2955190  -0.2028100), wk =   0.0166667
        k(   51) = (  -0.5000000   0.5353117   0.2746303), wk =   0.0333333
        k(   52) = (  -0.5000000   0.5353117   0.4886219), wk =   0.0333333
        k(   53) = (  -0.5000000   0.5353117   0.7026135), wk =   0.0333333
        k(   54) = (  -0.5000000   0.5353117  -0.3673445), wk =   0.0333333
        k(   55) = (  -0.5000000   0.5353117  -0.1533529), wk =   0.0333333
        k(   56) = (  -0.5000000   0.5353117   0.0606387), wk =   0.0333333
        k(   57) = (  -0.5000000   0.7751044   0.1100958), wk =   0.0333333
        k(   58) = (  -0.5000000   0.7751044   0.3240874), wk =   0.0333333
        k(   59) = (  -0.5000000   0.7751044   0.5380790), wk =   0.0333333
        k(   60) = (  -0.5000000   0.7751044  -0.5318789), wk =   0.0333333
        k(   61) = (  -0.5000000   0.7751044  -0.3178874), wk =   0.0333333
        k(   62) = (  -0.5000000   0.7751044  -0.1038958), wk =   0.0333333

     Dense  grid:    19187 G-vectors     FFT dimensions: (  40,  40,  54)

     Largest allocated arrays     est. size (Mb)     dimensions
        Kohn-Sham Wavefunctions         0.02 Mb     (    131,    8)
        NL pseudopotentials             0.03 Mb     (    131,   16)
        Each V/rho on FFT grid          0.07 Mb     (   4800)
        Each G-vector array             0.01 Mb     (    960)
        G-vector shells                 0.01 Mb     (    960)
     Largest temporary arrays     est. size (Mb)     dimensions
        Each subspace H/S matrix        0.00 Mb     (   2,   2)
        Each <psi_i|beta_j> matrix      0.00 Mb     (     16,    8)
        Arrays for rho mixing           0.59 Mb     (   4800,   8)

     Check: negative/imaginary core charge=   -0.000006    0.000000

     Initial potential from superposition of free atoms

     starting charge   15.49915, renormalised to   16.00000
     Starting wfc are   12 randomized atomic wfcs
