
     Program PWSCF v.5.0.2 starts on 22Mar2018 at 21:16:43 

     This program is part of the open-source Quantum ESPRESSO suite
     for quantum simulation of materials; please cite
         "P. Giannozzi et al., J. Phys.:Condens. Matter 21 395502 (2009);
          URL http://www.quantum-espresso.org", 
     in publications or presentations arising from this work. More details at
     http://www.quantum-espresso.org/quote.php

     Parallel version (MPI), running on     4 processors
     R & G space division:  proc/nbgrp/npool/nimage =       4

     Current dimensions of program PWSCF are:
     Max number of different atomic species (ntypx) = 10
     Max number of k-points (npk) =  40000
     Max angular momentum in pseudopotentials (lmaxx) =  3
     Waiting for input...
     Reading input from standard input

     Subspace diagonalization in iterative solution of the eigenvalue problem:
     a serial algorithm will be used

 
     Parallelization info
     --------------------
     sticks:   dense  smooth     PW     G-vecs:    dense   smooth      PW
     Min         396     396    112                10116    10116    1566
     Max         397     397    113                10119    10119    1567
     Sum        1585    1585    451                40467    40467    6267
 


     bravais-lattice index     =            0
     lattice parameter (alat)  =      12.0168  a.u.
     unit-cell volume          =    1187.3413 (a.u.)^3
     number of atoms/cell      =            8
     number of atomic types    =            2
     number of electrons       =       148.00
     number of Kohn-Sham states=           89
     kinetic-energy cutoff     =      40.0000  Ry
     charge density cutoff     =     160.0000  Ry
     convergence threshold     =      1.0E-04
     mixing beta               =       0.7000
     number of iterations used =            8  plain     mixing
     Exchange-correlation      = SLA-PZ-NOGX-NOGC ( 1 1 0 0 0)
     EXX-fraction              =        0.00
     nstep                     =           50


     celldm(1)=  12.016801  celldm(2)=   0.000000  celldm(3)=   0.000000
     celldm(4)=   0.000000  celldm(5)=   0.000000  celldm(6)=   0.000000

     crystal axes: (cart. coord. in units of alat)
               a(1) = (   1.000000   0.000000   0.000000 )  
               a(2) = (  -0.500000   0.866025   0.000000 )  
               a(3) = (   0.000000   0.000000   0.790093 )  

     reciprocal axes: (cart. coord. in units 2 pi/alat)
               b(1) = (  1.000000  0.577350  0.000000 )  
               b(2) = (  0.000000  1.154701  0.000000 )  
               b(3) = (  0.000000  0.000000  1.265674 )  


     PseudoPot. # 1 for Eu read from file:
     /home/cwx6513/pp.La/Eu.UPF
     MD5 check sum: 5efdbbfc50c6a10138933a6429836ad2
     Pseudo is Norm-conserving, Zval = 17.0
     Generated in analytical, separable form
     Using radial grid of 1261 points,  6 beta functions with: 
                l(1) =   0
                l(2) =   0
                l(3) =   1
                l(4) =   1
                l(5) =   2
                l(6) =   3

     PseudoPot. # 2 for Tm read from file:
     /home/cwx6513/pp.La/Tm.UPF
     MD5 check sum: 245516e0878b5372ceeb9443ded2c4e1
     Pseudo is Norm-conserving, Zval = 23.0
     Generated in analytical, separable form
     Using radial grid of 1269 points,  6 beta functions with: 
                l(1) =   0
                l(2) =   0
                l(3) =   1
                l(4) =   1
                l(5) =   2
                l(6) =   3

     atomic species   valence    mass     pseudopotential
        Mg            17.00    24.30500     Eu( 1.00)
        Cd            23.00   112.41100     Tm( 1.00)

     24 Sym. Ops., with inversion, found (12 have fractional translation)



   Cartesian axes

     site n.     atom                  positions (alat units)
         1           Mg  tau(   1) = (   0.2478935   0.7204716   0.1975233  )
         2           Mg  tau(   2) = (   0.7478935   0.1455538   0.5925699  )
         3           Mg  tau(   3) = (   0.2521065   0.1455538   0.5925699  )
         4           Mg  tau(   4) = (  -0.2478935   0.7204716   0.1975233  )
         5           Mg  tau(   5) = (   0.0000000   0.2911075   0.1975233  )
         6           Mg  tau(   6) = (   0.5000000   0.5749179   0.5925699  )
         7           Cd  tau(   7) = (   0.5000005   0.2886748   0.1975233  )
         8           Cd  tau(   8) = (  -0.0000005   0.5773506   0.5925699  )

     number of k points=    64  gaussian smearing, width (Ry)=  0.1000
                       cart. coord. in units 2pi/alat
        k(    1) = (   0.0000000   0.0000000   0.0000000), wk =   0.0095238
        k(    2) = (   0.0000000   0.0000000   0.1808105), wk =   0.0190476
        k(    3) = (   0.0000000   0.0000000   0.3616210), wk =   0.0190476
        k(    4) = (   0.0000000   0.0000000   0.5424315), wk =   0.0190476
        k(    5) = (   0.0000000   0.1924501   0.0000000), wk =   0.0190476
        k(    6) = (   0.0000000   0.1924501   0.1808105), wk =   0.0380952
        k(    7) = (   0.0000000   0.1924501   0.3616210), wk =   0.0380952
        k(    8) = (   0.0000000   0.1924501   0.5424315), wk =   0.0380952
        k(    9) = (   0.0000000   0.3849002   0.0000000), wk =   0.0190476
        k(   10) = (   0.0000000   0.3849002   0.1808105), wk =   0.0380952
        k(   11) = (   0.0000000   0.3849002   0.3616210), wk =   0.0380952
        k(   12) = (   0.0000000   0.3849002   0.5424315), wk =   0.0380952
        k(   13) = (   0.0000000  -0.5773503   0.0000000), wk =   0.0095238
        k(   14) = (   0.0000000  -0.5773503   0.1808105), wk =   0.0190476
        k(   15) = (   0.0000000  -0.5773503   0.3616210), wk =   0.0190476
        k(   16) = (   0.0000000  -0.5773503   0.5424315), wk =   0.0190476
        k(   17) = (   0.2000000   0.1154701   0.0000000), wk =   0.0190476
        k(   18) = (   0.2000000   0.1154701   0.1808105), wk =   0.0380952
        k(   19) = (   0.2000000   0.1154701   0.3616210), wk =   0.0380952
        k(   20) = (   0.2000000   0.1154701   0.5424315), wk =   0.0380952
        k(   21) = (   0.2000000   0.3079201   0.0000000), wk =   0.0190476
        k(   22) = (   0.2000000   0.3079201   0.1808105), wk =   0.0380952
        k(   23) = (   0.2000000   0.3079201   0.3616210), wk =   0.0380952
        k(   24) = (   0.2000000   0.3079201   0.5424315), wk =   0.0380952
        k(   25) = (   0.2000000   0.5003702   0.0000000), wk =   0.0190476
        k(   26) = (   0.2000000   0.5003702   0.1808105), wk =   0.0380952
        k(   27) = (   0.2000000   0.5003702   0.3616210), wk =   0.0380952
        k(   28) = (   0.2000000   0.5003702   0.5424315), wk =   0.0380952
        k(   29) = (   0.2000000  -0.4618802   0.0000000), wk =   0.0190476
        k(   30) = (   0.2000000  -0.4618802   0.1808105), wk =   0.0380952
        k(   31) = (   0.2000000  -0.4618802   0.3616210), wk =   0.0380952
        k(   32) = (   0.2000000  -0.4618802   0.5424315), wk =   0.0380952
        k(   33) = (   0.2000000  -0.2694301   0.0000000), wk =   0.0190476
        k(   34) = (   0.2000000  -0.2694301   0.1808105), wk =   0.0380952
        k(   35) = (   0.2000000  -0.2694301   0.3616210), wk =   0.0380952
        k(   36) = (   0.2000000  -0.2694301   0.5424315), wk =   0.0380952
        k(   37) = (   0.2000000  -0.0769800   0.0000000), wk =   0.0190476
        k(   38) = (   0.2000000  -0.0769800   0.1808105), wk =   0.0380952
        k(   39) = (   0.2000000  -0.0769800   0.3616210), wk =   0.0380952
        k(   40) = (   0.2000000  -0.0769800   0.5424315), wk =   0.0380952
        k(   41) = (   0.4000000   0.2309401   0.0000000), wk =   0.0190476
        k(   42) = (   0.4000000   0.2309401   0.1808105), wk =   0.0380952
        k(   43) = (   0.4000000   0.2309401   0.3616210), wk =   0.0380952
        k(   44) = (   0.4000000   0.2309401   0.5424315), wk =   0.0380952
        k(   45) = (   0.4000000   0.4233902   0.0000000), wk =   0.0190476
        k(   46) = (   0.4000000   0.4233902   0.1808105), wk =   0.0380952
        k(   47) = (   0.4000000   0.4233902   0.3616210), wk =   0.0380952
        k(   48) = (   0.4000000   0.4233902   0.5424315), wk =   0.0380952
        k(   49) = (   0.4000000   0.6158403   0.0000000), wk =   0.0190476
        k(   50) = (   0.4000000   0.6158403   0.1808105), wk =   0.0380952
        k(   51) = (   0.4000000   0.6158403   0.3616210), wk =   0.0380952
        k(   52) = (   0.4000000   0.6158403   0.5424315), wk =   0.0380952
        k(   53) = (   0.4000000  -0.3464102   0.0000000), wk =   0.0190476
        k(   54) = (   0.4000000  -0.3464102   0.1808105), wk =   0.0380952
        k(   55) = (   0.4000000  -0.3464102   0.3616210), wk =   0.0380952
        k(   56) = (   0.4000000  -0.3464102   0.5424315), wk =   0.0380952
        k(   57) = (   0.4000000  -0.1539601   0.0000000), wk =   0.0190476
        k(   58) = (   0.4000000  -0.1539601   0.1808105), wk =   0.0380952
        k(   59) = (   0.4000000  -0.1539601   0.3616210), wk =   0.0380952
        k(   60) = (   0.4000000  -0.1539601   0.5424315), wk =   0.0380952
        k(   61) = (   0.4000000   0.0384900   0.0000000), wk =   0.0190476
        k(   62) = (   0.4000000   0.0384900   0.1808105), wk =   0.0380952
        k(   63) = (   0.4000000   0.0384900   0.3616210), wk =   0.0380952
        k(   64) = (   0.4000000   0.0384900   0.5424315), wk =   0.0380952

     Dense  grid:    40467 G-vectors     FFT dimensions: (  50,  50,  40)

     Largest allocated arrays     est. size (Mb)     dimensions
        Kohn-Sham Wavefunctions         1.76 Mb     (   1298,   89)
        NL pseudopotentials             3.17 Mb     (   1298,  160)
        Each V/rho on FFT grid          0.38 Mb     (  25000)
        Each G-vector array             0.08 Mb     (  10119)
        G-vector shells                 0.08 Mb     (  10119)
     Largest temporary arrays     est. size (Mb)     dimensions
        Each subspace H/S matrix        0.12 Mb     (  89,  89)
        Each <psi_i|beta_j> matrix      0.22 Mb     (    160,   89)
        Arrays for rho mixing           3.05 Mb     (  25000,   8)

     Initial potential from superposition of free atoms

     Starting from uniform charge
     Starting wfc are    0 randomized atomic wfcs

     total cpu time spent up to now is        8.8 secs

     Self-consistent Calculation

     iteration #  1     ecut=    40.00 Ry     beta=0.70
     CG style diagonalization
     ethr =  1.00E-02,  avg # of iterations = 17.9

     total cpu time spent up to now is      221.6 secs

     total energy              =   -1182.73123236 Ry
     Harris-Foulkes estimate   =   -2342.59682387 Ry
     estimated scf accuracy    <    1400.14237712 Ry

     iteration #  2     ecut=    40.00 Ry     beta=0.70
     CG style diagonalization
     c_bands:  3 eigenvalues not converged
     c_bands:  5 eigenvalues not converged
     c_bands:  4 eigenvalues not converged
     c_bands:  4 eigenvalues not converged
     c_bands:  1 eigenvalues not converged
     c_bands:  5 eigenvalues not converged
     c_bands:  5 eigenvalues not converged
     c_bands:  1 eigenvalues not converged
     c_bands:  4 eigenvalues not converged
     c_bands:  5 eigenvalues not converged
     c_bands:  4 eigenvalues not converged
     c_bands:  5 eigenvalues not converged
     c_bands:  3 eigenvalues not converged
     c_bands:  5 eigenvalues not converged
     c_bands:  5 eigenvalues not converged
     c_bands:  1 eigenvalues not converged
     c_bands:  3 eigenvalues not converged
     c_bands:  2 eigenvalues not converged
     c_bands:  4 eigenvalues not converged
     c_bands:  4 eigenvalues not converged
     c_bands:  3 eigenvalues not converged
     c_bands:  3 eigenvalues not converged
     c_bands:  5 eigenvalues not converged
     c_bands:  4 eigenvalues not converged
     c_bands:  4 eigenvalues not converged
     c_bands:  3 eigenvalues not converged
     c_bands:  3 eigenvalues not converged
     c_bands:  3 eigenvalues not converged
     c_bands:  3 eigenvalues not converged
     c_bands:  5 eigenvalues not converged
     c_bands:  5 eigenvalues not converged
     c_bands:  5 eigenvalues not converged
     c_bands:  5 eigenvalues not converged
     c_bands:  5 eigenvalues not converged
     c_bands:  5 eigenvalues not converged
     c_bands:  5 eigenvalues not converged
     c_bands:  5 eigenvalues not converged
     c_bands:  3 eigenvalues not converged
     c_bands:  3 eigenvalues not converged
     c_bands:  5 eigenvalues not converged
     ethr =  1.00E-02,  avg # of iterations = 14.2

     total cpu time spent up to now is      392.2 secs

     total energy              =   -1553.73846521 Ry
     Harris-Foulkes estimate   =   -2347.31150327 Ry
     estimated scf accuracy    <    1427.55107326 Ry

     iteration #  3     ecut=    40.00 Ry     beta=0.70
     CG style diagonalization
     c_bands:  3 eigenvalues not converged
     c_bands:  2 eigenvalues not converged
     c_bands:  1 eigenvalues not converged
     c_bands:  1 eigenvalues not converged
     c_bands:  3 eigenvalues not converged
     c_bands:  1 eigenvalues not converged
     c_bands:  1 eigenvalues not converged
     c_bands:  2 eigenvalues not converged
     c_bands:  1 eigenvalues not converged
     c_bands:  1 eigenvalues not converged
     c_bands:  2 eigenvalues not converged
     c_bands:  1 eigenvalues not converged
     c_bands:  1 eigenvalues not converged
     c_bands:  2 eigenvalues not converged
     c_bands:  2 eigenvalues not converged
     c_bands:  2 eigenvalues not converged
     c_bands:  1 eigenvalues not converged
     c_bands:  1 eigenvalues not converged
     c_bands:  2 eigenvalues not converged
     c_bands:  2 eigenvalues not converged
     c_bands:  1 eigenvalues not converged
     c_bands:  1 eigenvalues not converged
     c_bands:  1 eigenvalues not converged
     c_bands:  2 eigenvalues not converged
     c_bands:  1 eigenvalues not converged
     c_bands:  1 eigenvalues not converged
     c_bands:  1 eigenvalues not converged
     c_bands:  1 eigenvalues not converged
     c_bands:  2 eigenvalues not converged
     c_bands:  1 eigenvalues not converged
     c_bands:  1 eigenvalues not converged
     c_bands:  1 eigenvalues not converged
     c_bands:  2 eigenvalues not converged
     c_bands:  2 eigenvalues not converged
     c_bands:  1 eigenvalues not converged
     c_bands:  2 eigenvalues not converged
     c_bands:  1 eigenvalues not converged
     c_bands:  2 eigenvalues not converged
     c_bands:  1 eigenvalues not converged
     c_bands:  2 eigenvalues not converged
     c_bands:  1 eigenvalues not converged
     ethr =  1.00E-02,  avg # of iterations = 11.9

     total cpu time spent up to now is      540.6 secs

     total energy              =   -1752.25554539 Ry
     Harris-Foulkes estimate   =   -1835.99651777 Ry
     estimated scf accuracy    <     153.59649462 Ry

     iteration #  4     ecut=    40.00 Ry     beta=0.70
     CG style diagonalization
     ethr =  1.00E-02,  avg # of iterations =  6.1

     total cpu time spent up to now is      615.5 secs

     total energy              =   -1782.71961379 Ry
     Harris-Foulkes estimate   =   -1790.25105787 Ry
     estimated scf accuracy    <      16.11187123 Ry

     iteration #  5     ecut=    40.00 Ry     beta=0.70
     CG style diagonalization
     ethr =  1.00E-02,  avg # of iterations =  3.4

     total cpu time spent up to now is      656.5 secs

     total energy              =   -1785.81855317 Ry
     Harris-Foulkes estimate   =   -1785.91870698 Ry
     estimated scf accuracy    <       0.18596026 Ry

     iteration #  6     ecut=    40.00 Ry     beta=0.70
     CG style diagonalization
     c_bands:  1 eigenvalues not converged
     c_bands:  3 eigenvalues not converged
     c_bands:  1 eigenvalues not converged
     c_bands:  1 eigenvalues not converged
     c_bands:  1 eigenvalues not converged
     c_bands:  2 eigenvalues not converged
     c_bands:  1 eigenvalues not converged
     c_bands:  1 eigenvalues not converged
     c_bands:  1 eigenvalues not converged
     c_bands:  1 eigenvalues not converged
     c_bands:  1 eigenvalues not converged
     c_bands:  1 eigenvalues not converged
     c_bands:  1 eigenvalues not converged
     c_bands:  1 eigenvalues not converged
     c_bands:  1 eigenvalues not converged
     c_bands:  1 eigenvalues not converged
     c_bands:  1 eigenvalues not converged
     c_bands:  1 eigenvalues not converged
     c_bands:  1 eigenvalues not converged
     c_bands:  1 eigenvalues not converged
     c_bands:  1 eigenvalues not converged
     c_bands:  2 eigenvalues not converged
     c_bands:  3 eigenvalues not converged
     c_bands:  2 eigenvalues not converged
     c_bands:  1 eigenvalues not converged
     c_bands:  1 eigenvalues not converged
     c_bands:  2 eigenvalues not converged
     c_bands:  1 eigenvalues not converged
     c_bands:  1 eigenvalues not converged
     c_bands:  2 eigenvalues not converged
     c_bands:  1 eigenvalues not converged
     c_bands:  1 eigenvalues not converged
     c_bands:  1 eigenvalues not converged
     c_bands:  1 eigenvalues not converged
     c_bands:  1 eigenvalues not converged
     c_bands:  1 eigenvalues not converged
     ethr =  1.26E-04,  avg # of iterations =  5.7

     total cpu time spent up to now is      727.4 secs

     total energy              =   -1786.05215638 Ry
     Harris-Foulkes estimate   =   -1786.08757413 Ry
     estimated scf accuracy    <       0.07238875 Ry

     iteration #  7     ecut=    40.00 Ry     beta=0.70
     CG style diagonalization
     c_bands:  1 eigenvalues not converged
     ethr =  4.89E-05,  avg # of iterations =  3.3

     total cpu time spent up to now is      765.6 secs

     total energy              =   -1786.05739919 Ry
     Harris-Foulkes estimate   =   -1786.06118219 Ry
     estimated scf accuracy    <       0.00668956 Ry

     iteration #  8     ecut=    40.00 Ry     beta=0.70
     CG style diagonalization
     c_bands:  1 eigenvalues not converged
     c_bands:  1 eigenvalues not converged
     c_bands:  1 eigenvalues not converged
     c_bands:  1 eigenvalues not converged
     c_bands:  1 eigenvalues not converged
     c_bands:  1 eigenvalues not converged
     c_bands:  1 eigenvalues not converged
     ethr =  4.52E-06,  avg # of iterations =  4.7

     total cpu time spent up to now is      824.9 secs

     total energy              =   -1786.06064333 Ry
     Harris-Foulkes estimate   =   -1786.06187791 Ry
     estimated scf accuracy    <       0.00330608 Ry

     iteration #  9     ecut=    40.00 Ry     beta=0.70
     CG style diagonalization
     ethr =  2.23E-06,  avg # of iterations =  3.4

     total cpu time spent up to now is      867.0 secs

     total energy              =   -1786.06069774 Ry
     Harris-Foulkes estimate   =   -1786.06103165 Ry
     estimated scf accuracy    <       0.00064882 Ry

     iteration # 10     ecut=    40.00 Ry     beta=0.70
     CG style diagonalization
     ethr =  4.38E-07,  avg # of iterations =  3.7

     total cpu time spent up to now is      912.2 secs

     End of self-consistent calculation

          k = 0.0000 0.0000 0.0000 (  5047 PWs)   bands (ev):

   -89.0438 -89.0364 -47.6555 -47.6555 -47.6550 -47.6493 -47.6465 -47.6465
   -40.4327 -40.3722 -40.3721 -40.3624 -40.3379 -40.3378 -13.4562 -13.4316
   -13.3028 -13.2458 -13.2457 -13.2443 -13.2442 -13.2051 -13.2050 -13.0771
   -12.9560 -12.9559 -12.8532 -12.8455 -12.8454 -12.8412 -12.8307 -12.8307
     1.5395   1.5395   1.5489   1.5496   1.5496   1.5574   1.5579   1.5579
     1.5879   1.5879  11.1572  12.1384  16.1233  16.8278  17.1473  17.1474
    17.1684  17.1685  17.1773  17.8780  17.8781  17.9310  17.9790  17.9791
    18.5784  19.1387  19.1388  19.3093  19.3093  19.3336  20.4481  20.4482
    20.6489  20.6867  20.6867  21.1475  21.1476  21.2335  21.2335  21.4738
    21.5300  22.5123  22.8951  22.9237  23.4624  23.4624  23.5984  23.5984
    25.1612  25.8740  26.2522  27.0473  27.0473  28.9640  29.1387  29.1394
    29.2825

          k = 0.0000 0.0000 0.1808 (  5065 PWs)   bands (ev):

   -89.0546 -89.0459 -47.6604 -47.6603 -47.6548 -47.6548 -47.6528 -47.6512
   -40.4304 -40.3720 -40.3719 -40.3661 -40.3393 -40.3392 -13.4456 -13.4436
   -13.3270 -13.3270 -13.2882 -13.2329 -13.2328 -13.1532 -13.1531 -13.0595
   -12.9451 -12.9450 -12.8884 -12.8565 -12.8491 -12.8490 -12.8331 -12.8330
     1.5405   1.5405   1.5418   1.5418   1.5496   1.5559   1.5638   1.5638
     1.5841   1.5841  11.2570  12.1008  16.3929  16.5798  17.1268  17.1858
    17.1858  17.2367  17.2367  17.7244  17.7244  17.7889  17.9398  17.9399
    18.7229  19.2380  19.2380  19.5741  19.5741  19.8456  19.9820  20.4671
    20.4671  20.5079  20.5079  21.0079  21.0079  21.2495  21.2496  21.4951
    21.5807  22.3840  22.7081  22.8811  23.3598  23.3598  23.5224  23.5225
    24.4545  25.6836  27.1399  27.1399  27.6535  28.5882  28.5885  28.7729
    29.1655

          k = 0.0000 0.0000 0.3616 (  5047 PWs)   bands (ev):

   -89.0497 -89.0319 -47.6611 -47.6611 -47.6540 -47.6540 -47.6450 -47.6326
   -40.4219 -40.3728 -40.3669 -40.3668 -40.3437 -40.3436 -13.4407 -13.4210
   -13.3658 -13.3658 -13.2922 -13.2922 -13.2298 -13.0500 -13.0500 -13.0322
   -12.9676 -12.9280 -12.9279 -12.8892 -12.8411 -12.8411 -12.8405 -12.8404
     1.5362   1.5362   1.5415   1.5415   1.5515   1.5553   1.5698   1.5698
     1.5785   1.5785  11.5065  12.0290  16.1627  16.7652  17.2230  17.2230
    17.2908  17.3481  17.3482  17.4986  17.4986  17.7753  18.0983  18.0984
    18.9590  19.1459  19.1495  19.1495  20.1442  20.1443  20.2443  20.3430
    20.3431  20.4338  20.4338  21.0106  21.0107  21.0300  21.0300  21.4866
    21.5969  21.6314  22.6658  22.8426  22.8800  22.8800  23.4026  23.4027
    23.4884  26.0581  27.3608  27.3609  28.1031  28.1032  28.9320  29.1875
    29.2257

          k = 0.0000 0.0000 0.5424 (  5041 PWs)   bands (ev):

   -89.0454 -89.0305 -47.6562 -47.6562 -47.6516 -47.6516 -47.6466 -47.6356
   -40.4055 -40.3889 -40.3587 -40.3587 -40.3518 -40.3517 -13.4230 -13.4212
   -13.3721 -13.3721 -13.3433 -13.3432 -13.1474 -13.0485 -12.9877 -12.9789
   -12.9788 -12.9344 -12.9344 -12.9341 -12.8479 -12.8479 -12.8419 -12.8419
     1.5369   1.5369   1.5409   1.5409   1.5527   1.5534   1.5714   1.5714
     1.5730   1.5730  11.7718  11.9369  16.0656  16.3826  17.2101  17.2102
    17.2293  17.2294  17.7559  17.7559  17.9222  18.0410  18.0411  18.1784
    18.4511  19.4689  19.4690  19.5714  19.8183  19.9383  19.9385  20.1363
    20.1363  20.3439  20.3439  20.6836  21.2192  21.2192  21.2844  21.2845
    21.3923  21.4371  22.6013  22.6014  22.7190  22.7841  22.9259  22.9259
    24.1151  25.2839  27.5708  27.5709  27.7945  27.7946  29.6256  29.8261
    29.8264

          k = 0.0000 0.1925 0.0000 (  5083 PWs)   bands (ev):

   -89.0661 -89.0523 -47.6667 -47.6630 -47.6616 -47.6566 -47.6553 -47.6549
   -40.4308 -40.3778 -40.3737 -40.3618 -40.3389 -40.3386 -13.4446 -13.4143
   -13.2841 -13.2518 -13.2516 -13.2503 -13.2486 -13.1998 -13.1813 -13.0878
   -12.9713 -12.9590 -12.8869 -12.8730 -12.8613 -12.8578 -12.8544 -12.8334
     1.5420   1.5446   1.5493   1.5519   1.5521   1.5583   1.5586   1.5629
     1.5848   1.5857  11.2887  12.1913  16.2410  16.6820  16.9224  16.9879
    17.1475  17.3294  17.3485  17.5933  17.7982  17.8882  18.0087  18.2180
    18.6624  18.9418  19.0378  19.2122  19.3421  19.4567  19.8777  20.2673
    20.5605  20.5608  20.7137  20.9809  21.0792  21.3244  21.3647  21.6341
    22.2508  22.3466  22.5378  22.8324  23.1348  23.3816  23.9531  24.2988
    24.9030  25.5317  26.2665  27.1019  28.4697  28.4794  28.5603  28.9555
    29.0687

          k = 0.0000 0.1925 0.1808 (  5077 PWs)   bands (ev):

   -89.0657 -89.0472 -47.6661 -47.6635 -47.6596 -47.6569 -47.6542 -47.6496
   -40.4279 -40.3750 -40.3720 -40.3646 -40.3407 -40.3406 -13.4312 -13.4131
   -13.3254 -13.3184 -13.2740 -13.2323 -13.2141 -13.1638 -13.1546 -13.0679
   -12.9600 -12.9470 -12.8945 -12.8795 -12.8766 -12.8560 -12.8552 -12.8341
     1.5426   1.5447   1.5449   1.5456   1.5527   1.5571   1.5643   1.5682
     1.5823   1.5842  11.3847  12.1640  16.4606  16.7080  16.7820  16.9873
    17.1870  17.3016  17.3264  17.5697  17.7171  17.8658  17.9349  18.1859
    18.7252  19.0521  19.2866  19.3344  19.4411  19.4637  19.6950  20.3258
    20.4932  20.5249  20.5777  21.0451  21.0486  21.2644  21.3095  21.5960
    21.9065  22.2716  22.4553  22.6027  23.2525  23.3770  23.8552  23.8912
    24.7165  25.6667  26.5254  27.2074  27.8624  28.3969  28.8337  29.0443
    29.4916

          k = 0.0000 0.1925 0.3616 (  5061 PWs)   bands (ev):

   -89.0591 -89.0372 -47.6675 -47.6634 -47.6585 -47.6529 -47.6499 -47.6346
   -40.4186 -40.3737 -40.3687 -40.3669 -40.3460 -40.3443 -13.4120 -13.4089
   -13.3638 -13.3541 -13.2887 -13.2732 -13.2226 -13.0889 -13.0593 -13.0109
   -12.9764 -12.9496 -12.9244 -12.8884 -12.8872 -12.8567 -12.8558 -12.8355
     1.5392   1.5397   1.5446   1.5470   1.5540   1.5572   1.5697   1.5728
     1.5769   1.5780  11.6222  12.1044  16.2734  16.7037  17.0478  17.0746
    17.2418  17.3526  17.4648  17.5667  17.6559  17.7853  18.1982  18.2100
    18.5642  18.7504  18.9451  19.3615  19.6584  19.7332  20.1902  20.2508
    20.3553  20.5498  20.6630  20.9628  20.9743  21.0661  21.1605  21.3878
    21.5637  22.0358  22.3721  22.6714  22.9630  22.9956  23.0408  23.6474
    24.4978  25.5745  27.0863  27.4442  28.0587  28.3626  28.9873  29.5956
    29.6760

          k = 0.0000 0.1925 0.5424 (  5050 PWs)   bands (ev):

   -89.0500 -89.0360 -47.6632 -47.6616 -47.6608 -47.6517 -47.6422 -47.6328
   -40.4030 -40.3865 -40.3618 -40.3598 -40.3538 -40.3518 -13.4094 -13.4029
   -13.3700 -13.3614 -13.3420 -13.3307 -13.1403 -13.0479 -13.0339 -12.9832
   -12.9829 -12.9468 -12.9400 -12.9042 -12.8771 -12.8620 -12.8520 -12.8442
     1.5402   1.5403   1.5440   1.5455   1.5551   1.5559   1.5714   1.5722
     1.5732   1.5744  11.8724  12.0259  16.1641  16.4597  17.0035  17.1582
    17.1749  17.3625  17.6753  17.8630  17.9488  18.1501  18.1962  18.1981
    18.4090  18.7480  18.9435  19.3831  19.4229  19.6879  19.8028  20.3155
    20.4135  20.4353  20.5891  20.9070  21.0084  21.0174  21.1500  21.2162
    21.7209  22.1897  22.3154  22.3809  22.5050  22.5237  22.9504  23.3133
    24.5805  25.0860  27.6575  27.7635  27.8677  28.4151  29.4435  30.0488
    30.0536

          k = 0.0000 0.3849 0.0000 (  5079 PWs)   bands (ev):

   -89.0697 -89.0474 -47.6718 -47.6718 -47.6553 -47.6546 -47.6536 -47.6458
   -40.4229 -40.3878 -40.3739 -40.3593 -40.3389 -40.3389 -13.4241 -13.3493
   -13.2681 -13.2612 -13.2449 -13.2260 -13.2257 -13.1458 -13.1321 -13.1009
   -12.9855 -12.9789 -12.9525 -12.9401 -12.9325 -12.8800 -12.8438 -12.8314
     1.5467   1.5513   1.5533   1.5557   1.5601   1.5641   1.5665   1.5738
     1.5805   1.5864  11.6318  12.2705  15.9983  16.5666  16.7145  16.7368
    17.2754  17.3238  17.3578  17.6787  17.7267  17.9295  18.3053  18.3919
    18.6712  18.6804  18.7874  19.3726  19.3778  19.4097  19.5448  20.0095
    20.2941  20.5736  20.7170  20.8574  20.9616  21.0507  21.2744  21.2779
    21.6441  22.3157  22.6714  22.9238  23.3779  23.6044  23.9398  24.5898
    25.9333  26.0436  26.6932  27.2303  27.5644  27.8828  28.2122  28.8938
    29.1432

          k = 0.0000 0.3849 0.1808 (  5090 PWs)   bands (ev):

   -89.0727 -89.0548 -47.6746 -47.6697 -47.6614 -47.6587 -47.6561 -47.6474
   -40.4195 -40.3859 -40.3728 -40.3619 -40.3425 -40.3406 -13.4087 -13.3616
   -13.3117 -13.2927 -13.2571 -13.1901 -13.1859 -13.1596 -13.1496 -13.0726
   -12.9954 -12.9753 -12.9687 -12.9243 -12.9178 -12.8767 -12.8634 -12.8357
     1.5475   1.5485   1.5504   1.5567   1.5585   1.5637   1.5688   1.5760
     1.5772   1.5833  11.7109  12.2636  16.0883  16.5052  16.7827  16.8835
    17.0856  17.2883  17.4602  17.7000  17.7788  17.8303  18.2725  18.3644
    18.7422  18.8440  19.0607  19.1221  19.3268  19.3566  19.5026  20.0215
    20.2513  20.4022  20.5253  20.9080  21.0959  21.1117  21.1799  21.1917
    21.6288  22.1848  22.5176  22.7706  23.3964  23.5144  23.9257  24.4109
    25.5622  25.9688  26.6266  27.3822  27.6996  28.2140  28.3684  29.0741
    29.6120

          k = 0.0000 0.3849 0.3616 (  5078 PWs)   bands (ev):

   -89.0665 -89.0477 -47.6720 -47.6656 -47.6594 -47.6588 -47.6528 -47.6423
   -40.4100 -40.3811 -40.3674 -40.3674 -40.3501 -40.3451 -13.3927 -13.3769
   -13.3278 -13.3237 -13.2785 -13.2257 -13.1821 -13.1373 -13.0849 -13.0122
   -13.0033 -12.9788 -12.9758 -12.9120 -12.9022 -12.8889 -12.8695 -12.8428
     1.5452   1.5472   1.5497   1.5580   1.5590   1.5640   1.5706   1.5724
     1.5773   1.5796  11.9062  12.2523  16.2064  16.3675  16.9303  16.9609
    17.2403  17.4402  17.4498  17.5985  17.8885  17.9708  18.2085  18.3330
    18.4037  18.8231  18.8800  19.2376  19.3154  19.4302  19.7097  20.0696
    20.1869  20.3799  20.4377  20.6554  20.9027  20.9662  21.2411  21.3425
    21.4406  21.6494  22.1825  22.7822  22.9669  23.4948  23.9785  24.1603
    24.3425  26.2179  27.0635  27.6551  28.2436  28.4802  28.8595  29.4469
    29.9809

          k = 0.0000 0.3849 0.5424 (  5051 PWs)   bands (ev):

   -89.0502 -89.0364 -47.6641 -47.6605 -47.6579 -47.6552 -47.6421 -47.6341
   -40.3963 -40.3824 -40.3675 -40.3597 -40.3591 -40.3516 -13.3948 -13.3771
   -13.3257 -13.3146 -13.2945 -13.2896 -13.1290 -13.0862 -13.0675 -13.0378
   -12.9989 -12.9799 -12.9280 -12.9219 -12.9054 -12.8831 -12.8668 -12.8491
     1.5472   1.5477   1.5500   1.5537   1.5603   1.5625   1.5700   1.5717
     1.5775   1.5801  12.1083  12.2199  16.1800  16.3328  16.9990  17.0694
    17.2289  17.4641  17.5355  17.7140  18.0017  18.1357  18.2892  18.3918
    18.4200  18.4932  18.7584  18.9937  19.2574  19.5638  19.6547  20.1468
    20.2217  20.2967  20.5288  20.5568  20.7218  20.8995  21.0768  21.2175
    21.7532  21.8375  21.9266  22.3614  22.5449  23.0315  23.4531  23.7010
    25.0593  25.9054  27.8427  27.9287  28.2128  28.7867  29.5613  29.8675
    30.2892

          k = 0.0000-0.5774 0.0000 (  5068 PWs)   bands (ev):

   -89.0555 -89.0504 -47.6620 -47.6608 -47.6558 -47.6549 -47.6526 -47.6514
   -40.4143 -40.3965 -40.3743 -40.3581 -40.3395 -40.3372 -13.4193 -13.3060
   -13.2748 -13.2658 -13.2449 -13.1946 -13.1772 -13.1308 -13.0716 -13.0582
   -13.0555 -13.0192 -12.9898 -12.9846 -12.9570 -12.8857 -12.8366 -12.8348
     1.5491   1.5523   1.5537   1.5636   1.5665   1.5672   1.5716   1.5746
     1.5801   1.5856  11.9084  12.2301  15.6993  16.4499  16.6244  16.9237
    17.0677  17.2172  17.5774  17.6295  17.8826  18.1945  18.2613  18.4135
    18.5306  18.6478  18.8394  19.3277  19.4371  19.4521  19.8328  20.0314
    20.1249  20.3304  20.3987  20.6328  20.8673  20.8991  21.1706  21.2058
    21.2297  22.3729  22.6041  22.8414  23.3705  23.8743  24.8145  24.9756
    25.1687  26.9445  26.9741  27.2620  27.3148  27.8541  28.2896  29.0326
    29.1921

          k = 0.0000-0.5774 0.1808 (  5072 PWs)   bands (ev):

   -89.0558 -89.0534 -47.6700 -47.6607 -47.6574 -47.6547 -47.6509 -47.6492
   -40.4108 -40.3945 -40.3721 -40.3602 -40.3435 -40.3392 -13.4032 -13.3542
   -13.2816 -13.2712 -13.2504 -13.1861 -13.1527 -13.1095 -13.0953 -13.0849
   -13.0545 -13.0380 -12.9931 -12.9438 -12.9200 -12.8806 -12.8564 -12.8376
     1.5498   1.5500   1.5532   1.5637   1.5650   1.5679   1.5725   1.5731
     1.5819   1.5820  11.9666  12.2524  15.8152  16.2516  16.6962  17.0597
    17.0976  17.2503  17.5866  17.7309  17.7916  18.0688  18.3896  18.4767
    18.4795  18.8882  18.9791  18.9883  19.3576  19.5730  19.7167  19.8979
    20.0258  20.2175  20.3056  20.3785  21.0470  21.0912  21.0951  21.1582
    21.1835  22.1713  22.5637  22.9636  23.5878  23.6971  24.1165  24.7371
    25.3288  26.1377  27.4721  27.5307  27.7599  27.8512  28.8176  28.9860
    29.3110

          k = 0.0000-0.5774 0.3616 (  5090 PWs)   bands (ev):

   -89.0660 -89.0605 -47.6696 -47.6685 -47.6652 -47.6599 -47.6541 -47.6499
   -40.4008 -40.3901 -40.3676 -40.3650 -40.3536 -40.3460 -13.3917 -13.3686
   -13.3108 -13.3008 -13.2424 -13.1924 -13.1638 -13.1283 -13.1186 -13.0483
   -13.0424 -13.0306 -12.9804 -12.9153 -12.9044 -12.8941 -12.8689 -12.8492
     1.5476   1.5504   1.5525   1.5623   1.5634   1.5666   1.5690   1.5718
     1.5770   1.5836  12.1103  12.2967  16.0360  16.0806  16.9234  17.0422
    17.1307  17.3930  17.5459  17.6724  18.0939  18.1262  18.2910  18.3658
    18.4816  18.6341  19.0459  19.1831  19.4781  19.4956  19.5084  19.7864
    20.0209  20.0578  20.1472  20.2240  20.8177  20.9326  21.2273  21.2860
    21.3903  21.4965  22.3508  22.8338  23.1062  23.7877  23.8973  24.1467
    25.1181  25.9161  27.9332  28.1440  28.5018  28.5812  28.6886  28.8403
    29.6879

          k = 0.0000-0.5774 0.5424 (  5080 PWs)   bands (ev):

   -89.0641 -89.0524 -47.6788 -47.6753 -47.6626 -47.6562 -47.6432 -47.6387
   -40.3882 -40.3845 -40.3696 -40.3659 -40.3600 -40.3532 -13.3944 -13.3756
   -13.3051 -13.2716 -13.2590 -13.2425 -13.1314 -13.1251 -13.1199 -13.0805
   -13.0293 -12.9962 -12.9500 -12.9245 -12.9148 -12.8773 -12.8715 -12.8593
     1.5500   1.5524   1.5526   1.5568   1.5609   1.5617   1.5700   1.5706
     1.5793   1.5834  12.2544  12.3177  16.0151  16.1547  17.0722  17.0767
    17.2988  17.4562  17.5631  17.6162  18.0973  18.1738  18.2456  18.2731
    18.5122  18.5270  19.0253  19.1809  19.2659  19.3456  19.5659  20.0202
    20.0350  20.0412  20.1426  20.2862  20.5107  20.7381  21.1845  21.2106
    21.6954  21.7448  21.8566  22.4606  22.5809  23.0575  23.7954  23.8241
    25.6856  26.3692  27.9673  28.2438  28.3068  28.5488  29.4330  29.6992
    29.7574

          k = 0.2000 0.1155 0.0000 (  5087 PWs)   bands (ev):

   -89.0694 -89.0535 -47.6721 -47.6673 -47.6595 -47.6571 -47.6539 -47.6537
   -40.4304 -40.3794 -40.3737 -40.3616 -40.3390 -40.3383 -13.4415 -13.4034
   -13.2796 -13.2524 -13.2521 -13.2486 -13.2456 -13.1935 -13.1727 -13.0880
   -12.9725 -12.9585 -12.9131 -12.8813 -12.8751 -12.8618 -12.8524 -12.8328
     1.5430   1.5461   1.5500   1.5525   1.5531   1.5589   1.5597   1.5651
     1.5840   1.5858  11.3443  12.2111  16.2914  16.5415  16.8767  17.0532
    17.0939  17.3341  17.4078  17.5364  17.7719  17.8826  18.0461  18.2731
    18.6895  18.8629  18.9824  19.2420  19.3631  19.4576  19.7323  20.2027
    20.5130  20.5817  20.7263  20.9451  21.0572  21.3299  21.3415  21.6063
    22.2553  22.4369  22.5129  22.7997  23.0487  23.3786  24.0701  24.3445
    24.9420  25.6777  26.2620  27.1245  28.2654  28.4392  28.7983  28.8203
    29.0982

          k = 0.2000 0.1155 0.1808 (  5078 PWs)   bands (ev):

   -89.0663 -89.0478 -47.6690 -47.6620 -47.6590 -47.6587 -47.6534 -47.6491
   -40.4269 -40.3771 -40.3718 -40.3642 -40.3409 -40.3402 -13.4276 -13.4007
   -13.3267 -13.3129 -13.2665 -13.2276 -13.2050 -13.1650 -13.1558 -13.0671
   -12.9644 -12.9472 -12.9098 -12.8850 -12.8813 -12.8649 -12.8610 -12.8352
     1.5435   1.5458   1.5463   1.5479   1.5538   1.5581   1.5648   1.5695
     1.5815   1.5840  11.4386  12.1867  16.4659  16.6622  16.7697  16.9425
    17.1420  17.3267  17.3514  17.5423  17.7210  17.8829  17.9730  18.2398
    18.7375  18.9946  19.2627  19.3080  19.3302  19.4408  19.6288  20.2681
    20.4812  20.4844  20.5852  21.0536  21.0667  21.2631  21.2760  21.5497
    22.0839  22.2191  22.3259  22.5663  23.2783  23.4022  23.8639  23.9605
    24.9648  25.6719  26.4491  27.2372  27.7678  28.3705  28.8138  29.3253
    29.4132

          k = 0.2000 0.1155 0.3616 (  5067 PWs)   bands (ev):

   -89.0616 -89.0408 -47.6688 -47.6630 -47.6604 -47.6540 -47.6512 -47.6378
   -40.4173 -40.3742 -40.3693 -40.3672 -40.3467 -40.3444 -13.4083 -13.4008
   -13.3614 -13.3500 -13.2877 -13.2672 -13.2187 -13.1004 -13.0623 -13.0069
   -12.9797 -12.9573 -12.9251 -12.8985 -12.8870 -12.8657 -12.8601 -12.8369
     1.5406   1.5410   1.5457   1.5490   1.5549   1.5581   1.5698   1.5740
     1.5758   1.5778  11.6699  12.1338  16.3089  16.6269  17.0456  17.0628
    17.1888  17.3635  17.4735  17.5756  17.7191  17.7928  18.2413  18.2489
    18.4492  18.7030  18.9167  19.3696  19.5525  19.6259  20.1217  20.2333
    20.3868  20.5077  20.6449  20.9420  20.9724  21.0706  21.1841  21.3442
    21.5390  22.0832  22.2232  22.6876  22.9476  23.1104  23.1504  23.7169
    24.6367  25.5599  27.0260  27.4792  28.0716  28.3766  28.9743  29.6629
    29.9462

          k = 0.2000 0.1155 0.5424 (  5053 PWs)   bands (ev):

   -89.0516 -89.0374 -47.6647 -47.6606 -47.6587 -47.6567 -47.6434 -47.6321
   -40.4016 -40.3856 -40.3629 -40.3599 -40.3548 -40.3524 -13.4025 -13.3975
   -13.3629 -13.3555 -13.3396 -13.3242 -13.1385 -13.0476 -13.0455 -12.9965
   -12.9858 -12.9466 -12.9433 -12.9000 -12.8858 -12.8709 -12.8561 -12.8417
     1.5412   1.5419   1.5450   1.5469   1.5561   1.5570   1.5713   1.5720
     1.5744   1.5748  11.9136  12.0614  16.1942  16.4677  16.9679  17.1248
    17.1786  17.3989  17.6362  17.9008  17.9309  18.1864  18.1980  18.2617
    18.3674  18.6414  18.8338  19.3008  19.3103  19.6844  19.7758  20.3268
    20.3715  20.4276  20.6769  20.9190  20.9465  20.9723  21.1042  21.2005
    21.7746  22.2041  22.2124  22.3551  22.5168  22.5408  23.0363  23.3985
    24.6801  25.1465  27.6973  27.8207  27.9103  28.5532  29.4950  29.9708
    30.1008

          k = 0.2000 0.3079 0.0000 (  5075 PWs)   bands (ev):

   -89.0641 -89.0482 -47.6703 -47.6653 -47.6562 -47.6541 -47.6513 -47.6501
   -40.4234 -40.3839 -40.3773 -40.3577 -40.3396 -40.3388 -13.4275 -13.3552
   -13.2592 -13.2496 -13.2487 -13.2415 -13.2394 -13.1712 -13.1182 -13.1002
   -12.9753 -12.9683 -12.9542 -12.9538 -12.8866 -12.8666 -12.8539 -12.8415
     1.5497   1.5521   1.5522   1.5574   1.5587   1.5605   1.5655   1.5734
     1.5808   1.5854  11.5992  12.2723  16.2342  16.3956  16.5327  16.9795
    17.1284  17.3614  17.3702  17.6668  17.7220  18.0407  18.1465  18.4383
    18.6209  18.7206  18.7339  19.3511  19.3813  19.5077  19.5082  19.9645
    20.2652  20.6931  20.7415  20.8199  21.0183  21.1154  21.2420  21.3495
    21.9907  22.1355  22.6772  22.8826  23.2798  23.4914  24.0720  24.5218
    25.8980  26.1247  26.2108  27.4262  27.4277  27.5583  28.5334  29.2189
    29.5431

          k = 0.2000 0.3079 0.1808 (  5088 PWs)   bands (ev):

   -89.0687 -89.0563 -47.6723 -47.6694 -47.6603 -47.6563 -47.6557 -47.6508
   -40.4197 -40.3826 -40.3771 -40.3599 -40.3421 -40.3414 -13.4096 -13.3586
   -13.3274 -13.2984 -13.2416 -13.2194 -13.1743 -13.1708 -13.1461 -13.0743
   -12.9868 -12.9862 -12.9396 -12.9347 -12.8898 -12.8646 -12.8619 -12.8554
     1.5482   1.5506   1.5516   1.5539   1.5577   1.5625   1.5673   1.5752
     1.5778   1.5827  11.6808  12.2613  16.3228  16.4101  16.7424  16.8395
    17.1028  17.1701  17.5230  17.6430  17.8301  17.9255  18.0777  18.4075
    18.6960  18.8932  19.1120  19.1961  19.2365  19.3688  19.4893  19.8983
    20.2238  20.5307  20.7669  20.8647  20.9506  21.1133  21.1264  21.4804
    21.9637  22.1217  22.3433  22.6818  23.3108  23.3851  23.9404  24.5997
    25.5386  25.7495  26.4083  27.4351  27.7325  27.7535  28.9033  29.5457
    29.7027

          k = 0.2000 0.3079 0.3616 (  5068 PWs)   bands (ev):

   -89.0624 -89.0425 -47.6707 -47.6663 -47.6581 -47.6520 -47.6508 -47.6391
   -40.4109 -40.3762 -40.3747 -40.3635 -40.3484 -40.3461 -13.3837 -13.3641
   -13.3542 -13.3252 -13.2632 -13.2462 -13.1811 -13.1363 -13.0676 -13.0158
   -13.0084 -12.9930 -12.9292 -12.9188 -12.9092 -12.8814 -12.8591 -12.8542
     1.5447   1.5479   1.5533   1.5546   1.5586   1.5623   1.5705   1.5726
     1.5781   1.5786  11.8805  12.2448  16.3622  16.3969  16.7664  17.0933
    17.1414  17.2887  17.5954  17.6073  17.8234  17.9887  18.1251  18.3623
    18.4353  18.8273  18.8914  19.0995  19.2926  19.5016  19.7171  20.0689
    20.1857  20.4196  20.6310  20.7017  20.8713  21.0132  21.1122  21.4803
    21.5758  21.8003  22.3060  22.4350  22.9571  23.5609  23.6721  23.7797
    25.2710  25.5175  26.8707  27.8411  28.1489  28.6324  29.1019  29.4081
    30.1030

          k = 0.2000 0.3079 0.5424 (  5058 PWs)   bands (ev):

   -89.0500 -89.0441 -47.6658 -47.6640 -47.6599 -47.6568 -47.6399 -47.6369
   -40.3970 -40.3828 -40.3676 -40.3609 -40.3570 -40.3528 -13.3780 -13.3696
   -13.3499 -13.3448 -13.2959 -13.2860 -13.1310 -13.0932 -13.0496 -13.0428
   -12.9941 -12.9591 -12.9292 -12.9243 -12.9171 -12.8828 -12.8626 -12.8545
     1.5460   1.5485   1.5518   1.5526   1.5601   1.5610   1.5696   1.5704
     1.5768   1.5785  12.0880  12.2041  16.2475  16.3721  17.0359  17.0638
    17.1358  17.3388  17.6746  17.7608  17.9476  18.0640  18.2177  18.3432
    18.5041  18.5722  18.8001  18.8252  19.3558  19.5377  19.5610  20.1581
    20.2240  20.3222  20.6642  20.7582  20.8357  20.8558  21.0520  21.1850
    21.7941  21.8777  22.1363  22.2445  22.4898  22.6578  23.6990  23.7635
    25.1430  25.2917  27.6905  28.0171  28.5689  28.9603  29.1950  29.7554
    30.2617

          k = 0.2000 0.5004 0.0000 (  5072 PWs)   bands (ev):

   -89.0585 -89.0517 -47.6720 -47.6609 -47.6590 -47.6525 -47.6498 -47.6486
   -40.4135 -40.3919 -40.3822 -40.3529 -40.3419 -40.3383 -13.4129 -13.2936
   -13.2650 -13.2531 -13.2443 -13.2135 -13.1933 -13.1581 -13.1076 -13.0676
   -13.0335 -13.0071 -12.9761 -12.9605 -12.9323 -12.8992 -12.8642 -12.8341
     1.5538   1.5548   1.5586   1.5612   1.5652   1.5664   1.5700   1.5748
     1.5771   1.5853  11.9392  12.2409  15.8374  16.3275  16.6165  16.9204
    16.9357  17.1897  17.5471  17.7485  17.9949  18.0983  18.1583  18.3950
    18.5541  18.6999  18.7379  19.0842  19.5302  19.5811  19.7241  19.9016
    20.0057  20.5698  20.7589  20.8010  20.8509  20.8938  21.0891  21.2267
    21.4424  21.9921  22.5804  22.8275  22.9868  24.2634  24.7518  25.2280
    25.7478  26.0222  26.3518  26.6445  27.6716  28.2688  28.5271  29.3841
    29.5593

          k = 0.2000 0.5004 0.1808 (  5079 PWs)   bands (ev):

   -89.0655 -89.0518 -47.6744 -47.6666 -47.6604 -47.6538 -47.6517 -47.6460
   -40.4104 -40.3903 -40.3808 -40.3546 -40.3442 -40.3416 -13.3969 -13.3315
   -13.2941 -13.2729 -13.2427 -13.1997 -13.1601 -13.1357 -13.0941 -13.0793
   -13.0701 -13.0402 -12.9511 -12.9377 -12.9116 -12.8959 -12.8638 -12.8545
     1.5504   1.5556   1.5588   1.5617   1.5640   1.5658   1.5710   1.5724
     1.5789   1.5820  11.9959  12.2613  15.9761  16.3078  16.5292  16.9015
    17.0627  17.1406  17.6710  17.7176  17.9600  18.0064  18.2972  18.4654
    18.6483  18.7080  18.9232  19.1573  19.2888  19.3799  19.6877  19.7219
    19.8446  20.4539  20.5843  20.6837  20.8682  21.1098  21.1435  21.2927
    21.4438  22.0797  22.1723  22.9635  23.0970  23.9362  24.3351  25.1104
    25.4695  25.6504  26.7047  27.3513  27.7176  28.5050  28.9428  29.2161
    29.5011

          k = 0.2000 0.5004 0.3616 (  5085 PWs)   bands (ev):

   -89.0687 -89.0543 -47.6763 -47.6682 -47.6630 -47.6541 -47.6517 -47.6478
   -40.4012 -40.3855 -40.3774 -40.3584 -40.3523 -40.3479 -13.3671 -13.3510
   -13.3289 -13.2925 -13.2504 -13.2250 -13.1471 -13.1261 -13.0849 -13.0769
   -13.0513 -13.0239 -12.9604 -12.9179 -12.9046 -12.8941 -12.8778 -12.8637
     1.5478   1.5560   1.5578   1.5615   1.5633   1.5661   1.5672   1.5710
     1.5767   1.5811  12.1365  12.3069  16.1725  16.2477  16.5986  16.9482
    17.1541  17.2271  17.6530  17.8122  18.0068  18.1530  18.3018  18.3763
    18.4867  18.7082  18.8456  18.9503  19.3151  19.4048  19.5897  19.7901
    19.8184  20.3402  20.4709  20.5089  20.7722  20.8719  21.2459  21.3088
    21.5621  21.6026  22.1941  22.6708  22.9800  23.2870  23.9562  24.5161
    25.4471  25.9370  27.0571  28.0308  28.2536  28.3225  29.1937  29.6833
    29.7843

          k = 0.2000 0.5004 0.5424 (  5080 PWs)   bands (ev):

   -89.0609 -89.0553 -47.6752 -47.6701 -47.6634 -47.6593 -47.6431 -47.6421
   -40.3886 -40.3813 -40.3741 -40.3653 -40.3580 -40.3542 -13.3691 -13.3448
   -13.3298 -13.3012 -13.2647 -13.2460 -13.1317 -13.1265 -13.0876 -13.0814
   -13.0082 -12.9933 -12.9548 -12.9522 -12.9055 -12.8859 -12.8762 -12.8682
     1.5496   1.5554   1.5571   1.5601   1.5620   1.5624   1.5679   1.5697
     1.5772   1.5804  12.2761  12.3311  16.1394  16.2182  16.9376  16.9840
    17.3183  17.3905  17.6476  17.7735  17.9992  18.1184  18.1621  18.2259
    18.3517  18.4527  18.9827  19.0990  19.2911  19.3544  19.4874  19.9685
    20.0445  20.1953  20.3979  20.4621  20.6340  20.7630  21.1989  21.2347
    21.6410  21.7837  21.9179  22.2809  22.4390  22.4688  24.2083  24.6732
    25.2421  25.9083  27.2988  27.7919  28.9741  29.3518  29.3919  29.8286
    30.1342

          k = 0.2000-0.4619 0.0000 (  5078 PWs)   bands (ev):

   -89.0641 -89.0519 -47.6711 -47.6658 -47.6580 -47.6535 -47.6521 -47.6505
   -40.4153 -40.3904 -40.3820 -40.3536 -40.3417 -40.3385 -13.4176 -13.3020
   -13.2665 -13.2531 -13.2428 -13.2190 -13.2030 -13.1573 -13.1118 -13.0603
   -13.0404 -13.0015 -12.9773 -12.9579 -12.9256 -12.8905 -12.8651 -12.8361
     1.5535   1.5544   1.5580   1.5600   1.5638   1.5647   1.5695   1.5760
     1.5770   1.5851  11.8784  12.2586  15.8952  16.2991  16.7101  16.8394
    16.9433  17.2321  17.5674  17.7018  17.9275  18.0888  18.2229  18.3828
    18.5394  18.7070  18.7547  19.0836  19.5180  19.5550  19.8250  19.8482
    19.9565  20.6404  20.7465  20.7940  20.8443  20.9182  21.1145  21.2562
    21.5536  22.0004  22.5919  22.8455  23.0115  24.2167  24.4930  25.0925
    25.9240  26.0617  26.4512  26.7232  27.4070  28.1478  28.5406  29.4935
    29.5185

          k = 0.2000-0.4619 0.1808 (  5075 PWs)   bands (ev):

   -89.0622 -89.0506 -47.6710 -47.6680 -47.6582 -47.6528 -47.6503 -47.6468
   -40.4118 -40.3886 -40.3804 -40.3553 -40.3434 -40.3415 -13.3977 -13.3306
   -13.3029 -13.2764 -13.2348 -13.2064 -13.1612 -13.1459 -13.0925 -13.0864
   -13.0538 -13.0290 -12.9486 -12.9391 -12.9070 -12.8888 -12.8637 -12.8551
     1.5503   1.5552   1.5583   1.5604   1.5626   1.5650   1.5709   1.5736
     1.5789   1.5823  11.9416  12.2735  16.0319  16.2883  16.5994  16.8745
    17.0603  17.1633  17.6649  17.6918  17.8912  18.0066  18.2657  18.5181
    18.6453  18.7367  18.9116  19.1780  19.2877  19.3704  19.6597  19.7465
    19.8564  20.5149  20.5795  20.7056  20.8595  21.1111  21.1395  21.3382
    21.5445  22.0695  22.1962  22.9566  23.1138  23.7973  24.2983  25.0759
    25.5112  25.6252  26.7642  27.3458  27.5499  28.3786  29.1275  29.2198
    29.4697

          k = 0.2000-0.4619 0.3616 (  5078 PWs)   bands (ev):

   -89.0662 -89.0496 -47.6748 -47.6683 -47.6607 -47.6525 -47.6495 -47.6459
   -40.4028 -40.3833 -40.3771 -40.3593 -40.3513 -40.3478 -13.3673 -13.3520
   -13.3336 -13.2990 -13.2481 -13.2294 -13.1515 -13.1361 -13.0791 -13.0655
   -13.0446 -13.0166 -12.9534 -12.9197 -12.9031 -12.8885 -12.8774 -12.8613
     1.5475   1.5551   1.5573   1.5607   1.5627   1.5653   1.5682   1.5711
     1.5771   1.5811  12.0947  12.3064  16.1929  16.2901  16.6011  16.9872
    17.1712  17.2142  17.6307  17.7704  17.9709  18.0960  18.2813  18.3980
    18.4943  18.7797  18.8479  18.9693  19.3020  19.4074  19.5661  19.8240
    19.8454  20.4082  20.4741  20.5237  20.7810  20.8911  21.2439  21.3658
    21.5561  21.6219  22.2161  22.5987  22.9683  23.3555  23.9424  24.3831
    25.4173  25.9198  26.9301  28.1578  28.2189  28.3939  29.1376  29.5475
    29.8259

          k = 0.2000-0.4619 0.5424 (  5069 PWs)   bands (ev):

   -89.0561 -89.0489 -47.6698 -47.6658 -47.6620 -47.6577 -47.6424 -47.6402
   -40.3902 -40.3807 -40.3729 -40.3642 -40.3577 -40.3538 -13.3703 -13.3451
   -13.3339 -13.3121 -13.2633 -13.2501 -13.1300 -13.1272 -13.0804 -13.0716
   -13.0045 -12.9836 -12.9517 -12.9458 -12.9070 -12.8807 -12.8765 -12.8652
     1.5496   1.5546   1.5562   1.5594   1.5621   1.5629   1.5679   1.5699
     1.5773   1.5803  12.2486  12.3174  16.1663  16.2362  16.9571  17.0120
    17.2740  17.3700  17.6559  17.7527  17.9775  18.1049  18.1766  18.2508
    18.3820  18.4548  19.0066  19.1345  19.2933  19.3024  19.4537  19.9661
    20.0611  20.1984  20.4744  20.5449  20.6510  20.7670  21.1847  21.2391
    21.6723  21.7762  21.9643  22.2440  22.4419  22.5127  24.1551  24.5228
    25.2392  25.7733  27.3752  27.9570  28.8599  29.2386  29.3478  29.8824
    30.1456

          k = 0.2000-0.2694 0.0000 (  5077 PWs)   bands (ev):

   -89.0629 -89.0517 -47.6693 -47.6642 -47.6607 -47.6547 -47.6516 -47.6500
   -40.4248 -40.3831 -40.3763 -40.3588 -40.3394 -40.3387 -13.4300 -13.3680
   -13.2585 -13.2573 -13.2485 -13.2480 -13.2410 -13.1774 -13.1326 -13.0960
   -12.9743 -12.9537 -12.9536 -12.9387 -12.8832 -12.8641 -12.8463 -12.8421
     1.5480   1.5510   1.5516   1.5562   1.5578   1.5601   1.5639   1.5709
     1.5816   1.5859  11.5351  12.2618  16.2936  16.4688  16.5015  16.9992
    17.2057  17.2816  17.4042  17.6592  17.6916  17.9936  18.1157  18.4053
    18.7167  18.7304  18.7401  19.3435  19.4020  19.4554  19.5227  20.0112
    20.3362  20.6730  20.7232  20.8410  21.0339  21.2578  21.2707  21.3512
    22.0391  22.2091  22.7043  22.8985  23.2605  23.3469  24.0897  24.3940
    25.7438  25.9553  26.2289  27.4096  27.6327  27.6822  28.5312  29.1708
    29.5227

          k = 0.2000-0.2694 0.1808 (  5087 PWs)   bands (ev):

   -89.0709 -89.0532 -47.6761 -47.6678 -47.6603 -47.6570 -47.6540 -47.6488
   -40.4217 -40.3814 -40.3755 -40.3612 -40.3419 -40.3410 -13.4140 -13.3688
   -13.3268 -13.3020 -13.2491 -13.2229 -13.1791 -13.1724 -13.1532 -13.0717
   -12.9787 -12.9722 -12.9373 -12.9266 -12.8851 -12.8664 -12.8619 -12.8472
     1.5477   1.5487   1.5502   1.5523   1.5568   1.5616   1.5664   1.5740
     1.5787   1.5833  11.6188  12.2473  16.3544  16.5127  16.7283  16.8537
    17.1111  17.1810  17.5181  17.5953  17.8451  17.8785  18.0466  18.3689
    18.7313  18.9045  19.1017  19.2036  19.2968  19.4035  19.4552  19.9996
    20.2848  20.5144  20.7283  20.9243  21.0198  21.1223  21.1832  21.4778
    22.0214  22.1606  22.3980  22.5582  23.3336  23.3742  23.8796  24.4300
    25.5524  25.6672  26.3613  27.4484  27.6421  27.8830  28.9250  29.4895
    29.6214

          k = 0.2000-0.2694 0.3616 (  5068 PWs)   bands (ev):

   -89.0635 -89.0411 -47.6709 -47.6653 -47.6591 -47.6539 -47.6507 -47.6371
   -40.4125 -40.3755 -40.3733 -40.3647 -40.3482 -40.3456 -13.3898 -13.3734
   -13.3552 -13.3313 -13.2719 -13.2492 -13.1934 -13.1288 -13.0660 -13.0111
   -12.9953 -12.9875 -12.9284 -12.9101 -12.9077 -12.8827 -12.8574 -12.8486
     1.5437   1.5461   1.5509   1.5538   1.5578   1.5614   1.5703   1.5737
     1.5776   1.5780  11.8280  12.2209  16.3706  16.4388  16.8282  17.0837
    17.1776  17.2925  17.5615  17.5998  17.7924  17.9951  18.0956  18.3394
    18.4295  18.7778  18.8706  19.1777  19.3310  19.5153  19.8485  20.1356
    20.2353  20.4099  20.6550  20.7736  20.9088  21.0294  21.0867  21.4611
    21.5862  21.8500  22.2555  22.5118  22.9564  23.4736  23.5792  23.7451
    25.0872  25.5538  26.8899  27.7322  28.1050  28.6162  29.0770  29.4340
    30.1644

          k = 0.2000-0.2694 0.5424 (  5058 PWs)   bands (ev):

   -89.0522 -89.0419 -47.6666 -47.6614 -47.6600 -47.6556 -47.6415 -47.6380
   -40.3984 -40.3837 -40.3667 -40.3603 -40.3566 -40.3524 -13.3840 -13.3722
   -13.3542 -13.3466 -13.3095 -13.2961 -13.1325 -13.0827 -13.0476 -13.0300
   -12.9922 -12.9590 -12.9270 -12.9167 -12.9127 -12.8851 -12.8595 -12.8546
     1.5452   1.5467   1.5501   1.5511   1.5590   1.5601   1.5700   1.5708
     1.5761   1.5780  12.0454  12.1703  16.2457  16.4093  17.0064  17.0489
    17.1734  17.3599  17.6552  17.8009  17.9520  18.0676  18.2344  18.3219
    18.5297  18.5984  18.7125  18.8474  19.3546  19.5894  19.6296  20.1949
    20.2863  20.3740  20.6843  20.7869  20.8716  20.9114  21.0113  21.1700
    21.8295  21.9083  22.1486  22.2823  22.5060  22.6783  23.5081  23.6518
    25.0196  25.2851  27.7263  27.9271  28.3914  28.9345  29.2792  29.7506
    30.2963

          k = 0.2000-0.0770 0.0000 (  5083 PWs)   bands (ev):

   -89.0665 -89.0525 -47.6694 -47.6639 -47.6590 -47.6584 -47.6544 -47.6530
   -40.4305 -40.3788 -40.3736 -40.3613 -40.3389 -40.3385 -13.4427 -13.4071
   -13.2808 -13.2531 -13.2525 -13.2483 -13.2454 -13.1962 -13.1774 -13.0881
   -12.9715 -12.9574 -12.9005 -12.8802 -12.8664 -12.8594 -12.8533 -12.8340
     1.5424   1.5455   1.5498   1.5524   1.5526   1.5587   1.5592   1.5640
     1.5844   1.5861  11.3192  12.2030  16.2687  16.6148  16.8739  17.0239
    17.1243  17.3297  17.3918  17.5613  17.7827  17.8905  18.0197  18.2503
    18.6770  18.8972  19.0082  19.2287  19.3513  19.4588  19.7933  20.2315
    20.5288  20.5815  20.7158  20.9558  21.0735  21.3253  21.3562  21.6231
    22.3054  22.3994  22.4715  22.8139  23.0750  23.3975  24.0026  24.3523
    24.9052  25.5977  26.2665  27.1225  28.3513  28.4854  28.6515  28.8373
    29.0990

          k = 0.2000-0.0770 0.1808 (  5080 PWs)   bands (ev):

   -89.0660 -89.0502 -47.6666 -47.6639 -47.6598 -47.6591 -47.6545 -47.6501
   -40.4272 -40.3764 -40.3721 -40.3643 -40.3410 -40.3403 -13.4290 -13.4072
   -13.3270 -13.3158 -13.2691 -13.2298 -13.2094 -13.1644 -13.1569 -13.0685
   -12.9631 -12.9477 -12.9010 -12.8865 -12.8768 -12.8643 -12.8559 -12.8346
     1.5433   1.5450   1.5457   1.5469   1.5533   1.5578   1.5645   1.5687
     1.5817   1.5839  11.4142  12.1764  16.4683  16.7067  16.7571  16.9417
    17.1702  17.3109  17.3420  17.5572  17.7287  17.8767  17.9435  18.2176
    18.7303  19.0281  19.2569  19.3141  19.3947  19.4446  19.6571  20.2940
    20.4792  20.4970  20.6063  21.0414  21.0668  21.1885  21.3649  21.5749
    22.0012  22.2472  22.3870  22.5732  23.2560  23.3947  23.8794  23.9190
    24.8484  25.6647  26.4787  27.2299  27.8076  28.3322  28.9102  29.1777
    29.4381

          k = 0.2000-0.0770 0.3616 (  5063 PWs)   bands (ev):

   -89.0612 -89.0372 -47.6689 -47.6616 -47.6589 -47.6529 -47.6512 -47.6362
   -40.4180 -40.3738 -40.3692 -40.3668 -40.3462 -40.3445 -13.4093 -13.4034
   -13.3624 -13.3522 -13.2880 -13.2700 -13.2205 -13.0949 -13.0603 -13.0086
   -12.9786 -12.9542 -12.9243 -12.8936 -12.8854 -12.8684 -12.8539 -12.8352
     1.5400   1.5403   1.5454   1.5483   1.5545   1.5578   1.5695   1.5735
     1.5763   1.5781  11.6482  12.1212  16.2944  16.6667  17.0220  17.0815
    17.2204  17.3599  17.4631  17.5738  17.6814  17.8032  18.2203  18.2276
    18.4992  18.7306  18.9159  19.3697  19.5929  19.6708  20.1617  20.2446
    20.3658  20.5269  20.6700  20.9445  20.9719  21.0695  21.1355  21.4008
    21.5601  22.0560  22.3042  22.6636  22.9576  23.0665  23.0834  23.6786
    24.6084  25.5353  27.0486  27.4683  28.0444  28.4072  28.9937  29.5599
    29.8834

          k = 0.2000-0.0770 0.5424 (  5055 PWs)   bands (ev):

   -89.0506 -89.0404 -47.6636 -47.6622 -47.6607 -47.6555 -47.6422 -47.6350
   -40.4022 -40.3861 -40.3628 -40.3602 -40.3544 -40.3519 -13.4055 -13.4001
   -13.3680 -13.3584 -13.3417 -13.3268 -13.1394 -13.0480 -13.0390 -12.9926
   -12.9849 -12.9469 -12.9433 -12.9023 -12.8818 -12.8686 -12.8533 -12.8436
     1.5408   1.5411   1.5445   1.5462   1.5555   1.5565   1.5714   1.5718
     1.5738   1.5744  11.8952  12.0450  16.1820  16.4667  16.9859  17.1155
    17.1999  17.3736  17.6624  17.8743  17.9479  18.1740  18.1895  18.2248
    18.4014  18.6860  18.8760  19.2992  19.3844  19.6900  19.7811  20.3334
    20.3813  20.4434  20.6492  20.9106  20.9628  20.9973  21.1262  21.1961
    21.7751  22.1763  22.2987  22.3783  22.4665  22.5342  23.0011  23.3567
    24.6509  25.0959  27.6822  27.7783  27.9104  28.5115  29.4371  30.0054
    30.1026

          k = 0.4000 0.2309 0.0000 (  5085 PWs)   bands (ev):

   -89.0688 -89.0538 -47.6692 -47.6683 -47.6589 -47.6587 -47.6562 -47.6494
   -40.4183 -40.3923 -40.3743 -40.3593 -40.3398 -40.3385 -13.4227 -13.3249
   -13.2718 -13.2678 -13.2468 -13.2145 -13.2016 -13.1280 -13.1136 -13.0879
   -13.0242 -12.9822 -12.9816 -12.9620 -12.9556 -12.8851 -12.8394 -12.8321
     1.5484   1.5516   1.5533   1.5596   1.5639   1.5656   1.5687   1.5769
     1.5776   1.5858  11.7820  12.2626  15.8099  16.5641  16.6580  16.7315
    17.2148  17.2400  17.4863  17.6476  17.9014  17.9668  18.3000  18.4382
    18.6217  18.6335  18.8199  19.3541  19.3553  19.4221  19.6868  20.0064
    20.1843  20.5065  20.6675  20.6745  20.8537  20.9234  21.2218  21.2461
    21.3762  22.3407  22.6282  22.8774  23.3743  23.8805  24.1537  24.8157
    25.7221  26.3549  27.2611  27.3641  27.3890  27.6181  27.9795  28.8938
    29.1713

          k = 0.4000 0.2309 0.1808 (  5088 PWs)   bands (ev):

   -89.0687 -89.0566 -47.6697 -47.6686 -47.6625 -47.6593 -47.6564 -47.6477
   -40.4154 -40.3907 -40.3726 -40.3611 -40.3433 -40.3398 -13.4041 -13.3558
   -13.2939 -13.2814 -13.2532 -13.1864 -13.1705 -13.1349 -13.1294 -13.0771
   -13.0281 -13.0060 -12.9830 -12.9410 -12.9223 -12.8808 -12.8608 -12.8373
     1.5488   1.5493   1.5521   1.5610   1.5615   1.5663   1.5706   1.5747
     1.5792   1.5826  11.8508  12.2699  15.9159  16.3624  16.7284  16.9658
    17.1121  17.2656  17.5191  17.7543  17.8064  17.9079  18.3287  18.3988
    18.6965  18.9168  18.9211  19.0472  19.3579  19.3901  19.6108  19.9217
    20.1524  20.3458  20.4596  20.5432  21.0789  21.0955  21.1136  21.1685
    21.3650  22.1741  22.5403  22.9318  23.5110  23.5591  24.0540  24.6050
    25.4593  26.0561  27.1291  27.4563  27.8625  28.0290  28.1754  29.1385
    29.6560

          k = 0.4000 0.2309 0.3616 (  5084 PWs)   bands (ev):

   -89.0681 -89.0525 -47.6749 -47.6650 -47.6628 -47.6618 -47.6506 -47.6445
   -40.4054 -40.3855 -40.3681 -40.3660 -40.3517 -40.3455 -13.3930 -13.3706
   -13.3164 -13.3070 -13.2629 -13.2093 -13.1581 -13.1547 -13.0976 -13.0310
   -13.0209 -13.0119 -12.9789 -12.9114 -12.9048 -12.8906 -12.8696 -12.8463
     1.5472   1.5489   1.5509   1.5604   1.5616   1.5666   1.5693   1.5724
     1.5770   1.5819  12.0219  12.2870  16.0830  16.2268  16.9365  16.9579
    17.2208  17.4178  17.4858  17.6447  17.9905  18.0661  18.2173  18.3500
    18.4497  18.8042  19.0018  19.1273  19.3642  19.4537  19.5487  19.9163
    20.0855  20.2735  20.3179  20.3533  20.8521  20.9438  21.2308  21.3708
    21.3931  21.5008  22.2777  22.8153  23.0276  23.6733  24.0793  24.0933
    24.6680  26.1645  27.5786  27.7705  28.2722  28.5866  28.7993  29.3653
    29.5031

          k = 0.4000 0.2309 0.5424 (  5068 PWs)   bands (ev):

   -89.0572 -89.0468 -47.6731 -47.6689 -47.6617 -47.6559 -47.6417 -47.6358
   -40.3923 -40.3823 -40.3694 -40.3628 -40.3601 -40.3525 -13.3941 -13.3759
   -13.3140 -13.2902 -13.2717 -13.2671 -13.1323 -13.1097 -13.0917 -13.0641
   -13.0125 -12.9963 -12.9405 -12.9172 -12.9147 -12.8772 -12.8707 -12.8549
     1.5489   1.5503   1.5518   1.5554   1.5608   1.5631   1.5693   1.5712
     1.5787   1.5819  12.1949  12.2812  16.0877  16.2329  17.0290  17.0956
    17.2659  17.4419  17.5660  17.6368  18.0237  18.1820  18.2861  18.3031
    18.4605  18.5242  18.9385  19.0107  19.2747  19.4370  19.6068  20.0616
    20.1283  20.1891  20.3280  20.3622  20.5894  20.8052  21.1482  21.2165
    21.7194  21.7595  21.8745  22.4188  22.5666  23.0722  23.6423  23.7965
    25.3779  26.2419  27.8026  28.0825  28.4044  28.6604  29.5808  29.5936
    30.0404

          k = 0.4000 0.4234 0.0000 (  5078 PWs)   bands (ev):

   -89.0606 -89.0560 -47.6705 -47.6626 -47.6601 -47.6561 -47.6526 -47.6495
   -40.4126 -40.3944 -40.3809 -40.3537 -40.3417 -40.3384 -13.4126 -13.2943
   -13.2677 -13.2559 -13.2515 -13.2065 -13.1800 -13.1579 -13.0997 -13.0719
   -13.0314 -13.0168 -12.9798 -12.9610 -12.9566 -12.8963 -12.8565 -12.8359
     1.5534   1.5539   1.5572   1.5622   1.5665   1.5672   1.5702   1.5736
     1.5776   1.5850  11.9691  12.2225  15.7719  16.4285  16.5019  16.9967
    16.9983  17.1024  17.5602  17.7196  18.0272  18.1355  18.2000  18.2964
    18.5730  18.7235  18.7353  19.1652  19.4929  19.5730  19.6955  19.9159
    20.0840  20.4655  20.6985  20.8182  20.8237  20.8782  21.0930  21.2088
    21.3073  22.0891  22.5789  22.8223  23.0557  24.1959  25.0091  25.2805
    25.3758  26.0544  26.4215  26.7873  27.9282  28.2594  28.4956  29.0748
    29.5073

          k = 0.4000 0.4234 0.1808 (  5071 PWs)   bands (ev):

   -89.0588 -89.0505 -47.6748 -47.6621 -47.6593 -47.6534 -47.6485 -47.6440
   -40.4094 -40.3924 -40.3790 -40.3551 -40.3436 -40.3410 -13.3942 -13.3376
   -13.2827 -13.2657 -13.2548 -13.1847 -13.1614 -13.1159 -13.1016 -13.0749
   -13.0680 -13.0496 -12.9631 -12.9356 -12.9173 -12.8957 -12.8577 -12.8538
     1.5505   1.5542   1.5575   1.5634   1.5654   1.5673   1.5714   1.5724
     1.5796   1.5820  12.0242  12.2487  15.9037  16.3283  16.4973  17.0040
    17.0742  17.1113  17.6703  17.6973  17.9580  18.0704  18.3305  18.3719
    18.6532  18.7340  18.9525  19.0991  19.3551  19.3928  19.6967  19.7203
    19.8829  20.3648  20.5413  20.6184  20.9123  21.1141  21.1278  21.2408
    21.3056  22.1467  22.2184  22.9769  23.1718  24.0604  24.1824  25.2482
    25.3549  25.6344  26.7238  27.4368  28.1032  28.4356  28.8141  28.8841
    29.6056

          k = 0.4000 0.4234 0.3616 (  5075 PWs)   bands (ev):

   -89.0604 -89.0520 -47.6718 -47.6663 -47.6623 -47.6519 -47.6495 -47.6453
   -40.3994 -40.3880 -40.3755 -40.3581 -40.3529 -40.3469 -13.3712 -13.3516
   -13.3207 -13.2850 -13.2503 -13.2132 -13.1452 -13.1197 -13.0946 -13.0778
   -13.0449 -13.0269 -12.9700 -12.9136 -12.9042 -12.8963 -12.8748 -12.8597
     1.5485   1.5552   1.5570   1.5622   1.5641   1.5663   1.5685   1.5714
     1.5772   1.5820  12.1574  12.3030  16.1296  16.1710  16.6706  16.9798
    17.1361  17.2579  17.6301  17.8023  18.0677  18.2036  18.2828  18.3931
    18.4443  18.6385  18.9220  18.9695  19.3593  19.4152  19.5790  19.7841
    19.8438  20.2201  20.4209  20.4393  20.7838  20.8772  21.2439  21.2587
    21.5214  21.5760  22.2549  22.7294  23.0289  23.2968  23.9052  24.7325
    25.2406  25.8667  27.5159  27.8526  28.3202  28.3578  29.1769  29.2992
    29.9728

          k = 0.4000 0.4234 0.5424 (  5077 PWs)   bands (ev):

   -89.0592 -89.0542 -47.6758 -47.6726 -47.6601 -47.6595 -47.6422 -47.6396
   -40.3864 -40.3830 -40.3731 -40.3656 -40.3590 -40.3539 -13.3764 -13.3517
   -13.3192 -13.2831 -13.2685 -13.2409 -13.1330 -13.1267 -13.0933 -13.0884
   -13.0104 -13.0027 -12.9507 -12.9468 -12.9045 -12.8843 -12.8726 -12.8680
     1.5501   1.5553   1.5576   1.5590   1.5613   1.5620   1.5689   1.5703
     1.5780   1.5812  12.2885  12.3355  16.0910  16.1952  16.9666  16.9921
    17.3273  17.4298  17.5918  17.7598  18.0491  18.1253  18.1990  18.2226
    18.3415  18.4844  18.9937  19.0747  19.2811  19.3714  19.5350  20.0057
    20.0617  20.1513  20.2848  20.3453  20.5932  20.7644  21.2102  21.2184
    21.6450  21.7656  21.8773  22.4082  22.4605  22.5047  24.1210  24.5839
    25.3435  26.0941  27.4220  27.7294  29.0034  29.1727  29.4891  29.6483
    30.0875

          k = 0.4000 0.6158 0.0000 (  5071 PWs)   bands (ev):

   -89.0566 -89.0527 -47.6689 -47.6612 -47.6581 -47.6526 -47.6505 -47.6492
   -40.4106 -40.3912 -40.3862 -40.3501 -40.3444 -40.3381 -13.4103 -13.2766
   -13.2635 -13.2588 -13.2268 -13.2071 -13.1948 -13.1753 -13.1063 -13.0893
   -13.0121 -13.0044 -12.9741 -12.9676 -12.9292 -12.9023 -12.8819 -12.8332
     1.5544   1.5579   1.5626   1.5636   1.5651   1.5682   1.5688   1.5722
     1.5755   1.5848  12.0440  12.1975  15.8222  16.3295  16.5243  16.8216
    17.0606  17.1664  17.4631  17.8976  18.0029  18.0629  18.1627  18.4443
    18.5689  18.6336  18.6455  19.0730  19.4982  19.6108  19.6381  19.9933
    20.0682  20.5728  20.7994  20.8515  20.8637  20.9145  21.0286  21.1624
    21.4622  21.7728  22.5606  22.7963  22.8441  24.5029  25.2199  25.4391
    25.7045  25.7492  26.1858  26.1862  27.9901  28.3542  28.5752  29.4087
    29.6811

          k = 0.4000 0.6158 0.1808 (  5066 PWs)   bands (ev):

   -89.0555 -89.0487 -47.6706 -47.6625 -47.6586 -47.6516 -47.6467 -47.6446
   -40.4073 -40.3894 -40.3847 -40.3511 -40.3453 -40.3419 -13.3931 -13.3151
   -13.2961 -13.2609 -13.2336 -13.2068 -13.1467 -13.1304 -13.1005 -13.0897
   -13.0604 -13.0495 -12.9417 -12.9297 -12.9127 -12.9037 -12.8827 -12.8495
     1.5520   1.5587   1.5626   1.5635   1.5653   1.5656   1.5710   1.5712
     1.5777   1.5820  12.0924  12.2283  15.9855  16.3210  16.4562  16.7805
    17.0738  17.1110  17.6493  17.8812  18.0145  18.0718  18.3099  18.3438
    18.5162  18.8226  18.9343  19.0929  19.2707  19.3600  19.5181  19.7811
    19.9045  20.4843  20.6614  20.7332  20.8012  21.1187  21.1481  21.2449
    21.5062  21.8696  22.1385  22.9396  22.9761  24.2040  24.5717  24.9331
    25.2438  26.1056  26.5244  27.0988  27.8653  28.3705  29.0494  29.4374
    29.7520

          k = 0.4000 0.6158 0.3616 (  5090 PWs)   bands (ev):

   -89.0671 -89.0616 -47.6744 -47.6706 -47.6655 -47.6551 -47.6519 -47.6509
   -40.3980 -40.3859 -40.3816 -40.3556 -40.3523 -40.3503 -13.3555 -13.3450
   -13.3352 -13.2786 -13.2541 -13.2395 -13.1279 -13.1130 -13.0947 -13.0830
   -13.0620 -13.0386 -12.9584 -12.9164 -12.9027 -12.9003 -12.8807 -12.8730
     1.5479   1.5597   1.5611   1.5627   1.5637   1.5649   1.5674   1.5704
     1.5754   1.5797  12.2087  12.2962  16.2401  16.2627  16.4922  16.7859
    17.1542  17.1989  17.7963  17.9156  18.0349  18.2210  18.2591  18.3651
    18.3959  18.7411  18.7867  18.8244  19.3088  19.3536  19.5029  19.8240
    19.8793  20.3283  20.5338  20.5876  20.7240  20.8302  21.2289  21.2552
    21.5995  21.6843  22.0049  22.7865  22.9578  23.0943  24.1048  24.4114
    25.8650  26.1708  26.8012  27.5422  28.2157  28.2906  29.6127  29.9516
    30.1811

          k = 0.4000 0.6158 0.5424 (  5076 PWs)   bands (ev):

   -89.0594 -89.0529 -47.6719 -47.6714 -47.6669 -47.6575 -47.6410 -47.6392
   -40.3849 -40.3806 -40.3771 -40.3659 -40.3569 -40.3553 -13.3527 -13.3370
   -13.3252 -13.2985 -13.2703 -13.2467 -13.1252 -13.1210 -13.0944 -13.0863
   -13.0077 -12.9963 -12.9695 -12.9514 -12.9009 -12.8923 -12.8730 -12.8714
     1.5502   1.5570   1.5598   1.5617   1.5636   1.5639   1.5680   1.5694
     1.5761   1.5789  12.3206  12.3492  16.1697  16.2082  16.8738  16.8896
    17.3761  17.3989  17.7537  17.8621  18.0185  18.0597  18.1125  18.1482
    18.2923  18.3927  18.9119  19.0118  19.2797  19.4810  19.5312  19.9635
    20.0836  20.2251  20.3750  20.4013  20.6752  20.7442  21.2111  21.2266
    21.5820  21.8371  21.9259  22.1015  22.3759  22.3876  24.5010  24.9079
    25.3531  25.8650  26.9978  27.4196  29.3009  29.4146  29.7225  29.9004
    30.3991

          k = 0.4000-0.3464 0.0000 (  5079 PWs)   bands (ev):

   -89.0623 -89.0550 -47.6738 -47.6631 -47.6574 -47.6556 -47.6534 -47.6497
   -40.4144 -40.3948 -40.3773 -40.3565 -40.3403 -40.3384 -13.4133 -13.3105
   -13.2696 -13.2694 -13.2493 -13.2057 -13.1843 -13.1452 -13.0942 -13.0639
   -13.0405 -13.0147 -12.9822 -12.9641 -12.9596 -12.8889 -12.8408 -12.8360
     1.5506   1.5523   1.5546   1.5616   1.5661   1.5667   1.5708   1.5749
     1.5786   1.5853  11.8956  12.2416  15.7556  16.4635  16.5801  16.8810
    17.1304  17.1376  17.6099  17.6103  17.9600  18.1158  18.2054  18.3982
    18.6016  18.6578  18.7842  19.2884  19.4027  19.4984  19.8130  19.9347
    20.0569  20.4706  20.5674  20.7298  20.8408  20.9026  21.1530  21.2254
    21.2970  22.2535  22.5992  22.8492  23.2310  24.0042  24.6379  25.0451
    25.4722  26.3427  26.7831  27.1219  27.6439  28.0433  28.2106  29.1208
    29.3076

          k = 0.4000-0.3464 0.1808 (  5074 PWs)   bands (ev):

   -89.0587 -89.0529 -47.6682 -47.6664 -47.6587 -47.6575 -47.6494 -47.6455
   -40.4112 -40.3926 -40.3752 -40.3582 -40.3434 -40.3403 -13.3984 -13.3469
   -13.2801 -13.2770 -13.2505 -13.1874 -13.1641 -13.1233 -13.0976 -13.0827
   -13.0524 -13.0386 -12.9763 -12.9402 -12.9184 -12.8835 -12.8559 -12.8447
     1.5505   1.5511   1.5549   1.5626   1.5643   1.5671   1.5718   1.5730
     1.5803   1.5824  11.9569  12.2609  15.8743  16.3038  16.6200  17.0305
    17.1086  17.1718  17.6057  17.7066  17.8707  18.0182  18.3231  18.4527
    18.6307  18.7974  18.9552  19.0591  19.3779  19.4476  19.6878  19.8213
    19.9342  20.3478  20.4402  20.5225  20.9855  21.1020  21.1077  21.2181
    21.2791  22.1598  22.4161  22.9845  23.3446  23.8413  24.0937  24.9805
    25.3397  25.8738  26.9966  27.5593  27.9664  28.1292  28.6118  29.1391
    29.3731

          k = 0.4000-0.3464 0.3616 (  5081 PWs)   bands (ev):

   -89.0651 -89.0528 -47.6754 -47.6641 -47.6624 -47.6572 -47.6499 -47.6462
   -40.4016 -40.3878 -40.3719 -40.3617 -40.3529 -40.3459 -13.3845 -13.3603
   -13.3153 -13.2948 -13.2501 -13.2051 -13.1595 -13.1344 -13.1021 -13.0603
   -13.0345 -13.0248 -12.9733 -12.9129 -12.9045 -12.8924 -12.8709 -12.8512
     1.5481   1.5517   1.5541   1.5615   1.5631   1.5672   1.5680   1.5720
     1.5774   1.5828  12.1047  12.3003  16.0744  16.1580  16.7958  17.0591
    17.1436  17.3178  17.5667  17.7143  18.0487  18.1262  18.2742  18.3923
    18.4733  18.6753  18.9936  19.0819  19.3788  19.4770  19.5408  19.8000
    19.9082  20.2038  20.3190  20.3511  20.8125  20.9168  21.2386  21.2882
    21.4516  21.5318  22.3232  22.7546  23.0546  23.5549  23.8052  24.7055
    24.8478  25.9435  27.6370  28.1159  28.2372  28.6139  28.8666  29.0819
    29.6313

          k = 0.4000-0.3464 0.5424 (  5079 PWs)   bands (ev):

   -89.0580 -89.0576 -47.6752 -47.6735 -47.6625 -47.6614 -47.6406 -47.6392
   -40.3892 -40.3832 -40.3713 -40.3650 -40.3594 -40.3532 -13.3890 -13.3667
   -13.3128 -13.2823 -13.2670 -13.2448 -13.1318 -13.1289 -13.0979 -13.0815
   -13.0167 -12.9975 -12.9484 -12.9330 -12.9089 -12.8796 -12.8726 -12.8647
     1.5496   1.5531   1.5543   1.5568   1.5609   1.5624   1.5693   1.5705
     1.5786   1.5820  12.2524  12.3166  16.0620  16.1905  17.0209  17.0681
    17.2798  17.4627  17.5272  17.7004  18.0465  18.1552  18.2337  18.2654
    18.4289  18.5244  19.0186  19.1199  19.2933  19.3111  19.5466  19.9709
    20.1083  20.1253  20.2767  20.3155  20.5605  20.7666  21.1882  21.2166
    21.6997  21.7283  21.8764  22.4303  22.5309  22.7888  23.9069  24.1369
    25.4677  26.2076  27.6697  28.0647  28.6347  28.8200  29.3998  29.7330
    29.9001

          k = 0.4000-0.1540 0.0000 (  5078 PWs)   bands (ev):

   -89.0644 -89.0514 -47.6692 -47.6684 -47.6579 -47.6557 -47.6522 -47.6482
   -40.4196 -40.3898 -40.3752 -40.3585 -40.3395 -40.3388 -13.4203 -13.3364
   -13.2665 -13.2643 -13.2468 -13.2226 -13.2126 -13.1422 -13.1158 -13.0963
   -13.0046 -12.9783 -12.9711 -12.9551 -12.9338 -12.8816 -12.8382 -12.8372
     1.5484   1.5520   1.5542   1.5581   1.5620   1.5647   1.5679   1.5761
     1.5788   1.5856  11.7221  12.2712  15.9075  16.5620  16.6611  16.7232
    17.2134  17.2714  17.4555  17.6519  17.8430  17.9573  18.3593  18.3596
    18.6105  18.6769  18.7889  19.3242  19.3881  19.4310  19.6285  19.9764
    20.1981  20.5848  20.7094  20.8387  20.8487  20.9471  21.2350  21.2658
    21.5318  22.2864  22.6416  22.8943  23.3251  23.9240  23.9403  24.7452
    25.9238  26.1090  26.9666  27.2923  27.3732  27.6211  28.2461  29.0489
    29.1984

          k = 0.4000-0.1540 0.1808 (  5082 PWs)   bands (ev):

   -89.0681 -89.0513 -47.6714 -47.6666 -47.6607 -47.6566 -47.6544 -47.6466
   -40.4170 -40.3880 -40.3736 -40.3604 -40.3428 -40.3403 -13.4055 -13.3526
   -13.3026 -13.2878 -13.2505 -13.1916 -13.1768 -13.1504 -13.1328 -13.0733
   -13.0120 -12.9990 -12.9648 -12.9338 -12.9156 -12.8789 -12.8614 -12.8410
     1.5490   1.5493   1.5525   1.5589   1.5605   1.5652   1.5701   1.5756
     1.5780   1.5829  11.7952  12.2732  16.0079  16.4300  16.7156  16.9209
    17.1120  17.2387  17.5081  17.7379  17.8236  17.8543  18.2919  18.4045
    18.6942  18.8800  18.9935  19.0989  19.3118  19.3735  19.5595  19.9014
    20.1585  20.4221  20.5434  20.7078  21.0444  21.0955  21.1085  21.2670
    21.5167  22.1691  22.4740  22.8914  23.3757  23.5613  24.0030  24.6273
    25.5008  25.9477  26.8519  27.5083  27.7444  27.8386  28.6578  29.0698
    29.6074

          k = 0.4000-0.1540 0.3616 (  5080 PWs)   bands (ev):

   -89.0655 -89.0510 -47.6740 -47.6669 -47.6621 -47.6579 -47.6484 -47.6442
   -40.4076 -40.3832 -40.3701 -40.3645 -40.3510 -40.3451 -13.3900 -13.3685
   -13.3237 -13.3111 -13.2686 -13.2203 -13.1672 -13.1477 -13.0896 -13.0260
   -13.0144 -12.9989 -12.9685 -12.9125 -12.9063 -12.8893 -12.8721 -12.8482
     1.5462   1.5490   1.5509   1.5598   1.5602   1.5655   1.5701   1.5719
     1.5774   1.5808  11.9759  12.2768  16.1502  16.3090  16.8443  17.0065
    17.2403  17.3582  17.5103  17.6346  17.9339  18.0206  18.2126  18.3652
    18.4273  18.8328  18.9427  19.1258  19.3462  19.4229  19.5878  19.9674
    20.1093  20.3393  20.4180  20.5142  20.8608  20.9546  21.2318  21.3672
    21.4558  21.5701  22.2436  22.7364  22.9974  23.6299  23.8046  24.3877
    24.5201  26.1564  27.1957  27.8270  28.2621  28.5704  28.8936  29.3118
    29.7559

          k = 0.4000-0.1540 0.5424 (  5062 PWs)   bands (ev):

   -89.0548 -89.0430 -47.6690 -47.6629 -47.6624 -47.6582 -47.6411 -47.6350
   -40.3941 -40.3821 -40.3690 -40.3616 -40.3593 -40.3523 -13.3926 -13.3722
   -13.3232 -13.3062 -13.2776 -13.2747 -13.1300 -13.1048 -13.0729 -13.0568
   -13.0015 -12.9893 -12.9373 -12.9216 -12.9116 -12.8801 -12.8704 -12.8551
     1.5481   1.5497   1.5516   1.5548   1.5609   1.5633   1.5694   1.5712
     1.5778   1.5809  12.1618  12.2588  16.1440  16.2830  17.0189  17.0872
    17.2128  17.4751  17.5116  17.7074  17.9949  18.1320  18.2812  18.3483
    18.4314  18.5159  18.8710  18.9837  19.2880  19.4729  19.5821  20.1010
    20.1458  20.2442  20.4542  20.4810  20.6653  20.8391  21.1258  21.2178
    21.7461  21.7662  21.9145  22.3780  22.5427  22.9287  23.6707  23.8488
    25.1960  26.0110  27.7441  28.0640  28.4455  28.7520  29.4222  29.8002
    30.1589

          k = 0.4000 0.0385 0.0000 (  5079 PWs)   bands (ev):

   -89.0720 -89.0444 -47.6747 -47.6681 -47.6550 -47.6541 -47.6531 -47.6477
   -40.4217 -40.3857 -40.3784 -40.3565 -40.3405 -40.3387 -13.4220 -13.3389
   -13.2623 -13.2500 -13.2498 -13.2338 -13.2317 -13.1626 -13.1092 -13.1047
   -12.9869 -12.9768 -12.9714 -12.9555 -12.8988 -12.8729 -12.8535 -12.8424
     1.5507   1.5522   1.5541   1.5582   1.5600   1.5611   1.5663   1.5750
     1.5801   1.5854  11.6704  12.2783  16.1169  16.3646  16.6066  16.9172
    17.0764  17.3321  17.4494  17.6426  17.7795  18.0549  18.2174  18.4503
    18.5312  18.7236  18.7346  19.2831  19.4197  19.4997  19.5793  19.9360
    20.1806  20.6946  20.7675  20.8073  20.9694  20.9924  21.2139  21.3306
    21.8596  22.1153  22.6507  22.8780  23.2109  23.7453  24.0701  24.6709
    25.9572  26.1611  26.4352  27.2129  27.2356  27.6939  28.5197  29.2713
    29.5411

          k = 0.4000 0.0385 0.1808 (  5082 PWs)   bands (ev):

   -89.0650 -89.0542 -47.6704 -47.6692 -47.6590 -47.6549 -47.6536 -47.6494
   -40.4177 -40.3845 -40.3776 -40.3587 -40.3421 -40.3414 -13.4053 -13.3479
   -13.3228 -13.2922 -13.2378 -13.2134 -13.1727 -13.1638 -13.1335 -13.0763
   -13.0028 -12.9956 -12.9451 -12.9373 -12.8944 -12.8719 -12.8605 -12.8552
     1.5489   1.5516   1.5534   1.5558   1.5590   1.5634   1.5686   1.5762
     1.5772   1.5828  11.7496  12.2730  16.2212  16.3725  16.7403  16.8314
    17.0893  17.1844  17.5295  17.6926  17.8131  17.9436  18.1441  18.4494
    18.6570  18.8889  19.0633  19.1829  19.2282  19.3596  19.5358  19.8103
    20.1508  20.5365  20.7405  20.8207  20.8738  21.1045  21.1242  21.4470
    21.8361  22.1112  22.3124  22.8007  23.2605  23.4616  24.0191  24.7587
    25.4967  25.7974  26.5406  27.4057  27.6431  27.8634  28.9338  29.5218
    29.6118

          k = 0.4000 0.0385 0.3616 (  5063 PWs)   bands (ev):

   -89.0595 -89.0405 -47.6694 -47.6657 -47.6571 -47.6510 -47.6483 -47.6388
   -40.4088 -40.3783 -40.3745 -40.3623 -40.3491 -40.3460 -13.3780 -13.3603
   -13.3471 -13.3171 -13.2572 -13.2388 -13.1693 -13.1429 -13.0708 -13.0231
   -13.0188 -12.9967 -12.9361 -12.9199 -12.9062 -12.8809 -12.8648 -12.8547
     1.5457   1.5500   1.5544   1.5567   1.5599   1.5637   1.5708   1.5716
     1.5782   1.5799  11.9389  12.2683  16.2952  16.3847  16.7160  17.0704
    17.1608  17.2743  17.5924  17.6364  17.8731  17.9787  18.1835  18.3932
    18.4285  18.8402  18.9549  19.0251  19.2845  19.4786  19.5885  19.9987
    20.1173  20.4289  20.5852  20.6215  20.8416  20.9800  21.1634  21.4969
    21.5246  21.7379  22.2966  22.4559  22.9617  23.5561  23.7496  23.9530
    25.2303  25.7023  26.8792  27.9442  28.1955  28.6210  29.1277  29.3247
    29.9864

          k = 0.4000 0.0385 0.5424 (  5064 PWs)   bands (ev):

   -89.0517 -89.0484 -47.6669 -47.6644 -47.6608 -47.6572 -47.6425 -47.6398
   -40.3957 -40.3824 -40.3693 -40.3614 -40.3574 -40.3527 -13.3769 -13.3620
   -13.3449 -13.3384 -13.2815 -13.2779 -13.1300 -13.1023 -13.0555 -13.0528
   -12.9972 -12.9678 -12.9389 -12.9314 -12.9158 -12.8814 -12.8687 -12.8585
     1.5469   1.5501   1.5529   1.5543   1.5606   1.5619   1.5687   1.5700
     1.5773   1.5794  12.1329  12.2381  16.2316  16.3285  17.0454  17.0817
    17.1173  17.3449  17.6502  17.7549  17.9398  18.0827  18.2070  18.3562
    18.4655  18.5070  18.8614  18.9284  19.3403  19.4718  19.4999  20.1291
    20.1461  20.2693  20.6283  20.6926  20.7801  20.8202  21.0988  21.2066
    21.7728  21.8203  22.0783  22.2453  22.4815  22.6509  23.8271  23.9434
    25.1592  25.4565  27.6480  28.0986  28.7250  28.8655  29.2089  29.8270
    30.2183

     the Fermi energy is    22.2367 ev

!    total energy              =   -1786.06083547 Ry
     Harris-Foulkes estimate   =   -1786.06084324 Ry
     estimated scf accuracy    <       0.00000942 Ry

     The total energy is the sum of the following terms:

     one-electron contribution =    -393.58942408 Ry
     hartree contribution      =     282.85769436 Ry
     xc contribution           =    -168.17368359 Ry
     ewald contribution        =   -1506.68959134 Ry
     smearing contrib. (-TS)   =      -0.46583081 Ry

     convergence has been achieved in  10 iterations

     Forces acting on atoms (Ry/au):

     atom    1 type  1   force =     0.03046320    0.01758794    0.00000000
     atom    2 type  1   force =     0.03046320   -0.01758794    0.00000000
     atom    3 type  1   force =    -0.03046320   -0.01758794    0.00000000
     atom    4 type  1   force =    -0.03046320    0.01758794    0.00000000
     atom    5 type  1   force =     0.00000000   -0.03517588    0.00000000
     atom    6 type  1   force =     0.00000000    0.03517588    0.00000000
     atom    7 type  2   force =     0.00000000    0.00000000    0.00000000
     atom    8 type  2   force =     0.00000000    0.00000000    0.00000000

     Total force =     0.086163     Total SCF correction =     0.000000


     entering subroutine stress ...

          total   stress  (Ry/bohr**3)                   (kbar)     P= -485.33
  -0.00335060   0.00000000   0.00000000       -492.89      0.00      0.00
   0.00000000  -0.00335060   0.00000000          0.00   -492.89      0.00
   0.00000000   0.00000000  -0.00319651          0.00      0.00   -470.22


     BFGS Geometry Optimization

     number of scf cycles    =   1
     number of bfgs steps    =   0

     enthalpy new            =   -1786.0608354672 Ry

     new trust radius        =       0.5000000000 bohr
     new conv_thr            =       0.0001000000 Ry

     new unit-cell volume =    950.61179 a.u.^3 (   140.86613 Ang^3 )

CELL_PARAMETERS (alat= 12.01680127)
   0.927447526   0.000000000   0.000000000
  -0.463723763   0.803193119   0.000000000
   0.000000000   0.000000000   0.735406110

ATOMIC_POSITIONS (crystal)
Mg       0.666785622   0.833392811   0.250000000
Mg       0.833392811   0.166607189   0.750000000
Mg       0.333214378   0.166607189   0.750000000
Mg       0.166607189   0.833392811   0.250000000
Mg       0.166607189   0.333214378   0.250000000
Mg       0.833392811   0.666785622   0.750000000
Cd       0.666667000   0.333333000   0.250000000
Cd       0.333333000   0.666667000   0.750000000



     Writing output data file Prototype-La-hP8-Mg3Cd.save
     NEW-OLD atomic charge density approx. for the potential
     NEW k-points:
        k(    1) = (   0.0000000   0.0000000   0.0000000), wk =   0.0095238
        k(    2) = (   0.0000000   0.0000000   0.1942561), wk =   0.0190476
        k(    3) = (   0.0000000   0.0000000   0.3885123), wk =   0.0190476
        k(    4) = (   0.0000000   0.0000000   0.5827684), wk =   0.0190476
        k(    5) = (   0.0000000   0.2075051   0.0000000), wk =   0.0190476
[...]
    26.4956  26.7006  27.8171  28.4631  29.3451  29.7072  29.9576  30.0630
    30.8247

          k = 0.4067 0.4305 0.3621 (  4920 PWs)   bands (ev):

   -88.0993 -88.0940 -46.7102 -46.7066 -46.7047 -46.6964 -46.6933 -46.6888
   -39.4942 -39.4698 -39.4562 -39.4392 -39.4355 -39.4239 -12.5119 -12.4978
   -12.4566 -12.4155 -12.3909 -12.3349 -12.2396 -12.2154 -12.1741 -12.1635
   -12.1501 -12.1179 -12.0614 -11.9891 -11.9789 -11.9642 -11.9505 -11.9355
     2.4892   2.4903   2.4943   2.5036   2.5073   2.5105   2.5124   2.5138
     2.5219   2.5223  13.0047  13.1524  16.8520  16.9240  17.4447  17.7063
    17.9368  18.0466  18.3559  18.5494  18.8619  18.9940  19.0409  19.1657
    19.2292  19.4102  19.6911  19.7459  20.1814  20.2149  20.3246  20.7787
    20.8288  21.1744  21.3738  21.4060  21.7607  21.8166  22.1555  22.2095
    22.4665  22.5403  23.2370  23.7817  24.1042  24.3173  25.0559  25.8979
    26.3425  26.9852  28.7257  28.9868  29.3866  29.4242  30.3355  30.4833
    31.1561

          k = 0.4067 0.4305 0.5431 (  4887 PWs)   bands (ev):

   -88.0823 -88.0756 -46.7048 -46.7004 -46.6977 -46.6952 -46.6774 -46.6761
   -39.4765 -39.4637 -39.4534 -39.4517 -39.4370 -39.4306 -12.5144 -12.4864
   -12.4466 -12.4126 -12.4024 -12.3813 -12.2034 -12.1950 -12.1752 -12.1650
   -12.0999 -12.0777 -12.0427 -12.0280 -11.9868 -11.9556 -11.9504 -11.9381
     2.4909   2.4922   2.4967   2.5005   2.5069   2.5084   2.5123   2.5136
     2.5213   2.5229  13.1378  13.1865  16.8299  16.9548  17.6861  17.7052
    18.1414  18.2512  18.3068  18.4751  18.7533  18.8385  18.9802  19.0078
    19.1330  19.2627  19.7362  19.8922  20.0138  20.1842  20.3955  20.9854
    21.0088  21.1522  21.2755  21.3383  21.5762  21.7240  22.1657  22.1911
    22.5940  22.7483  22.9048  23.4696  23.5234  23.5924  25.2414  25.6913
    26.4682  27.2015  28.6137  28.8826  30.1864  30.3524  30.5653  30.6976
    31.2454

          k = 0.4067 0.6262 0.0000 (  4910 PWs)   bands (ev):

   -88.0942 -88.0909 -46.7125 -46.7041 -46.7021 -46.6923 -46.6903 -46.6854
   -39.5091 -39.4743 -39.4684 -39.4251 -39.4219 -39.4188 -12.5572 -12.4015
   -12.3762 -12.3689 -12.3368 -12.3331 -12.3001 -12.2888 -12.2440 -12.2099
   -12.1106 -12.1015 -12.0418 -12.0314 -12.0148 -11.9696 -11.9600 -11.8883
     2.4929   2.4966   2.5010   2.5026   2.5079   2.5105   2.5129   2.5137
     2.5182   2.5330  12.8942  13.0561  16.5737  17.0948  17.2956  17.5587
    17.8616  17.9911  18.2577  18.6448  18.7616  18.7717  18.8866  19.3124
    19.4698  19.4941  19.4995  19.9135  20.2322  20.4175  20.4730  20.8491
    20.9597  21.5051  21.6858  21.7666  21.7743  21.8676  21.8921  22.0533
    22.3198  22.6888  23.6046  23.8628  23.9123  25.7019  26.2139  26.4728
    26.7783  26.8163  27.2221  27.3367  29.2197  29.5517  29.8297  30.6511
    30.9091

          k = 0.4067 0.6262 0.1810 (  4911 PWs)   bands (ev):

   -88.0980 -88.0873 -46.7104 -46.7040 -46.6996 -46.6953 -46.6909 -46.6872
   -39.5047 -39.4724 -39.4665 -39.4281 -39.4251 -39.4207 -12.5389 -12.4457
   -12.4255 -12.3917 -12.3443 -12.3080 -12.2590 -12.2423 -12.2252 -12.2147
   -12.1424 -12.1322 -12.0238 -12.0061 -11.9922 -11.9663 -11.9614 -11.9136
     2.4938   2.4941   2.5014   2.5028   2.5082   2.5099   2.5134   2.5155
     2.5167   2.5285  12.9445  13.0835  16.7391  17.0790  17.2232  17.5062
    17.8815  17.9056  18.4078  18.6366  18.7836  18.8763  19.0780  19.1434
    19.3360  19.6293  19.8007  19.9488  20.0680  20.1563  20.2512  20.6598
    20.8217  21.4312  21.5933  21.6359  21.7582  22.0041  22.0691  22.1444
    22.4044  22.8173  23.1621  23.9962  24.0331  25.2013  25.7068  26.0602
    26.4370  27.1692  27.5801  28.1954  29.0208  29.5598  30.1839  30.6701
    30.9796

          k = 0.4067 0.6262 0.3621 (  4922 PWs)   bands (ev):

   -88.1002 -88.0948 -46.7099 -46.7052 -46.7034 -46.6982 -46.6935 -46.6918
   -39.4926 -39.4669 -39.4621 -39.4391 -39.4316 -39.4266 -12.4902 -12.4868
   -12.4689 -12.4024 -12.3855 -12.3603 -12.2258 -12.2174 -12.1817 -12.1663
   -12.1487 -12.1247 -12.0497 -11.9871 -11.9776 -11.9672 -11.9614 -11.9517
     2.4908   2.4958   2.5012   2.5030   2.5074   2.5085   2.5114   2.5125
     2.5196   2.5210  13.0616  13.1499  16.9883  17.0266  17.2534  17.4860
    17.9361  17.9850  18.5399  18.6955  18.8251  18.9998  19.0604  19.1484
    19.1689  19.4789  19.5319  19.5798  20.1194  20.1814  20.2267  20.8279
    20.8783  21.3123  21.4663  21.5482  21.6848  21.7940  22.1666  22.1913
    22.5366  22.6493  22.9944  23.7912  24.0155  24.1190  25.2549  25.5634
    27.0285  27.3144  27.9817  28.7193  29.1992  29.3162  30.7980  31.1779
    31.4300

          k = 0.4067 0.6262 0.5431 (  4897 PWs)   bands (ev):

   -88.0855 -88.0823 -46.7046 -46.7033 -46.7000 -46.6992 -46.6801 -46.6777
   -39.4751 -39.4607 -39.4576 -39.4530 -39.4354 -39.4325 -12.4905 -12.4704
   -12.4520 -12.4328 -12.4083 -12.3877 -12.1959 -12.1933 -12.1820 -12.1689
   -12.0835 -12.0691 -12.0541 -12.0480 -11.9811 -11.9650 -11.9549 -11.9483
     2.4924   2.4959   2.5025   2.5037   2.5071   2.5077   2.5097   2.5113
     2.5188   2.5203  13.1741  13.2032  16.9278  16.9730  17.5599  17.6148
    18.1738  18.2074  18.4707  18.6226  18.7291  18.8190  18.8720  18.9198
    19.0545  19.1553  19.6153  19.8354  20.0011  20.3271  20.3873  20.8631
    21.0861  21.2236  21.3784  21.4127  21.6610  21.7191  22.1795  22.1941
    22.5169  22.8332  22.9480  23.1117  23.4565  23.4683  25.6082  26.0303
    26.4591  26.9808  28.1957  28.5930  30.4050  30.4501  30.8315  31.0497
    31.5557

          k = 0.4067-0.3522 0.0000 (  4910 PWs)   bands (ev):

   -88.0977 -88.0875 -46.7091 -46.7010 -46.6997 -46.6950 -46.6928 -46.6892
   -39.5116 -39.4778 -39.4596 -39.4320 -39.4223 -39.4142 -12.5606 -12.4521
   -12.3851 -12.3842 -12.3625 -12.3206 -12.2903 -12.2612 -12.2183 -12.1727
   -12.1433 -12.1102 -12.0499 -12.0448 -12.0298 -11.9458 -11.9076 -11.8903
     2.4850   2.4905   2.4956   2.5003   2.5098   2.5103   2.5134   2.5181
     2.5206   2.5323  12.7365  13.0944  16.4953  17.2099  17.3740  17.6303
    17.9053  17.9770  18.3215  18.4526  18.7268  18.8850  18.9206  19.2051
    19.4677  19.5600  19.5889  20.2010  20.2052  20.3463  20.6852  20.7338
    20.9172  21.3167  21.5075  21.6503  21.7010  21.7660  22.0708  22.1079
    22.2100  23.2517  23.6484  23.9044  24.3343  25.0606  25.5939  26.1214
    26.5356  27.4758  27.9055  28.1721  28.8943  29.2776  29.4537  30.3386
    30.4442

          k = 0.4067-0.3522 0.1810 (  4907 PWs)   bands (ev):

   -88.0929 -88.0882 -46.7080 -46.7024 -46.6997 -46.6948 -46.6894 -46.6879
   -39.5077 -39.4757 -39.4574 -39.4339 -39.4263 -39.4157 -12.5411 -12.4844
   -12.4063 -12.3999 -12.3832 -12.2780 -12.2656 -12.2437 -12.2081 -12.1928
   -12.1462 -12.1286 -12.0565 -12.0175 -11.9951 -11.9441 -11.9186 -11.9096
     2.4856   2.4897   2.4935   2.5015   2.5083   2.5112   2.5142   2.5180
     2.5208   2.5292  12.7973  13.1110  16.6139  17.0230  17.4188  17.8417
    17.8860  17.9633  18.3208  18.4663  18.6758  18.8042  19.0782  19.2664
    19.4003  19.6115  19.8091  19.9167  20.2030  20.3762  20.5504  20.5817
    20.8110  21.2076  21.3781  21.4528  21.9263  22.0037  22.0077  22.1162
    22.1898  23.2017  23.4364  24.0115  24.4162  24.9032  25.1400  26.0714
    26.4519  26.9847  28.1299  28.5863  29.2392  29.3497  29.7817  30.3320
    30.5872

          k = 0.4067-0.3522 0.3621 (  4906 PWs)   bands (ev):

   -88.0910 -88.0880 -46.7088 -46.7026 -46.6984 -46.6971 -46.6885 -46.6849
   -39.4956 -39.4696 -39.4524 -39.4411 -39.4358 -39.4219 -12.5227 -12.5006
   -12.4477 -12.4224 -12.3909 -12.3274 -12.2454 -12.2270 -12.1741 -12.1490
   -12.1338 -12.1115 -12.0697 -11.9900 -11.9792 -11.9638 -11.9384 -11.9183
     2.4869   2.4883   2.4913   2.5025   2.5068   2.5115   2.5127   2.5145
     2.5231   2.5241  12.9475  13.1472  16.7920  16.9074  17.5739  17.8248
    17.9322  18.1026  18.2900  18.4555  18.8166  18.9195  19.0232  19.1691
    19.2436  19.4855  19.7664  19.8787  20.2175  20.2506  20.3525  20.7890
    20.8448  21.1347  21.2820  21.3257  21.7992  21.8534  22.1455  22.2315
    22.3959  22.5094  23.2847  23.8493  24.1396  24.5887  24.9495  25.7914
    26.0129  27.0434  28.8152  29.2651  29.4212  29.7023  29.9456  30.2676
    30.8287

          k = 0.4067-0.3522 0.5431 (  4894 PWs)   bands (ev):

   -88.0854 -88.0803 -46.7049 -46.7004 -46.6994 -46.6970 -46.6821 -46.6787
   -39.4787 -39.4653 -39.4530 -39.4486 -39.4382 -39.4303 -12.5264 -12.5061
   -12.4442 -12.4163 -12.3970 -12.3859 -12.2052 -12.2039 -12.1669 -12.1614
   -12.1066 -12.0803 -12.0391 -12.0155 -11.9925 -11.9560 -11.9432 -11.9321
     2.4888   2.4892   2.4923   2.4983   2.5064   2.5085   2.5128   2.5140
     2.5219   2.5241  13.0960  13.1612  16.7945  16.9468  17.7425  17.7976
    18.0806  18.2253  18.2951  18.4224  18.7457  18.8885  18.9993  19.0346
    19.2147  19.3217  19.8303  19.9028  20.0467  20.0798  20.4355  20.9559
    21.0695  21.1378  21.2352  21.2998  21.5411  21.7103  22.1579  22.1763
    22.6586  22.7106  22.8922  23.5208  23.6253  23.8416  25.0333  25.2363
    26.6032  27.3205  28.8199  29.2109  29.8280  30.0122  30.5172  30.8015
    31.0743

          k = 0.4067-0.1565 0.0000 (  4909 PWs)   bands (ev):

   -88.1009 -88.0829 -46.7078 -46.7023 -46.6979 -46.6968 -46.6924 -46.6880
   -39.5155 -39.4738 -39.4584 -39.4356 -39.4199 -39.4141 -12.5657 -12.4782
   -12.3904 -12.3789 -12.3633 -12.3418 -12.3193 -12.2617 -12.2335 -12.2164
   -12.0901 -12.0520 -12.0486 -12.0302 -12.0154 -11.9376 -11.9040 -11.8921
     2.4815   2.4894   2.4953   2.4957   2.5049   2.5073   2.5106   2.5152
     2.5250   2.5323  12.5433  13.1168  16.6558  17.3384  17.4069  17.5053
    17.9963  18.0862  18.1628  18.4935  18.6242  18.7417  19.1104  19.1853
    19.4395  19.5330  19.5922  20.1892  20.1963  20.2685  20.5028  20.8065
    21.0723  21.5175  21.6233  21.7115  21.7152  21.8354  22.1818  22.2210
    22.4292  23.3105  23.6913  23.9571  24.4483  24.8753  24.9542  25.8077
    26.9586  27.2204  28.2087  28.4272  28.5120  28.8134  29.4139  30.2568
    30.3338

          k = 0.4067-0.1565 0.1810 (  4900 PWs)   bands (ev):

   -88.0909 -88.0829 -46.7064 -46.7013 -46.6963 -46.6922 -46.6897 -46.6866
   -39.5113 -39.4714 -39.4557 -39.4384 -39.4235 -39.4153 -12.5476 -12.4934
   -12.4307 -12.4077 -12.3836 -12.2930 -12.2728 -12.2636 -12.2499 -12.1858
   -12.0948 -12.0793 -12.0424 -12.0071 -11.9885 -11.9340 -11.9189 -11.9023
     2.4825   2.4882   2.4917   2.4969   2.5046   2.5089   2.5115   2.5182
     2.5220   2.5300  12.6195  13.1155  16.7534  17.1669  17.5120  17.7176
    17.8884  18.0173  18.2323  18.5216  18.6011  18.6654  19.0674  19.2004
    19.4629  19.6887  19.8120  19.9786  20.1556  20.2056  20.4282  20.7527
    21.0420  21.3544  21.4621  21.5791  21.9592  22.0222  22.0603  22.2167
    22.4242  23.2230  23.5098  23.8879  24.4374  24.6536  25.0446  25.6990
    26.6181  27.0271  28.0110  28.7473  28.8606  28.9711  29.8261  30.2325
    30.6925

          k = 0.4067-0.1565 0.3621 (  4899 PWs)   bands (ev):

   -88.0882 -88.0840 -46.7075 -46.7029 -46.6954 -46.6930 -46.6883 -46.6834
   -39.5000 -39.4654 -39.4513 -39.4456 -39.4319 -39.4212 -12.5285 -12.5095
   -12.4556 -12.4432 -12.4044 -12.3448 -12.2704 -12.2329 -12.1716 -12.1084
   -12.1011 -12.0921 -12.0599 -11.9829 -11.9779 -11.9624 -11.9322 -11.9108
     2.4841   2.4859   2.4887   2.4981   2.5035   2.5090   2.5133   2.5157
     2.5221   2.5236  12.8027  13.1117  16.8768  17.0762  17.6081  17.7859
    18.0567  18.1117  18.2465  18.3737  18.6766  18.8047  18.9545  19.1632
    19.1912  19.6142  19.7371  19.9257  20.1498  20.2844  20.4466  20.9282
    21.0179  21.3144  21.3739  21.4515  21.8484  21.9016  22.1605  22.3347
    22.4333  22.5206  23.2113  23.8314  24.0648  24.7531  24.8632  25.5261
    25.6106  27.2918  28.3245  29.0560  29.4061  29.6546  29.9377  30.5149
    30.9369

          k = 0.4067-0.1565 0.5431 (  4896 PWs)   bands (ev):

   -88.0856 -88.0832 -46.7081 -46.7035 -46.6995 -46.6966 -46.6808 -46.6778
   -39.4837 -39.4673 -39.4520 -39.4433 -39.4386 -39.4300 -12.5288 -12.5100
   -12.4568 -12.4406 -12.4178 -12.4081 -12.2215 -12.1887 -12.1508 -12.1390
   -12.0895 -12.0731 -12.0259 -12.0103 -11.9928 -11.9617 -11.9382 -11.9263
     2.4853   2.4863   2.4892   2.4948   2.5047   2.5072   2.5126   2.5133
     2.5206   2.5221  12.9881  13.0860  16.8871  17.0494  17.7504  17.8378
    17.9913  18.2060  18.2880  18.4303  18.6928  18.9056  19.0416  19.0782
    19.2018  19.2907  19.6876  19.7977  20.0759  20.2791  20.4791  21.0575
    21.1127  21.2310  21.4289  21.4811  21.6400  21.7908  22.1090  22.1762
    22.7329  22.7470  22.9218  23.4566  23.6428  23.9974  24.7750  24.9574
    26.3142  27.1501  28.8260  29.2517  29.6514  29.8817  30.5626  30.9596
    31.2512

          k = 0.4067 0.0391 0.0000 (  4906 PWs)   bands (ev):

   -88.0937 -88.0866 -46.7030 -46.7015 -46.6986 -46.6937 -46.6924 -46.6917
   -39.5169 -39.4703 -39.4613 -39.4349 -39.4178 -39.4155 -12.5664 -12.4801
   -12.3766 -12.3725 -12.3645 -12.3538 -12.3429 -12.2849 -12.2251 -12.2199
   -12.0733 -12.0476 -12.0388 -12.0304 -11.9791 -11.9403 -11.9189 -11.8944
     2.4856   2.4889   2.4951   2.4961   2.5008   2.5036   2.5087   2.5139
     2.5260   2.5331  12.4884  13.1197  16.8874  17.1346  17.3516  17.6780
    17.8702  18.1352  18.1568  18.4846  18.5780  18.8459  19.0103  19.2330
    19.4183  19.4898  19.5535  20.1504  20.2624  20.2912  20.4314  20.7696
    21.0734  21.5754  21.6742  21.7266  21.8472  21.9571  22.1086  22.2701
    22.8357  23.1201  23.6981  23.9288  24.3285  24.6977  25.1317  25.6999
    27.0525  27.1881  27.6602  28.3075  28.3398  28.9579  29.7125  30.3581
    30.6859

          k = 0.4067 0.0391 0.1810 (  4899 PWs)   bands (ev):

   -88.0888 -88.0832 -46.7037 -46.7000 -46.6983 -46.6946 -46.6884 -46.6851
   -39.5126 -39.4677 -39.4589 -39.4379 -39.4210 -39.4171 -12.5506 -12.4803
   -12.4497 -12.4126 -12.3618 -12.3356 -12.2695 -12.2666 -12.2477 -12.1876
   -12.0819 -12.0713 -12.0157 -12.0049 -11.9744 -11.9368 -11.9245 -11.9176
     2.4864   2.4893   2.4908   2.4941   2.5017   2.5069   2.5103   2.5166
     2.5231   2.5299  12.5674  13.1125  16.9798  17.1415  17.4964  17.6072
    17.8645  17.9733  18.2581  18.4979  18.6111  18.7096  18.9469  19.2496
    19.4116  19.7081  19.9044  19.9934  20.0831  20.1954  20.3841  20.6744
    21.0572  21.4481  21.6397  21.6986  21.8110  22.0389  22.0863  22.3886
    22.8096  23.1592  23.3229  23.8026  24.3409  24.5048  25.1008  25.8482
    26.5455  26.9418  27.7131  28.5175  28.6694  29.1028  30.1461  30.6201
    30.8159

          k = 0.4067 0.0391 0.3621 (  4914 PWs)   bands (ev):

   -88.0988 -88.0887 -46.7074 -46.7041 -46.7031 -46.6988 -46.6937 -46.6848
   -39.5018 -39.4617 -39.4570 -39.4447 -39.4295 -39.4232 -12.5211 -12.5050
   -12.4873 -12.4529 -12.3991 -12.3694 -12.2794 -12.2323 -12.1661 -12.1060
   -12.1018 -12.0867 -12.0206 -11.9930 -11.9804 -11.9628 -11.9333 -11.9256
     2.4852   2.4867   2.4894   2.4933   2.5020   2.5065   2.5119   2.5165
     2.5202   2.5227  12.7575  13.0957  17.0381  17.1552  17.4871  17.8243
    17.9222  18.0882  18.3265  18.3886  18.5877  18.7621  18.9652  19.1254
    19.2185  19.6292  19.7636  19.8101  20.1322  20.2844  20.4428  20.9664
    21.0587  21.3854  21.5096  21.5528  21.8307  21.9336  22.1548  22.4528
    22.5089  22.6929  23.3005  23.4975  24.0227  24.6031  24.8756  25.0876
    26.3376  26.8578  27.9683  29.1453  29.2723  29.6817  30.3396  30.4808
    31.1386

          k = 0.4067 0.0391 0.5431 (  4895 PWs)   bands (ev):

   -88.0872 -88.0806 -46.7063 -46.7023 -46.7018 -46.6977 -46.6799 -46.6766
   -39.4841 -39.4673 -39.4513 -39.4439 -39.4370 -39.4312 -12.5133 -12.5004
   -12.4859 -12.4734 -12.4206 -12.4111 -12.2262 -12.1870 -12.1379 -12.1364
   -12.0860 -12.0479 -12.0186 -12.0102 -11.9969 -11.9646 -11.9321 -11.9254
     2.4860   2.4872   2.4902   2.4922   2.5038   2.5054   2.5117   2.5119
     2.5203   2.5214  12.9552  13.0611  16.9923  17.0950  17.7776  17.8240
    17.8980  18.1266  18.3722  18.4679  18.6363  18.8368  18.9822  19.0732
    19.2513  19.2843  19.6820  19.7444  20.1451  20.2946  20.3615  21.0594
    21.1249  21.2722  21.6039  21.6806  21.7671  21.7918  22.0809  22.1604
    22.7839  22.8149  23.1026  23.2918  23.5807  23.7237  24.9297  25.0402
    26.2774  26.5755  28.7289  29.2585  29.9776  30.0501  30.3361  30.9440
    31.2919

     the Fermi energy is    23.2408 ev

!    total energy              =   -1786.04349590 Ry
     Harris-Foulkes estimate   =   -1786.04350941 Ry
     estimated scf accuracy    <       0.00001651 Ry

     The total energy is the sum of the following terms:

     one-electron contribution =    -364.82001444 Ry
     hartree contribution      =     273.52173318 Ry
     xc contribution           =    -168.50860612 Ry
     ewald contribution        =   -1525.79419194 Ry
     smearing contrib. (-TS)   =      -0.44241659 Ry

     convergence has been achieved in  10 iterations

     Forces acting on atoms (Ry/au):

     atom    1 type  1   force =     0.00961075    0.00554877    0.00000000
     atom    2 type  1   force =     0.00961075   -0.00554877    0.00000000
     atom    3 type  1   force =    -0.00961075   -0.00554877    0.00000000
     atom    4 type  1   force =    -0.00961075    0.00554877    0.00000000
     atom    5 type  1   force =     0.00000000   -0.01109754    0.00000000
     atom    6 type  1   force =     0.00000000    0.01109754    0.00000000
     atom    7 type  2   force =     0.00000000    0.00000000    0.00000000
     atom    8 type  2   force =     0.00000000    0.00000000    0.00000000

     Total force =     0.027183     Total SCF correction =     0.000000


     entering subroutine stress ...

          total   stress  (Ry/bohr**3)                   (kbar)     P= -436.10
  -0.00297681   0.00000000   0.00000000       -437.90      0.00      0.00
   0.00000000  -0.00297681   0.00000000          0.00   -437.90      0.00
   0.00000000   0.00000000  -0.00294002          0.00      0.00   -432.49


     Writing output data file Prototype-La-hP8-Mg3Cd.save
 
     init_run     :     12.48s CPU     15.78s WALL (       2 calls)
     electrons    :   3215.59s CPU   4153.51s WALL (       5 calls)
     update_pot   :      2.90s CPU      3.47s WALL (       3 calls)
     forces       :     13.89s CPU     17.87s WALL (       5 calls)
     stress       :     38.10s CPU     46.60s WALL (       5 calls)

     Called by init_run:
     wfcinit      :     11.56s CPU     14.82s WALL (       2 calls)
     potinit      :      0.41s CPU      0.42s WALL (       2 calls)

     Called by electrons:
     c_bands      :   3110.56s CPU   3988.76s WALL (      41 calls)
     sum_band     :    104.60s CPU    150.44s WALL (      41 calls)
     v_of_rho     :      0.21s CPU      0.23s WALL (      46 calls)
     mix_rho      :      0.07s CPU      0.09s WALL (      41 calls)

     Called by c_bands:
     init_us_2    :      5.88s CPU      7.43s WALL (    6016 calls)
     ccgdiagg     :   2800.11s CPU   3562.67s WALL (    3083 calls)
     wfcrot       :    316.16s CPU    431.12s WALL (    3147 calls)

     Called by *cgdiagg:
     h_psi        :   2098.84s CPU   2747.48s WALL ( 1484903 calls)
     cdiaghg      :     11.49s CPU     13.33s WALL (    3147 calls)

     Called by h_psi:
     add_vuspsi   :    237.05s CPU    281.91s WALL ( 1484903 calls)

     General routines
     calbec       :    680.40s CPU    782.34s WALL ( 2967299 calls)
     fft          :      0.35s CPU      0.44s WALL (     207 calls)
     fftw         :   1480.99s CPU   1958.04s WALL ( 3757214 calls)
     davcio       :      3.52s CPU      8.04s WALL (    8640 calls)
 
     Parallel routines
     fft_scatter  :    739.20s CPU   1019.21s WALL ( 3757421 calls)
 
     PWSCF        :     0h54m CPU        1h10m WALL

 
   This run was terminated on:  22:27:25  22Mar2018            

=------------------------------------------------------------------------------=
   JOB DONE.
=------------------------------------------------------------------------------=
