
     Program PWSCF v.5.0.2 starts on 22Mar2018 at 16: 7:43 

     This program is part of the open-source Quantum ESPRESSO suite
     for quantum simulation of materials; please cite
         "P. Giannozzi et al., J. Phys.:Condens. Matter 21 395502 (2009);
          URL http://www.quantum-espresso.org", 
     in publications or presentations arising from this work. More details at
     http://www.quantum-espresso.org/quote.php

     Parallel version (MPI), running on     4 processors
     R & G space division:  proc/nbgrp/npool/nimage =       4

     Current dimensions of program PWSCF are:
     Max number of different atomic species (ntypx) = 10
     Max number of k-points (npk) =  40000
     Max angular momentum in pseudopotentials (lmaxx) =  3
     Waiting for input...
     Reading input from standard input

     Subspace diagonalization in iterative solution of the eigenvalue problem:
     a serial algorithm will be used

 
     Parallelization info
     --------------------
     sticks:   dense  smooth     PW     G-vecs:    dense   smooth      PW
     Min         396     396    112                10116    10116    1566
     Max         397     397    113                10119    10119    1567
     Sum        1585    1585    451                40467    40467    6267
 


     bravais-lattice index     =            0
     lattice parameter (alat)  =      12.0168  a.u.
     unit-cell volume          =    1187.3413 (a.u.)^3
     number of atoms/cell      =            8
     number of atomic types    =            2
     number of electrons       =       170.00
     number of Kohn-Sham states=          102
     kinetic-energy cutoff     =      40.0000  Ry
     charge density cutoff     =     160.0000  Ry
     convergence threshold     =      1.0E-04
     mixing beta               =       0.7000
     number of iterations used =            8  plain     mixing
     Exchange-correlation      = SLA-PZ-NOGX-NOGC ( 1 1 0 0 0)
     EXX-fraction              =        0.00
     nstep                     =           50


     celldm(1)=  12.016801  celldm(2)=   0.000000  celldm(3)=   0.000000
     celldm(4)=   0.000000  celldm(5)=   0.000000  celldm(6)=   0.000000

     crystal axes: (cart. coord. in units of alat)
               a(1) = (   1.000000   0.000000   0.000000 )  
               a(2) = (  -0.500000   0.866025   0.000000 )  
               a(3) = (   0.000000   0.000000   0.790093 )  

     reciprocal axes: (cart. coord. in units 2 pi/alat)
               b(1) = (  1.000000  0.577350  0.000000 )  
               b(2) = (  0.000000  1.154701  0.000000 )  
               b(3) = (  0.000000  0.000000  1.265674 )  


     PseudoPot. # 1 for Tm read from file:
     /home/cwx6513/pp.La/Tm.UPF
     MD5 check sum: 245516e0878b5372ceeb9443ded2c4e1
     Pseudo is Norm-conserving, Zval = 23.0
     Generated in analytical, separable form
     Using radial grid of 1269 points,  6 beta functions with: 
                l(1) =   0
                l(2) =   0
                l(3) =   1
                l(4) =   1
                l(5) =   2
                l(6) =   3

     PseudoPot. # 2 for Sm read from file:
     /home/cwx6513/pp.La/Sm.UPF
     MD5 check sum: 5079e8b144a06bfcdbc14fb02b96ab09
     Pseudo is Norm-conserving, Zval = 16.0
     Generated in analytical, separable form
     Using radial grid of 1259 points,  6 beta functions with: 
                l(1) =   0
                l(2) =   0
                l(3) =   1
                l(4) =   1
                l(5) =   2
                l(6) =   3

     atomic species   valence    mass     pseudopotential
        Mg            23.00    24.30500     Tm( 1.00)
        Cd            16.00   112.41100     Sm( 1.00)

     24 Sym. Ops., with inversion, found (12 have fractional translation)



   Cartesian axes

     site n.     atom                  positions (alat units)
         1           Mg  tau(   1) = (   0.2478935   0.7204716   0.1975233  )
         2           Mg  tau(   2) = (   0.7478935   0.1455538   0.5925699  )
         3           Mg  tau(   3) = (   0.2521065   0.1455538   0.5925699  )
         4           Mg  tau(   4) = (  -0.2478935   0.7204716   0.1975233  )
         5           Mg  tau(   5) = (   0.0000000   0.2911075   0.1975233  )
         6           Mg  tau(   6) = (   0.5000000   0.5749179   0.5925699  )
         7           Cd  tau(   7) = (   0.5000005   0.2886748   0.1975233  )
         8           Cd  tau(   8) = (  -0.0000005   0.5773506   0.5925699  )

     number of k points=    64  gaussian smearing, width (Ry)=  0.1000
                       cart. coord. in units 2pi/alat
        k(    1) = (   0.0000000   0.0000000   0.0000000), wk =   0.0095238
        k(    2) = (   0.0000000   0.0000000   0.1808105), wk =   0.0190476
        k(    3) = (   0.0000000   0.0000000   0.3616210), wk =   0.0190476
        k(    4) = (   0.0000000   0.0000000   0.5424315), wk =   0.0190476
        k(    5) = (   0.0000000   0.1924501   0.0000000), wk =   0.0190476
        k(    6) = (   0.0000000   0.1924501   0.1808105), wk =   0.0380952
        k(    7) = (   0.0000000   0.1924501   0.3616210), wk =   0.0380952
        k(    8) = (   0.0000000   0.1924501   0.5424315), wk =   0.0380952
        k(    9) = (   0.0000000   0.3849002   0.0000000), wk =   0.0190476
        k(   10) = (   0.0000000   0.3849002   0.1808105), wk =   0.0380952
        k(   11) = (   0.0000000   0.3849002   0.3616210), wk =   0.0380952
        k(   12) = (   0.0000000   0.3849002   0.5424315), wk =   0.0380952
        k(   13) = (   0.0000000  -0.5773503   0.0000000), wk =   0.0095238
        k(   14) = (   0.0000000  -0.5773503   0.1808105), wk =   0.0190476
        k(   15) = (   0.0000000  -0.5773503   0.3616210), wk =   0.0190476
        k(   16) = (   0.0000000  -0.5773503   0.5424315), wk =   0.0190476
        k(   17) = (   0.2000000   0.1154701   0.0000000), wk =   0.0190476
        k(   18) = (   0.2000000   0.1154701   0.1808105), wk =   0.0380952
        k(   19) = (   0.2000000   0.1154701   0.3616210), wk =   0.0380952
        k(   20) = (   0.2000000   0.1154701   0.5424315), wk =   0.0380952
        k(   21) = (   0.2000000   0.3079201   0.0000000), wk =   0.0190476
        k(   22) = (   0.2000000   0.3079201   0.1808105), wk =   0.0380952
        k(   23) = (   0.2000000   0.3079201   0.3616210), wk =   0.0380952
        k(   24) = (   0.2000000   0.3079201   0.5424315), wk =   0.0380952
        k(   25) = (   0.2000000   0.5003702   0.0000000), wk =   0.0190476
        k(   26) = (   0.2000000   0.5003702   0.1808105), wk =   0.0380952
        k(   27) = (   0.2000000   0.5003702   0.3616210), wk =   0.0380952
        k(   28) = (   0.2000000   0.5003702   0.5424315), wk =   0.0380952
        k(   29) = (   0.2000000  -0.4618802   0.0000000), wk =   0.0190476
        k(   30) = (   0.2000000  -0.4618802   0.1808105), wk =   0.0380952
        k(   31) = (   0.2000000  -0.4618802   0.3616210), wk =   0.0380952
        k(   32) = (   0.2000000  -0.4618802   0.5424315), wk =   0.0380952
        k(   33) = (   0.2000000  -0.2694301   0.0000000), wk =   0.0190476
        k(   34) = (   0.2000000  -0.2694301   0.1808105), wk =   0.0380952
        k(   35) = (   0.2000000  -0.2694301   0.3616210), wk =   0.0380952
        k(   36) = (   0.2000000  -0.2694301   0.5424315), wk =   0.0380952
        k(   37) = (   0.2000000  -0.0769800   0.0000000), wk =   0.0190476
        k(   38) = (   0.2000000  -0.0769800   0.1808105), wk =   0.0380952
        k(   39) = (   0.2000000  -0.0769800   0.3616210), wk =   0.0380952
        k(   40) = (   0.2000000  -0.0769800   0.5424315), wk =   0.0380952
        k(   41) = (   0.4000000   0.2309401   0.0000000), wk =   0.0190476
        k(   42) = (   0.4000000   0.2309401   0.1808105), wk =   0.0380952
        k(   43) = (   0.4000000   0.2309401   0.3616210), wk =   0.0380952
        k(   44) = (   0.4000000   0.2309401   0.5424315), wk =   0.0380952
        k(   45) = (   0.4000000   0.4233902   0.0000000), wk =   0.0190476
        k(   46) = (   0.4000000   0.4233902   0.1808105), wk =   0.0380952
        k(   47) = (   0.4000000   0.4233902   0.3616210), wk =   0.0380952
        k(   48) = (   0.4000000   0.4233902   0.5424315), wk =   0.0380952
        k(   49) = (   0.4000000   0.6158403   0.0000000), wk =   0.0190476
        k(   50) = (   0.4000000   0.6158403   0.1808105), wk =   0.0380952
        k(   51) = (   0.4000000   0.6158403   0.3616210), wk =   0.0380952
        k(   52) = (   0.4000000   0.6158403   0.5424315), wk =   0.0380952
        k(   53) = (   0.4000000  -0.3464102   0.0000000), wk =   0.0190476
        k(   54) = (   0.4000000  -0.3464102   0.1808105), wk =   0.0380952
        k(   55) = (   0.4000000  -0.3464102   0.3616210), wk =   0.0380952
        k(   56) = (   0.4000000  -0.3464102   0.5424315), wk =   0.0380952
        k(   57) = (   0.4000000  -0.1539601   0.0000000), wk =   0.0190476
        k(   58) = (   0.4000000  -0.1539601   0.1808105), wk =   0.0380952
        k(   59) = (   0.4000000  -0.1539601   0.3616210), wk =   0.0380952
        k(   60) = (   0.4000000  -0.1539601   0.5424315), wk =   0.0380952
        k(   61) = (   0.4000000   0.0384900   0.0000000), wk =   0.0190476
        k(   62) = (   0.4000000   0.0384900   0.1808105), wk =   0.0380952
        k(   63) = (   0.4000000   0.0384900   0.3616210), wk =   0.0380952
        k(   64) = (   0.4000000   0.0384900   0.5424315), wk =   0.0380952

     Dense  grid:    40467 G-vectors     FFT dimensions: (  50,  50,  40)

     Largest allocated arrays     est. size (Mb)     dimensions
        Kohn-Sham Wavefunctions         2.02 Mb     (   1298,  102)
        NL pseudopotentials             3.17 Mb     (   1298,  160)
        Each V/rho on FFT grid          0.38 Mb     (  25000)
        Each G-vector array             0.08 Mb     (  10119)
        G-vector shells                 0.08 Mb     (  10119)
     Largest temporary arrays     est. size (Mb)     dimensions
        Each subspace H/S matrix        0.16 Mb     ( 102, 102)
        Each <psi_i|beta_j> matrix      0.25 Mb     (    160,  102)
        Arrays for rho mixing           3.05 Mb     (  25000,   8)

     Initial potential from superposition of free atoms

     Starting from uniform charge
     Starting wfc are    0 randomized atomic wfcs

     total cpu time spent up to now is       11.0 secs

     Self-consistent Calculation

     iteration #  1     ecut=    40.00 Ry     beta=0.70
     CG style diagonalization
     c_bands:  1 eigenvalues not converged
     c_bands:  1 eigenvalues not converged
     c_bands:  1 eigenvalues not converged
     c_bands:  1 eigenvalues not converged
     c_bands:  1 eigenvalues not converged
     c_bands:  1 eigenvalues not converged
     c_bands:  1 eigenvalues not converged
     c_bands:  1 eigenvalues not converged
     c_bands:  2 eigenvalues not converged
     c_bands:  1 eigenvalues not converged
     c_bands:  1 eigenvalues not converged
     c_bands:  1 eigenvalues not converged
     c_bands:  1 eigenvalues not converged
     c_bands:  1 eigenvalues not converged
     c_bands:  1 eigenvalues not converged
     ethr =  1.00E-02,  avg # of iterations = 13.8

     total cpu time spent up to now is      186.3 secs

     total energy              =   -1780.77135545 Ry
     Harris-Foulkes estimate   =   -3330.47377878 Ry
     estimated scf accuracy    <    1890.11076829 Ry

     iteration #  2     ecut=    40.00 Ry     beta=0.70
     CG style diagonalization
     c_bands:  4 eigenvalues not converged
     c_bands:  2 eigenvalues not converged
     c_bands:  5 eigenvalues not converged
     c_bands:  4 eigenvalues not converged
     c_bands:  3 eigenvalues not converged
     c_bands:  1 eigenvalues not converged
     c_bands:  2 eigenvalues not converged
     c_bands:  3 eigenvalues not converged
     c_bands:  4 eigenvalues not converged
     ethr =  1.00E-02,  avg # of iterations = 17.8

     total cpu time spent up to now is      380.0 secs

     total energy              =   -1797.65458216 Ry
     Harris-Foulkes estimate   =   -3141.06982431 Ry
     estimated scf accuracy    <    2709.41802582 Ry

     iteration #  3     ecut=    40.00 Ry     beta=0.70
     CG style diagonalization
     c_bands:  2 eigenvalues not converged
     c_bands:  2 eigenvalues not converged
     c_bands:  4 eigenvalues not converged
     c_bands:  1 eigenvalues not converged
     c_bands:  3 eigenvalues not converged
     c_bands:  3 eigenvalues not converged
     c_bands:  2 eigenvalues not converged
     c_bands:  1 eigenvalues not converged
     c_bands:  1 eigenvalues not converged
     c_bands:  2 eigenvalues not converged
     c_bands:  1 eigenvalues not converged
     c_bands:  3 eigenvalues not converged
     c_bands:  3 eigenvalues not converged
     c_bands:  1 eigenvalues not converged
     c_bands:  2 eigenvalues not converged
     c_bands:  2 eigenvalues not converged
     c_bands:  2 eigenvalues not converged
     c_bands:  1 eigenvalues not converged
     c_bands:  1 eigenvalues not converged
     c_bands:  1 eigenvalues not converged
     c_bands:  2 eigenvalues not converged
     c_bands:  2 eigenvalues not converged
     c_bands:  3 eigenvalues not converged
     c_bands:  2 eigenvalues not converged
     c_bands:  1 eigenvalues not converged
     c_bands:  2 eigenvalues not converged
     c_bands:  1 eigenvalues not converged
     c_bands:  1 eigenvalues not converged
     c_bands:  1 eigenvalues not converged
     c_bands:  1 eigenvalues not converged
     c_bands:  2 eigenvalues not converged
     c_bands:  1 eigenvalues not converged
     c_bands:  1 eigenvalues not converged
     c_bands:  2 eigenvalues not converged
     c_bands:  2 eigenvalues not converged
     c_bands:  1 eigenvalues not converged
     c_bands:  2 eigenvalues not converged
     c_bands:  1 eigenvalues not converged
     c_bands:  1 eigenvalues not converged
     c_bands:  1 eigenvalues not converged
     ethr =  1.00E-02,  avg # of iterations = 12.1

     total cpu time spent up to now is      540.7 secs

     total energy              =   -2427.49512769 Ry
     Harris-Foulkes estimate   =   -2608.48888922 Ry
     estimated scf accuracy    <     417.85111728 Ry

     iteration #  4     ecut=    40.00 Ry     beta=0.70
     CG style diagonalization
     ethr =  1.00E-02,  avg # of iterations =  7.5

     total cpu time spent up to now is      647.6 secs

     total energy              =   -2499.64332459 Ry
     Harris-Foulkes estimate   =   -2528.64453448 Ry
     estimated scf accuracy    <      69.44026304 Ry

     iteration #  5     ecut=    40.00 Ry     beta=0.70
     CG style diagonalization
     ethr =  1.00E-02,  avg # of iterations =  4.1

     total cpu time spent up to now is      702.5 secs

     total energy              =   -2507.25499645 Ry
     Harris-Foulkes estimate   =   -2509.39491650 Ry
     estimated scf accuracy    <       5.22394304 Ry

     iteration #  6     ecut=    40.00 Ry     beta=0.70
     CG style diagonalization
     ethr =  3.07E-03,  avg # of iterations =  3.4

 %%%%%%%%%%%%%%%%%%%%%%%%%%%%%%%%%%%%%%%%%%%%%%%%%%%%%%%%%%%%%%%%%%%%%%%%%%%%%%
     Error in routine create_directory: (29):
     ./hP8-Mg3Cd-out/Prototype-La-hP8-Mg3Cd.save non existent or non writable
 %%%%%%%%%%%%%%%%%%%%%%%%%%%%%%%%%%%%%%%%%%%%%%%%%%%%%%%%%%%%%%%%%%%%%%%%%%%%%%

     stopping ...

 %%%%%%%%%%%%%%%%%%%%%%%%%%%%%%%%%%%%%%%%%%%%%%%%%%%%%%%%%%%%%%%%%%%%%%%%%%%%%%
     Error in routine create_directory: (29):
     ./hP8-Mg3Cd-out/Prototype-La-hP8-Mg3Cd.save non existent or non writable
 %%%%%%%%%%%%%%%%%%%%%%%%%%%%%%%%%%%%%%%%%%%%%%%%%%%%%%%%%%%%%%%%%%%%%%%%%%%%%%

     stopping ...

 %%%%%%%%%%%%%%%%%%%%%%%%%%%%%%%%%%%%%%%%%%%%%%%%%%%%%%%%%%%%%%%%%%%%%%%%%%%%%%
     Error in routine create_directory: (29):
     ./hP8-Mg3Cd-out/Prototype-La-hP8-Mg3Cd.save non existent or non writable
 %%%%%%%%%%%%%%%%%%%%%%%%%%%%%%%%%%%%%%%%%%%%%%%%%%%%%%%%%%%%%%%%%%%%%%%%%%%%%%

     stopping ...

 %%%%%%%%%%%%%%%%%%%%%%%%%%%%%%%%%%%%%%%%%%%%%%%%%%%%%%%%%%%%%%%%%%%%%%%%%%%%%%
     Error in routine create_directory: (29):
     ./hP8-Mg3Cd-out/Prototype-La-hP8-Mg3Cd.save non existent or non writable
 %%%%%%%%%%%%%%%%%%%%%%%%%%%%%%%%%%%%%%%%%%%%%%%%%%%%%%%%%%%%%%%%%%%%%%%%%%%%%%

     stopping ...
