
     Program PWSCF v.5.0.2 starts on 23Mar2018 at  2:18:19 

     This program is part of the open-source Quantum ESPRESSO suite
     for quantum simulation of materials; please cite
         "P. Giannozzi et al., J. Phys.:Condens. Matter 21 395502 (2009);
          URL http://www.quantum-espresso.org", 
     in publications or presentations arising from this work. More details at
     http://www.quantum-espresso.org/quote.php

     Parallel version (MPI), running on     4 processors
     R & G space division:  proc/nbgrp/npool/nimage =       4

     Current dimensions of program PWSCF are:
     Max number of different atomic species (ntypx) = 10
     Max number of k-points (npk) =  40000
     Max angular momentum in pseudopotentials (lmaxx) =  3
     Waiting for input...
     Reading input from standard input

     Subspace diagonalization in iterative solution of the eigenvalue problem:
     a serial algorithm will be used

 
     Parallelization info
     --------------------
     sticks:   dense  smooth     PW     G-vecs:    dense   smooth      PW
     Min         267     267     77                11587    11587    1762
     Max         268     268     79                11596    11596    1765
     Sum        1069    1069    313                46361    46361    7055
 


     bravais-lattice index     =            0
     lattice parameter (alat)  =       9.9235  a.u.
     unit-cell volume          =    1361.0366 (a.u.)^3
     number of atoms/cell      =           12
     number of atomic types    =            2
     number of electrons       =       280.00
     number of Kohn-Sham states=          168
     kinetic-energy cutoff     =      40.0000  Ry
     charge density cutoff     =     160.0000  Ry
     convergence threshold     =      1.0E-04
     mixing beta               =       0.7000
     number of iterations used =            8  plain     mixing
     Exchange-correlation      = SLA-PZ-NOGX-NOGC ( 1 1 0 0 0)
     EXX-fraction              =        0.00
     nstep                     =           50


     celldm(1)=   9.923489  celldm(2)=   0.000000  celldm(3)=   0.000000
     celldm(4)=   0.000000  celldm(5)=   0.000000  celldm(6)=   0.000000

     crystal axes: (cart. coord. in units of alat)
               a(1) = (   1.000000   0.000000   0.000000 )  
               a(2) = (  -0.500000   0.866025   0.000000 )  
               a(3) = (   0.000000   0.000000   1.608222 )  

     reciprocal axes: (cart. coord. in units 2 pi/alat)
               b(1) = (  1.000000  0.577350  0.000000 )  
               b(2) = (  0.000000  1.154701  0.000000 )  
               b(3) = (  0.000000  0.000000  0.621805 )  


     PseudoPot. # 1 for Dy read from file:
     /home/cwx6513/pp.La/Dy.UPF
     MD5 check sum: 9597327bec62616a94a14d07f3fd9936
     Pseudo is Norm-conserving, Zval = 20.0
     Generated in analytical, separable form
     Using radial grid of 1265 points,  6 beta functions with: 
                l(1) =   0
                l(2) =   0
                l(3) =   1
                l(4) =   1
                l(5) =   2
                l(6) =   3

     PseudoPot. # 2 for Lu read from file:
     /home/cwx6513/pp.La/La.UPF
     MD5 check sum: 4fc038260c66a0bf25fb4835376efb80
     Pseudo is Norm-conserving, Zval = 25.0
     Generated in analytical, separable form
     Using radial grid of 1271 points,  6 beta functions with: 
                l(1) =   0
                l(2) =   0
                l(3) =   1
                l(4) =   1
                l(5) =   2
                l(6) =   3

     atomic species   valence    mass     pseudopotential
        Mg            20.00    24.30500     Dy( 1.00)
        Zn            25.00    65.39000     Lu( 1.00)

     24 Sym. Ops., with inversion, found (12 have fractional translation)



   Cartesian axes

     site n.     atom                  positions (alat units)
         1           Mg  tau(   1) = (  -0.0000005   0.5773506   0.1003820  )
         2           Mg  tau(   2) = (   0.5000005   0.2886748   0.9044931  )
         3           Mg  tau(   3) = (   0.5000005   0.2886748   1.5078402  )
         4           Mg  tau(   4) = (  -0.0000005   0.5773506   0.7037291  )
         5           Zn  tau(   5) = (   0.0000000   0.0000000   0.0000000  )
         6           Zn  tau(   6) = (   0.0000000   0.0000000   0.8041111  )
         7           Zn  tau(   7) = (   0.0000000   0.2950739   1.2061667  )
         8           Zn  tau(   8) = (   0.7444585   0.1475370   0.4020556  )
         9           Zn  tau(   9) = (   0.2555415   0.1475370   0.4020556  )
        10           Zn  tau(  10) = (   0.2444585   0.7184884   1.2061667  )
        11           Zn  tau(  11) = (  -0.2444585   0.7184884   1.2061667  )
        12           Zn  tau(  12) = (   0.5000000   0.5709515   0.4020556  )

     number of k points=    12  gaussian smearing, width (Ry)=  0.1000
                       cart. coord. in units 2pi/alat
        k(    1) = (   0.0000000   0.0000000   0.0000000), wk =   0.0833333
        k(    2) = (   0.0000000   0.0000000   0.1554512), wk =   0.1666667
        k(    3) = (   0.0000000   0.0000000  -0.3109023), wk =   0.0833333
        k(    4) = (   0.0000000   0.3849002   0.0000000), wk =   0.1666667
        k(    5) = (   0.0000000   0.3849002   0.1554512), wk =   0.3333333
        k(    6) = (   0.0000000   0.3849002  -0.3109023), wk =   0.1666667
        k(    7) = (  -0.5000000  -0.2886751   0.0000000), wk =   0.0833333
        k(    8) = (  -0.5000000  -0.2886751   0.1554512), wk =   0.1666667
        k(    9) = (  -0.5000000  -0.2886751  -0.3109023), wk =   0.0833333
        k(   10) = (  -0.5000000   0.0962250   0.0000000), wk =   0.1666667
        k(   11) = (  -0.5000000   0.0962250   0.1554512), wk =   0.3333333
        k(   12) = (  -0.5000000   0.0962250  -0.3109023), wk =   0.1666667

     Dense  grid:    46361 G-vectors     FFT dimensions: (  40,  40,  72)

     Largest allocated arrays     est. size (Mb)     dimensions
        Kohn-Sham Wavefunctions         3.79 Mb     (   1478,  168)
        NL pseudopotentials             5.41 Mb     (   1478,  240)
        Each V/rho on FFT grid          0.44 Mb     (  28800)
        Each G-vector array             0.09 Mb     (  11589)
        G-vector shells                 0.09 Mb     (  11589)
     Largest temporary arrays     est. size (Mb)     dimensions
        Each subspace H/S matrix        0.43 Mb     ( 168, 168)
        Each <psi_i|beta_j> matrix      0.62 Mb     (    240,  168)
        Arrays for rho mixing           3.52 Mb     (  28800,   8)

     Initial potential from superposition of free atoms

     Starting from uniform charge
     Starting wfc are    0 randomized atomic wfcs

     total cpu time spent up to now is        5.7 secs

     Self-consistent Calculation

     iteration #  1     ecut=    40.00 Ry     beta=0.70
     CG style diagonalization
     ethr =  1.00E-02,  avg # of iterations = 21.4

     total cpu time spent up to now is      182.7 secs

     total energy              =   -2931.22666250 Ry
     Harris-Foulkes estimate   =   -6183.33164385 Ry
     estimated scf accuracy    <    3879.02490659 Ry

     iteration #  2     ecut=    40.00 Ry     beta=0.70
     CG style diagonalization
     ethr =  1.00E-02,  avg # of iterations = 19.9

     total cpu time spent up to now is      339.6 secs

     total energy              =   -3014.48103025 Ry
     Harris-Foulkes estimate   =   -6580.23500024 Ry
     estimated scf accuracy    <    7678.55469220 Ry

     iteration #  3     ecut=    40.00 Ry     beta=0.70
     CG style diagonalization
     c_bands:  5 eigenvalues not converged
     c_bands:  5 eigenvalues not converged
     c_bands:  3 eigenvalues not converged
     c_bands:  1 eigenvalues not converged
     c_bands:  2 eigenvalues not converged
     c_bands:  4 eigenvalues not converged
     c_bands:  5 eigenvalues not converged
     c_bands:  3 eigenvalues not converged
     c_bands:  4 eigenvalues not converged
     ethr =  1.00E-02,  avg # of iterations = 15.0

     total cpu time spent up to now is      456.6 secs

     total energy              =   -4573.47260474 Ry
     Harris-Foulkes estimate   =   -4771.16625648 Ry
     estimated scf accuracy    <     440.76729910 Ry

     iteration #  4     ecut=    40.00 Ry     beta=0.70
     CG style diagonalization
     ethr =  1.00E-02,  avg # of iterations =  6.9

     total cpu time spent up to now is      510.5 secs

     total energy              =   -4654.32454623 Ry
     Harris-Foulkes estimate   =   -4674.96847912 Ry
     estimated scf accuracy    <      40.82867670 Ry

     iteration #  5     ecut=    40.00 Ry     beta=0.70
     CG style diagonalization
     ethr =  1.00E-02,  avg # of iterations =  3.8

     total cpu time spent up to now is      536.7 secs

     total energy              =   -4662.07793800 Ry
     Harris-Foulkes estimate   =   -4665.57592711 Ry
     estimated scf accuracy    <       6.90931997 Ry

     iteration #  6     ecut=    40.00 Ry     beta=0.70
     CG style diagonalization
     ethr =  2.47E-03,  avg # of iterations =  3.7

     total cpu time spent up to now is      562.2 secs

     total energy              =   -4663.53924246 Ry
     Harris-Foulkes estimate   =   -4663.78274008 Ry
     estimated scf accuracy    <       0.47233075 Ry

     iteration #  7     ecut=    40.00 Ry     beta=0.70
     CG style diagonalization
     c_bands:  2 eigenvalues not converged
     c_bands:  2 eigenvalues not converged
     ethr =  1.69E-04,  avg # of iterations =  4.1

     total cpu time spent up to now is      591.7 secs

     total energy              =   -4663.67145373 Ry
     Harris-Foulkes estimate   =   -4663.69322018 Ry
     estimated scf accuracy    <       0.03223360 Ry

     iteration #  8     ecut=    40.00 Ry     beta=0.70
     CG style diagonalization
     c_bands:  4 eigenvalues not converged
     c_bands:  2 eigenvalues not converged
     c_bands:  1 eigenvalues not converged
     ethr =  1.15E-05,  avg # of iterations =  4.5

     total cpu time spent up to now is      624.0 secs

     total energy              =   -4663.68585537 Ry
     Harris-Foulkes estimate   =   -4663.69307737 Ry
     estimated scf accuracy    <       0.01429572 Ry

     iteration #  9     ecut=    40.00 Ry     beta=0.70
     CG style diagonalization
     c_bands:  1 eigenvalues not converged
     ethr =  5.11E-06,  avg # of iterations =  3.5

     total cpu time spent up to now is      648.1 secs

     total energy              =   -4663.68890979 Ry
     Harris-Foulkes estimate   =   -4663.68950480 Ry
     estimated scf accuracy    <       0.00102682 Ry

     iteration # 10     ecut=    40.00 Ry     beta=0.70
     CG style diagonalization
     ethr =  3.67E-07,  avg # of iterations =  4.0

     total cpu time spent up to now is      675.3 secs

     total energy              =   -4663.68931084 Ry
     Harris-Foulkes estimate   =   -4663.68941975 Ry
     estimated scf accuracy    <       0.00020682 Ry

     iteration # 11     ecut=    40.00 Ry     beta=0.70
     CG style diagonalization
     ethr =  7.39E-08,  avg # of iterations =  3.6

     total cpu time spent up to now is      700.6 secs

     End of self-consistent calculation

          k = 0.0000 0.0000 0.0000 (  5769 PWs)   bands (ev):

  -100.6296-100.6295-100.5968-100.5967-100.5966-100.5178-100.4981-100.4608
   -56.4970 -56.4554 -56.2868 -56.2738 -56.2738 -56.2717 -56.2716 -56.2040
   -56.1839 -56.1838 -56.1765 -56.1610 -56.1609 -56.1311 -56.1311 -56.1075
   -56.1075 -56.0833 -56.0826 -56.0718 -56.0569 -56.0568 -56.0236 -56.0236
   -46.9151 -46.9147 -46.9038 -46.9020 -13.9525 -13.9435 -13.9423 -13.9423
   -13.9225 -13.9225 -13.8678 -13.8464 -13.8464 -13.8463 -13.8443 -13.8443
     2.1667   2.3760   2.5660   2.8366   2.8367   2.8782   2.8782   3.1051
     3.1051   3.2484   3.3758   3.3758   3.6875   3.9200   3.9461   3.9461
     4.0519   4.0519   4.3247   4.4351   4.4351   4.4794   4.4794   4.5370
     4.5370   4.6130   4.6194   4.6606   4.6884   4.6884   4.7241   4.7241
     4.8543   4.8544   5.1345   5.1345   5.2716   5.2717   5.4513   5.4543
    13.7951  15.1106  18.0318  20.2775  21.2933  21.6916  21.6917  23.2576
    23.2577  23.2837  23.9058  23.9058  24.1035  24.1036  24.9223  24.9224
    25.7755  25.8956  25.8957  26.4258  27.3417  27.4134  27.4134  27.4490
    27.4490  27.5724  27.5724  27.7440  27.9917  27.9918  28.1857  28.1857
    28.4573  29.0104  29.7187  29.7187  30.4185  30.4185  30.9735  32.3775
    32.6245  32.6245  33.5808  34.1532  34.1533  35.1300  35.3770  35.3770
    35.5962  35.7054  36.3459  36.9783  36.9783  36.9860  36.9860  37.0452
    37.0452  37.2336  38.9036  39.1627  39.3101  39.3884  39.3898  39.4814
    39.5500  39.5500  40.3265  40.3265  41.3717  41.3717  41.4983  42.1389
    42.1391  43.4438  43.9048  44.3658  44.3661  44.4652  44.4659  44.5675

          k = 0.0000 0.0000 0.1555 (  5780 PWs)   bands (ev):

  -100.6398-100.6398-100.6183-100.6183-100.5663-100.5233-100.4979-100.4942
   -56.4918 -56.4567 -56.2894 -56.2782 -56.2782 -56.2738 -56.2738 -56.2180
   -56.1856 -56.1855 -56.1712 -56.1712 -56.1517 -56.1233 -56.1233 -56.1160
   -56.1160 -56.0874 -56.0861 -56.0820 -56.0539 -56.0538 -56.0271 -56.0270
   -46.9205 -46.9115 -46.9058 -46.9035 -13.9462 -13.9442 -13.9351 -13.9351
   -13.9316 -13.9316 -13.8756 -13.8505 -13.8482 -13.8482 -13.8463 -13.8463
     2.1833   2.3136   2.6762   2.8413   2.8413   2.8709   2.8709   3.1145
     3.1380   3.1380   3.3255   3.3255   3.7753   3.9116   3.9777   3.9777
     4.0464   4.0464   4.3704   4.4436   4.4436   4.4758   4.4758   4.5548
     4.5549   4.6119   4.6121   4.6169   4.6629   4.6629   4.7366   4.7366
     4.8259   4.8259   5.1590   5.1591   5.2552   5.2553   5.4513   5.4523
    13.9231  14.8020  18.5711  20.1568  21.3713  21.8251  21.8252  22.5885
    22.8003  22.8004  24.0224  24.0225  24.5113  24.5114  24.8327  24.8328
    25.7364  25.7387  25.7387  26.0162  27.3675  27.3676  27.5394  27.5394
    27.5501  27.5501  27.7019  27.8566  27.9027  27.9027  28.4439  28.4439
    29.2745  29.3686  29.4191  29.4191  30.6846  30.6846  31.0241  32.3869
    32.4551  32.4551  33.7670  33.8935  33.8935  33.9870  34.3508  35.8889
    35.9924  35.9925  36.2650  36.2650  36.9696  37.3387  37.3387  37.3737
    37.3737  37.3933  38.4953  38.8979  39.2129  39.4851  39.5621  39.5621
    39.5883  39.6783  39.8653  39.8654  41.0326  41.0327  42.1053  42.4228
    42.4230  43.9667  43.9678  44.0513  44.3758  44.3765  44.4552  44.4734

          k = 0.0000 0.0000-0.3109 (  5780 PWs)   bands (ev):

  -100.6227-100.6226-100.5873-100.5873-100.5873-100.5873-100.4972-100.4972
   -56.4681 -56.4680 -56.2832 -56.2831 -56.2702 -56.2702 -56.2702 -56.2702
   -56.1706 -56.1706 -56.1706 -56.1706 -56.1244 -56.1244 -56.1244 -56.1244
   -56.1239 -56.1239 -56.0773 -56.0773 -56.0391 -56.0391 -56.0390 -56.0390
   -46.9158 -46.9155 -46.9044 -46.9041 -13.9463 -13.9461 -13.9316 -13.9316
   -13.9315 -13.9315 -13.8726 -13.8723 -13.8432 -13.8432 -13.8432 -13.8432
     2.2308   2.2308   2.8548   2.8548   2.8548   2.8548   2.8846   2.8846
     3.2248   3.2248   3.2248   3.2248   3.8687   3.8687   4.0250   4.0251
     4.0251   4.0251   4.4627   4.4627   4.4628   4.4628   4.4898   4.4898
     4.6043   4.6043   4.6043   4.6043   4.6183   4.6183   4.7746   4.7746
     4.7746   4.7746   5.2113   5.2113   5.2114   5.2114   5.4527   5.4528
    14.2838  14.2838  19.5625  19.5625  21.7070  21.7070  22.2222  22.2222
    22.2223  22.2223  24.3268  24.3268  24.3268  24.3269  25.3023  25.3023
    25.3023  25.3023  25.7037  25.7039  27.4883  27.4883  27.4884  27.4884
    27.6757  27.6757  27.6758  27.6758  27.9032  27.9033  28.9098  28.9098
    28.9098  28.9098  30.0616  30.0617  31.4770  31.4771  31.4771  31.4771
    31.7781  31.7781  33.0046  33.0046  34.7796  34.7796  34.7797  34.7797
    34.8188  34.8188  37.1223  37.1223  37.1223  37.1223  37.8481  37.8481
    38.3194  38.3194  38.3194  38.3194  38.3234  38.3234  39.1505  39.1506
    39.7453  39.7454  40.3967  40.3967  40.3967  40.3967  43.1233  43.1233
    43.1234  43.1234  43.3373  43.3374  44.4061  44.4062  44.4062  44.4064

          k = 0.0000 0.3849 0.0000 (  5787 PWs)   bands (ev):

  -100.6529-100.6295-100.6228-100.5885-100.5842-100.5418-100.5221-100.4938
   -56.4377 -56.4085 -56.3116 -56.3062 -56.2924 -56.2594 -56.2520 -56.1883
   -56.1857 -56.1791 -56.1682 -56.1626 -56.1541 -56.1531 -56.1468 -56.1397
   -56.1286 -56.1025 -56.0992 -56.0874 -56.0660 -56.0560 -56.0390 -56.0207
   -46.9155 -46.9129 -46.9091 -46.9075 -13.9554 -13.9514 -13.9415 -13.9304
   -13.9300 -13.9186 -13.8816 -13.8647 -13.8500 -13.8497 -13.8433 -13.8361
     2.5206   2.6951   2.7249   2.9958   3.0009   3.0555   3.1562   3.2516
     3.3508   3.3628   3.5268   3.5326   3.6930   3.8477   4.0158   4.0576
     4.0581   4.1665   4.1836   4.2238   4.2597   4.3038   4.3144   4.3238
     4.4648   4.4738   4.4928   4.5738   4.6167   4.6378   4.6735   4.7053
     4.7704   4.8019   4.8649   4.9790   4.9858   5.0797   5.1485   5.3164
    14.4050  15.6956  17.6629  18.4500  18.4698  21.2737  21.9996  23.3465
    23.3702  23.7963  23.9004  24.7643  25.3646  25.4457  25.6582  25.8084
    25.8197  25.9569  26.1491  26.4826  26.6629  26.6808  27.2162  27.2968
    27.4625  27.5278  27.5331  27.6572  27.7388  27.7413  28.2644  28.4907
    28.8231  29.3995  29.9939  30.4370  30.4572  30.6949  31.8787  32.6676
    33.2903  33.3296  33.5721  34.0135  34.3139  34.8674  35.1319  35.3150
    35.9534  36.0838  36.4978  36.8228  36.9706  37.1373  37.3436  37.6783
    37.6820  37.9758  38.2112  38.7404  39.4968  39.5342  39.7866  39.8107
    39.8893  40.0900  40.4904  40.5878  41.2975  41.3609  41.6795  41.9536
    42.3112  42.3327  42.7295  42.8715  43.0107  43.2809  43.3788  43.8313

          k = 0.0000 0.3849 0.1555 (  5804 PWs)   bands (ev):

  -100.6493-100.6402-100.6312-100.6171-100.6011-100.5934-100.5283-100.4950
   -56.4395 -56.4196 -56.3089 -56.3062 -56.2822 -56.2569 -56.2549 -56.2208
   -56.1865 -56.1855 -56.1767 -56.1675 -56.1663 -56.1613 -56.1378 -56.1339
   -56.1274 -56.0996 -56.0959 -56.0931 -56.0600 -56.0493 -56.0450 -56.0342
   -46.9181 -46.9143 -46.9130 -46.9102 -13.9600 -13.9514 -13.9439 -13.9332
   -13.9318 -13.9226 -13.8827 -13.8751 -13.8506 -13.8478 -13.8470 -13.8375
     2.5316   2.6200   2.8263   2.9652   3.0240   3.1092   3.1710   3.2385
     3.2696   3.3683   3.3941   3.4901   3.8111   3.8958   4.0313   4.0532
     4.0845   4.1345   4.1578   4.1698   4.2602   4.3208   4.3338   4.3905
     4.4344   4.4926   4.5231   4.5728   4.6291   4.6306   4.6566   4.7082
     4.7535   4.7887   4.8820   4.9538   4.9932   5.0127   5.2041   5.3013
    14.5279  15.3934  17.7200  18.1729  19.2780  21.3683  21.8834  22.3196
    23.3302  23.6047  24.3637  24.7781  25.3315  25.3690  25.5371  25.5596
    25.9261  26.0478  26.1528  26.2907  26.9097  26.9229  27.2747  27.3591
    27.4061  27.5859  27.6488  27.7186  27.8516  27.9627  28.3773  28.8694
    28.8810  29.4857  30.0805  30.1644  30.1750  30.8963  31.5628  32.3353
    33.0491  33.1355  34.0509  34.3431  34.4470  34.6534  35.0129  35.2506
    35.3079  35.5052  36.2247  36.6872  37.1494  37.3523  37.5510  37.9335
    38.0668  38.2492  38.3541  39.0995  39.2314  39.3477  39.5049  39.7719
    40.0429  40.1247  40.4908  40.7188  40.9771  41.1896  41.3923  42.0819
    42.3388  42.4103  42.7970  43.3278  43.4094  43.4744  43.5629  43.9347

          k = 0.0000 0.3849-0.3109 (  5816 PWs)   bands (ev):

  -100.6506-100.6506-100.6379-100.6379-100.6098-100.6097-100.5236-100.5236
   -56.4354 -56.4354 -56.3109 -56.3109 -56.2596 -56.2596 -56.2576 -56.2576
   -56.1851 -56.1851 -56.1747 -56.1746 -56.1643 -56.1642 -56.1366 -56.1366
   -56.1066 -56.1066 -56.0990 -56.0990 -56.0540 -56.0540 -56.0434 -56.0434
   -46.9171 -46.9170 -46.9147 -46.9147 -13.9552 -13.9551 -13.9377 -13.9376
   -13.9329 -13.9328 -13.8827 -13.8825 -13.8495 -13.8494 -13.8451 -13.8451
     2.5628   2.5628   2.9226   2.9226   3.1066   3.1066   3.2069   3.2069
     3.2292   3.2293   3.4205   3.4205   3.9114   3.9114   4.0674   4.0674
     4.0735   4.0735   4.1556   4.1556   4.2869   4.2869   4.3644   4.3644
     4.4991   4.4991   4.5776   4.5776   4.6009   4.6009   4.7132   4.7132
     4.7235   4.7235   4.9316   4.9316   4.9705   4.9705   5.2621   5.2621
    14.8870  14.8870  17.9214  17.9215  20.6957  20.6957  21.6158  21.6158
    23.4029  23.4029  24.9126  24.9126  24.9677  24.9678  25.7205  25.7206
    25.8050  25.8050  26.1724  26.1724  27.2132  27.2133  27.2894  27.2895
    27.3936  27.3936  27.7671  27.7672  28.1186  28.1187  28.8802  28.8803
    29.4148  29.4148  29.4951  29.4951  31.3985  31.3985  31.4793  31.4793
    32.6449  32.6449  33.6741  33.6741  34.8679  34.8679  35.1489  35.1490
    35.6323  35.6323  36.1614  36.1614  37.2295  37.2295  38.1604  38.1604
    38.2176  38.2176  38.7395  38.7395  38.9287  38.9287  39.7125  39.7126
    40.2952  40.2952  40.4661  40.4661  40.7415  40.7416  42.0748  42.0748
    42.2590  42.2591  43.6278  43.6280  43.6298  43.6299  43.9999  44.0001

          k =-0.5000-0.2887 0.0000 (  5800 PWs)   bands (ev):

  -100.6740-100.6694-100.6179-100.5919-100.5889-100.5666-100.5222-100.4928
   -56.4125 -56.3931 -56.3395 -56.3085 -56.3019 -56.2519 -56.2500 -56.1905
   -56.1899 -56.1786 -56.1751 -56.1658 -56.1646 -56.1599 -56.1529 -56.1444
   -56.1326 -56.1092 -56.1018 -56.0848 -56.0675 -56.0594 -56.0412 -56.0211
   -46.9178 -46.9162 -46.9102 -46.9082 -13.9639 -13.9495 -13.9449 -13.9321
   -13.9272 -13.9047 -13.8978 -13.8767 -13.8511 -13.8467 -13.8444 -13.8373
     2.6278   2.7599   2.7742   3.0222   3.1483   3.1740   3.3031   3.3034
     3.3996   3.5389   3.6061   3.7688   3.8526   3.8817   3.9222   3.9502
     4.0629   4.0803   4.0990   4.1278   4.1801   4.2015   4.2172   4.2779
     4.3320   4.3843   4.4293   4.5161   4.5708   4.5998   4.6200   4.6492
     4.7504   4.7746   4.7771   4.8816   4.9765   5.0159   5.1565   5.3130
    14.7565  16.0210  17.1160  17.5672  18.6282  21.1603  21.8015  23.2620
    23.4981  23.7438  24.2032  25.1501  25.4783  25.4785  25.5967  25.9303
    26.1101  26.1663  26.2842  26.2865  26.3340  26.7958  26.9357  27.1633
    27.3644  27.5560  27.5983  27.6203  27.6757  27.8758  27.9379  28.3386
    28.3632  30.4172  30.5862  30.7418  31.8240  31.9671  32.2295  32.6795
    32.8044  33.0097  33.0178  33.4593  33.5227  34.2673  34.8437  35.2100
    35.9593  36.0160  36.3848  37.0526  37.3709  37.6630  37.8525  38.1854
    38.3329  38.3645  38.5315  38.6007  38.9902  39.1907  39.7210  39.8681
    40.0034  40.7023  41.0122  41.2275  41.3290  41.3402  41.5606  41.6059
    41.7554  41.9674  42.5661  42.7276  43.0325  43.5584  43.7082  43.7328

          k =-0.5000-0.2887 0.1555 (  5822 PWs)   bands (ev):

  -100.6901-100.6547-100.6538-100.6385-100.6245-100.5730-100.5315-100.5127
   -56.4153 -56.3972 -56.3365 -56.3295 -56.2884 -56.2554 -56.2533 -56.2159
   -56.1911 -56.1818 -56.1816 -56.1743 -56.1720 -56.1640 -56.1438 -56.1408
   -56.1233 -56.1107 -56.1053 -56.0942 -56.0691 -56.0589 -56.0457 -56.0300
   -46.9204 -46.9196 -46.9147 -46.9118 -13.9603 -13.9564 -13.9483 -13.9385
   -13.9271 -13.9203 -13.8958 -13.8825 -13.8535 -13.8512 -13.8461 -13.8376
     2.6350   2.7014   2.8686   3.0427   3.1325   3.1879   3.1910   3.2838
     3.4130   3.5450   3.6396   3.7775   3.8387   3.8428   3.9527   3.9890
     4.0089   4.0448   4.0961   4.1358   4.1619   4.2258   4.2362   4.2565
     4.3502   4.3900   4.4906   4.5147   4.5453   4.6425   4.6453   4.6548
     4.7433   4.7632   4.7905   4.8732   4.9422   4.9506   5.2003   5.2970
    14.8759  15.7408  17.0881  17.4654  19.3286  21.2466  21.7029  22.4081
    23.4141  23.4200  24.4469  25.1177  25.3987  25.4746  25.8522  25.8849
    25.9133  26.1649  26.3098  26.3827  26.6921  26.9310  26.9932  27.0310
    27.3874  27.4027  27.6277  27.8095  27.8264  27.8477  27.9643  28.7448
    29.0215  29.6796  30.7986  30.9715  31.0953  31.7548  32.2150  32.6481
    32.8956  32.9029  33.0629  33.3485  33.5180  33.7756  35.2090  35.2576
    35.4573  36.5290  36.5623  37.1969  37.2963  37.4636  37.5803  38.1904
    38.2185  38.2758  38.5218  38.8916  39.2457  39.5083  39.6291  40.1573
    40.1939  40.2541  40.7870  40.8121  41.1788  41.4063  41.8223  41.8986
    41.9185  42.1282  42.6316  42.9343  42.9887  43.1721  43.6397  43.8394

          k =-0.5000-0.2887-0.3109 (  5804 PWs)   bands (ev):

  -100.6544-100.6544-100.6510-100.6510-100.5891-100.5890-100.4839-100.4839
   -56.4090 -56.4090 -56.3325 -56.3325 -56.2543 -56.2543 -56.2524 -56.2524
   -56.1783 -56.1783 -56.1704 -56.1703 -56.1649 -56.1648 -56.1420 -56.1420
   -56.1074 -56.1074 -56.0967 -56.0967 -56.0524 -56.0524 -56.0446 -56.0446
   -46.9152 -46.9151 -46.9126 -46.9125 -13.9545 -13.9544 -13.9417 -13.9417
   -13.9188 -13.9186 -13.8811 -13.8809 -13.8498 -13.8497 -13.8464 -13.8463
     2.6606   2.6606   3.0135   3.0135   3.0936   3.0936   3.2376   3.2376
     3.4614   3.4614   3.7591   3.7591   3.8079   3.8080   4.0013   4.0013
     4.0197   4.0197   4.0678   4.0678   4.2091   4.2091   4.2527   4.2527
     4.3902   4.3902   4.5194   4.5194   4.5831   4.5831   4.7188   4.7188
     4.7281   4.7281   4.8505   4.8505   4.8779   4.8779   5.2572   5.2573
    15.2402  15.2403  17.2495  17.2496  20.7821  20.7822  21.4758  21.4758
    23.2690  23.2690  25.1879  25.1880  25.2130  25.2130  25.7629  25.7630
    25.9591  25.9592  26.3504  26.3504  27.0279  27.0281  27.1290  27.1291
    27.3504  27.3505  27.6046  27.6047  27.8544  27.8544  28.7347  28.7349
    29.7848  29.7848  30.4910  30.4910  31.3106  31.3106  32.4556  32.4556
    32.6240  32.6240  33.2264  33.2264  33.2312  33.2312  35.5244  35.5244
    36.5204  36.5205  36.5269  36.5269  37.1164  37.1164  38.0744  38.0744
    38.1074  38.1074  38.8738  38.8738  39.6642  39.6642  39.7858  39.7858
    40.3943  40.3943  40.4075  40.4075  41.2528  41.2530  41.9357  41.9358
    42.0269  42.0270  43.1881  43.1882  43.5650  43.5652  43.7317  43.7755

          k =-0.5000 0.0962 0.0000 (  5827 PWs)   bands (ev):

  -100.6973-100.6664-100.6552-100.6311-100.6118-100.5650-100.5602-100.5188
   -56.4182 -56.4004 -56.3400 -56.3158 -56.3092 -56.2490 -56.2485 -56.1938
   -56.1928 -56.1873 -56.1741 -56.1688 -56.1676 -56.1607 -56.1524 -56.1449
   -56.1405 -56.1142 -56.1108 -56.0932 -56.0699 -56.0621 -56.0450 -56.0349
   -46.9198 -46.9178 -46.9169 -46.9146 -13.9637 -13.9588 -13.9521 -13.9432
   -13.9280 -13.9087 -13.8962 -13.8769 -13.8534 -13.8500 -13.8475 -13.8460
     2.7192   2.7954   2.8666   3.0018   3.0712   3.1196   3.1281   3.2996
     3.4265   3.5132   3.6298   3.6534   3.7248   3.8711   3.9404   3.9830
     4.0449   4.0588   4.1490   4.1624   4.2434   4.2470   4.3077   4.3175
     4.3480   4.4132   4.4562   4.4629   4.5709   4.6046   4.6731   4.6827
     4.7383   4.7595   4.8610   4.8974   4.9621   4.9743   5.1194   5.2012
    14.7209  16.0453  17.1733  17.6808  18.6168  20.7412  21.1057  23.9192
    24.0320  24.2192  24.3833  24.9296  25.2153  25.6260  25.7060  25.9199
    25.9669  26.0494  26.1759  26.2839  26.5027  26.6437  27.0882  27.2679
    27.3276  27.4327  27.5810  27.6479  27.6671  27.9626  28.0525  28.2336
    28.5568  29.6264  29.7548  31.0617  31.3413  31.3529  32.2046  32.6153
    32.7192  32.9755  33.3220  33.8415  34.4785  34.9802  35.0574  35.8641
    36.1507  36.3932  36.4629  36.8170  37.4082  37.4130  37.4892  37.9536
    37.9789  38.1045  38.2123  38.7339  38.7680  39.2525  39.4452  39.7379
    39.7679  40.1230  40.5132  41.1160  41.2392  41.5082  41.9497  41.9880
    42.0601  42.2714  42.6726  42.8410  42.8967  42.9042  43.4749  44.0278

          k =-0.5000 0.0962 0.1555 (  5825 PWs)   bands (ev):

  -100.6665-100.6590-100.6478-100.6393-100.6270-100.5965-100.5381-100.5182
   -56.4146 -56.3989 -56.3401 -56.3301 -56.2897 -56.2514 -56.2462 -56.2206
   -56.1916 -56.1840 -56.1770 -56.1730 -56.1681 -56.1665 -56.1447 -56.1403
   -56.1260 -56.1140 -56.1098 -56.0923 -56.0638 -56.0578 -56.0480 -56.0376
   -46.9197 -46.9183 -46.9157 -46.9142 -13.9613 -13.9558 -13.9498 -13.9453
   -13.9269 -13.9141 -13.8901 -13.8826 -13.8542 -13.8490 -13.8480 -13.8437
     2.7233   2.7671   2.9235   3.0019   3.0611   3.1483   3.1674   3.2551
     3.3607   3.4140   3.6550   3.7016   3.7286   3.8774   3.9397   3.9929
     4.0639   4.0871   4.1295   4.1648   4.1926   4.2344   4.2928   4.3332
     4.3898   4.4256   4.4536   4.5244   4.5671   4.6435   4.6568   4.6988
     4.7413   4.7533   4.8319   4.8596   4.9365   4.9674   5.1401   5.1951
    14.8470  15.7311  17.2168  17.5558  19.3344  20.7470  21.0081  22.5538
    23.9651  24.3681  24.8268  24.9452  25.2950  25.5712  25.7762  25.9149
    25.9604  26.0049  26.2524  26.4000  26.6347  26.7850  26.9902  27.2312
    27.3531  27.3991  27.5323  27.7355  27.8347  27.9067  28.2348  28.3388
    29.0964  29.5126  29.8237  30.4270  31.0471  31.5321  31.9658  32.4339
    33.0032  33.1003  33.4770  34.0531  34.5465  34.6360  35.0024  35.3745
    35.6852  36.2084  36.6671  36.7747  37.1940  37.4109  37.6739  37.8207
    37.9242  38.1574  38.7521  38.9121  39.2165  39.3110  39.5914  39.8698
    39.9640  40.1526  40.5648  40.8601  41.1530  41.2413  41.7406  41.9653
    42.1223  42.3334  42.5567  42.9548  43.0285  43.2574  43.7193  43.9918

          k =-0.5000 0.0962-0.3109 (  5824 PWs)   bands (ev):

  -100.6511-100.6511-100.6384-100.6383-100.6228-100.6228-100.5306-100.5306
   -56.4072 -56.4072 -56.3352 -56.3351 -56.2569 -56.2569 -56.2488 -56.2488
   -56.1836 -56.1836 -56.1753 -56.1753 -56.1698 -56.1697 -56.1419 -56.1419
   -56.1155 -56.1155 -56.1043 -56.1043 -56.0550 -56.0550 -56.0475 -56.0475
   -46.9173 -46.9172 -46.9165 -46.9164 -13.9571 -13.9569 -13.9476 -13.9476
   -13.9212 -13.9211 -13.8842 -13.8841 -13.8526 -13.8525 -13.8474 -13.8473
     2.7396   2.7396   2.9896   2.9896   3.1092   3.1092   3.2280   3.2280
     3.3067   3.3067   3.6706   3.6706   3.8225   3.8225   3.9847   3.9847
     4.0982   4.0983   4.1192   4.1192   4.2123   4.2123   4.3008   4.3008
     4.4171   4.4171   4.5299   4.5299   4.6101   4.6101   4.7129   4.7129
     4.7499   4.7499   4.7866   4.7866   4.9392   4.9392   5.1740   5.1740
    15.2106  15.2107  17.3728  17.3729  20.7451  20.7451  20.8944  20.8944
    24.1913  24.1914  25.0150  25.0150  25.3725  25.3725  25.8106  25.8107
    25.9854  25.9855  26.2868  26.2868  26.9063  26.9064  27.1281  27.1281
    27.4065  27.4066  27.5019  27.5019  28.1449  28.1449  28.4543  28.4543
    29.2915  29.2915  30.0175  30.0176  31.3419  31.3419  32.0279  32.0279
    33.1880  33.1881  33.3748  33.3748  34.4526  34.4526  35.5098  35.5098
    35.8165  35.8165  36.4652  36.4652  37.3714  37.3714  37.6948  37.6948
    38.2803  38.2803  38.8743  38.8743  39.2326  39.2326  39.9161  39.9162
    40.3702  40.3702  40.4704  40.4705  41.0199  41.0200  41.8367  41.8367
    42.3621  42.3621  42.9593  42.9594  43.4147  43.4148  43.6781  43.6781

     the Fermi energy is    36.8063 ev

!    total energy              =   -4663.68934758 Ry
     Harris-Foulkes estimate   =   -4663.68935880 Ry
     estimated scf accuracy    <       0.00001292 Ry

     The total energy is the sum of the following terms:

     one-electron contribution =   -1248.92121591 Ry
     hartree contribution      =     803.89113045 Ry
     xc contribution           =    -373.76526242 Ry
     ewald contribution        =   -3844.43410098 Ry
     smearing contrib. (-TS)   =      -0.45989872 Ry

     convergence has been achieved in  11 iterations

     Forces acting on atoms (Ry/au):

     atom    1 type  1   force =     0.00000000    0.00000000    0.02980663
     atom    2 type  1   force =     0.00000000    0.00000000    0.02980663
     atom    3 type  1   force =     0.00000000    0.00000000   -0.02980663
     atom    4 type  1   force =     0.00000000    0.00000000   -0.02980663
     atom    5 type  2   force =     0.00000000    0.00000000    0.00000000
     atom    6 type  2   force =     0.00000000    0.00000000    0.00000000
     atom    7 type  2   force =     0.00000000    0.09820502    0.00000000
     atom    8 type  2   force =    -0.08504804    0.04910251    0.00000000
     atom    9 type  2   force =     0.08504804    0.04910251    0.00000000
     atom   10 type  2   force =    -0.08504804   -0.04910251    0.00000000
     atom   11 type  2   force =     0.08504804   -0.04910251    0.00000000
     atom   12 type  2   force =     0.00000000   -0.09820502    0.00000000

     Total force =     0.247829     Total SCF correction =     0.000000


     entering subroutine stress ...

          total   stress  (Ry/bohr**3)                   (kbar)     P= 1098.44
   0.00733637   0.00000000   0.00000000       1079.22      0.00      0.00
   0.00000000   0.00733637   0.00000000          0.00   1079.22      0.00
   0.00000000   0.00000000   0.00772836          0.00      0.00   1136.88


     BFGS Geometry Optimization

     number of scf cycles    =   1
     number of bfgs steps    =   0

     enthalpy new            =   -4663.6893475790 Ry

     new trust radius        =       0.5000000000 bohr
     new conv_thr            =       0.0001000000 Ry

     new unit-cell volume =   1646.25204 a.u.^3 (   243.94938 Ang^3 )

CELL_PARAMETERS (alat=  9.92348860)
   1.064327847   0.000000000   0.000000000
  -0.532163923   0.921734953   0.000000000
   0.000000000   0.000000000   1.717203317

ATOMIC_POSITIONS (crystal)
Mg       0.333333000   0.666667000   0.063073059
Mg       0.666667000   0.333333000   0.563073059
Mg       0.666667000   0.333333000   0.936926941
Mg       0.333333000   0.666667000   0.436926941
Zn       0.000000000   0.000000000   0.000000000
Zn       0.000000000   0.000000000   0.500000000
Zn       0.172364948   0.344729896   0.750000000
Zn       0.827635052   0.172364948   0.250000000
Zn       0.344729896   0.172364948   0.250000000
Zn       0.655270104   0.827635052   0.750000000
Zn       0.172364948   0.827635052   0.750000000
Zn       0.827635052   0.655270104   0.250000000



     Writing output data file Prototype-La-hP12-MgZn2.save
     NEW-OLD atomic charge density approx. for the potential
     NEW k-points:
        k(    1) = (   0.0000000   0.0000000   0.0000000), wk =   0.0833333
        k(    2) = (   0.0000000   0.0000000   0.1455856), wk =   0.1666667
        k(    3) = (   0.0000000   0.0000000  -0.2911711), wk =   0.0833333
        k(    4) = (   0.0000000   0.3616369   0.0000000), wk =   0.1666667
        k(    5) = (   0.0000000   0.3616369   0.1455856), wk =   0.3333333
        k(    6) = (   0.0000000   0.3616369  -0.2911711), wk =   0.1666667
        k(    7) = (  -0.4697801  -0.2712276   0.0000000), wk =   0.0833333
        k(    8) = (  -0.4697801  -0.2712276   0.1455856), wk =   0.1666667
        k(    9) = (  -0.4697801  -0.2712276  -0.2911711), wk =   0.0833333
        k(   10) = (  -0.4697801   0.0904092   0.0000000), wk =   0.1666667
        k(   11) = (  -0.4697801   0.0904092   0.1455856), wk =   0.3333333
        k(   12) = (  -0.4697801   0.0904092  -0.2911711), wk =   0.1666667

     total cpu time spent up to now is      709.6 secs

     Self-consistent Calculation

     iteration #  1     ecut=    40.00 Ry     beta=0.70
     CG style diagonalization
     c_bands:  1 eigenvalues not converged
     c_bands:  1 eigenvalues not converged
     c_bands:  1 eigenvalues not converged
     c_bands:  2 eigenvalues not converged
     c_bands:  2 eigenvalues not converged
     c_bands:  1 eigenvalues not converged
     c_bands:  1 eigenvalues not converged
     c_bands:  1 eigenvalues not converged
     c_bands:  2 eigenvalues not converged
     ethr =  1.00E-06,  avg # of iterations = 20.9

     total cpu time spent up to now is      868.2 secs

     total energy              =   -4647.10785794 Ry
     Harris-Foulkes estimate   =   -4683.99627483 Ry
     estimated scf accuracy    <      45.18260496 Ry

     iteration #  2     ecut=    40.00 Ry     beta=0.70
     CG style diagonalization
     ethr =  1.00E-02,  avg # of iterations =  4.1

     total cpu time spent up to now is      897.4 secs

     total energy              =   -4656.46624350 Ry
     Harris-Foulkes estimate   =   -4670.88898961 Ry
     estimated scf accuracy    <      23.67049139 Ry

     iteration #  3     ecut=    40.00 Ry     beta=0.70
     CG style diagonalization
     ethr =  8.45E-03,  avg # of iterations =  3.7

     total cpu time spent up to now is      923.7 secs

     total energy              =   -4662.90164337 Ry
     Harris-Foulkes estimate   =   -4665.49445805 Ry
     estimated scf accuracy    <       5.71983339 Ry

     iteration #  4     ecut=    40.00 Ry     beta=0.70
     CG style diagonalization
     ethr =  2.04E-03,  avg # of iterations =  3.5

     total cpu time spent up to now is      947.8 secs

     total energy              =   -4664.12775844 Ry
     Harris-Foulkes estimate   =   -4664.16165899 Ry
     estimated scf accuracy    <       0.05589116 Ry

     iteration #  5     ecut=    40.00 Ry     beta=0.70
     CG style diagonalization
     c_bands:  1 eigenvalues not converged
     c_bands:  1 eigenvalues not converged
     c_bands:  2 eigenvalues not converged
     ethr =  2.00E-05,  avg # of iterations =  4.9

     total cpu time spent up to now is      983.9 secs

     total energy              =   -4664.16504256 Ry
     Harris-Foulkes estimate   =   -4664.17182586 Ry
     estimated scf accuracy    <       0.01323008 Ry

     iteration #  6     ecut=    40.00 Ry     beta=0.70
     CG style diagonalization
     c_bands:  1 eigenvalues not converged
     c_bands:  1 eigenvalues not converged
     ethr =  4.73E-06,  avg # of iterations =  3.6

     total cpu time spent up to now is     1008.0 secs

     total energy              =   -4664.16727565 Ry
     Harris-Foulkes estimate   =   -4664.16815118 Ry
     estimated scf accuracy    <       0.00168541 Ry

     iteration #  7     ecut=    40.00 Ry     beta=0.70
     CG style diagonalization
     c_bands:  1 eigenvalues not converged
     c_bands:  1 eigenvalues not converged
     c_bands:  1 eigenvalues not converged
     ethr =  6.02E-07,  avg # of iterations =  3.6

     total cpu time spent up to now is     1034.1 secs

     End of self-consistent calculation

          k = 0.0000 0.0000 0.0000 (  5769 PWs)   bands (ev):

  -106.3309-106.3309-106.3191-106.2966-106.2966-106.1413-106.0847-106.0306
   -63.0477 -63.0355 -62.9430 -62.9430 -62.9414 -62.9413 -62.8508 -62.8499
   -62.8480 -62.8479 -62.8433 -62.8433 -62.8390 -62.8389 -62.8330 -62.8330
   -62.8141 -62.8069 -62.7431 -62.7161 -62.6177 -62.6177 -62.6128 -62.6128
   -52.9070 -52.8967 -52.8895 -52.8602 -19.9139 -19.9056 -19.9056 -19.8987
   -19.8837 -19.8837 -19.8604 -19.8480 -19.8480 -19.8405 -19.8405 -19.8338
    -3.4349  -3.3456  -3.1126  -3.0845  -3.0845  -3.0793  -3.0793  -2.7986
    -2.7902  -2.7902  -2.5738  -2.5737  -2.4827  -2.3856  -2.3856  -2.3753
    -2.2383  -2.2383  -2.0795  -2.0795  -2.0737  -2.0724  -2.0724  -1.9999
    -1.9921  -1.9623  -1.9622  -1.9378  -1.9378  -1.9235  -1.8744  -1.8743
    -1.8450  -1.8450  -1.6627  -1.6627  -1.5984  -1.5984  -1.5524  -1.5416
     9.4093  10.3835  13.1358  14.8051  15.9798  15.9798  16.2046  16.9269
    16.9269  18.2016  18.8267  18.8267  19.0584  19.0584  19.5592  19.5592
    19.8646  20.3646  20.3646  20.6823  21.2212  21.2212  21.2455  21.3469
    21.3908  21.3908  21.4822  21.4822  21.4856  21.4856  22.0275  22.0275
    22.0787  22.5396  23.0492  23.0492  23.7241  23.7242  24.5472  25.7577
    25.7577  25.8570  26.9470  27.1185  27.1186  28.5462  28.8218  28.8218
    28.9776  29.1960  29.3560  29.8950  29.8950  30.3416  30.3416  30.5009
    30.5009  30.5210  31.3058  31.9051  32.7991  33.0567  33.0567  33.8454
    34.0092  34.0465  34.1910  34.1910  35.2974  35.2974  35.6782  36.0905
    36.0905  36.1039  36.5227  36.5228  36.6082  37.2881  37.2887  37.3791

          k = 0.0000 0.0000 0.1456 (  5780 PWs)   bands (ev):

  -106.3546-106.3545-106.3252-106.3251-106.2630-106.1913-106.0646-106.0612
   -63.0452 -63.0345 -62.9453 -62.9453 -62.9445 -62.9445 -62.8531 -62.8474
   -62.8473 -62.8460 -62.8443 -62.8443 -62.8403 -62.8403 -62.8377 -62.8377
   -62.8175 -62.8134 -62.7389 -62.7212 -62.6192 -62.6192 -62.6133 -62.6133
   -52.9098 -52.9054 -52.8864 -52.8650 -19.9050 -19.9039 -19.8967 -19.8967
   -19.8951 -19.8951 -19.8690 -19.8496 -19.8496 -19.8441 -19.8441 -19.8388
    -3.4248  -3.3584  -3.0859  -3.0858  -3.0781  -3.0781  -3.0685  -2.8535
    -2.7688  -2.7688  -2.6211  -2.6211  -2.4468  -2.3770  -2.3440  -2.3440
    -2.2489  -2.2489  -2.0785  -2.0784  -2.0703  -2.0703  -2.0521  -2.0065
    -1.9997  -1.9597  -1.9597  -1.9433  -1.9245  -1.9245  -1.8987  -1.8987
    -1.8582  -1.8582  -1.6584  -1.6584  -1.6087  -1.6087  -1.5531  -1.5485
     9.5110  10.1712  13.5107  14.6769  16.0746  16.0746  16.2935  16.7235
    16.7236  17.4890  18.9133  18.9134  19.2910  19.2911  19.4595  19.4595
    20.0348  20.2266  20.2266  20.3627  21.1959  21.1959  21.4114  21.4114
    21.4188  21.4188  21.4566  21.4693  21.4693  21.5761  22.2105  22.2105
    22.6524  22.8540  22.8586  22.8586  23.9645  23.9645  24.5382  25.4981
    25.4981  25.9051  27.1000  27.1112  27.1112  27.2805  27.5440  29.0402
    29.0402  29.2584  29.5920  29.5920  30.5338  30.6141  30.6803  30.6804
    30.7308  30.7308  31.1611  32.4718  32.4718  32.5417  33.0731  33.8707
    33.8877  34.1177  34.3212  34.3212  35.1137  35.1138  35.9850  36.1047
    36.1048  36.3279  36.4423  36.4423  36.9042  37.4886  37.4890  37.5032

          k = 0.0000 0.0000-0.2912 (  5780 PWs)   bands (ev):

  -106.3447-106.3447-106.2834-106.2834-106.2834-106.2833-106.0551-106.0551
   -63.0353 -63.0353 -62.9423 -62.9423 -62.9423 -62.9423 -62.8712 -62.8712
   -62.8452 -62.8452 -62.8452 -62.8451 -62.8369 -62.8369 -62.8369 -62.8369
   -62.8109 -62.8108 -62.7312 -62.7312 -62.6150 -62.6150 -62.6149 -62.6149
   -52.9048 -52.9046 -52.8777 -52.8775 -19.9050 -19.9048 -19.8941 -19.8941
   -19.8940 -19.8940 -19.8675 -19.8673 -19.8412 -19.8412 -19.8411 -19.8411
    -3.4034  -3.4034  -3.0830  -3.0830  -3.0830  -3.0830  -2.9645  -2.9645
    -2.7004  -2.7004  -2.7003  -2.7003  -2.4100  -2.4099  -2.2791  -2.2790
    -2.2790  -2.2790  -2.0801  -2.0801  -2.0801  -2.0801  -2.0014  -2.0014
    -1.9888  -1.9887  -1.9354  -1.9354  -1.9354  -1.9354  -1.8884  -1.8884
    -1.8884  -1.8884  -1.6340  -1.6340  -1.6340  -1.6340  -1.5476  -1.5476
     9.7885   9.7885  14.2065  14.2065  16.3656  16.3656  16.3657  16.3657
    16.6586  16.6586  19.1426  19.1427  19.1427  19.1427  19.8377  19.8377
    19.8378  19.8378  20.1025  20.1027  21.2795  21.2795  21.2795  21.2796
    21.4376  21.4376  21.4377  21.4377  21.6314  21.6316  22.5264  22.5264
    22.5264  22.5264  23.3748  23.3748  24.6575  24.6575  24.6575  24.6575
    25.1166  25.1167  26.4198  26.4198  27.9161  27.9161  27.9161  27.9161
    28.2131  28.2131  30.5775  30.5775  30.5775  30.5775  30.8629  30.8630
    31.3448  31.3448  31.3448  31.3449  31.9798  31.9798  33.6831  33.6831
    34.0061  34.0061  34.7002  34.7002  34.7002  34.7003  36.2210  36.2210
    36.2210  36.2211  36.7553  36.7554  37.2910  37.5919  37.5920  37.5920

          k = 0.0000 0.3616 0.0000 (  5787 PWs)   bands (ev):

  -106.3849-106.3447-106.3407-106.2795-106.2792-106.2260-106.0892-106.0477
   -63.0240 -63.0196 -62.9608 -62.9578 -62.9431 -62.9412 -62.8666 -62.8550
   -62.8474 -62.8460 -62.8440 -62.8432 -62.8402 -62.8382 -62.8340 -62.8331
   -62.8241 -62.8208 -62.7367 -62.7186 -62.6245 -62.6201 -62.6184 -62.6125
   -52.9053 -52.9008 -52.8862 -52.8827 -19.9097 -19.9067 -19.9018 -19.8999
   -19.8927 -19.8907 -19.8664 -19.8588 -19.8512 -19.8510 -19.8389 -19.8385
    -3.2341  -3.1748  -3.0004  -2.9804  -2.9614  -2.8679  -2.8116  -2.8054
    -2.7511  -2.6203  -2.6056  -2.5452  -2.4840  -2.4507  -2.3249  -2.3104
    -2.2644  -2.2226  -2.2087  -2.2027  -2.1860  -2.1645  -2.1285  -2.1068
    -2.0708  -2.0561  -2.0265  -2.0152  -1.9652  -1.9359  -1.9319  -1.8613
    -1.8397  -1.8281  -1.8127  -1.7516  -1.7330  -1.7330  -1.6706  -1.5845
     9.9402  10.9409  12.5639  13.2491  13.3891  15.6208  16.1705  17.5559
    18.1798  18.6757  18.7662  19.5576  19.6767  19.9017  20.0690  20.1486
    20.2646  20.3227  20.5549  20.7589  20.8485  20.8906  21.0691  21.1762
    21.3704  21.4152  21.4208  21.4775  21.5510  21.5885  21.9052  22.1418
    22.5297  22.6510  23.1744  23.6934  23.7809  23.9002  25.1875  25.7222
    26.2216  26.5014  26.5728  27.3482  27.3810  27.8159  28.1180  28.3243
    28.4708  28.8704  29.7104  29.8925  30.0799  30.0997  30.2925  30.6484
    31.0546  31.2062  31.7490  32.1747  32.2490  32.9835  33.0641  33.2043
    33.4778  33.6103  34.3594  34.3777  34.8793  35.0436  35.2320  35.7788
    35.8115  35.8416  35.8462  36.3237  36.5100  36.6291  36.7635  37.0289

          k = 0.0000 0.3616 0.1456 (  5804 PWs)   bands (ev):

  -106.3750-106.3620-106.3493-106.3222-106.3085-106.2905-106.1107-106.0522
   -63.0256 -63.0232 -62.9592 -62.9580 -62.9427 -62.9411 -62.8634 -62.8547
   -62.8527 -62.8506 -62.8472 -62.8462 -62.8443 -62.8424 -62.8410 -62.8406
   -62.8220 -62.8188 -62.7369 -62.7233 -62.6229 -62.6228 -62.6178 -62.6154
   -52.9129 -52.9057 -52.8920 -52.8880 -19.9147 -19.9074 -19.9044 -19.9030
   -19.8973 -19.8936 -19.8723 -19.8683 -19.8520 -19.8484 -19.8467 -19.8398
    -3.2256  -3.1899  -2.9967  -2.9782  -2.9492  -2.8505  -2.8158  -2.8142
    -2.7246  -2.7105  -2.6386  -2.5909  -2.4484  -2.3858  -2.3187  -2.3052
    -2.2572  -2.2392  -2.2190  -2.2172  -2.2013  -2.1548  -2.1398  -2.0996
    -2.0741  -2.0521  -2.0269  -2.0139  -1.9507  -1.9231  -1.9210  -1.8785
    -1.8435  -1.8429  -1.8074  -1.7643  -1.7588  -1.7363  -1.6439  -1.5970
    10.0413  10.7233  12.6001  12.9417  14.1202  15.6877  16.0759  16.7163
    18.1685  18.4138  19.0707  19.5470  19.8541  19.9144  19.9795  20.0725
    20.3445  20.4639  20.4771  20.5946  21.0182  21.0390  21.2394  21.2668
    21.3077  21.4376  21.4776  21.5011  21.5448  21.7603  21.9792  22.3704
    22.5433  22.7255  23.3938  23.4408  23.4823  24.0799  24.8433  25.3424
    26.1889  26.3613  26.9874  27.3426  27.4257  27.8799  27.8931  28.2287
    28.3360  28.5644  29.0554  29.7763  30.0200  30.5171  30.5596  31.1584
    31.3397  31.5031  31.9259  32.0296  32.3626  32.4697  33.0088  33.3366
    33.6434  33.7127  34.2212  34.4828  34.6004  34.8428  35.1569  35.7052
    35.7251  35.9571  36.0878  36.6133  36.6659  36.7123  36.9109  37.0700

          k = 0.0000 0.3616-0.2912 (  5816 PWs)   bands (ev):

  -106.3710-106.3709-106.3614-106.3614-106.3192-106.3192-106.0980-106.0980
   -63.0277 -63.0276 -62.9599 -62.9599 -62.9437 -62.9437 -62.8607 -62.8607
   -62.8520 -62.8520 -62.8470 -62.8470 -62.8466 -62.8466 -62.8404 -62.8404
   -62.8213 -62.8213 -62.7294 -62.7294 -62.6250 -62.6250 -62.6176 -62.6176
   -52.9112 -52.9111 -52.8968 -52.8967 -19.9125 -19.9125 -19.9048 -19.9046
   -19.8978 -19.8978 -19.8758 -19.8757 -19.8499 -19.8498 -19.8479 -19.8479
    -3.2137  -3.2137  -2.9915  -2.9915  -2.8771  -2.8771  -2.8161  -2.8160
    -2.7299  -2.7299  -2.6629  -2.6629  -2.3813  -2.3813  -2.2959  -2.2959
    -2.2624  -2.2623  -2.2345  -2.2345  -2.1718  -2.1718  -2.1256  -2.1256
    -2.0583  -2.0582  -2.0167  -2.0167  -1.9171  -1.9171  -1.8824  -1.8824
    -1.8814  -1.8814  -1.7919  -1.7919  -1.7528  -1.7528  -1.6179  -1.6179
    10.3325  10.3325  12.7309  12.7310  15.3341  15.3341  15.8702  15.8702
    18.2252  18.2252  19.4972  19.4972  19.6644  19.6645  20.1777  20.1778
    20.2718  20.2718  20.5307  20.5307  21.2392  21.2393  21.2907  21.2907
    21.3237  21.3237  21.5710  21.5711  21.7545  21.7545  22.3713  22.3713
    22.8548  22.8548  22.8733  22.8733  24.4702  24.4702  24.5797  24.5797
    25.9114  25.9114  26.8683  26.8683  27.7709  27.7709  28.3014  28.3014
    28.5839  28.5839  29.0633  29.0634  30.2305  30.2305  31.2678  31.2678
    31.5461  31.5461  31.8507  31.8507  32.2789  32.2789  33.2569  33.2569
    33.9895  33.9895  34.2005  34.2005  34.6214  34.6214  35.3301  35.3301
    35.8988  35.8988  36.4061  36.4060  37.0118  37.0117  37.2626  37.2626

          k =-0.4698-0.2712 0.0000 (  5800 PWs)   bands (ev):

  -106.4005-106.3933-106.3363-106.2957-106.2928-106.2623-106.0895-106.0532
   -63.0149 -63.0147 -62.9698 -62.9643 -62.9424 -62.9415 -62.8646 -62.8531
   -62.8520 -62.8508 -62.8465 -62.8465 -62.8434 -62.8372 -62.8364 -62.8359
   -62.8279 -62.8250 -62.7397 -62.7199 -62.6279 -62.6207 -62.6191 -62.6111
   -52.9101 -52.9034 -52.8983 -52.8805 -19.9182 -19.9035 -19.9032 -19.8998
   -19.8916 -19.8831 -19.8817 -19.8712 -19.8515 -19.8511 -19.8478 -19.8360
    -3.1828  -3.1420  -2.9764  -2.8587  -2.8292  -2.8157  -2.7376  -2.6962
    -2.6590  -2.6419  -2.6172  -2.5757  -2.4676  -2.4188  -2.3874  -2.3199
    -2.2863  -2.2765  -2.2504  -2.2308  -2.2292  -2.2091  -2.1841  -2.1511
    -2.1387  -2.1015  -2.0840  -2.0332  -1.9779  -1.9556  -1.9377  -1.8775
    -1.8549  -1.8437  -1.8251  -1.7784  -1.7758  -1.7615  -1.6647  -1.5851
    10.2689  11.2515  12.2578  12.2588  13.4774  15.5122  16.0086  17.6251
    18.2777  18.7068  18.9310  19.4760  19.8570  20.0331  20.0534  20.3882
    20.4839  20.5083  20.6126  20.6539  20.6633  20.9376  21.0323  21.1195
    21.1980  21.4702  21.4938  21.5001  21.5079  21.5589  21.6320  22.0509
    22.1723  23.6829  23.8637  24.1613  24.8375  24.8848  25.3125  25.5877
    25.8028  26.0191  26.1315  26.2964  26.3168  27.3446  27.9703  28.1770
    28.8153  28.9048  29.3552  29.9609  30.6490  30.7660  31.1126  31.3050
    31.4153  31.7042  31.7350  31.7436  32.2633  32.2875  32.3991  32.6973
    33.6354  34.0607  34.1967  34.6699  35.0769  35.1962  35.2669  35.3721
    35.4585  35.5202  35.8391  36.1675  36.2657  36.3313  36.4820  36.9211

          k =-0.4698-0.2712 0.1456 (  5822 PWs)   bands (ev):

  -106.4323-106.3878-106.3739-106.3542-106.3465-106.2664-106.1070-106.0841
   -63.0180 -63.0163 -62.9705 -62.9685 -62.9460 -62.9421 -62.8662 -62.8590
   -62.8509 -62.8505 -62.8497 -62.8479 -62.8442 -62.8425 -62.8415 -62.8414
   -62.8305 -62.8251 -62.7342 -62.7262 -62.6297 -62.6232 -62.6226 -62.6130
   -52.9176 -52.9161 -52.8960 -52.8933 -19.9144 -19.9125 -19.9089 -19.8995
   -19.8992 -19.8979 -19.8884 -19.8785 -19.8524 -19.8519 -19.8486 -19.8412
    -3.1796  -3.1483  -2.9540  -2.8593  -2.8470  -2.7792  -2.7677  -2.7371
    -2.7060  -2.6276  -2.6087  -2.5432  -2.5057  -2.4167  -2.3894  -2.3143
    -2.2921  -2.2820  -2.2446  -2.2363  -2.2233  -2.2157  -2.2001  -2.1643
    -2.1381  -2.1077  -2.0721  -2.0391  -1.9595  -1.9336  -1.9147  -1.8868
    -1.8540  -1.8456  -1.8305  -1.8071  -1.7869  -1.7754  -1.6462  -1.5991
    10.3729  11.0710  12.1090  12.2058  14.1056  15.5719  15.9243  16.7791
    18.2271  18.3042  19.1959  19.8127  19.9595  19.9757  20.1940  20.3344
    20.3759  20.5556  20.6434  20.6513  20.8936  21.0289  21.0452  21.0755
    21.2089  21.3741  21.5296  21.5509  21.6263  21.6737  21.7132  22.3637
    22.4638  23.0824  24.0452  24.2292  24.2651  24.7111  25.2131  25.5297
    25.8679  25.8968  26.0879  26.3724  26.5317  27.0052  28.0555  28.2628
    28.4473  29.3214  29.6307  30.1144  30.3481  30.3669  30.7922  31.3065
    31.4218  31.6407  32.0519  32.2243  32.2446  32.4404  32.8299  33.1201
    33.2782  33.5857  33.9871  34.4635  34.9067  35.0105  35.5470  35.5805
    35.6234  35.7017  35.9325  36.0513  36.3829  36.4655  36.5997  36.6862

          k =-0.4698-0.2712-0.2912 (  5804 PWs)   bands (ev):

  -106.3723-106.3723-106.3712-106.3711-106.2974-106.2974-106.0437-106.0437
   -63.0182 -63.0182 -62.9666 -62.9666 -62.9439 -62.9439 -62.8556 -62.8556
   -62.8518 -62.8518 -62.8452 -62.8452 -62.8441 -62.8441 -62.8381 -62.8381
   -62.8273 -62.8273 -62.7238 -62.7238 -62.6230 -62.6230 -62.6189 -62.6189
   -52.9058 -52.9055 -52.8936 -52.8933 -19.9094 -19.9093 -19.9020 -19.9019
   -19.8902 -19.8900 -19.8735 -19.8734 -19.8508 -19.8507 -19.8486 -19.8484
    -3.1643  -3.1642  -2.8772  -2.8772  -2.8482  -2.8481  -2.7190  -2.7190
    -2.7059  -2.7059  -2.5656  -2.5656  -2.4609  -2.4609  -2.3430  -2.3430
    -2.2670  -2.2670  -2.2606  -2.2605  -2.2118  -2.2118  -2.1850  -2.1850
    -2.1166  -2.1166  -2.0512  -2.0512  -1.9198  -1.9198  -1.8744  -1.8744
    -1.8592  -1.8592  -1.8342  -1.8342  -1.7980  -1.7980  -1.6200  -1.6200
    10.6836  10.6836  12.1157  12.1158  15.3556  15.3556  15.7478  15.7478
    18.1570  18.1570  19.7661  19.7661  19.8379  19.8380  20.2434  20.2435
    20.3958  20.3958  20.6518  20.6519  21.1178  21.1179  21.1276  21.1278
    21.3290  21.3291  21.5090  21.5091  21.6818  21.6818  22.2774  22.2775
    23.1560  23.1561  23.5686  23.5686  24.4465  24.4465  25.3697  25.3698
    25.9524  25.9525  26.1987  26.1987  26.2553  26.2554  28.6003  28.6004
    29.3184  29.3184  29.4463  29.4463  30.0744  30.0744  31.2674  31.2674
    31.2740  31.2740  32.3823  32.3823  32.7156  32.7156  33.0578  33.0578
    33.2229  33.2229  34.0625  34.0625  34.7704  34.7705  35.6088  35.6088
    35.8924  35.8925  36.1750  36.1743  36.4290  36.4290  36.7409  37.0147

          k =-0.4698 0.0904 0.0000 (  5827 PWs)   bands (ev):

  -106.4428-106.3975-106.3869-106.3505-106.3208-106.2609-106.1454-106.0874
   -63.0202 -63.0196 -62.9702 -62.9700 -62.9442 -62.9426 -62.8666 -62.8555
   -62.8535 -62.8525 -62.8494 -62.8474 -62.8452 -62.8452 -62.8398 -62.8356
   -62.8306 -62.8268 -62.7401 -62.7244 -62.6276 -62.6241 -62.6215 -62.6200
   -52.9183 -52.9082 -52.9070 -52.8951 -19.9195 -19.9150 -19.9110 -19.9063
   -19.9035 -19.8895 -19.8792 -19.8693 -19.8589 -19.8537 -19.8521 -19.8456
    -3.1264  -3.0857  -2.9562  -2.9292  -2.9214  -2.8664  -2.7810  -2.7208
    -2.6851  -2.6161  -2.5721  -2.5596  -2.5393  -2.4426  -2.3594  -2.3259
    -2.2910  -2.2721  -2.2501  -2.2369  -2.1723  -2.1695  -2.1616  -2.1496
    -2.1040  -2.0982  -2.0711  -2.0499  -1.9808  -1.9748  -1.9468  -1.8557
    -1.8530  -1.8338  -1.8260  -1.8239  -1.7611  -1.7531  -1.6799  -1.6463
    10.2343  11.2900  12.0876  12.5237  13.4675  15.2806  15.5774  17.9872
    18.8470  18.9365  18.9646  19.6363  19.6922  20.0690  20.1536  20.2860
    20.3973  20.4459  20.4831  20.6304  20.7720  20.8384  21.1144  21.1314
    21.2914  21.3186  21.4800  21.5006  21.5642  21.5927  21.7906  21.9324
    22.1967  22.8455  23.0731  24.3157  24.5048  24.5513  25.3761  25.4668
    25.7057  26.0141  26.3474  26.8192  27.6896  27.8822  28.0093  28.6421
    28.9892  29.2120  29.4418  29.6489  30.2144  30.3537  30.6541  30.9455
    31.0841  31.1477  31.6459  31.6721  32.2112  32.4482  32.8695  33.1071
    33.4339  33.4978  34.2171  34.3491  34.5149  35.0746  35.3576  35.4376
    35.5550  35.6390  36.0425  36.2483  36.3818  36.6071  36.8951  37.1669

          k =-0.4698 0.0904 0.1456 (  5825 PWs)   bands (ev):

  -106.4035-106.3938-106.3716-106.3612-106.3387-106.2954-106.1224-106.0856
   -63.0189 -63.0180 -62.9709 -62.9688 -62.9438 -62.9422 -62.8669 -62.8575
   -62.8542 -62.8527 -62.8494 -62.8468 -62.8446 -62.8441 -62.8422 -62.8399
   -62.8286 -62.8262 -62.7357 -62.7235 -62.6261 -62.6249 -62.6215 -62.6190
   -52.9187 -52.9089 -52.9017 -52.8968 -19.9168 -19.9115 -19.9101 -19.9084
   -19.9017 -19.8907 -19.8771 -19.8762 -19.8550 -19.8525 -19.8501 -19.8482
    -3.1243  -3.0967  -2.9513  -2.9341  -2.9057  -2.8392  -2.7698  -2.7266
    -2.7026  -2.6631  -2.6274  -2.5773  -2.4833  -2.4000  -2.3757  -2.3065
    -2.2885  -2.2746  -2.2419  -2.2275  -2.1964  -2.1828  -2.1656  -2.1542
    -2.0964  -2.0876  -2.0667  -2.0511  -1.9614  -1.9585  -1.9227  -1.8621
    -1.8600  -1.8420  -1.8388  -1.8294  -1.7715  -1.7562  -1.6742  -1.6488
    10.3455  11.0679  12.1055  12.3481  14.1135  15.3067  15.5153  16.8731
    18.7789  18.9678  19.3914  19.6605  19.8319  20.0721  20.2241  20.3378
    20.3964  20.4081  20.5907  20.6508  20.8178  20.9421  21.0781  21.2195
    21.2572  21.3417  21.4251  21.5027  21.5836  21.7197  21.8647  21.9747
    22.5246  22.7537  23.2000  23.7271  24.1779  24.6870  25.0352  25.4049
    26.0087  26.1707  26.4929  27.0137  27.5100  27.6654  28.1175  28.3149
    28.6807  29.1326  29.4971  29.6486  29.9882  30.4130  30.5751  30.8638
    31.0894  31.5533  31.8479  32.2829  32.3252  32.6794  32.9270  33.0691
    33.3104  33.4764  33.7954  34.5966  34.6753  34.8214  35.1343  35.2675
    35.6122  35.8048  35.9936  36.3353  36.5343  36.7187  36.9735  37.1615

          k =-0.4698 0.0904-0.2912 (  5824 PWs)   bands (ev):

  -106.3765-106.3765-106.3587-106.3587-106.3408-106.3408-106.1049-106.1049
   -63.0186 -63.0186 -62.9685 -62.9685 -62.9442 -62.9442 -62.8574 -62.8574
   -62.8543 -62.8543 -62.8487 -62.8486 -62.8465 -62.8465 -62.8409 -62.8409
   -62.8283 -62.8282 -62.7286 -62.7286 -62.6244 -62.6244 -62.6214 -62.6214
   -52.9114 -52.9112 -52.9014 -52.9012 -19.9139 -19.9139 -19.9070 -19.9069
   -19.8952 -19.8951 -19.8760 -19.8759 -19.8546 -19.8546 -19.8516 -19.8515
    -3.1116  -3.1116  -2.9448  -2.9447  -2.8443  -2.8443  -2.7611  -2.7611
    -2.6964  -2.6964  -2.6352  -2.6352  -2.4191  -2.4191  -2.3307  -2.3307
    -2.2780  -2.2779  -2.2226  -2.2226  -2.2020  -2.2020  -2.1677  -2.1677
    -2.0904  -2.0904  -2.0589  -2.0589  -1.9275  -1.9275  -1.8912  -1.8912
    -1.8681  -1.8681  -1.8408  -1.8408  -1.7691  -1.7691  -1.6596  -1.6596
    10.6533  10.6533  12.1925  12.1926  15.3367  15.3368  15.4362  15.4362
    18.8613  18.8613  19.6169  19.6170  19.9215  19.9216  20.2807  20.2808
    20.4124  20.4125  20.6164  20.6165  21.0275  21.0275  21.1712  21.1712
    21.3627  21.3628  21.4502  21.4502  21.8102  21.8102  22.0046  22.0046
    22.6718  22.6718  23.2672  23.2672  24.4192  24.4193  25.0501  25.0501
    26.2363  26.2363  26.5439  26.5440  27.4507  27.4507  28.4606  28.4606
    28.8349  28.8350  29.3514  29.3514  30.3260  30.3260  30.6112  30.6112
    31.5054  31.5054  32.0377  32.0377  32.6930  32.6930  32.8398  32.8398
    33.6396  33.6396  34.3093  34.3093  34.7187  34.7188  35.0307  35.0307
    35.8453  35.8453  36.2503  36.2503  36.5263  36.5262  37.1601  37.1601

     the Fermi energy is    29.8612 ev

!    total energy              =   -4664.16773796 Ry
     Harris-Foulkes estimate   =   -4664.16775774 Ry
     estimated scf accuracy    <       0.00004177 Ry

     The total energy is the sum of the following terms:

     one-electron contribution =   -1592.39824466 Ry
     hartree contribution      =     908.48402444 Ry
     xc contribution           =    -369.28702010 Ry
     ewald contribution        =   -3610.53804159 Ry
     smearing contrib. (-TS)   =      -0.42845604 Ry

     convergence has been achieved in   7 iterations

     Forces acting on atoms (Ry/au):

     atom    1 type  1   force =     0.00000000    0.00000000    0.02068816
     atom    2 type  1   force =     0.00000000    0.00000000    0.02068816
     atom    3 type  1   force =     0.00000000    0.00000000   -0.02068816
     atom    4 type  1   force =     0.00000000    0.00000000   -0.02068816
     atom    5 type  2   force =     0.00000000    0.00000000    0.00000000
     atom    6 type  2   force =     0.00000000    0.00000000    0.00000000
     atom    7 type  2   force =     0.00000000    0.00413065    0.00000000
     atom    8 type  2   force =    -0.00357725    0.00206532    0.00000000
     atom    9 type  2   force =     0.00357725    0.00206532    0.00000000
     atom   10 type  2   force =    -0.00357725   -0.00206532    0.00000000
     atom   11 type  2   force =     0.00357725   -0.00206532    0.00000000
     atom   12 type  2   force =     0.00000000   -0.00413065    0.00000000

     Total force =     0.042595     Total SCF correction =     0.000000


     entering subroutine stress ...

          total   stress  (Ry/bohr**3)                   (kbar)     P= -456.02
  -0.00308599   0.00000000   0.00000000       -453.96      0.00      0.00
   0.00000000  -0.00308599   0.00000000          0.00   -453.96      0.00
   0.00000000   0.00000000  -0.00312794          0.00      0.00   -460.14


     number of scf cycles    =   2
     number of bfgs steps    =   1

     enthalpy old            =   -4663.6893475790 Ry
     enthalpy new            =   -4664.1677379647 Ry

     CASE: enthalpy_new < enthalpy_old

     small trust_radius: resetting bfgs history

     new trust radius        =       0.6345660578 bohr
     new conv_thr            =       0.0000206882 Ry

     new unit-cell volume =   1292.39797 a.u.^3 (   191.51362 Ang^3 )

CELL_PARAMETERS (alat=  9.92348860)
   0.982215315   0.000000000   0.000000000
  -0.491107658   0.850623415   0.000000000
   0.000000000   0.000000000   1.582920513

ATOMIC_POSITIONS (crystal)
Mg       0.333333000   0.666667000   0.064287106
Mg       0.666667000   0.333333000   0.564287106
Mg       0.666667000   0.333333000   0.935712894
Mg       0.333333000   0.666667000   0.435712894
Zn       0.000000000   0.000000000   0.000000000
Zn       0.000000000   0.000000000   0.500000000
Zn       0.172590745   0.345181489   0.750000000
Zn       0.827409255   0.172590745   0.250000000
Zn       0.345181489   0.172590745   0.250000000
Zn       0.654818511   0.827409255   0.750000000
Zn       0.172590745   0.827409255   0.750000000
Zn       0.827409255   0.654818511   0.250000000



     Writing output data file Prototype-La-hP12-MgZn2.save
     NEW-OLD atomic charge density approx. for the potential
     NEW k-points:
        k(    1) = (   0.0000000   0.0000000   0.0000000), wk =   0.0833333
        k(    2) = (   0.0000000   0.0000000   0.1579359), wk =   0.1666667
        k(    3) = (   0.0000000   0.0000000  -0.3158718), wk =   0.0833333
        k(    4) = (   0.0000000   0.3918695   0.0000000), wk =   0.1666667
        k(    5) = (   0.0000000   0.3918695   0.1579359), wk =   0.3333333
        k(    6) = (   0.0000000   0.3918695  -0.3158718), wk =   0.1666667
        k(    7) = (  -0.5090534  -0.2939021   0.0000000), wk =   0.0833333
        k(    8) = (  -0.5090534  -0.2939021   0.1579359), wk =   0.1666667
        k(    9) = (  -0.5090534  -0.2939021  -0.3158718), wk =   0.0833333
        k(   10) = (  -0.5090534   0.0979674   0.0000000), wk =   0.1666667
        k(   11) = (  -0.5090534   0.0979674   0.1579359), wk =   0.3333333
        k(   12) = (  -0.5090534   0.0979674  -0.3158718), wk =   0.1666667

     total cpu time spent up to now is     1043.8 secs

     Self-consistent Calculation

     iteration #  1     ecut=    40.00 Ry     beta=0.70
     CG style diagonalization
     c_bands:  1 eigenvalues not converged
     c_bands:  1 eigenvalues not converged
     c_bands:  1 eigenvalues not converged
     c_bands:  1 eigenvalues not converged
     c_bands:  1 eigenvalues not converged
     c_bands:  1 eigenvalues not converged
     ethr =  1.00E-06,  avg # of iterations = 22.2

     total cpu time spent up to now is     1212.2 secs

     total energy              =   -4640.31105966 Ry
     Harris-Foulkes estimate   =   -4693.41366608 Ry
     estimated scf accuracy    <      65.24947108 Ry

     iteration #  2     ecut=    40.00 Ry     beta=0.70
     CG style diagonalization
     ethr =  1.00E-02,  avg # of iterations =  4.5

     total cpu time spent up to now is     1246.0 secs

     total energy              =   -4660.69662759 Ry
     Harris-Foulkes estimate   =   -4667.36705326 Ry
     estimated scf accuracy    <       9.89569591 Ry

     iteration #  3     ecut=    40.00 Ry     beta=0.70
     CG style diagonalization
     ethr =  3.53E-03,  avg # of iterations =  3.6

     total cpu time spent up to now is     1270.8 secs

     total energy              =   -4662.85722193 Ry
     Harris-Foulkes estimate   =   -4663.18112953 Ry
     estimated scf accuracy    <       0.51861250 Ry

     iteration #  4     ecut=    40.00 Ry     beta=0.70
     CG style diagonalization
     ethr =  1.85E-04,  avg # of iterations =  3.9

     total cpu time spent up to now is     1300.0 secs

     total energy              =   -4663.03559272 Ry
     Harris-Foulkes estimate   =   -4663.09248032 Ry
     estimated scf accuracy    <       0.10483656 Ry

     iteration #  5     ecut=    40.00 Ry     beta=0.70
     CG style diagonalization
     ethr =  3.74E-05,  avg # of iterations =  3.6

     total cpu time spent up to now is     1327.3 secs

     total energy              =   -4663.05980210 Ry
     Harris-Foulkes estimate   =   -4663.06754075 Ry
     estimated scf accuracy    <       0.01349893 Ry

     iteration #  6     ecut=    40.00 Ry     beta=0.70
     CG style diagonalization
     ethr =  4.82E-06,  avg # of iterations =  3.8

     total cpu time spent up to now is     1354.6 secs

     total energy              =   -4663.06288780 Ry
     Harris-Foulkes estimate   =   -4663.06405692 Ry
     estimated scf accuracy    <       0.00239556 Ry

     iteration #  7     ecut=    40.00 Ry     beta=0.70
     CG style diagonalization
     c_bands:  1 eigenvalues not converged
     ethr =  8.56E-07,  avg # of iterations =  3.5

     total cpu time spent up to now is     1380.4 secs

     total energy              =   -4663.06349907 Ry
     Harris-Foulkes estimate   =   -4663.06355082 Ry
     estimated scf accuracy    <       0.00010977 Ry

     iteration #  8     ecut=    40.00 Ry     beta=0.70
     CG style diagonalization
     c_bands:  1 eigenvalues not converged
     ethr =  3.92E-08,  avg # of iterations =  4.1

     total cpu time spent up to now is     1408.7 secs

     End of self-consistent calculation

          k = 0.0000 0.0000 0.0000 (  5769 PWs)   bands (ev):

   -98.8231 -98.7986 -98.7985 -98.7799 -98.7799 -98.7223 -98.6688 -98.6352
   -54.5655 -54.5219 -54.3075 -54.3075 -54.3026 -54.3026 -54.2859 -54.1859
   -54.1859 -54.1843 -54.1735 -54.1586 -54.1586 -54.1391 -54.1391 -54.1139
   -54.1139 -54.0843 -54.0730 -54.0588 -54.0258 -54.0258 -53.9906 -53.9906
   -45.1196 -45.1184 -45.1135 -45.1062 -12.1985 -12.1937 -12.1819 -12.1819
   -12.1600 -12.1599 -12.0934 -12.0737 -12.0737 -12.0711 -12.0711 -12.0709
     3.7543   3.9601   4.3407   4.5253   4.5253   4.5694   4.5694   4.9597
     4.9597   5.0249   5.2756   5.2757   5.5807   5.7844   5.8330   5.8330
     5.9841   5.9841   6.2748   6.4327   6.4327   6.4651   6.4651   6.5568
     6.5568   6.6265   6.6330   6.6519   6.6993   6.6993   6.7493   6.7494
     6.9117   6.9117   7.2296   7.2296   7.3704   7.3705   7.6237   7.6257
    15.2551  16.6341  19.6453  21.7916  22.8433  23.4748  23.4748  24.8695
    25.1609  25.1609  25.4144  25.4144  25.6643  25.6644  26.4504  26.4505
    27.5105  27.5105  27.6018  28.0328  29.1396  29.2418  29.2418  29.3680
    29.3680  29.4187  29.4187  29.7799  29.9981  29.9981  30.0507  30.0507
    30.4611  30.9491  31.6806  31.6806  32.5033  32.5034  32.9044  34.3511
    34.7392  34.7392  35.4542  36.3084  36.3085  37.1524  37.4376  37.4376
    37.4616  37.6923  38.2834  38.9697  38.9697  38.9947  38.9948  39.0250
    39.0251  39.2020  40.8858  40.9666  41.1648  41.2273  41.2527  41.2527
    41.3481  41.4288  42.4575  42.4575  43.1987  43.1988  43.2758  43.9815
    43.9815  45.5656  46.2278  46.3104  46.3105  46.3917  46.3917  46.6232

          k = 0.0000 0.0000 0.1579 (  5780 PWs)   bands (ev):

   -98.8137 -98.8136 -98.7960 -98.7960 -98.7910 -98.7427 -98.6628 -98.6527
   -54.5591 -54.5247 -54.3104 -54.3104 -54.3061 -54.3061 -54.2863 -54.2059
   -54.1871 -54.1871 -54.1703 -54.1703 -54.1408 -54.1300 -54.1300 -54.1228
   -54.1228 -54.0893 -54.0825 -54.0641 -54.0229 -54.0229 -53.9947 -53.9947
   -45.1241 -45.1149 -45.1116 -45.1113 -12.1949 -12.1916 -12.1748 -12.1747
   -12.1680 -12.1680 -12.0997 -12.0757 -12.0755 -12.0755 -12.0735 -12.0735
     3.7735   3.9102   4.4397   4.5305   4.5306   4.5620   4.5620   4.8934
     4.9964   4.9964   5.2137   5.2138   5.6556   5.7768   5.8755   5.8755
     5.9745   5.9745   6.3284   6.4455   6.4456   6.4656   6.4657   6.5659
     6.5659   6.5984   6.6264   6.6312   6.6717   6.6717   6.7688   6.7689
     6.8801   6.8801   7.2556   7.2556   7.3536   7.3536   7.6236   7.6246
    15.3895  16.3114  20.1837  21.6826  22.9471  23.6102  23.6103  24.2461
    24.6155  24.6155  25.5372  25.5372  26.0885  26.0885  26.4268  26.4269
    27.3568  27.3568  27.4370  27.6175  29.1894  29.1894  29.3444  29.3444
    29.4906  29.4906  29.5349  29.7894  29.9060  29.9060  30.3412  30.3412
    31.2989  31.3713  31.3713  31.3908  32.7854  32.7854  32.9703  34.3492
    34.6244  34.6244  35.6060  35.9424  35.9424  36.0028  36.5248  37.7450
    38.0233  38.0233  38.3007  38.3007  38.8750  39.3160  39.3160  39.3622
    39.3622  39.3777  40.6091  40.6361  40.8388  41.3239  41.3970  41.4851
    41.4851  41.5610  41.7951  41.7951  42.8288  42.8289  44.0129  44.3503
    44.3505  46.0305  46.0306  46.2181  46.3301  46.3342  46.5048  46.6330

          k = 0.0000 0.0000-0.3159 (  5780 PWs)   bands (ev):

   -98.8329 -98.8329 -98.7713 -98.7713 -98.7713 -98.7713 -98.6562 -98.6562
   -54.5355 -54.5355 -54.3023 -54.3022 -54.3022 -54.3022 -54.2821 -54.2821
   -54.1719 -54.1719 -54.1719 -54.1719 -54.1299 -54.1299 -54.1299 -54.1299
   -54.1012 -54.1012 -54.0783 -54.0783 -54.0076 -54.0076 -54.0076 -54.0076
   -45.1217 -45.1214 -45.1090 -45.1088 -12.1946 -12.1944 -12.1707 -12.1706
   -12.1706 -12.1706 -12.0961 -12.0959 -12.0700 -12.0700 -12.0700 -12.0700
     3.8273   3.8273   4.5452   4.5452   4.5452   4.5452   4.6543   4.6543
     5.0948   5.0948   5.0949   5.0949   5.7394   5.7394   5.9403   5.9403
     5.9403   5.9403   6.4624   6.4624   6.4624   6.4624   6.4638   6.4638
     6.6096   6.6096   6.6096   6.6096   6.6311   6.6312   6.8192   6.8192
     6.8192   6.8192   7.3087   7.3087   7.3087   7.3088   7.6247   7.6247
    15.7701  15.7701  21.1379  21.1380  23.3505  23.3505  24.0130  24.0131
    24.0131  24.0131  25.8527  25.8527  25.8527  25.8527  26.9366  26.9366
    26.9367  26.9367  27.3118  27.3120  29.2755  29.2755  29.2756  29.2756
    29.6675  29.6675  29.6676  29.6676  29.7904  29.7906  30.8389  30.8389
    30.8389  30.8389  32.0374  32.0374  33.6183  33.6183  33.6184  33.6184
    33.8327  33.8328  35.0422  35.0422  36.7197  36.7197  36.8106  36.8106
    36.8106  36.8106  39.0652  39.0652  39.0652  39.0653  39.8833  39.8833
    40.1430  40.1430  40.4227  40.4227  40.4227  40.4227  40.8764  40.8765
    41.4972  41.4972  42.1597  42.1597  42.1597  42.1597  45.2029  45.2030
    45.2030  45.2030  45.3920  45.3920  46.3580  46.3580  46.3580  46.3581

          k = 0.0000 0.3919 0.0000 (  5787 PWs)   bands (ev):

   -98.8471 -98.8191 -98.8059 -98.7836 -98.7685 -98.7492 -98.6723 -98.6523
   -54.5002 -54.4776 -54.3442 -54.3200 -54.3036 -54.2880 -54.2819 -54.1918
   -54.1897 -54.1793 -54.1726 -54.1683 -54.1542 -54.1536 -54.1502 -54.1374
   -54.1362 -54.1049 -54.1005 -54.0590 -54.0352 -54.0248 -54.0077 -53.9883
   -45.1215 -45.1151 -45.1150 -45.1128 -12.2034 -12.2011 -12.1816 -12.1678
   -12.1656 -12.1547 -12.1124 -12.0934 -12.0776 -12.0728 -12.0652 -12.0614
     4.1673   4.3267   4.5391   4.7116   4.7603   4.8106   5.0278   5.0316
     5.0973   5.2234   5.3891   5.3924   5.5646   5.7103   5.9206   5.9431
     5.9998   6.1013   6.1399   6.1441   6.2288   6.2573   6.2688   6.2911
     6.4605   6.4668   6.4809   6.5880   6.6650   6.6747   6.6835   6.7555
     6.8119   6.8263   6.9288   7.0127   7.0443   7.1843   7.2520   7.4370
    15.9571  17.2653  19.1063  19.9625  20.1746  23.0597  23.7456  24.9080
    25.0450  25.3506  25.5755  26.3923  26.9591  27.0934  27.2364  27.4365
    27.4964  27.7424  27.7915  28.1898  28.3333  28.4342  28.9721  29.1930
    29.2571  29.2967  29.3313  29.4570  29.5973  29.7182  30.2051  30.4718
    30.7561  31.4810  32.1280  32.4380  32.5472  32.7683  33.8919  34.7826
    35.3374  35.5012  35.7503  36.0302  36.4982  37.0592  37.3100  37.4079
    38.1461  38.2484  38.5683  38.7899  39.0776  39.2082  39.3871  39.5865
    39.7132  39.8889  40.3373  40.7317  41.3227  41.4629  41.7175  41.7276
    41.9879  42.0510  42.5676  42.6875  43.2176  43.2975  43.6595  43.7539
    44.2845  44.4266  44.7865  44.8034  44.9741  45.1510  45.3683  45.7715

          k = 0.0000 0.3919 0.1579 (  5804 PWs)   bands (ev):

   -98.8342 -98.8261 -98.8184 -98.8097 -98.7943 -98.7818 -98.6865 -98.6533
   -54.5015 -54.4855 -54.3393 -54.3278 -54.2880 -54.2870 -54.2839 -54.2160
   -54.1915 -54.1865 -54.1837 -54.1757 -54.1718 -54.1673 -54.1477 -54.1421
   -54.1097 -54.1024 -54.0979 -54.0667 -54.0288 -54.0178 -54.0142 -54.0022
   -45.1219 -45.1204 -45.1158 -45.1147 -12.2074 -12.2005 -12.1838 -12.1713
   -12.1672 -12.1593 -12.1113 -12.1028 -12.0742 -12.0740 -12.0704 -12.0627
     4.1810   4.2815   4.6013   4.7059   4.7525   4.8840   5.0200   5.0274
     5.1127   5.1404   5.2531   5.3414   5.6768   5.7753   5.9377   5.9426
     6.0298   6.0618   6.0762   6.1106   6.2356   6.2698   6.3212   6.3496
     6.4238   6.4889   6.5228   6.5848   6.6485   6.6650   6.6817   6.7552
     6.8008   6.8219   6.9468   6.9911   7.0469   7.1026   7.3170   7.4220
    16.0841  16.9663  19.1644  19.6610  21.0088  23.1543  23.6440  24.0662
    24.8904  25.2156  25.9757  26.3834  26.9200  26.9818  27.1449  27.1627
    27.5555  27.6810  27.8475  28.0039  28.6541  28.6565  29.0385  29.1383
    29.1761  29.4201  29.4527  29.5953  29.7874  29.7970  30.3208  30.8442
    30.9399  31.5727  32.0958  32.2426  32.3101  32.9978  33.5746  34.4975
    35.0872  35.2034  36.1927  36.4027  36.6144  36.8083  37.2181  37.4051
    37.4755  37.5588  38.4077  38.7176  39.1962  39.4576  39.5301  39.8006
    40.0576  40.1462  40.4715  41.1302  41.1926  41.3112  41.5766  41.6682
    41.8958  42.0990  42.4048  42.8421  42.9461  43.1173  43.3588  43.9242
    44.3505  44.4022  44.8815  45.2935  45.3129  45.4143  45.5317  45.9476

          k = 0.0000 0.3919-0.3159 (  5816 PWs)   bands (ev):

   -98.8302 -98.8302 -98.8237 -98.8236 -98.8064 -98.8063 -98.6808 -98.6808
   -54.4985 -54.4985 -54.3383 -54.3383 -54.2896 -54.2896 -54.2585 -54.2585
   -54.1887 -54.1887 -54.1764 -54.1763 -54.1751 -54.1751 -54.1452 -54.1451
   -54.1019 -54.1019 -54.0839 -54.0839 -54.0232 -54.0232 -54.0118 -54.0118
   -45.1220 -45.1219 -45.1176 -45.1174 -12.2028 -12.2027 -12.1770 -12.1770
   -12.1699 -12.1698 -12.1092 -12.1091 -12.0729 -12.0728 -12.0708 -12.0708
     4.2199   4.2200   4.6666   4.6666   4.8707   4.8707   5.0205   5.0205
     5.0762   5.0763   5.2359   5.2359   5.7875   5.7875   5.9696   5.9696
     5.9979   5.9979   6.0887   6.0887   6.2756   6.2756   6.3186   6.3187
     6.4999   6.4999   6.5790   6.5790   6.6215   6.6215   6.7445   6.7446
     6.7721   6.7721   7.0059   7.0059   7.0178   7.0178   7.3809   7.3809
    16.4526  16.4526  19.3764  19.3765  22.4648  22.4648  23.3957  23.3957
    24.9830  24.9830  26.5136  26.5136  26.5546  26.5546  27.3241  27.3242
    27.4237  27.4237  27.8669  27.8669  28.9688  28.9689  29.0479  29.0480
    29.1898  29.1899  29.6119  29.6119  29.9917  29.9917  30.8718  30.8719
    31.4687  31.4688  31.5427  31.5427  33.5509  33.5510  33.6124  33.6124
    34.7000  34.7000  35.7291  35.7292  37.0621  37.0621  37.1903  37.1903
    37.8281  37.8282  38.2551  38.2551  39.2716  39.2716  40.1075  40.1075
    40.2416  40.2416  40.7060  40.7060  41.0381  41.0382  41.5724  41.5724
    42.2049  42.2049  42.5009  42.5010  42.6137  42.6137  44.0544  44.0544
    44.1782  44.1783  45.5081  45.5082  45.7307  45.7307  46.0666  46.0666

          k =-0.5091-0.2939 0.0000 (  5800 PWs)   bands (ev):

   -98.8422 -98.8399 -98.8267 -98.7938 -98.7795 -98.7650 -98.6725 -98.6553
   -54.4734 -54.4590 -54.3692 -54.3290 -54.3036 -54.2811 -54.2765 -54.1966
   -54.1958 -54.1830 -54.1827 -54.1796 -54.1639 -54.1550 -54.1537 -54.1427
   -54.1414 -54.1109 -54.1052 -54.0564 -54.0372 -54.0287 -54.0094 -53.9885
   -45.1210 -45.1201 -45.1162 -45.1129 -12.2122 -12.1984 -12.1851 -12.1698
   -12.1620 -12.1408 -12.1268 -12.1057 -12.0742 -12.0684 -12.0684 -12.0660
     4.2927   4.4103   4.5887   4.8735   4.9097   5.0518   5.0675   5.1435
     5.1813   5.3513   5.3729   5.4899   5.6736   5.8269   5.8437   5.8509
     6.0130   6.0224   6.0236   6.0967   6.1000   6.1608   6.2489   6.2561
     6.3102   6.3259   6.4189   6.5191   6.5856   6.6432   6.6489   6.6830
     6.7485   6.8095   6.8205   6.8755   7.0501   7.1061   7.2625   7.4306
    16.3981  17.5823  18.5917  18.9454  20.3697  22.9561  23.5426  24.8707
    25.0895  25.2930  25.9414  26.8252  27.0613  27.1844  27.2757  27.5194
    27.7064  27.8407  27.9349  27.9947  28.0268  28.5108  28.6886  28.9322
    29.2147  29.3510  29.3961  29.3983  29.4829  29.8862  29.9123  30.2524
    30.3216  32.4337  32.5695  32.6998  34.0242  34.0567  34.2576  34.6856
    35.1150  35.1239  35.3525  35.6411  35.8957  36.5357  36.8412  37.3452
    37.9946  38.1125  38.5395  39.0965  39.2799  39.6947  39.8439  40.2165
    40.3323  40.3933  40.4957  40.6129  41.2347  41.2588  41.7720  41.8927
    42.2714  42.7043  43.0536  43.1966  43.2228  43.3090  43.3960  43.5426
    43.7599  44.0154  44.4206  44.7011  44.9266  45.4757  45.9418  45.9890

          k =-0.5091-0.2939 0.1579 (  5822 PWs)   bands (ev):

   -98.8595 -98.8519 -98.8364 -98.8195 -98.8138 -98.7707 -98.6888 -98.6710
   -54.4758 -54.4629 -54.3649 -54.3505 -54.2900 -54.2845 -54.2805 -54.2155
   -54.1977 -54.1898 -54.1824 -54.1820 -54.1785 -54.1740 -54.1557 -54.1512
   -54.1135 -54.1071 -54.1044 -54.0670 -54.0385 -54.0280 -54.0149 -53.9975
   -45.1232 -45.1229 -45.1184 -45.1166 -12.2085 -12.2046 -12.1881 -12.1764
   -12.1628 -12.1556 -12.1243 -12.1099 -12.0764 -12.0731 -12.0728 -12.0624
     4.3024   4.3784   4.6584   4.8859   4.9025   5.0291   5.0662   5.0945
     5.1319   5.3053   5.4973   5.5066   5.6356   5.7759   5.8551   5.9070
     5.9813   5.9927   5.9997   6.0934   6.1305   6.1432   6.2127   6.2350
     6.3574   6.3738   6.4843   6.5154   6.5605   6.6486   6.6928   6.7091
     6.7397   6.8079   6.8305   6.8698   7.0076   7.0277   7.3113   7.4148
    16.5206  17.3607  18.4906  18.8396  21.0955  23.0408  23.4614  24.1370
    24.9930  25.0478  26.0415  26.7637  26.9854  27.0500  27.4941  27.4996
    27.5338  27.8054  27.9948  28.1130  28.4030  28.6623  28.7269  28.7959
    29.1739  29.2027  29.4285  29.6415  29.6530  29.6936  29.8969  30.7405
    31.1702  31.6684  32.7906  32.9886  33.2226  33.8267  34.2969  34.6755
    35.1154  35.1929  35.4018  35.5935  35.6653  35.7659  37.4162  37.5014
    37.5164  38.6092  38.6538  39.1961  39.2433  39.4770  39.7276  40.1121
    40.3446  40.3513  40.4635  40.8382  41.4525  41.4763  41.5667  42.2532
    42.2615  42.4594  42.7814  42.9027  43.0929  43.3945  43.6702  43.7266
    43.8760  44.1072  44.7412  44.8530  44.8647  45.2405  45.7354  45.7531

          k =-0.5091-0.2939-0.3159 (  5804 PWs)   bands (ev):

   -98.8317 -98.8317 -98.8238 -98.8237 -98.7967 -98.7967 -98.6498 -98.6498
   -54.4718 -54.4718 -54.3575 -54.3575 -54.2834 -54.2833 -54.2515 -54.2515
   -54.1838 -54.1838 -54.1810 -54.1810 -54.1703 -54.1703 -54.1525 -54.1525
   -54.1101 -54.1100 -54.0718 -54.0718 -54.0216 -54.0216 -54.0130 -54.0130
   -45.1201 -45.1200 -45.1162 -45.1161 -12.2041 -12.2040 -12.1806 -12.1806
   -12.1556 -12.1555 -12.1094 -12.1092 -12.0718 -12.0718 -12.0710 -12.0709
     4.3333   4.3334   4.8103   4.8103   4.9123   4.9123   5.1015   5.1015
     5.1825   5.1825   5.5605   5.5605   5.6657   5.6657   5.9118   5.9118
     5.9765   5.9765   5.9986   5.9986   6.1772   6.1772   6.1884   6.1884
     6.4129   6.4129   6.5196   6.5196   6.5857   6.5858   6.7501   6.7501
     6.7676   6.7676   6.9050   6.9050   6.9093   6.9093   7.3731   7.3732
    16.8853  16.8853  18.6191  18.6192  22.5757  22.5757  23.2586  23.2586
    24.8295  24.8295  26.7921  26.7922  26.8137  26.8137  27.3779  27.3780
    27.5820  27.5821  28.0558  28.0558  28.7735  28.7736  28.8803  28.8804
    29.1356  29.1357  29.4059  29.4060  29.6764  29.6764  30.6790  30.6791
    31.8551  31.8551  32.6727  32.6727  33.3410  33.3410  34.5301  34.5301
    34.6761  34.6762  35.4374  35.4374  35.5283  35.5284  37.5940  37.5941
    38.5865  38.5865  38.6353  38.6353  39.2428  39.2428  40.1109  40.1109
    40.1841  40.1841  40.8332  40.8332  41.6611  41.6611  41.7571  41.7572
    42.3826  42.3826  42.6457  42.6458  43.2481  43.2481  43.8061  43.8061
    43.8595  43.8596  45.1717  45.1717  45.6138  45.6139  45.7775  45.7776

[...]
   -46.6747 -46.6745 -46.6684 -46.6681 -13.7192 -13.7189 -13.6960 -13.6960
   -13.6960 -13.6960 -13.6366 -13.6364 -13.6071 -13.6071 -13.6071 -13.6071
     2.3983   2.3983   3.0220   3.0221   3.0221   3.0221   3.1354   3.1354
     3.5321   3.5321   3.5321   3.5321   4.1021   4.1021   4.2887   4.2888
     4.2888   4.2888   4.7355   4.7355   4.7355   4.7356   4.7467   4.7467
     4.8768   4.8769   4.8769   4.8769   4.8818   4.8819   5.0434   5.0434
     5.0435   5.0435   5.4807   5.4807   5.4808   5.4808   5.7495   5.7495
    14.5269  14.5269  19.7186  19.7186  21.9552  21.9552  22.4895  22.4895
    22.4895  22.4895  24.5015  24.5015  24.5015  24.5016  25.5155  25.5155
    25.5156  25.5156  25.8786  25.8788  27.7192  27.7193  27.7194  27.7194
    27.9598  27.9598  27.9599  27.9599  28.1629  28.1631  29.1736  29.1736
    29.1736  29.1736  30.2881  30.2881  31.7978  31.7978  31.7978  31.7978
    32.0529  32.0530  33.2712  33.2712  35.0051  35.0051  35.0113  35.0114
    35.0114  35.0114  37.3953  37.3953  37.3953  37.3953  38.1579  38.1579
    38.5769  38.5769  38.6422  38.6422  38.6422  38.6422  39.4213  39.4213
    39.9793  39.9793  40.6862  40.6862  40.6862  40.6862  43.3814  43.3814
    43.3814  43.3815  43.6253  43.6254  44.6693  44.6693  44.6693  44.6694

          k = 0.0000 0.3861 0.0000 (  5761 PWs)   bands (ev):

  -100.4352-100.3832-100.3732-100.3505-100.3212-100.3045-100.2441-100.1888
   -56.1986 -56.1805 -56.0642 -56.0439 -56.0159 -56.0148 -56.0106 -55.9259
   -55.9233 -55.9102 -55.9098 -55.9066 -55.8967 -55.8956 -55.8915 -55.8820
   -55.8770 -55.8480 -55.8456 -55.8071 -55.7603 -55.7506 -55.7453 -55.7314
   -46.6787 -46.6733 -46.6690 -46.6669 -13.7244 -13.7236 -13.7065 -13.6935
   -13.6915 -13.6844 -13.6466 -13.6270 -13.6177 -13.6135 -13.6048 -13.5987
     2.7000   2.8333   3.0370   3.1763   3.2166   3.2751   3.4632   3.4682
     3.5147   3.6513   3.7870   3.7967   3.9448   4.0727   4.2650   4.2840
     4.3362   4.4255   4.4583   4.4646   4.5252   4.5551   4.5843   4.5960
     4.7356   4.7527   4.7579   4.8408   4.9105   4.9114   4.9447   4.9870
     5.0500   5.0625   5.1518   5.2311   5.2509   5.3700   5.4279   5.5915
    14.7059  15.9502  17.7622  18.5765  18.7764  21.5444  22.2315  23.5265
    23.5715  24.0100  24.1698  25.0203  25.5572  25.6543  25.8268  26.0035
    26.0338  26.1965  26.3652  26.7220  26.8469  26.9397  27.4327  27.5229
    27.6991  27.7279  27.7801  27.8915  27.9960  28.0052  28.5326  28.7911
    29.0985  29.6833  30.2881  30.6724  30.7417  30.9648  32.1202  32.9398
    33.5739  33.6094  33.8807  34.2916  34.6609  35.2135  35.4647  35.5778
    36.2679  36.2810  36.8140  37.0491  37.2650  37.4090  37.6260  37.9065
    37.9150  38.2650  38.5483  39.0007  39.7635  39.7814  40.1090  40.1096
    40.1216  40.4003  40.7926  40.9075  41.5685  41.6370  41.9310  42.1641
    42.5943  42.6428  43.0379  43.1307  43.2483  43.5459  43.6837  43.9838

          k = 0.0000 0.3861 0.1556 (  5777 PWs)   bands (ev):

  -100.4045-100.4000-100.3846-100.3727-100.3644-100.3441-100.2347-100.2079
   -56.2000 -56.1864 -56.0617 -56.0509 -56.0197 -56.0141 -56.0010 -55.9435
   -55.9226 -55.9199 -55.9187 -55.9124 -55.9095 -55.9029 -55.8897 -55.8840
   -55.8515 -55.8483 -55.8469 -55.8144 -55.7596 -55.7515 -55.7488 -55.7370
   -46.6767 -46.6764 -46.6729 -46.6718 -13.7280 -13.7215 -13.7063 -13.6967
   -13.6963 -13.6882 -13.6462 -13.6386 -13.6129 -13.6126 -13.6104 -13.6036
     2.7117   2.7964   3.0870   3.1719   3.2147   3.3358   3.4563   3.4594
     3.5464   3.5581   3.6702   3.7487   4.0442   4.1378   4.2777   4.2865
     4.3640   4.3882   4.4093   4.4333   4.5322   4.5678   4.6141   4.6493
     4.7013   4.7786   4.7857   4.8396   4.9040   4.9104   4.9323   4.9886
     5.0387   5.0580   5.1660   5.2094   5.2547   5.2991   5.4858   5.5775
    14.8296  15.6708  17.8136  18.2736  19.5940  21.6369  22.1191  22.5928
    23.5201  23.8234  24.5684  25.0142  25.5215  25.5504  25.7240  25.7593
    26.1334  26.2590  26.3821  26.5267  27.1452  27.1476  27.4989  27.5749
    27.6206  27.8392  27.8844  27.9370  28.1102  28.1958  28.6417  29.1494
    29.1938  29.7616  30.3396  30.4418  30.4867  31.1834  31.7976  32.6316
    33.3034  33.4104  34.3600  34.5931  34.7478  34.9766  35.3515  35.5646
    35.6187  35.7618  36.5388  36.9366  37.4119  37.6305  37.7662  38.1998
    38.2943  38.5133  38.6853  39.3846  39.5275  39.6120  39.8200  40.0536
    40.2735  40.4571  40.8090  41.0323  41.2772  41.4478  41.6550  42.3017
    42.6027  42.6970  43.1021  43.5636  43.6977  43.7426  43.8333  44.1394

          k = 0.0000 0.3861-0.3111 (  5792 PWs)   bands (ev):

  -100.4146-100.4146-100.4109-100.4109-100.3482-100.3482-100.2356-100.2356
   -56.1978 -56.1978 -56.0614 -56.0614 -56.0217 -56.0217 -55.9781 -55.9781
   -55.9176 -55.9176 -55.9137 -55.9137 -55.9118 -55.9118 -55.8917 -55.8917
   -55.8514 -55.8514 -55.8254 -55.8254 -55.7582 -55.7582 -55.7477 -55.7477
   -46.6775 -46.6774 -46.6761 -46.6760 -13.7228 -13.7227 -13.7042 -13.7042
   -13.6989 -13.6989 -13.6466 -13.6465 -13.6116 -13.6115 -13.6104 -13.6104
     2.7451   2.7451   3.1391   3.1392   3.3222   3.3222   3.4541   3.4541
     3.5123   3.5123   3.6479   3.6479   4.1489   4.1489   4.3073   4.3073
     4.3384   4.3384   4.4120   4.4120   4.5705   4.5705   4.6140   4.6140
     4.7664   4.7664   4.8543   4.8543   4.8715   4.8715   4.9884   4.9884
     5.0079   5.0079   5.2152   5.2152   5.2303   5.2303   5.5413   5.5413
    15.1810  15.1810  18.0077  18.0078  21.0107  21.0107  21.8684  21.8684
    23.5992  23.5992  25.0975  25.0975  25.1778  25.1778  25.9116  25.9117
    26.0117  26.0117  26.4100  26.4101  27.4400  27.4402  27.5137  27.5138
    27.6247  27.6247  28.0129  28.0129  28.3468  28.3469  29.1523  29.1524
    29.6985  29.6985  29.7622  29.7622  31.7072  31.7072  31.7716  31.7717
    32.9085  32.9085  33.9411  33.9411  35.1945  35.1945  35.4108  35.4108
    35.9586  35.9586  36.4309  36.4310  37.4897  37.4897  38.4386  38.4387
    38.4580  38.4580  39.0094  39.0095  39.2539  39.2539  39.9861  39.9862
    40.5952  40.5953  40.7918  40.7918  41.0103  41.0103  42.3029  42.3030
    42.5053  42.5054  43.9037  43.9038  43.9042  43.9043  44.2731  44.2731

          k =-0.5016-0.2896 0.0000 (  5764 PWs)   bands (ev):

  -100.3994-100.3855-100.3726-100.3550-100.3537-100.3321-100.2236-100.1910
   -56.1746 -56.1577 -56.0872 -56.0572 -56.0119 -56.0118 -56.0101 -55.9290
   -55.9226 -55.9193 -55.9156 -55.9062 -55.8948 -55.8935 -55.8902 -55.8861
   -55.8760 -55.8581 -55.8526 -55.8040 -55.7675 -55.7520 -55.7438 -55.7278
   -46.6730 -46.6729 -46.6727 -46.6700 -13.7309 -13.7207 -13.7097 -13.6972
   -13.6914 -13.6710 -13.6624 -13.6374 -13.6130 -13.6084 -13.6044 -13.5914
     2.8068   2.9049   3.0801   3.3326   3.3585   3.4900   3.4911   3.5742
     3.6114   3.7529   3.7787   3.8597   4.0332   4.1682   4.1945   4.2062
     4.3518   4.3565   4.3597   4.4100   4.4210   4.4756   4.5482   4.5582
     4.6037   4.6244   4.7196   4.7749   4.8386   4.8942   4.9193   4.9316
     4.9967   5.0470   5.0588   5.1163   5.2552   5.3044   5.4369   5.5862
    15.1234  16.2722  17.2860  17.5623  18.9492  21.4393  22.0255  23.4402
    23.6898  23.9479  24.5138  25.4218  25.6735  25.7176  25.7495  26.1146
    26.2795  26.3808  26.5024  26.5331  26.5736  27.0061  27.1627  27.3902
    27.5838  27.8018  27.8294  27.8309  27.9101  28.1836  28.1903  28.6302
    28.6517  30.6533  30.8049  30.9751  32.1712  32.1742  32.4536  32.8430
    33.2106  33.2963  33.4454  33.7324  33.9422  34.6762  35.0582  35.5042
    36.1987  36.2538  36.7077  37.3113  37.6186  37.9554  38.1159  38.4389
    38.6294  38.6686  38.8097  38.8222  39.3766  39.4203  39.9884  40.1666
    40.3121  41.0810  41.3032  41.4650  41.6219  41.6808  41.8080  41.8609
    42.0884  42.2698  42.8013  42.9402  43.1824  43.7824  44.0264  44.0940

          k =-0.5016-0.2896 0.1556 (  5780 PWs)   bands (ev):

  -100.4187-100.4055-100.4044-100.3859-100.3554-100.3174-100.2202-100.2196
   -56.1801 -56.1668 -56.0812 -56.0630 -56.0129 -56.0124 -56.0047 -55.9384
   -55.9216 -55.9210 -55.9141 -55.9127 -55.9093 -55.9089 -55.8938 -55.8919
   -55.8589 -55.8531 -55.8464 -55.8135 -55.7622 -55.7585 -55.7462 -55.7356
   -46.6792 -46.6771 -46.6721 -46.6705 -13.7269 -13.7239 -13.7133 -13.7012
   -13.6891 -13.6805 -13.6498 -13.6419 -13.6158 -13.6105 -13.6096 -13.6041
     2.8156   2.8793   3.1400   3.3431   3.3527   3.4703   3.5026   3.5153
     3.5632   3.7132   3.8751   3.8863   3.9961   4.1368   4.1974   4.2559
     4.3240   4.3249   4.3448   4.4208   4.4484   4.4537   4.5178   4.5402
     4.6412   4.6613   4.7721   4.7736   4.8186   4.9169   4.9400   4.9553
     4.9902   5.0472   5.0644   5.1099   5.2185   5.2332   5.4808   5.5714
    15.2416  16.0563  17.1802  17.4719  19.6594  21.5185  21.9397  22.6726
    23.6030  23.6535  24.6473  25.3692  25.5972  25.6306  26.0559  26.0847
    26.1135  26.3784  26.5433  26.6260  26.9174  27.1495  27.1946  27.2567
    27.6190  27.6297  27.8610  28.0462  28.0665  28.0743  28.2371  29.0195
    29.3795  29.9249  31.0749  31.1684  31.4011  31.9724  32.4424  32.8168
    33.2403  33.2950  33.5037  33.7314  33.8083  34.0038  35.5276  35.6441
    35.6953  36.7906  36.8281  37.4654  37.5483  37.7359  37.8165  38.4851
    38.5114  38.5688  38.7976  39.1069  39.6197  39.7945  39.9247  40.4352
    40.4738  40.6286  41.0752  41.1519  41.4995  41.6480  42.0720  42.1275
    42.1984  42.3939  42.9061  43.1790  43.2006  43.4482  43.8956  44.1326

          k =-0.5016-0.2896-0.3111 (  5788 PWs)   bands (ev):

  -100.4059-100.4059-100.3930-100.3930-100.3761-100.3761-100.2189-100.2189
   -56.1747 -56.1747 -56.0781 -56.0781 -56.0150 -56.0150 -55.9748 -55.9748
   -55.9209 -55.9209 -55.9176 -55.9176 -55.9046 -55.9045 -55.8962 -55.8961
   -55.8601 -55.8601 -55.8198 -55.8198 -55.7564 -55.7564 -55.7509 -55.7509
   -46.6792 -46.6789 -46.6732 -46.6729 -13.7271 -13.7269 -13.7085 -13.7085
   -13.6822 -13.6821 -13.6488 -13.6487 -13.6133 -13.6133 -13.6109 -13.6108
     2.8413   2.8414   3.2732   3.2732   3.3636   3.3636   3.5348   3.5348
     3.5983   3.5983   3.9240   3.9240   4.0371   4.0371   4.2511   4.2511
     4.3234   4.3234   4.3360   4.3360   4.4859   4.4859   4.4995   4.4995
     4.6883   4.6883   4.7816   4.7816   4.8587   4.8587   4.9988   4.9988
     5.0104   5.0104   5.1249   5.1249   5.1355   5.1355   5.5348   5.5348
    15.5923  15.5924  17.2760  17.2761  21.1019  21.1019  21.7323  21.7323
    23.4600  23.4600  25.3882  25.3882  25.4069  25.4069  25.9670  25.9671
    26.1658  26.1658  26.5886  26.5886  27.2565  27.2566  27.3388  27.3389
    27.5870  27.5871  27.8398  27.8399  28.0833  28.0833  28.9825  28.9826
    30.0706  30.0706  30.8225  30.8225  31.5376  31.5377  32.6603  32.6603
    32.8905  32.8905  33.5676  33.5677  33.6471  33.6472  35.7833  35.7834
    36.7985  36.7985  36.8051  36.8051  37.4073  37.4074  38.3180  38.3180
    38.3991  38.3991  39.1511  39.1511  40.0226  40.0226  40.0276  40.0277
    40.7068  40.7068  40.7186  40.7187  41.5189  41.5189  42.1495  42.1495
    42.2509  42.2509  43.4371  43.4372  43.8750  43.8780  43.9781  43.9990

          k =-0.5016 0.0965 0.0000 (  5790 PWs)   bands (ev):

  -100.4379-100.4165-100.3904-100.3816-100.3601-100.3226-100.2569-100.2218
   -56.1780 -56.1674 -56.0892 -56.0685 -56.0128 -56.0099 -56.0073 -55.9262
   -55.9252 -55.9190 -55.9185 -55.9121 -55.9024 -55.8993 -55.8913 -55.8902
   -55.8772 -55.8638 -55.8604 -55.8111 -55.7680 -55.7574 -55.7490 -55.7394
   -46.6791 -46.6776 -46.6737 -46.6737 -13.7325 -13.7239 -13.7139 -13.7049
   -13.6900 -13.6727 -13.6582 -13.6409 -13.6143 -13.6129 -13.6100 -13.6082
     2.9057   3.0060   3.1185   3.2612   3.2823   3.2832   3.4305   3.5648
     3.6975   3.7199   3.8022   3.8788   3.8866   4.1038   4.2398   4.2488
     4.3019   4.3653   4.4042   4.4245   4.5014   4.5368   4.5596   4.5857
     4.6070   4.6566   4.7198   4.7429   4.8441   4.8989   4.9521   4.9566
     5.0347   5.0394   5.1298   5.1799   5.2194   5.2478   5.3973   5.4711
    15.0734  16.3315  17.2397  17.7645  18.9370  20.9854  21.3171  24.1290
    24.2337  24.5247  24.5969  25.1868  25.4312  25.8318  25.8744  26.1124
    26.1564  26.2713  26.4003  26.5085  26.7528  26.8436  27.3032  27.5111
    27.5567  27.6884  27.8178  27.8559  27.9125  28.2234  28.3062  28.5206
    28.8608  29.8745  30.0099  31.3238  31.5814  31.6086  32.4855  32.8179
    32.9929  33.4033  33.5920  34.2492  34.7602  35.3112  35.4068  36.1474
    36.3419  36.6894  36.7819  37.1063  37.6398  37.7193  37.7362  38.2581
    38.2583  38.3479  38.5166  38.9944  39.0467  39.5375  39.7473  40.0041
    40.0552  40.4549  40.7335  41.3984  41.5717  41.8286  42.2258  42.2801
    42.2977  42.5834  42.9245  43.1045  43.1437  43.2293  43.7157  44.3279

          k =-0.5016 0.0965 0.1556 (  5786 PWs)   bands (ev):

  -100.4193-100.4181-100.3844-100.3768-100.3704-100.3331-100.2387-100.2205
   -56.1744 -56.1680 -56.0853 -56.0724 -56.0092 -56.0088 -56.0022 -55.9408
   -55.9255 -55.9219 -55.9164 -55.9160 -55.9115 -55.9035 -55.8943 -55.8922
   -55.8625 -55.8605 -55.8447 -55.8090 -55.7612 -55.7577 -55.7502 -55.7403
   -46.6778 -46.6754 -46.6747 -46.6740 -13.7291 -13.7238 -13.7111 -13.7075
   -13.6890 -13.6767 -13.6530 -13.6424 -13.6151 -13.6106 -13.6097 -13.6078
     2.9132   2.9742   3.1673   3.2349   3.2757   3.3643   3.4523   3.5341
     3.6104   3.6667   3.7729   3.8411   3.9933   4.1444   4.2099   4.2626
     4.3190   4.3614   4.3906   4.4304   4.4653   4.5218   4.5496   4.5814
     4.6464   4.6792   4.7262   4.8017   4.8421   4.9264   4.9489   4.9752
     5.0285   5.0379   5.1039   5.1466   5.1884   5.2356   5.4185   5.4671
    15.2001  16.0563  17.2672  17.6056  19.6651  20.9867  21.2255  22.8560
    24.1771  24.5742  25.0496  25.1761  25.4747  25.7566  25.9817  26.1164
    26.1601  26.2193  26.4769  26.6432  26.8643  27.0105  27.2101  27.4561
    27.5828  27.6212  27.7704  27.9872  28.0827  28.1398  28.4938  28.5953
    29.4046  29.7610  30.0932  30.7289  31.3420  31.7585  32.2210  32.6360
    33.3573  33.4884  33.7624  34.3554  34.8172  34.9624  35.3187  35.7019
    35.9844  36.4726  36.9257  37.0387  37.4797  37.7190  37.9410  38.0824
    38.2421  38.4297  39.0011  39.2027  39.4686  39.5803  39.9049  40.1455
    40.2795  40.4884  40.8027  41.1918  41.4324  41.5207  42.0319  42.2408
    42.3722  42.5989  42.8046  43.2112  43.3090  43.6001  44.0151  44.2618

          k =-0.5016 0.0965-0.3111 (  5782 PWs)   bands (ev):

  -100.3967-100.3966-100.3884-100.3884-100.3615-100.3615-100.2205-100.2205
   -56.1720 -56.1720 -56.0785 -56.0785 -56.0084 -56.0084 -55.9748 -55.9748
   -55.9213 -55.9212 -55.9155 -55.9155 -55.9086 -55.9086 -55.8921 -55.8921
   -55.8606 -55.8606 -55.8236 -55.8235 -55.7536 -55.7536 -55.7477 -55.7477
   -46.6752 -46.6750 -46.6748 -46.6746 -13.7257 -13.7255 -13.7073 -13.7073
   -13.6833 -13.6832 -13.6453 -13.6451 -13.6143 -13.6142 -13.6087 -13.6086
     2.9364   2.9364   3.2093   3.2093   3.3665   3.3665   3.4832   3.4832
     3.5719   3.5719   3.7889   3.7889   4.1073   4.1073   4.2442   4.2442
     4.3344   4.3345   4.3993   4.3993   4.4999   4.4999   4.5489   4.5489
     4.6714   4.6714   4.8066   4.8066   4.8916   4.8916   4.9970   4.9970
     5.0337   5.0337   5.0678   5.0678   5.1986   5.1986   5.4498   5.4498
    15.5599  15.5599  17.4123  17.4124  21.0122  21.0122  21.1848  21.1848
    24.3991  24.3991  25.2191  25.2191  25.5640  25.5641  26.0180  26.0180
    26.1952  26.1952  26.5230  26.5230  27.1280  27.1280  27.3542  27.3542
    27.6381  27.6383  27.7350  27.7350  28.3811  28.3811  28.7067  28.7067
    29.5428  29.5428  30.3188  30.3189  31.6643  31.6644  32.2578  32.2578
    33.5161  33.5161  33.6950  33.6950  34.7312  34.7312  35.7730  35.7730
    36.1352  36.1352  36.7262  36.7262  37.6816  37.6816  37.9690  37.9690
    38.5773  38.5773  39.1747  39.1747  39.5076  39.5076  40.2031  40.2032
    40.6575  40.6575  40.7824  40.7824  41.2959  41.2960  42.0636  42.0637
    42.5928  42.5928  43.2847  43.2848  43.6746  43.6748  43.9857  43.9859

     the Fermi energy is    37.0812 ev

!    total energy              =   -4663.55201380 Ry
     Harris-Foulkes estimate   =   -4663.55202285 Ry
     estimated scf accuracy    <       0.00001043 Ry

     The total energy is the sum of the following terms:

     one-electron contribution =   -1230.33930842 Ry
     hartree contribution      =     797.28893680 Ry
     xc contribution           =    -373.91652565 Ry
     ewald contribution        =   -3856.12407143 Ry
     smearing contrib. (-TS)   =      -0.46104509 Ry

     convergence has been achieved in  11 iterations

     Forces acting on atoms (Ry/au):

     atom    1 type  1   force =     0.00000000    0.00000000    0.01876995
     atom    2 type  1   force =     0.00000000    0.00000000    0.01876995
     atom    3 type  1   force =     0.00000000    0.00000000   -0.01876995
     atom    4 type  1   force =     0.00000000    0.00000000   -0.01876995
     atom    5 type  2   force =     0.00000000    0.00000000    0.00000000
     atom    6 type  2   force =     0.00000000    0.00000000    0.00000000
     atom    7 type  2   force =     0.00000000   -0.06599542    0.00000000
     atom    8 type  2   force =     0.05715371   -0.03299771    0.00000000
     atom    9 type  2   force =    -0.05715371   -0.03299771    0.00000000
     atom   10 type  2   force =     0.05715371    0.03299771    0.00000000
     atom   11 type  2   force =    -0.05715371    0.03299771    0.00000000
     atom   12 type  2   force =     0.00000000    0.06599542    0.00000000

     Total force =     0.165957     Total SCF correction =     0.000000


     entering subroutine stress ...

          total   stress  (Ry/bohr**3)                   (kbar)     P= 1152.21
   0.00791321   0.00000000   0.00000000       1164.07      0.00      0.00
   0.00000000   0.00791321   0.00000000          0.00   1164.07      0.00
   0.00000000   0.00000000   0.00767123          0.00      0.00   1128.48


     Writing output data file Prototype-La-hP12-MgZn2.save
 
     init_run     :      7.33s CPU      8.93s WALL (       2 calls)
     electrons    :   2241.54s CPU   2523.12s WALL (       5 calls)
     update_pot   :      3.33s CPU      3.36s WALL (       3 calls)
     forces       :      7.13s CPU      7.47s WALL (       5 calls)
     stress       :     32.64s CPU     33.11s WALL (       5 calls)

     Called by init_run:
     wfcinit      :      6.02s CPU      7.59s WALL (       2 calls)
     potinit      :      0.57s CPU      0.59s WALL (       2 calls)

     Called by electrons:
     c_bands      :   2204.59s CPU   2466.27s WALL (      44 calls)
     sum_band     :     36.36s CPU     51.26s WALL (      44 calls)
     v_of_rho     :      0.13s CPU      0.15s WALL (      49 calls)
     mix_rho      :      0.13s CPU      0.16s WALL (      44 calls)

     Called by c_bands:
     init_us_2    :      2.23s CPU      2.58s WALL (    1200 calls)
     ccgdiagg     :   2069.46s CPU   2291.23s WALL (     628 calls)
     wfcrot       :    138.58s CPU    178.05s WALL (     640 calls)

     Called by *cgdiagg:
     h_psi        :   1289.24s CPU   1541.68s WALL (  570871 calls)
     cdiaghg      :      8.17s CPU      9.11s WALL (     640 calls)

     Called by h_psi:
     add_vuspsi   :    292.60s CPU    303.26s WALL (  570871 calls)

     General routines
     calbec       :    699.23s CPU    749.00s WALL ( 1141222 calls)
     fft          :      0.71s CPU      0.75s WALL (     219 calls)
     fftw         :    573.23s CPU    745.43s WALL ( 1444206 calls)
     davcio       :      1.75s CPU      4.27s WALL (    1728 calls)
 
     Parallel routines
     fft_scatter  :    284.81s CPU    377.36s WALL ( 1444425 calls)
 
     PWSCF        : 38m12.46s CPU    42m58.77s WALL

 
   This run was terminated on:   3: 1:17  23Mar2018            

=------------------------------------------------------------------------------=
   JOB DONE.
=------------------------------------------------------------------------------=
