
     Program PWSCF v.5.0.2 starts on 22Mar2018 at 21:11:54 

     This program is part of the open-source Quantum ESPRESSO suite
     for quantum simulation of materials; please cite
         "P. Giannozzi et al., J. Phys.:Condens. Matter 21 395502 (2009);
          URL http://www.quantum-espresso.org", 
     in publications or presentations arising from this work. More details at
     http://www.quantum-espresso.org/quote.php

     Parallel version (MPI), running on     4 processors
     R & G space division:  proc/nbgrp/npool/nimage =       4

     Current dimensions of program PWSCF are:
     Max number of different atomic species (ntypx) = 10
     Max number of k-points (npk) =  40000
     Max angular momentum in pseudopotentials (lmaxx) =  3
     Waiting for input...
     Reading input from standard input

     Subspace diagonalization in iterative solution of the eigenvalue problem:
     a serial algorithm will be used

 
     Parallelization info
     --------------------
     sticks:   dense  smooth     PW     G-vecs:    dense   smooth      PW
     Min          93      93     30                 1717     1717     310
     Max          94      94     31                 1720     1720     313
     Sum         373     373    121                 6871     6871    1247
 


     bravais-lattice index     =            0
     lattice parameter (alat)  =       5.4125  a.u.
     unit-cell volume          =     202.7222 (a.u.)^3
     number of atoms/cell      =            2
     number of atomic types    =            2
     number of electrons       =        29.00
     number of Kohn-Sham states=           19
     kinetic-energy cutoff     =      40.0000  Ry
     charge density cutoff     =     160.0000  Ry
     convergence threshold     =      1.0E-04
     mixing beta               =       0.7000
     number of iterations used =            8  plain     mixing
     Exchange-correlation      = SLA-PZ-NOGX-NOGC ( 1 1 0 0 0)
     EXX-fraction              =        0.00
     nstep                     =           50


     celldm(1)=   5.412493  celldm(2)=   0.000000  celldm(3)=   0.000000
     celldm(4)=   0.000000  celldm(5)=   0.000000  celldm(6)=   0.000000

     crystal axes: (cart. coord. in units of alat)
               a(1) = (   1.000000   0.000000   0.000000 )  
               a(2) = (   0.000000   1.000000   0.000000 )  
               a(3) = (   0.000000   0.000000   1.278525 )  

     reciprocal axes: (cart. coord. in units 2 pi/alat)
               b(1) = (  1.000000  0.000000  0.000000 )  
               b(2) = (  0.000000  1.000000  0.000000 )  
               b(3) = (  0.000000  0.000000  0.782151 )  


     PseudoPot. # 1 for Eu read from file:
     /home/cwx6513/pp.La/Eu.UPF
     MD5 check sum: 5efdbbfc50c6a10138933a6429836ad2
     Pseudo is Norm-conserving, Zval = 17.0
     Generated in analytical, separable form
     Using radial grid of 1261 points,  6 beta functions with: 
                l(1) =   0
                l(2) =   0
                l(3) =   1
                l(4) =   1
                l(5) =   2
                l(6) =   3

     PseudoPot. # 2 for Ce read from file:
     /home/cwx6513/pp.La/Ce.UPF
     MD5 check sum: 44451aa79a44a00cf2bc029dc19922f6
     Pseudo is Norm-conserving, Zval = 12.0
     Generated in analytical, separable form
     Using radial grid of 1255 points,  6 beta functions with: 
                l(1) =   0
                l(2) =   0
                l(3) =   1
                l(4) =   1
                l(5) =   2
                l(6) =   3

     atomic species   valence    mass     pseudopotential
        Cu            17.00    63.54600     Eu( 1.00)
        Au            12.00   196.96600     Ce( 1.00)

     16 Sym. Ops., with inversion, found



   Cartesian axes

     site n.     atom                  positions (alat units)
         1           Cu  tau(   1) = (   0.5000000   0.5000000   0.6392626  )
         2           Au  tau(   2) = (   0.0000000   0.0000000   0.0000000  )

     number of k points=   100  gaussian smearing, width (Ry)=  0.1000

     Number of k-points >= 100: set verbosity='high' to print them.

     Dense  grid:     6871 G-vectors     FFT dimensions: (  24,  24,  27)

     Largest allocated arrays     est. size (Mb)     dimensions
        Kohn-Sham Wavefunctions         0.07 Mb     (    228,   19)
        NL pseudopotentials             0.14 Mb     (    228,   40)
        Each V/rho on FFT grid          0.06 Mb     (   4032)
        Each G-vector array             0.01 Mb     (   1720)
        G-vector shells                 0.01 Mb     (   1720)
     Largest temporary arrays     est. size (Mb)     dimensions
        Each subspace H/S matrix        0.01 Mb     (  19,  19)
        Each <psi_i|beta_j> matrix      0.01 Mb     (     40,   19)
        Arrays for rho mixing           0.49 Mb     (   4032,   8)

     Initial potential from superposition of free atoms

     Starting from uniform charge
     Starting wfc are    0 randomized atomic wfcs

     total cpu time spent up to now is        0.7 secs

     Self-consistent Calculation

     iteration #  1     ecut=    40.00 Ry     beta=0.70
     CG style diagonalization
     c_bands:  1 eigenvalues not converged
     c_bands:  2 eigenvalues not converged
     c_bands:  1 eigenvalues not converged
     c_bands:  2 eigenvalues not converged
     c_bands:  1 eigenvalues not converged
     c_bands:  2 eigenvalues not converged
     c_bands:  1 eigenvalues not converged
     c_bands:  1 eigenvalues not converged
     c_bands:  1 eigenvalues not converged
     c_bands:  2 eigenvalues not converged
     c_bands:  1 eigenvalues not converged
     c_bands:  1 eigenvalues not converged
     c_bands:  1 eigenvalues not converged
     c_bands:  3 eigenvalues not converged
     ethr =  1.00E-02,  avg # of iterations = 11.6

     total cpu time spent up to now is        5.1 secs

     total energy              =    -176.75382984 Ry
     Harris-Foulkes estimate   =    -288.87754001 Ry
     estimated scf accuracy    <     139.82501650 Ry

     iteration #  2     ecut=    40.00 Ry     beta=0.70
     CG style diagonalization
     c_bands:  1 eigenvalues not converged
     c_bands:  1 eigenvalues not converged
     c_bands:  1 eigenvalues not converged
     c_bands:  1 eigenvalues not converged
     c_bands:  1 eigenvalues not converged
     c_bands:  1 eigenvalues not converged
     c_bands:  1 eigenvalues not converged
     c_bands:  2 eigenvalues not converged
     c_bands:  1 eigenvalues not converged
     c_bands:  1 eigenvalues not converged
     c_bands:  1 eigenvalues not converged
     c_bands:  2 eigenvalues not converged
     c_bands:  1 eigenvalues not converged
     c_bands:  1 eigenvalues not converged
     c_bands:  2 eigenvalues not converged
     c_bands:  1 eigenvalues not converged
     c_bands:  1 eigenvalues not converged
     c_bands:  2 eigenvalues not converged
     c_bands:  1 eigenvalues not converged
     c_bands:  4 eigenvalues not converged
     c_bands:  1 eigenvalues not converged
     c_bands:  1 eigenvalues not converged
     c_bands:  2 eigenvalues not converged
     c_bands:  1 eigenvalues not converged
     c_bands:  1 eigenvalues not converged
     c_bands:  1 eigenvalues not converged
     c_bands:  1 eigenvalues not converged
     c_bands:  1 eigenvalues not converged
     c_bands:  1 eigenvalues not converged
     c_bands:  1 eigenvalues not converged
     c_bands:  1 eigenvalues not converged
     ethr =  1.00E-02,  avg # of iterations = 12.2

     total cpu time spent up to now is        9.4 secs

     total energy              =    -211.98722623 Ry
     Harris-Foulkes estimate   =    -307.95922055 Ry
     estimated scf accuracy    <     192.01588191 Ry

     iteration #  3     ecut=    40.00 Ry     beta=0.70
     CG style diagonalization
     c_bands:  1 eigenvalues not converged
     c_bands:  1 eigenvalues not converged
     ethr =  1.00E-02,  avg # of iterations = 10.3

     total cpu time spent up to now is       13.1 secs

     total energy              =    -251.50806122 Ry
     Harris-Foulkes estimate   =    -253.61429795 Ry
     estimated scf accuracy    <       3.71081254 Ry

     iteration #  4     ecut=    40.00 Ry     beta=0.70
     CG style diagonalization
     ethr =  1.00E-02,  avg # of iterations =  3.5

     total cpu time spent up to now is       14.3 secs

     total energy              =    -251.91714312 Ry
     Harris-Foulkes estimate   =    -252.07653950 Ry
     estimated scf accuracy    <       0.29410118 Ry

     iteration #  5     ecut=    40.00 Ry     beta=0.70
     CG style diagonalization
     ethr =  1.01E-03,  avg # of iterations =  4.4

     negative rho (up, down):  0.583E-06 0.000E+00

     total cpu time spent up to now is       15.9 secs

     total energy              =    -251.97985833 Ry
     Harris-Foulkes estimate   =    -251.99474649 Ry
     estimated scf accuracy    <       0.02473167 Ry

     iteration #  6     ecut=    40.00 Ry     beta=0.70
     CG style diagonalization
     c_bands:  1 eigenvalues not converged
     c_bands:  1 eigenvalues not converged
     c_bands:  1 eigenvalues not converged
     ethr =  8.53E-05,  avg # of iterations =  4.8

     total cpu time spent up to now is       17.7 secs

     total energy              =    -251.98785495 Ry
     Harris-Foulkes estimate   =    -251.99322642 Ry
     estimated scf accuracy    <       0.00821388 Ry

     iteration #  7     ecut=    40.00 Ry     beta=0.70
     CG style diagonalization
     c_bands:  1 eigenvalues not converged
     c_bands:  1 eigenvalues not converged
     ethr =  2.83E-05,  avg # of iterations =  3.9

     total cpu time spent up to now is       19.1 secs

     total energy              =    -251.98962197 Ry
     Harris-Foulkes estimate   =    -251.98968173 Ry
     estimated scf accuracy    <       0.00010452 Ry

     iteration #  8     ecut=    40.00 Ry     beta=0.70
     CG style diagonalization
     c_bands:  1 eigenvalues not converged
     c_bands:  1 eigenvalues not converged
     c_bands:  1 eigenvalues not converged
     c_bands:  1 eigenvalues not converged
     c_bands:  1 eigenvalues not converged
     c_bands:  1 eigenvalues not converged
     ethr =  3.60E-07,  avg # of iterations =  5.7

     total cpu time spent up to now is       21.1 secs

     End of self-consistent calculation

     Number of k-points >= 100: set verbosity='high' to print the bands.

     the Fermi energy is    32.2153 ev

!    total energy              =    -251.98973648 Ry
     Harris-Foulkes estimate   =    -251.98979256 Ry
     estimated scf accuracy    <       0.00006843 Ry

     The total energy is the sum of the following terms:

     one-electron contribution =      21.74941271 Ry
     hartree contribution      =      20.43750180 Ry
     xc contribution           =     -29.55494690 Ry
     ewald contribution        =    -264.54106578 Ry
     smearing contrib. (-TS)   =      -0.08063830 Ry

     convergence has been achieved in   8 iterations

     Forces acting on atoms (Ry/au):

     atom    1 type  1   force =     0.00000000    0.00000000    0.00000000
     atom    2 type  2   force =     0.00000000    0.00000000    0.00000000

     Total force =     0.000000     Total SCF correction =     0.000000


     entering subroutine stress ...

          total   stress  (Ry/bohr**3)                   (kbar)     P= 1485.74
   0.00955637   0.00000000   0.00000000       1405.79      0.00      0.00
   0.00000000   0.00955637   0.00000000          0.00   1405.79      0.00
   0.00000000   0.00000000   0.01118674          0.00      0.00   1645.63


     BFGS Geometry Optimization

     number of scf cycles    =   1
     number of bfgs steps    =   0

     enthalpy new            =    -251.9897364828 Ry

     new trust radius        =       0.5000000000 bohr
     new conv_thr            =       0.0001000000 Ry

     new unit-cell volume =    315.17229 a.u.^3 (    46.70371 Ang^3 )

CELL_PARAMETERS (alat=  5.41249258)
   1.149995763   0.000000000   0.000000000
   0.000000000   1.149995763   0.000000000
   0.000000000   0.000000000   1.503015978

ATOMIC_POSITIONS (crystal)
Cu       0.500000000   0.500000000   0.500000000
Au       0.000000000   0.000000000   0.000000000



     Writing output data file Prototype-La-tP2-AuCu.save
     NEW-OLD atomic charge density approx. for the potential
     NEW k-points: (use verbosity='high' to print them)

     total cpu time spent up to now is       21.9 secs

     Self-consistent Calculation

     iteration #  1     ecut=    40.00 Ry     beta=0.70
     CG style diagonalization
     c_bands:  3 eigenvalues not converged
     c_bands:  2 eigenvalues not converged
     c_bands:  1 eigenvalues not converged
     c_bands:  5 eigenvalues not converged
     c_bands:  3 eigenvalues not converged
     c_bands:  2 eigenvalues not converged
     c_bands:  1 eigenvalues not converged
     c_bands:  3 eigenvalues not converged
     c_bands:  2 eigenvalues not converged
     c_bands:  2 eigenvalues not converged
     c_bands:  2 eigenvalues not converged
     c_bands:  3 eigenvalues not converged
     c_bands:  5 eigenvalues not converged
     c_bands:  1 eigenvalues not converged
     c_bands:  3 eigenvalues not converged
     c_bands:  2 eigenvalues not converged
     c_bands:  2 eigenvalues not converged
     c_bands:  1 eigenvalues not converged
     c_bands:  1 eigenvalues not converged
     c_bands:  4 eigenvalues not converged
     c_bands:  1 eigenvalues not converged
     c_bands:  3 eigenvalues not converged
     c_bands:  2 eigenvalues not converged
     c_bands:  4 eigenvalues not converged
     c_bands:  3 eigenvalues not converged
     c_bands:  4 eigenvalues not converged
     c_bands:  3 eigenvalues not converged
     c_bands:  4 eigenvalues not converged
     c_bands:  5 eigenvalues not converged
     c_bands:  1 eigenvalues not converged
     c_bands:  4 eigenvalues not converged
     c_bands:  3 eigenvalues not converged
     c_bands:  2 eigenvalues not converged
     c_bands:  3 eigenvalues not converged
     c_bands:  4 eigenvalues not converged
     c_bands:  3 eigenvalues not converged
     c_bands:  3 eigenvalues not converged
     c_bands:  1 eigenvalues not converged
     c_bands:  2 eigenvalues not converged
     c_bands:  2 eigenvalues not converged
     c_bands:  4 eigenvalues not converged
     c_bands:  1 eigenvalues not converged
     c_bands:  2 eigenvalues not converged
     c_bands:  4 eigenvalues not converged
     c_bands:  4 eigenvalues not converged
     c_bands:  5 eigenvalues not converged
     c_bands:  4 eigenvalues not converged
     c_bands:  3 eigenvalues not converged
     c_bands:  4 eigenvalues not converged
     c_bands:  3 eigenvalues not converged
     c_bands:  5 eigenvalues not converged
     c_bands:  4 eigenvalues not converged
     c_bands:  4 eigenvalues not converged
     c_bands:  3 eigenvalues not converged
     c_bands:  1 eigenvalues not converged
     c_bands:  3 eigenvalues not converged
     c_bands:  5 eigenvalues not converged
     c_bands:  3 eigenvalues not converged
     c_bands:  3 eigenvalues not converged
     c_bands:  1 eigenvalues not converged
     c_bands:  3 eigenvalues not converged
     c_bands:  2 eigenvalues not converged
     c_bands:  2 eigenvalues not converged
     c_bands:  5 eigenvalues not converged
     c_bands:  5 eigenvalues not converged
     c_bands:  3 eigenvalues not converged
     c_bands:  4 eigenvalues not converged
     c_bands:  5 eigenvalues not converged
     c_bands:  3 eigenvalues not converged
     c_bands:  3 eigenvalues not converged
     c_bands:  4 eigenvalues not converged
     c_bands:  3 eigenvalues not converged
     c_bands:  5 eigenvalues not converged
     c_bands:  3 eigenvalues not converged
     c_bands:  3 eigenvalues not converged
     c_bands:  2 eigenvalues not converged
     c_bands:  3 eigenvalues not converged
     c_bands:  2 eigenvalues not converged
     c_bands:  2 eigenvalues not converged
     ethr =  1.00E-06,  avg # of iterations = 15.0

     total cpu time spent up to now is       27.2 secs

     total energy              =    -246.21178420 Ry
     Harris-Foulkes estimate   =    -257.66558925 Ry
     estimated scf accuracy    <      14.64736529 Ry

     iteration #  2     ecut=    40.00 Ry     beta=0.70
     CG style diagonalization
     ethr =  1.00E-02,  avg # of iterations =  4.6

     total cpu time spent up to now is       28.8 secs

     total energy              =    -245.66436736 Ry
     Harris-Foulkes estimate   =    -258.52422146 Ry
     estimated scf accuracy    <      28.42511701 Ry

     iteration #  3     ecut=    40.00 Ry     beta=0.70
     CG style diagonalization
     ethr =  1.00E-02,  avg # of iterations =  5.0

     total cpu time spent up to now is       30.7 secs

     total energy              =    -251.91773474 Ry
     Harris-Foulkes estimate   =    -252.94608714 Ry
     estimated scf accuracy    <       2.64865646 Ry

     iteration #  4     ecut=    40.00 Ry     beta=0.70
     CG style diagonalization
     ethr =  9.13E-03,  avg # of iterations =  3.1

     total cpu time spent up to now is       31.8 secs

     total energy              =    -252.05914792 Ry
     Harris-Foulkes estimate   =    -252.16102905 Ry
     estimated scf accuracy    <       0.35218304 Ry

     iteration #  5     ecut=    40.00 Ry     beta=0.70
     CG style diagonalization
     ethr =  1.21E-03,  avg # of iterations =  3.8

     total cpu time spent up to now is       33.1 secs

     total energy              =    -252.11644586 Ry
     Harris-Foulkes estimate   =    -252.13105253 Ry
     estimated scf accuracy    <       0.02336602 Ry

     iteration #  6     ecut=    40.00 Ry     beta=0.70
     CG style diagonalization
     ethr =  8.06E-05,  avg # of iterations =  4.8

     total cpu time spent up to now is       35.0 secs

     total energy              =    -252.12827080 Ry
     Harris-Foulkes estimate   =    -252.13338978 Ry
     estimated scf accuracy    <       0.00938650 Ry

     iteration #  7     ecut=    40.00 Ry     beta=0.70
     CG style diagonalization
     ethr =  3.24E-05,  avg # of iterations =  3.5

     total cpu time spent up to now is       36.2 secs

     total energy              =    -252.12889720 Ry
     Harris-Foulkes estimate   =    -252.12960294 Ry
     estimated scf accuracy    <       0.00182370 Ry

     iteration #  8     ecut=    40.00 Ry     beta=0.70
     CG style diagonalization
     ethr =  6.29E-06,  avg # of iterations =  3.6

     total cpu time spent up to now is       37.6 secs

     End of self-consistent calculation

     Number of k-points >= 100: set verbosity='high' to print the bands.

     the Fermi energy is    19.3948 ev

!    total energy              =    -252.12916917 Ry
     Harris-Foulkes estimate   =    -252.12920240 Ry
     estimated scf accuracy    <       0.00003970 Ry

     The total energy is the sum of the following terms:

     one-electron contribution =     -27.75191310 Ry
     hartree contribution      =      32.23617693 Ry
     xc contribution           =     -28.17655001 Ry
     ewald contribution        =    -228.31661215 Ry
     smearing contrib. (-TS)   =      -0.12027084 Ry

     convergence has been achieved in   8 iterations

     Forces acting on atoms (Ry/au):

     atom    1 type  1   force =     0.00000000    0.00000000    0.00000000
     atom    2 type  2   force =     0.00000000    0.00000000    0.00000000

     Total force =     0.000000     Total SCF correction =     0.000000


     entering subroutine stress ...

          total   stress  (Ry/bohr**3)                   (kbar)     P= -557.67
  -0.00366948   0.00000000   0.00000000       -539.80      0.00      0.00
   0.00000000  -0.00366948   0.00000000          0.00   -539.80      0.00
   0.00000000   0.00000000  -0.00403389          0.00      0.00   -593.41


     number of scf cycles    =   2
     number of bfgs steps    =   1

     enthalpy old            =    -251.9897364828 Ry
     enthalpy new            =    -252.1291691681 Ry

     CASE: enthalpy_new < enthalpy_old

     small trust_radius: resetting bfgs history

     new trust radius        =       0.3580698967 bohr
     new conv_thr            =       0.0000010000 Ry

     new unit-cell volume =    233.77866 a.u.^3 (    34.64242 Ang^3 )

CELL_PARAMETERS (alat=  5.41249258)
   1.044498718   0.000000000   0.000000000
   0.000000000   1.044498718   0.000000000
   0.000000000   0.000000000   1.351441037

ATOMIC_POSITIONS (crystal)
Cu       0.500000000   0.500000000   0.500000000
Au       0.000000000   0.000000000   0.000000000



     Writing output data file Prototype-La-tP2-AuCu.save
     NEW-OLD atomic charge density approx. for the potential
     NEW k-points: (use verbosity='high' to print them)

     total cpu time spent up to now is       38.5 secs

     Self-consistent Calculation

     iteration #  1     ecut=    40.00 Ry     beta=0.70
     CG style diagonalization
     c_bands:  1 eigenvalues not converged
     c_bands:  3 eigenvalues not converged
     c_bands:  1 eigenvalues not converged
     c_bands:  4 eigenvalues not converged
     c_bands:  1 eigenvalues not converged
     c_bands:  4 eigenvalues not converged
     c_bands:  2 eigenvalues not converged
     c_bands:  1 eigenvalues not converged
     c_bands:  2 eigenvalues not converged
     c_bands:  4 eigenvalues not converged
     c_bands:  5 eigenvalues not converged
     c_bands:  4 eigenvalues not converged
     c_bands:  1 eigenvalues not converged
     c_bands:  1 eigenvalues not converged
     c_bands:  3 eigenvalues not converged
     c_bands:  2 eigenvalues not converged
     c_bands:  2 eigenvalues not converged
     c_bands:  1 eigenvalues not converged
     c_bands:  3 eigenvalues not converged
     c_bands:  1 eigenvalues not converged
     c_bands:  4 eigenvalues not converged
     c_bands:  4 eigenvalues not converged
     c_bands:  5 eigenvalues not converged
     c_bands:  5 eigenvalues not converged
     c_bands:  5 eigenvalues not converged
     c_bands:  4 eigenvalues not converged
     c_bands:  1 eigenvalues not converged
     c_bands:  2 eigenvalues not converged
     c_bands:  2 eigenvalues not converged
     c_bands:  3 eigenvalues not converged
     c_bands:  1 eigenvalues not converged
     c_bands:  1 eigenvalues not converged
     c_bands:  2 eigenvalues not converged
     c_bands:  5 eigenvalues not converged
     c_bands:  2 eigenvalues not converged
     c_bands:  3 eigenvalues not converged
     c_bands:  3 eigenvalues not converged
     c_bands:  1 eigenvalues not converged
     c_bands:  3 eigenvalues not converged
     c_bands:  3 eigenvalues not converged
     c_bands:  4 eigenvalues not converged
     c_bands:  4 eigenvalues not converged
     c_bands:  5 eigenvalues not converged
     c_bands:  4 eigenvalues not converged
     c_bands:  4 eigenvalues not converged
     c_bands:  1 eigenvalues not converged
     c_bands:  2 eigenvalues not converged
     c_bands:  2 eigenvalues not converged
     c_bands:  3 eigenvalues not converged
     c_bands:  5 eigenvalues not converged
     c_bands:  1 eigenvalues not converged
     c_bands:  5 eigenvalues not converged
     c_bands:  1 eigenvalues not converged
     c_bands:  5 eigenvalues not converged
     c_bands:  5 eigenvalues not converged
     c_bands:  4 eigenvalues not converged
     c_bands:  1 eigenvalues not converged
     c_bands:  5 eigenvalues not converged
     c_bands:  5 eigenvalues not converged
     c_bands:  4 eigenvalues not converged
     c_bands:  3 eigenvalues not converged
     c_bands:  2 eigenvalues not converged
     c_bands:  2 eigenvalues not converged
     ethr =  1.00E-06,  avg # of iterations = 14.9

     total cpu time spent up to now is       43.7 secs

     total energy              =    -249.68610839 Ry
     Harris-Foulkes estimate   =    -254.67987549 Ry
     estimated scf accuracy    <       6.30694423 Ry

     iteration #  2     ecut=    40.00 Ry     beta=0.70
     CG style diagonalization
     ethr =  1.00E-02,  avg # of iterations =  4.2

     total cpu time spent up to now is       45.2 secs

     total energy              =    -250.90506500 Ry
     Harris-Foulkes estimate   =    -254.20366613 Ry
     estimated scf accuracy    <       6.17804128 Ry

     iteration #  3     ecut=    40.00 Ry     beta=0.70
     CG style diagonalization
     ethr =  1.00E-02,  avg # of iterations =  3.6

     total cpu time spent up to now is       46.6 secs

     total energy              =    -252.16156649 Ry
     Harris-Foulkes estimate   =    -252.20663670 Ry
     estimated scf accuracy    <       0.08298159 Ry

     iteration #  4     ecut=    40.00 Ry     beta=0.70
     CG style diagonalization
     ethr =  2.86E-04,  avg # of iterations =  4.2

     total cpu time spent up to now is       48.1 secs

     total energy              =    -252.19805874 Ry
     Harris-Foulkes estimate   =    -252.20147590 Ry
     estimated scf accuracy    <       0.00576544 Ry

     iteration #  5     ecut=    40.00 Ry     beta=0.70
     CG style diagonalization
     c_bands:  1 eigenvalues not converged
     c_bands:  1 eigenvalues not converged
     ethr =  1.99E-05,  avg # of iterations =  4.3

     total cpu time spent up to now is       49.7 secs

     total energy              =    -252.19999900 Ry
     Harris-Foulkes estimate   =    -252.20018676 Ry
     estimated scf accuracy    <       0.00034506 Ry

     iteration #  6     ecut=    40.00 Ry     beta=0.70
     CG style diagonalization
     ethr =  1.19E-06,  avg # of iterations =  4.5

     total cpu time spent up to now is       51.4 secs

     total energy              =    -252.20015025 Ry
     Harris-Foulkes estimate   =    -252.20020295 Ry
     estimated scf accuracy    <       0.00010121 Ry

     iteration #  7     ecut=    40.00 Ry     beta=0.70
     CG style diagonalization
     ethr =  3.49E-07,  avg # of iterations =  3.5

     total cpu time spent up to now is       52.7 secs

     total energy              =    -252.20018140 Ry
     Harris-Foulkes estimate   =    -252.20018670 Ry
     estimated scf accuracy    <       0.00001262 Ry

     iteration #  8     ecut=    40.00 Ry     beta=0.70
     CG style diagonalization
     ethr =  4.35E-08,  avg # of iterations =  3.5

     total cpu time spent up to now is       54.0 secs

     End of self-consistent calculation

     Number of k-points >= 100: set verbosity='high' to print the bands.

     the Fermi energy is    27.4709 ev

!    total energy              =    -252.20018464 Ry
     Harris-Foulkes estimate   =    -252.20018473 Ry
     estimated scf accuracy    <       0.00000013 Ry

     The total energy is the sum of the following terms:

     one-electron contribution =       5.15028411 Ry
     hartree contribution      =      24.02370048 Ry
     xc contribution           =     -29.03975754 Ry
     ewald contribution        =    -252.24328119 Ry
     smearing contrib. (-TS)   =      -0.09113050 Ry

     convergence has been achieved in   8 iterations

     Forces acting on atoms (Ry/au):

     atom    1 type  1   force =     0.00000000    0.00000000    0.00000000
     atom    2 type  2   force =     0.00000000    0.00000000    0.00000000

     Total force =     0.000000     Total SCF correction =     0.000000


     entering subroutine stress ...

          total   stress  (Ry/bohr**3)                   (kbar)     P=  537.84
   0.00342094   0.00000000   0.00000000        503.24      0.00      0.00
   0.00000000   0.00342094   0.00000000          0.00    503.24      0.00
   0.00000000   0.00000000   0.00412670          0.00      0.00    607.06


     number of scf cycles    =   3
     number of bfgs steps    =   2

     enthalpy old            =    -252.1291691681 Ry
     enthalpy new            =    -252.2001846355 Ry

     CASE: enthalpy_new < enthalpy_old

     Message from routine bfgs:
     history already reset at previous step: stopping
     small trust_radius: resetting bfgs history

     new trust radius        =       0.3154821925 bohr
     new conv_thr            =       0.0000010000 Ry

     new unit-cell volume =    303.89585 a.u.^3 (    45.03272 Ang^3 )

CELL_PARAMETERS (alat=  5.41249258)
   1.133827946   0.000000000   0.000000000
   0.000000000   1.133827946   0.000000000
   0.000000000   0.000000000   1.490865676

ATOMIC_POSITIONS (crystal)
Cu       0.500000000   0.500000000   0.500000000
Au       0.000000000   0.000000000   0.000000000



     Writing output data file Prototype-La-tP2-AuCu.save
     NEW-OLD atomic charge density approx. for the potential
     NEW k-points: (use verbosity='high' to print them)

     total cpu time spent up to now is       54.8 secs

     Self-consistent Calculation

     iteration #  1     ecut=    40.00 Ry     beta=0.70
     CG style diagonalization
     c_bands:  1 eigenvalues not converged
     c_bands:  3 eigenvalues not converged
     c_bands:  1 eigenvalues not converged
     c_bands:  1 eigenvalues not converged
     c_bands:  3 eigenvalues not converged
     c_bands:  2 eigenvalues not converged
     c_bands:  1 eigenvalues not converged
     c_bands:  1 eigenvalues not converged
     c_bands:  1 eigenvalues not converged
     c_bands:  2 eigenvalues not converged
     c_bands:  1 eigenvalues not converged
     c_bands:  1 eigenvalues not converged
     c_bands:  3 eigenvalues not converged
     c_bands:  1 eigenvalues not converged
     c_bands:  3 eigenvalues not converged
     c_bands:  3 eigenvalues not converged
     c_bands:  2 eigenvalues not converged
     c_bands:  3 eigenvalues not converged
     c_bands:  1 eigenvalues not converged
     c_bands:  2 eigenvalues not converged
     c_bands:  3 eigenvalues not converged
     c_bands:  3 eigenvalues not converged
     c_bands:  4 eigenvalues not converged
     c_bands:  4 eigenvalues not converged
     c_bands:  3 eigenvalues not converged
     c_bands:  4 eigenvalues not converged
     c_bands:  1 eigenvalues not converged
     c_bands:  1 eigenvalues not converged
     c_bands:  1 eigenvalues not converged
     c_bands:  1 eigenvalues not converged
     c_bands:  1 eigenvalues not converged
     c_bands:  1 eigenvalues not converged
     c_bands:  1 eigenvalues not converged
     c_bands:  4 eigenvalues not converged
     c_bands:  2 eigenvalues not converged
     c_bands:  1 eigenvalues not converged
     c_bands:  1 eigenvalues not converged
     c_bands:  2 eigenvalues not converged
     c_bands:  3 eigenvalues not converged
     c_bands:  4 eigenvalues not converged
     c_bands:  3 eigenvalues not converged
     c_bands:  2 eigenvalues not converged
     c_bands:  2 eigenvalues not converged
     c_bands:  4 eigenvalues not converged
     c_bands:  3 eigenvalues not converged
     c_bands:  2 eigenvalues not converged
     c_bands:  3 eigenvalues not converged
     c_bands:  1 eigenvalues not converged
     c_bands:  2 eigenvalues not converged
     c_bands:  1 eigenvalues not converged
     c_bands:  2 eigenvalues not converged
     c_bands:  1 eigenvalues not converged
     c_bands:  2 eigenvalues not converged
     c_bands:  3 eigenvalues not converged
     c_bands:  3 eigenvalues not converged
     c_bands:  2 eigenvalues not converged
     c_bands:  4 eigenvalues not converged
     c_bands:  2 eigenvalues not converged
     c_bands:  4 eigenvalues not converged
     c_bands:  4 eigenvalues not converged
     c_bands:  3 eigenvalues not converged
     c_bands:  3 eigenvalues not converged
     c_bands:  2 eigenvalues not converged
     c_bands:  4 eigenvalues not converged
     c_bands:  1 eigenvalues not converged
     c_bands:  4 eigenvalues not converged
     c_bands:  1 eigenvalues not converged
     ethr =  1.00E-06,  avg # of iterations = 13.1

     total cpu time spent up to now is       59.4 secs

     total energy              =    -249.30138665 Ry
     Harris-Foulkes estimate   =    -254.25618599 Ry
     estimated scf accuracy    <       6.25395705 Ry

     iteration #  2     ecut=    40.00 Ry     beta=0.70
     CG style diagonalization
     ethr =  1.00E-02,  avg # of iterations =  4.1

     total cpu time spent up to now is       61.0 secs

     total energy              =    -248.17564399 Ry
     Harris-Foulkes estimate   =    -256.07967341 Ry
     estimated scf accuracy    <      20.56524531 Ry

     iteration #  3     ecut=    40.00 Ry     beta=0.70
     CG style diagonalization
     ethr =  1.00E-02,  avg # of iterations =  4.2

     total cpu time spent up to now is       62.6 secs

     total energy              =    -252.08358390 Ry
     Harris-Foulkes estimate   =    -252.41934983 Ry
     estimated scf accuracy    <       0.83352361 Ry

     iteration #  4     ecut=    40.00 Ry     beta=0.70
     CG style diagonalization
     ethr =  2.87E-03,  avg # of iterations =  3.3

     total cpu time spent up to now is       63.8 secs

     total energy              =    -252.14880037 Ry
     Harris-Foulkes estimate   =    -252.18393378 Ry
     estimated scf accuracy    <       0.12133065 Ry

     iteration #  5     ecut=    40.00 Ry     beta=0.70
     CG style diagonalization
     ethr =  4.18E-04,  avg # of iterations =  3.6

     total cpu time spent up to now is       65.1 secs

     total energy              =    -252.16399423 Ry
     Harris-Foulkes estimate   =    -252.16980698 Ry
     estimated scf accuracy    <       0.01026243 Ry

     iteration #  6     ecut=    40.00 Ry     beta=0.70
     CG style diagonalization
     ethr =  3.54E-05,  avg # of iterations =  4.4

     total cpu time spent up to now is       66.7 secs

     total energy              =    -252.16866397 Ry
     Harris-Foulkes estimate   =    -252.17090888 Ry
     estimated scf accuracy    <       0.00582316 Ry

     iteration #  7     ecut=    40.00 Ry     beta=0.70
     CG style diagonalization
     ethr =  2.01E-05,  avg # of iterations =  3.2

     total cpu time spent up to now is       67.9 secs

     total energy              =    -252.16941868 Ry
     Harris-Foulkes estimate   =    -252.16946574 Ry
     estimated scf accuracy    <       0.00010454 Ry

     iteration #  8     ecut=    40.00 Ry     beta=0.70
     CG style diagonalization
     ethr =  3.60E-07,  avg # of iterations =  4.6

     total cpu time spent up to now is       69.6 secs

     total energy              =    -252.16949096 Ry
     Harris-Foulkes estimate   =    -252.16949221 Ry
     estimated scf accuracy    <       0.00000356 Ry

     iteration #  9     ecut=    40.00 Ry     beta=0.70
     CG style diagonalization
     ethr =  1.23E-08,  avg # of iterations =  4.0

     total cpu time spent up to now is       71.0 secs

     End of self-consistent calculation

     Number of k-points >= 100: set verbosity='high' to print the bands.

     the Fermi energy is    20.2532 ev

!    total energy              =    -252.16949192 Ry
     Harris-Foulkes estimate   =    -252.16949233 Ry
     estimated scf accuracy    <       0.00000054 Ry

     The total energy is the sum of the following terms:

     one-electron contribution =     -23.89244796 Ry
     hartree contribution      =      31.19900305 Ry
     xc contribution           =     -28.26501697 Ry
     ewald contribution        =    -231.09502822 Ry
     smearing contrib. (-TS)   =      -0.11600181 Ry

     convergence has been achieved in   9 iterations

     Forces acting on atoms (Ry/au):

     atom    1 type  1   force =     0.00000000    0.00000000    0.00000000
     atom    2 type  2   force =     0.00000000    0.00000000    0.00000000

     Total force =     0.000000     Total SCF correction =     0.000000


     entering subroutine stress ...

          total   stress  (Ry/bohr**3)                   (kbar)     P= -486.65
  -0.00317149   0.00000000   0.00000000       -466.54      0.00      0.00
   0.00000000  -0.00317149   0.00000000          0.00   -466.54      0.00
   0.00000000   0.00000000  -0.00358149          0.00      0.00   -526.86


     The maximum number of steps has been reached.

     End of BFGS Geometry Optimization
Begin final coordinates
     new unit-cell volume =    303.89585 a.u.^3 (    45.03272 Ang^3 )

CELL_PARAMETERS (alat=  5.41249258)
   1.133827946   0.000000000   0.000000000
   0.000000000   1.133827946   0.000000000
   0.000000000   0.000000000   1.490865676

ATOMIC_POSITIONS (crystal)
Cu       0.500000000   0.500000000   0.500000000
Au       0.000000000   0.000000000   0.000000000
End final coordinates



     A final scf calculation at the relaxed structure.
     The G-vectors are recalculated for the final unit cell
     Results may differ from those at the preceding step.
 
     Parallelization info
     --------------------
     sticks:   dense  smooth     PW     G-vecs:    dense   smooth      PW
     Min         120     120     36                 2594     2594     456
     Max         121     121     37                 2599     2599     459
     Sum         481     481    145                10385    10385    1827
 


     bravais-lattice index     =            0
     lattice parameter (alat)  =       5.4125  a.u.
     unit-cell volume          =     303.8959 (a.u.)^3
     number of atoms/cell      =            2
     number of atomic types    =            2
     number of electrons       =        29.00
     number of Kohn-Sham states=           19
     kinetic-energy cutoff     =      40.0000  Ry
     charge density cutoff     =     160.0000  Ry
     convergence threshold     =      1.0E-06
     mixing beta               =       0.7000
     number of iterations used =            8  plain     mixing
     Exchange-correlation      = SLA-PZ-NOGX-NOGC ( 1 1 0 0 0)
     EXX-fraction              =        0.00

     celldm(1)=   5.412493  celldm(2)=   0.000000  celldm(3)=   0.000000
     celldm(4)=   0.000000  celldm(5)=   0.000000  celldm(6)=   0.000000

     crystal axes: (cart. coord. in units of alat)
               a(1) = (   1.133828   0.000000   0.000000 )  
               a(2) = (   0.000000   1.133828   0.000000 )  
               a(3) = (   0.000000   0.000000   1.490866 )  

     reciprocal axes: (cart. coord. in units 2 pi/alat)
               b(1) = (  0.881968  0.000000  0.000000 )  
               b(2) = (  0.000000  0.881968  0.000000 )  
               b(3) = (  0.000000  0.000000  0.670751 )  


     PseudoPot. # 1 for Eu read from file:
     /home/cwx6513/pp.La/Eu.UPF
     MD5 check sum: 5efdbbfc50c6a10138933a6429836ad2
     Pseudo is Norm-conserving, Zval = 17.0
     Generated in analytical, separable form
     Using radial grid of 1261 points,  6 beta functions with: 
                l(1) =   0
                l(2) =   0
                l(3) =   1
                l(4) =   1
                l(5) =   2
                l(6) =   3

     PseudoPot. # 2 for Ce read from file:
     /home/cwx6513/pp.La/Ce.UPF
     MD5 check sum: 44451aa79a44a00cf2bc029dc19922f6
     Pseudo is Norm-conserving, Zval = 12.0
     Generated in analytical, separable form
     Using radial grid of 1255 points,  6 beta functions with: 
                l(1) =   0
                l(2) =   0
                l(3) =   1
                l(4) =   1
                l(5) =   2
                l(6) =   3

     atomic species   valence    mass     pseudopotential
        Cu            17.00    63.54600     Eu( 1.00)
        Au            12.00   196.96600     Ce( 1.00)

     16 Sym. Ops., with inversion, found



   Cartesian axes

     site n.     atom                  positions (alat units)
         1           Cu  tau(   1) = (   0.5669140   0.5669140   0.7454328  )
         2           Au  tau(   2) = (   0.0000000   0.0000000   0.0000000  )

     number of k points=   100  gaussian smearing, width (Ry)=  0.1000

     Number of k-points >= 100: set verbosity='high' to print them.

     Dense  grid:    10385 G-vectors     FFT dimensions: (  25,  25,  36)

     Largest allocated arrays     est. size (Mb)     dimensions
        Kohn-Sham Wavefunctions         0.10 Mb     (    334,   19)
        NL pseudopotentials             0.20 Mb     (    334,   40)
        Each V/rho on FFT grid          0.09 Mb     (   5625)
        Each G-vector array             0.02 Mb     (   2596)
        G-vector shells                 0.01 Mb     (    660)
     Largest temporary arrays     est. size (Mb)     dimensions
        Each subspace H/S matrix        0.01 Mb     (  19,  19)
        Each <psi_i|beta_j> matrix      0.01 Mb     (     40,   19)
        Arrays for rho mixing           0.69 Mb     (   5625,   8)

     Initial potential from superposition of free atoms

     Starting from uniform charge
     Starting wfc are    0 randomized atomic wfcs

     Writing output data file Prototype-La-tP2-AuCu.save

     total cpu time spent up to now is       72.7 secs

     Self-consistent Calculation

     iteration #  1     ecut=    40.00 Ry     beta=0.70
     CG style diagonalization
     c_bands:  2 eigenvalues not converged
     c_bands:  1 eigenvalues not converged
     c_bands:  2 eigenvalues not converged
     c_bands:  4 eigenvalues not converged
     c_bands:  3 eigenvalues not converged
     c_bands:  5 eigenvalues not converged
     c_bands:  3 eigenvalues not converged
     c_bands:  4 eigenvalues not converged
     c_bands:  4 eigenvalues not converged
     c_bands:  5 eigenvalues not converged
     c_bands:  5 eigenvalues not converged
     c_bands:  3 eigenvalues not converged
     c_bands:  2 eigenvalues not converged
     c_bands:  5 eigenvalues not converged
     c_bands:  5 eigenvalues not converged
     c_bands:  4 eigenvalues not converged
     c_bands:  5 eigenvalues not converged
     c_bands:  2 eigenvalues not converged
     c_bands:  1 eigenvalues not converged
     c_bands:  5 eigenvalues not converged
     c_bands:  3 eigenvalues not converged
     c_bands:  4 eigenvalues not converged
     c_bands:  3 eigenvalues not converged
     c_bands:  5 eigenvalues not converged
     c_bands:  5 eigenvalues not converged
     c_bands:  5 eigenvalues not converged
     c_bands:  4 eigenvalues not converged
     c_bands:  1 eigenvalues not converged
     c_bands:  4 eigenvalues not converged
     c_bands:  4 eigenvalues not converged
     c_bands:  4 eigenvalues not converged
     c_bands:  4 eigenvalues not converged
     c_bands:  2 eigenvalues not converged
     c_bands:  3 eigenvalues not converged
     c_bands:  2 eigenvalues not converged
     c_bands:  5 eigenvalues not converged
     c_bands:  5 eigenvalues not converged
     c_bands:  1 eigenvalues not converged
     c_bands:  5 eigenvalues not converged
     c_bands:  1 eigenvalues not converged
     c_bands:  2 eigenvalues not converged
     c_bands:  4 eigenvalues not converged
     c_bands:  2 eigenvalues not converged
     c_bands:  4 eigenvalues not converged
     c_bands:  1 eigenvalues not converged
     c_bands:  3 eigenvalues not converged
     c_bands:  2 eigenvalues not converged
     c_bands:  5 eigenvalues not converged
     c_bands:  4 eigenvalues not converged
     c_bands:  1 eigenvalues not converged
     c_bands:  3 eigenvalues not converged
     c_bands:  4 eigenvalues not converged
     c_bands:  4 eigenvalues not converged
     c_bands:  1 eigenvalues not converged
     c_bands:  3 eigenvalues not converged
     c_bands:  1 eigenvalues not converged
     c_bands:  4 eigenvalues not converged
     c_bands:  3 eigenvalues not converged
     c_bands:  1 eigenvalues not converged
     c_bands:  2 eigenvalues not converged
     ethr =  1.00E-06,  avg # of iterations = 36.8

     total cpu time spent up to now is       90.9 secs

     total energy              =    -132.31447795 Ry
     Harris-Foulkes estimate   =    -313.27818645 Ry
     estimated scf accuracy    <     222.52278568 Ry

     iteration #  2     ecut=    40.00 Ry     beta=0.70
     CG style diagonalization
     c_bands:  2 eigenvalues not converged
     c_bands:  1 eigenvalues not converged
     c_bands:  2 eigenvalues not converged
     c_bands:  1 eigenvalues not converged
     c_bands:  1 eigenvalues not converged
     c_bands:  1 eigenvalues not converged
     c_bands:  1 eigenvalues not converged
     c_bands:  1 eigenvalues not converged
     c_bands:  1 eigenvalues not converged
     c_bands:  1 eigenvalues not converged
     c_bands:  1 eigenvalues not converged
     c_bands:  1 eigenvalues not converged
     c_bands:  1 eigenvalues not converged
     c_bands:  2 eigenvalues not converged
     c_bands:  1 eigenvalues not converged
     c_bands:  1 eigenvalues not converged
     c_bands:  1 eigenvalues not converged
     c_bands:  1 eigenvalues not converged
     c_bands:  1 eigenvalues not converged
     c_bands:  1 eigenvalues not converged
     c_bands:  1 eigenvalues not converged
     c_bands:  2 eigenvalues not converged
     c_bands:  2 eigenvalues not converged
     c_bands:  1 eigenvalues not converged
     c_bands:  1 eigenvalues not converged
     c_bands:  1 eigenvalues not converged
     c_bands:  2 eigenvalues not converged
     c_bands:  1 eigenvalues not converged
     c_bands:  1 eigenvalues not converged
     c_bands:  1 eigenvalues not converged
     c_bands:  2 eigenvalues not converged
     c_bands:  1 eigenvalues not converged
     c_bands:  1 eigenvalues not converged
     c_bands:  1 eigenvalues not converged
     c_bands:  1 eigenvalues not converged
     c_bands:  1 eigenvalues not converged
     c_bands:  1 eigenvalues not converged
     c_bands:  3 eigenvalues not converged
     c_bands:  3 eigenvalues not converged
     c_bands:  1 eigenvalues not converged
     c_bands:  1 eigenvalues not converged
     ethr =  1.00E-02,  avg # of iterations = 12.9

     total cpu time spent up to now is       97.7 secs

     total energy              =    -196.42148972 Ry
     Harris-Foulkes estimate   =    -363.42394130 Ry
     estimated scf accuracy    <     344.59974191 Ry

     iteration #  3     ecut=    40.00 Ry     beta=0.70
     CG style diagonalization
     c_bands:  1 eigenvalues not converged
     ethr =  1.00E-02,  avg # of iterations = 11.0

     total cpu time spent up to now is      104.2 secs

     total energy              =    -251.64211236 Ry
     Harris-Foulkes estimate   =    -256.61697632 Ry
     estimated scf accuracy    <       8.65400308 Ry

     iteration #  4     ecut=    40.00 Ry     beta=0.70
     CG style diagonalization
     ethr =  1.00E-02,  avg # of iterations =  4.1

     total cpu time spent up to now is      106.6 secs

     total energy              =    -252.30429274 Ry
     Harris-Foulkes estimate   =    -252.77976719 Ry
     estimated scf accuracy    <       0.96031101 Ry

     iteration #  5     ecut=    40.00 Ry     beta=0.70
     CG style diagonalization
     ethr =  3.31E-03,  avg # of iterations =  3.7

     negative rho (up, down):  0.143E-03 0.000E+00

     total cpu time spent up to now is      108.9 secs

     total energy              =    -252.48355481 Ry
     Harris-Foulkes estimate   =    -252.52160574 Ry
     estimated scf accuracy    <       0.11662958 Ry

     iteration #  6     ecut=    40.00 Ry     beta=0.70
     CG style diagonalization
     c_bands:  1 eigenvalues not converged
     c_bands:  1 eigenvalues not converged
     c_bands:  1 eigenvalues not converged
     ethr =  4.02E-04,  avg # of iterations =  4.7

     total cpu time spent up to now is      111.6 secs

     total energy              =    -252.46745450 Ry
     Harris-Foulkes estimate   =    -252.55851762 Ry
     estimated scf accuracy    <       0.14579835 Ry

     iteration #  7     ecut=    40.00 Ry     beta=0.70
     CG style diagonalization
     ethr =  4.02E-04,  avg # of iterations =  3.6

     total cpu time spent up to now is      113.6 secs

     total energy              =    -252.49239784 Ry
     Harris-Foulkes estimate   =    -252.49290107 Ry
     estimated scf accuracy    <       0.00110943 Ry

     iteration #  8     ecut=    40.00 Ry     beta=0.70
     CG style diagonalization
     c_bands:  1 eigenvalues not converged
     c_bands:  1 eigenvalues not converged
     c_bands:  1 eigenvalues not converged
     c_bands:  1 eigenvalues not converged
     c_bands:  1 eigenvalues not converged
     c_bands:  1 eigenvalues not converged
     c_bands:  1 eigenvalues not converged
     c_bands:  1 eigenvalues not converged
     c_bands:  1 eigenvalues not converged
     ethr =  3.83E-06,  avg # of iterations =  5.5

     total cpu time spent up to now is      116.5 secs

     total energy              =    -252.49348673 Ry
     Harris-Foulkes estimate   =    -252.49396524 Ry
     estimated scf accuracy    <       0.00148448 Ry

     iteration #  9     ecut=    40.00 Ry     beta=0.70
     CG style diagonalization
     ethr =  3.83E-06,  avg # of iterations =  3.1

     total cpu time spent up to now is      118.1 secs

     total energy              =    -252.49363835 Ry
     Harris-Foulkes estimate   =    -252.49365143 Ry
     estimated scf accuracy    <       0.00003456 Ry

     iteration # 10     ecut=    40.00 Ry     beta=0.70
     CG style diagonalization
     ethr =  1.19E-07,  avg # of iterations =  4.3

     total cpu time spent up to now is      120.4 secs

     total energy              =    -252.49366037 Ry
     Harris-Foulkes estimate   =    -252.49366408 Ry
     estimated scf accuracy    <       0.00001139 Ry

     iteration # 11     ecut=    40.00 Ry     beta=0.70
     CG style diagonalization
     ethr =  3.93E-08,  avg # of iterations =  3.1

     total cpu time spent up to now is      122.1 secs

     End of self-consistent calculation

     Number of k-points >= 100: set verbosity='high' to print the bands.

     the Fermi energy is    20.2234 ev

!    total energy              =    -252.49366145 Ry
     Harris-Foulkes estimate   =    -252.49366174 Ry
     estimated scf accuracy    <       0.00000034 Ry

     The total energy is the sum of the following terms:

     one-electron contribution =     -24.32230421 Ry
     hartree contribution      =      31.33584702 Ry
     xc contribution           =     -28.29601991 Ry
     ewald contribution        =    -231.09502408 Ry
     smearing contrib. (-TS)   =      -0.11616027 Ry

     convergence has been achieved in  11 iterations

     Forces acting on atoms (Ry/au):

     atom    1 type  1   force =     0.00000000    0.00000000    0.00000000
     atom    2 type  2   force =     0.00000000    0.00000000    0.00000000

     Total force =     0.000000     Total SCF correction =     0.000000


     entering subroutine stress ...

          total   stress  (Ry/bohr**3)                   (kbar)     P=  -75.49
  -0.00049655   0.00000000   0.00000000        -73.05      0.00      0.00
   0.00000000  -0.00049655   0.00000000          0.00    -73.05      0.00
   0.00000000   0.00000000  -0.00054643          0.00      0.00    -80.38


     Writing output data file Prototype-La-tP2-AuCu.save
 
     init_run     :      1.25s CPU      1.51s WALL (       2 calls)
     electrons    :    108.99s CPU    117.14s WALL (       5 calls)
     update_pot   :      0.45s CPU      0.45s WALL (       3 calls)
     forces       :      0.61s CPU      0.62s WALL (       5 calls)
     stress       :      1.59s CPU      1.62s WALL (       5 calls)

     Called by init_run:
     wfcinit      :      0.98s CPU      1.22s WALL (       2 calls)
     potinit      :      0.09s CPU      0.09s WALL (       2 calls)

     Called by electrons:
     c_bands      :    103.28s CPU    110.18s WALL (      44 calls)
     sum_band     :      5.60s CPU      5.98s WALL (      44 calls)
     v_of_rho     :      0.02s CPU      0.02s WALL (      49 calls)
     mix_rho      :      0.02s CPU      0.02s WALL (      44 calls)

     Called by c_bands:
     init_us_2    :      1.21s CPU      1.26s WALL (   10000 calls)
     ccgdiagg     :     88.38s CPU     93.35s WALL (    4547 calls)
     wfcrot       :     14.74s CPU     16.28s WALL (    4647 calls)

     Called by *cgdiagg:
     h_psi        :     74.72s CPU     80.64s WALL (  448927 calls)
     cdiaghg      :      0.72s CPU      0.98s WALL (    4647 calls)

     Called by h_psi:
     add_vuspsi   :      4.45s CPU      5.71s WALL (  448927 calls)

     General routines
     calbec       :     13.44s CPU     14.86s WALL (  894207 calls)
     fft          :      0.02s CPU      0.03s WALL (     219 calls)
     fftw         :     60.57s CPU     62.84s WALL ( 1148746 calls)
     davcio       :      0.74s CPU      1.28s WALL (   14400 calls)
 
     Parallel routines
     fft_scatter  :     18.22s CPU     20.09s WALL ( 1148965 calls)
 
     PWSCF        :  1m53.83s CPU     2m 2.79s WALL

 
   This run was terminated on:  21:13:57  22Mar2018            

=------------------------------------------------------------------------------=
   JOB DONE.
=------------------------------------------------------------------------------=
