
     Program PWSCF v.5.0.2 starts on 22Mar2018 at 21:11:54 

     This program is part of the open-source Quantum ESPRESSO suite
     for quantum simulation of materials; please cite
         "P. Giannozzi et al., J. Phys.:Condens. Matter 21 395502 (2009);
          URL http://www.quantum-espresso.org", 
     in publications or presentations arising from this work. More details at
     http://www.quantum-espresso.org/quote.php

     Parallel version (MPI), running on     4 processors
     R & G space division:  proc/nbgrp/npool/nimage =       4

     Current dimensions of program PWSCF are:
     Max number of different atomic species (ntypx) = 10
     Max number of k-points (npk) =  40000
     Max angular momentum in pseudopotentials (lmaxx) =  3
     Waiting for input...
     Reading input from standard input

     Subspace diagonalization in iterative solution of the eigenvalue problem:
     a serial algorithm will be used

 
     Parallelization info
     --------------------
     sticks:   dense  smooth     PW     G-vecs:    dense   smooth      PW
     Min         256     256     78                 5240     5240     876
     Max         257     257     79                 5243     5243     879
     Sum        1027    1027    313                20965    20965    3509
 


     bravais-lattice index     =            0
     lattice parameter (alat)  =       9.6483  a.u.
     unit-cell volume          =     613.3683 (a.u.)^3
     number of atoms/cell      =            6
     number of atomic types    =            2
     number of electrons       =        77.00
     number of Kohn-Sham states=           47
     kinetic-energy cutoff     =      40.0000  Ry
     charge density cutoff     =     160.0000  Ry
     convergence threshold     =      1.0E-04
     mixing beta               =       0.7000
     number of iterations used =            8  plain     mixing
     Exchange-correlation      = SLA-PZ-NOGX-NOGC ( 1 1 0 0 0)
     EXX-fraction              =        0.00
     nstep                     =           50


     celldm(1)=   9.648295  celldm(2)=   0.000000  celldm(3)=   0.000000
     celldm(4)=   0.000000  celldm(5)=   0.000000  celldm(6)=   0.000000

     crystal axes: (cart. coord. in units of alat)
               a(1) = (   1.000000   0.000000   0.000000 )  
               a(2) = (  -0.500000   0.866025   0.000000 )  
               a(3) = (   0.000000   0.000000   0.788568 )  

     reciprocal axes: (cart. coord. in units 2 pi/alat)
               b(1) = (  1.000000  0.577350  0.000000 )  
               b(2) = (  0.000000  1.154701  0.000000 )  
               b(3) = (  0.000000  0.000000  1.268122 )  


     PseudoPot. # 1 for Eu read from file:
     /home/cwx6513/pp.La/Eu.UPF
     MD5 check sum: 5efdbbfc50c6a10138933a6429836ad2
     Pseudo is Norm-conserving, Zval = 17.0
     Generated in analytical, separable form
     Using radial grid of 1261 points,  6 beta functions with: 
                l(1) =   0
                l(2) =   0
                l(3) =   1
                l(4) =   1
                l(5) =   2
                l(6) =   3

     PseudoPot. # 2 for Ce read from file:
     /home/cwx6513/pp.La/Ce.UPF
     MD5 check sum: 44451aa79a44a00cf2bc029dc19922f6
     Pseudo is Norm-conserving, Zval = 12.0
     Generated in analytical, separable form
     Using radial grid of 1255 points,  6 beta functions with: 
                l(1) =   0
                l(2) =   0
                l(3) =   1
                l(4) =   1
                l(5) =   2
                l(6) =   3

     atomic species   valence    mass     pseudopotential
        Ca            17.00    40.07800     Eu( 1.00)
        Cu            12.00    63.54600     Ce( 1.00)

     24 Sym. Ops., with inversion, found



   Cartesian axes

     site n.     atom                  positions (alat units)
         1           Ca  tau(   1) = (   0.0000000   0.0000000   0.0000000  )
         2           Cu  tau(   2) = (  -0.0000005   0.5773506   0.0000000  )
         3           Cu  tau(   3) = (   0.5000005   0.2886748   0.0000000  )
         4           Cu  tau(   4) = (   0.5000000   0.0000000   0.3942838  )
         5           Cu  tau(   5) = (   0.2500000   0.4330127   0.3942838  )
         6           Cu  tau(   6) = (  -0.2500000   0.4330127   0.3942838  )

     number of k points=   110  gaussian smearing, width (Ry)=  0.1000

     Number of k-points >= 100: set verbosity='high' to print them.

     Dense  grid:    20965 G-vectors     FFT dimensions: (  40,  40,  32)

     Largest allocated arrays     est. size (Mb)     dimensions
        Kohn-Sham Wavefunctions         0.48 Mb     (    670,   47)
        NL pseudopotentials             1.23 Mb     (    670,  120)
        Each V/rho on FFT grid          0.20 Mb     (  12800)
        Each G-vector array             0.04 Mb     (   5243)
        G-vector shells                 0.04 Mb     (   5243)
     Largest temporary arrays     est. size (Mb)     dimensions
        Each subspace H/S matrix        0.03 Mb     (  47,  47)
        Each <psi_i|beta_j> matrix      0.09 Mb     (    120,   47)
        Arrays for rho mixing           1.56 Mb     (  12800,   8)

     Initial potential from superposition of free atoms

     Starting from uniform charge
     Starting wfc are    0 randomized atomic wfcs

     total cpu time spent up to now is        4.5 secs

     Self-consistent Calculation

     iteration #  1     ecut=    40.00 Ry     beta=0.70
     CG style diagonalization
     c_bands:  5 eigenvalues not converged
     c_bands:  5 eigenvalues not converged
     ethr =  1.00E-02,  avg # of iterations = 17.5

     total cpu time spent up to now is       76.6 secs

     total energy              =    -450.29640454 Ry
     Harris-Foulkes estimate   =    -620.26421165 Ry
     estimated scf accuracy    <     214.95117624 Ry

     iteration #  2     ecut=    40.00 Ry     beta=0.70
     CG style diagonalization
     c_bands:  1 eigenvalues not converged
     c_bands:  2 eigenvalues not converged
     c_bands:  1 eigenvalues not converged
     c_bands:  1 eigenvalues not converged
     c_bands:  1 eigenvalues not converged
     c_bands:  1 eigenvalues not converged
     c_bands:  1 eigenvalues not converged
     c_bands:  1 eigenvalues not converged
     c_bands:  1 eigenvalues not converged
     c_bands:  1 eigenvalues not converged
     c_bands:  1 eigenvalues not converged
     c_bands:  1 eigenvalues not converged
     c_bands:  1 eigenvalues not converged
     c_bands:  1 eigenvalues not converged
     c_bands:  1 eigenvalues not converged
     c_bands:  1 eigenvalues not converged
     c_bands:  1 eigenvalues not converged
     c_bands:  2 eigenvalues not converged
     c_bands:  1 eigenvalues not converged
     c_bands:  1 eigenvalues not converged
     c_bands:  1 eigenvalues not converged
     c_bands:  1 eigenvalues not converged
     c_bands:  1 eigenvalues not converged
     c_bands:  1 eigenvalues not converged
     c_bands:  2 eigenvalues not converged
     c_bands:  1 eigenvalues not converged
     ethr =  1.00E-02,  avg # of iterations =  7.7

     total cpu time spent up to now is      109.7 secs

     total energy              =    -525.24433526 Ry
     Harris-Foulkes estimate   =    -657.81017898 Ry
     estimated scf accuracy    <     248.06266550 Ry

     iteration #  3     ecut=    40.00 Ry     beta=0.70
     CG style diagonalization
     c_bands:  1 eigenvalues not converged
     c_bands:  1 eigenvalues not converged
     c_bands:  1 eigenvalues not converged
     c_bands:  1 eigenvalues not converged
     c_bands:  1 eigenvalues not converged
     c_bands:  1 eigenvalues not converged
     c_bands:  1 eigenvalues not converged
     c_bands:  1 eigenvalues not converged
     c_bands:  1 eigenvalues not converged
     ethr =  1.00E-02,  avg # of iterations =  8.8

     total cpu time spent up to now is      147.4 secs

     total energy              =    -556.91722330 Ry
     Harris-Foulkes estimate   =    -562.51843287 Ry
     estimated scf accuracy    <       9.35910888 Ry

     iteration #  4     ecut=    40.00 Ry     beta=0.70
     CG style diagonalization
     ethr =  1.00E-02,  avg # of iterations =  4.1

     total cpu time spent up to now is      165.6 secs

     total energy              =    -557.47256748 Ry
     Harris-Foulkes estimate   =    -559.64048820 Ry
     estimated scf accuracy    <       4.48314057 Ry

     iteration #  5     ecut=    40.00 Ry     beta=0.70
     CG style diagonalization
     ethr =  5.82E-03,  avg # of iterations =  3.7

     total cpu time spent up to now is      182.9 secs

     total energy              =    -558.74742769 Ry
     Harris-Foulkes estimate   =    -559.09595188 Ry
     estimated scf accuracy    <       0.87673031 Ry

     iteration #  6     ecut=    40.00 Ry     beta=0.70
     CG style diagonalization
     c_bands:  1 eigenvalues not converged
     c_bands:  1 eigenvalues not converged
     ethr =  1.14E-03,  avg # of iterations =  3.9

     total cpu time spent up to now is      207.2 secs

     total energy              =    -558.85468426 Ry
     Harris-Foulkes estimate   =    -558.88202558 Ry
     estimated scf accuracy    <       0.05372946 Ry

     iteration #  7     ecut=    40.00 Ry     beta=0.70
     CG style diagonalization
     c_bands:  1 eigenvalues not converged
     c_bands:  2 eigenvalues not converged
     c_bands:  2 eigenvalues not converged
     c_bands:  2 eigenvalues not converged
     c_bands:  1 eigenvalues not converged
     c_bands:  2 eigenvalues not converged
     c_bands:  2 eigenvalues not converged
     c_bands:  1 eigenvalues not converged
     c_bands:  1 eigenvalues not converged
     c_bands:  1 eigenvalues not converged
     c_bands:  1 eigenvalues not converged
     c_bands:  3 eigenvalues not converged
     c_bands:  2 eigenvalues not converged
     c_bands:  1 eigenvalues not converged
     c_bands:  1 eigenvalues not converged
     c_bands:  1 eigenvalues not converged
     c_bands:  1 eigenvalues not converged
     c_bands:  1 eigenvalues not converged
     c_bands:  4 eigenvalues not converged
     c_bands:  1 eigenvalues not converged
     c_bands:  1 eigenvalues not converged
     c_bands:  1 eigenvalues not converged
     c_bands:  2 eigenvalues not converged
     c_bands:  1 eigenvalues not converged
     c_bands:  2 eigenvalues not converged
     c_bands:  1 eigenvalues not converged
     c_bands:  1 eigenvalues not converged
     c_bands:  2 eigenvalues not converged
     c_bands:  1 eigenvalues not converged
     c_bands:  1 eigenvalues not converged
     c_bands:  1 eigenvalues not converged
     c_bands:  1 eigenvalues not converged
     c_bands:  1 eigenvalues not converged
     c_bands:  2 eigenvalues not converged
     c_bands:  1 eigenvalues not converged
     c_bands:  3 eigenvalues not converged
     c_bands:  1 eigenvalues not converged
     c_bands:  1 eigenvalues not converged
     c_bands:  1 eigenvalues not converged
     c_bands:  1 eigenvalues not converged
     c_bands:  1 eigenvalues not converged
     c_bands:  1 eigenvalues not converged
     c_bands:  1 eigenvalues not converged
     c_bands:  1 eigenvalues not converged
     c_bands:  1 eigenvalues not converged
     c_bands:  1 eigenvalues not converged
     c_bands:  2 eigenvalues not converged
     c_bands:  1 eigenvalues not converged
     c_bands:  1 eigenvalues not converged
     c_bands:  5 eigenvalues not converged
     c_bands:  1 eigenvalues not converged
     c_bands:  2 eigenvalues not converged
     c_bands:  1 eigenvalues not converged
     c_bands:  2 eigenvalues not converged
     c_bands:  2 eigenvalues not converged
     c_bands:  1 eigenvalues not converged
     c_bands:  1 eigenvalues not converged
     c_bands:  2 eigenvalues not converged
     c_bands:  2 eigenvalues not converged
     c_bands:  3 eigenvalues not converged
     c_bands:  2 eigenvalues not converged
     c_bands:  2 eigenvalues not converged
     ethr =  6.98E-05,  avg # of iterations =  5.1

     total cpu time spent up to now is      400.1 secs

     total energy              =    -558.88117241 Ry
     Harris-Foulkes estimate   =    -558.89446951 Ry
     estimated scf accuracy    <       0.03580414 Ry

     iteration #  8     ecut=    40.00 Ry     beta=0.70
     CG style diagonalization
     c_bands:  1 eigenvalues not converged
     ethr =  4.65E-05,  avg # of iterations =  3.5

     total cpu time spent up to now is      530.1 secs

     total energy              =    -558.88829415 Ry
     Harris-Foulkes estimate   =    -558.88829978 Ry
     estimated scf accuracy    <       0.00017900 Ry

     iteration #  9     ecut=    40.00 Ry     beta=0.70
     CG style diagonalization
     c_bands:  1 eigenvalues not converged
     c_bands:  1 eigenvalues not converged
     c_bands:  1 eigenvalues not converged
     c_bands:  1 eigenvalues not converged
     c_bands:  1 eigenvalues not converged
     c_bands:  1 eigenvalues not converged
     c_bands:  1 eigenvalues not converged
     c_bands:  1 eigenvalues not converged
     c_bands:  1 eigenvalues not converged
     c_bands:  1 eigenvalues not converged
     c_bands:  1 eigenvalues not converged
     c_bands:  1 eigenvalues not converged
     c_bands:  2 eigenvalues not converged
     c_bands:  1 eigenvalues not converged
     c_bands:  1 eigenvalues not converged
     c_bands:  1 eigenvalues not converged
     c_bands:  1 eigenvalues not converged
     c_bands:  1 eigenvalues not converged
     c_bands:  1 eigenvalues not converged
     c_bands:  1 eigenvalues not converged
     c_bands:  1 eigenvalues not converged
     c_bands:  1 eigenvalues not converged
     c_bands:  1 eigenvalues not converged
     c_bands:  1 eigenvalues not converged
     c_bands:  1 eigenvalues not converged
     c_bands:  1 eigenvalues not converged
     c_bands:  1 eigenvalues not converged
     ethr =  2.32E-07,  avg # of iterations =  6.9

     total cpu time spent up to now is      787.0 secs

     total energy              =    -558.88851624 Ry
     Harris-Foulkes estimate   =    -558.88930313 Ry
     estimated scf accuracy    <       0.00154615 Ry

     iteration # 10     ecut=    40.00 Ry     beta=0.70
     CG style diagonalization
     c_bands:  1 eigenvalues not converged
     c_bands:  1 eigenvalues not converged
     c_bands:  1 eigenvalues not converged
     c_bands:  1 eigenvalues not converged
     c_bands:  1 eigenvalues not converged
     ethr =  2.32E-07,  avg # of iterations =  4.2

     total cpu time spent up to now is      916.8 secs

     total energy              =    -558.88887725 Ry
     Harris-Foulkes estimate   =    -558.88909627 Ry
     estimated scf accuracy    <       0.00049458 Ry

     iteration # 11     ecut=    40.00 Ry     beta=0.70
     CG style diagonalization
     ethr =  2.32E-07,  avg # of iterations =  3.6

     total cpu time spent up to now is     1031.2 secs

     End of self-consistent calculation

     Number of k-points >= 100: set verbosity='high' to print the bands.

     the Fermi energy is    30.7192 ev

!    total energy              =    -558.88896649 Ry
     Harris-Foulkes estimate   =    -558.88900502 Ry
     estimated scf accuracy    <       0.00004117 Ry

     The total energy is the sum of the following terms:

     one-electron contribution =      80.57987709 Ry
     hartree contribution      =      41.16928155 Ry
     xc contribution           =     -73.73397741 Ry
     ewald contribution        =    -606.66481715 Ry
     smearing contrib. (-TS)   =      -0.23933057 Ry

     convergence has been achieved in  11 iterations

     Forces acting on atoms (Ry/au):

     atom    1 type  1   force =     0.00000000    0.00000000    0.00000000
     atom    2 type  2   force =     0.00000000    0.00000000    0.00000000
     atom    3 type  2   force =     0.00000000    0.00000000    0.00000000
     atom    4 type  2   force =     0.00000000    0.00000000    0.00000000
     atom    5 type  2   force =     0.00000000    0.00000000    0.00000000
     atom    6 type  2   force =     0.00000000    0.00000000    0.00000000

     Total force =     0.000000     Total SCF correction =     0.000000


     entering subroutine stress ...

          total   stress  (Ry/bohr**3)                   (kbar)     P= 2056.17
   0.01244773   0.00000000   0.00000000       1831.12      0.00      0.00
   0.00000000   0.01244773   0.00000000          0.00   1831.12      0.00
   0.00000000   0.00000000   0.01703715          0.00      0.00   2506.25


     BFGS Geometry Optimization

     number of scf cycles    =   1
     number of bfgs steps    =   0

     enthalpy new            =    -558.8889664946 Ry

     new trust radius        =       0.5000000000 bohr
     new conv_thr            =       0.0001000000 Ry

     new unit-cell volume =    778.56379 a.u.^3 (   115.37125 Ang^3 )

CELL_PARAMETERS (alat=  9.64829493)
   1.073751750   0.000000000   0.000000000
  -0.536875875   0.929896293   0.000000000
   0.000000000   0.000000000   0.868168629

ATOMIC_POSITIONS (crystal)
Ca       0.000000000   0.000000000   0.000000000
Cu       0.333333000   0.666667000   0.000000000
Cu       0.666667000   0.333333000   0.000000000
Cu       0.500000000   0.000000000   0.500000000
Cu       0.500000000   0.500000000   0.500000000
Cu       0.000000000   0.500000000   0.500000000



     Writing output data file Prototype-La-hP6-CaCu5.save
     NEW-OLD atomic charge density approx. for the potential
     NEW k-points: (use verbosity='high' to print them)

     total cpu time spent up to now is     1050.9 secs

     Self-consistent Calculation

     iteration #  1     ecut=    40.00 Ry     beta=0.70
     CG style diagonalization
     c_bands:  1 eigenvalues not converged
     c_bands:  1 eigenvalues not converged
     c_bands:  3 eigenvalues not converged
     c_bands:  3 eigenvalues not converged
     c_bands:  4 eigenvalues not converged
     c_bands:  5 eigenvalues not converged
     c_bands:  5 eigenvalues not converged
     c_bands:  3 eigenvalues not converged
     c_bands:  5 eigenvalues not converged
     c_bands:  3 eigenvalues not converged
     c_bands:  4 eigenvalues not converged
     c_bands:  1 eigenvalues not converged
     c_bands:  3 eigenvalues not converged
     c_bands:  1 eigenvalues not converged
     c_bands:  1 eigenvalues not converged
     c_bands:  1 eigenvalues not converged
     c_bands:  1 eigenvalues not converged
     c_bands:  1 eigenvalues not converged
     c_bands:  1 eigenvalues not converged
     c_bands:  3 eigenvalues not converged
     c_bands:  5 eigenvalues not converged
     c_bands:  1 eigenvalues not converged
     c_bands:  1 eigenvalues not converged
     c_bands:  1 eigenvalues not converged
     c_bands:  4 eigenvalues not converged
     c_bands:  4 eigenvalues not converged
     c_bands:  2 eigenvalues not converged
     c_bands:  1 eigenvalues not converged
     c_bands:  1 eigenvalues not converged
     ethr =  1.00E-06,  avg # of iterations = 19.7

     total cpu time spent up to now is     1453.2 secs

     total energy              =    -557.35803030 Ry
     Harris-Foulkes estimate   =    -563.11764851 Ry
     estimated scf accuracy    <       7.55654952 Ry

     iteration #  2     ecut=    40.00 Ry     beta=0.70
     CG style diagonalization
     ethr =  9.81E-03,  avg # of iterations =  3.7

     total cpu time spent up to now is     1469.0 secs

     total energy              =    -555.23948742 Ry
     Harris-Foulkes estimate   =    -563.96676255 Ry
     estimated scf accuracy    <      22.22102524 Ry

     iteration #  3     ecut=    40.00 Ry     beta=0.70
     CG style diagonalization
     ethr =  9.81E-03,  avg # of iterations =  4.1

     total cpu time spent up to now is     1488.5 secs

     total energy              =    -559.85824268 Ry
     Harris-Foulkes estimate   =    -560.98776730 Ry
     estimated scf accuracy    <       3.25112604 Ry

     iteration #  4     ecut=    40.00 Ry     beta=0.70
     CG style diagonalization
     ethr =  4.22E-03,  avg # of iterations =  3.3

     total cpu time spent up to now is     1503.2 secs

     total energy              =    -560.13989847 Ry
     Harris-Foulkes estimate   =    -560.24980747 Ry
     estimated scf accuracy    <       0.42852718 Ry

     iteration #  5     ecut=    40.00 Ry     beta=0.70
     CG style diagonalization
     ethr =  5.57E-04,  avg # of iterations =  3.8

     total cpu time spent up to now is     1520.0 secs

     total energy              =    -560.22592806 Ry
     Harris-Foulkes estimate   =    -560.23793783 Ry
     estimated scf accuracy    <       0.02936045 Ry

     iteration #  6     ecut=    40.00 Ry     beta=0.70
     CG style diagonalization
     c_bands:  1 eigenvalues not converged
     ethr =  3.81E-05,  avg # of iterations =  4.3

     total cpu time spent up to now is     1539.8 secs

     total energy              =    -560.23572901 Ry
     Harris-Foulkes estimate   =    -560.23762513 Ry
     estimated scf accuracy    <       0.00467029 Ry

     iteration #  7     ecut=    40.00 Ry     beta=0.70
     CG style diagonalization
     c_bands:  1 eigenvalues not converged
     c_bands:  1 eigenvalues not converged
     ethr =  6.07E-06,  avg # of iterations =  4.3

     total cpu time spent up to now is     1558.5 secs

     total energy              =    -560.23629724 Ry
     Harris-Foulkes estimate   =    -560.23805978 Ry
     estimated scf accuracy    <       0.00310591 Ry

     iteration #  8     ecut=    40.00 Ry     beta=0.70
     CG style diagonalization
     ethr =  4.03E-06,  avg # of iterations =  3.5

     total cpu time spent up to now is     1574.4 secs

     End of self-consistent calculation

     Number of k-points >= 100: set verbosity='high' to print the bands.

     the Fermi energy is    23.6822 ev

!    total energy              =    -560.23694151 Ry
     Harris-Foulkes estimate   =    -560.23697221 Ry
     estimated scf accuracy    <       0.00004067 Ry

     The total energy is the sum of the following terms:

     one-electron contribution =      19.02265388 Ry
     hartree contribution      =      52.85873380 Ry
     xc contribution           =     -71.24131588 Ry
     ewald contribution        =    -560.57010390 Ry
     smearing contrib. (-TS)   =      -0.30690940 Ry

     convergence has been achieved in   8 iterations

     Forces acting on atoms (Ry/au):

     atom    1 type  1   force =     0.00000000    0.00000000    0.00000000
     atom    2 type  2   force =     0.00000000    0.00000000    0.00000000
     atom    3 type  2   force =     0.00000000    0.00000000    0.00000000
     atom    4 type  2   force =     0.00000000    0.00000000    0.00000000
     atom    5 type  2   force =     0.00000000    0.00000000    0.00000000
     atom    6 type  2   force =     0.00000000    0.00000000    0.00000000

     Total force =     0.000000     Total SCF correction =     0.000000


     entering subroutine stress ...

          total   stress  (Ry/bohr**3)                   (kbar)     P=  536.69
   0.00315609   0.00000000   0.00000000        464.28      0.00      0.00
   0.00000000   0.00315609   0.00000000          0.00    464.28      0.00
   0.00000000   0.00000000   0.00463279          0.00      0.00    681.51


     number of scf cycles    =   2
     number of bfgs steps    =   1

     enthalpy old            =    -558.8889664946 Ry
     enthalpy new            =    -560.2369415076 Ry

     CASE: enthalpy_new < enthalpy_old

     small trust_radius: resetting bfgs history

     new trust radius        =       0.6463387313 bohr
     new conv_thr            =       0.0000010000 Ry

     new unit-cell volume =   1011.23586 a.u.^3 (   149.84969 Ang^3 )

CELL_PARAMETERS (alat=  9.64829493)
   1.158473143   0.000000000   0.000000000
  -0.579236571   1.003267171   0.000000000
   0.000000000   0.000000000   0.968719810

ATOMIC_POSITIONS (crystal)
Ca       0.000000000   0.000000000   0.000000000
Cu       0.333333000   0.666667000   0.000000000
Cu       0.666667000   0.333333000   0.000000000
Cu       0.500000000   0.000000000   0.500000000
Cu       0.500000000   0.500000000   0.500000000
Cu       0.000000000   0.500000000   0.500000000



     Writing output data file Prototype-La-hP6-CaCu5.save
     NEW-OLD atomic charge density approx. for the potential
     NEW k-points: (use verbosity='high' to print them)

     total cpu time spent up to now is     1579.3 secs

     Self-consistent Calculation

     iteration #  1     ecut=    40.00 Ry     beta=0.70
     CG style diagonalization
     c_bands:  1 eigenvalues not converged
     c_bands:  3 eigenvalues not converged
     c_bands:  3 eigenvalues not converged
     c_bands:  1 eigenvalues not converged
     c_bands:  1 eigenvalues not converged
     c_bands:  3 eigenvalues not converged
     c_bands:  1 eigenvalues not converged
     c_bands:  3 eigenvalues not converged
     c_bands:  5 eigenvalues not converged
     c_bands:  1 eigenvalues not converged
     c_bands:  3 eigenvalues not converged
     c_bands:  1 eigenvalues not converged
     c_bands:  1 eigenvalues not converged
     c_bands:  4 eigenvalues not converged
     c_bands:  1 eigenvalues not converged
     c_bands:  3 eigenvalues not converged
     c_bands:  1 eigenvalues not converged
     c_bands:  5 eigenvalues not converged
     c_bands:  5 eigenvalues not converged
     c_bands:  1 eigenvalues not converged
     c_bands:  3 eigenvalues not converged
     c_bands:  5 eigenvalues not converged
     c_bands:  1 eigenvalues not converged
     c_bands:  3 eigenvalues not converged
     c_bands:  3 eigenvalues not converged
     c_bands:  1 eigenvalues not converged
     c_bands:  5 eigenvalues not converged
     c_bands:  4 eigenvalues not converged
     c_bands:  4 eigenvalues not converged
     c_bands:  4 eigenvalues not converged
     c_bands:  1 eigenvalues not converged
     c_bands:  1 eigenvalues not converged
     c_bands:  1 eigenvalues not converged
     c_bands:  1 eigenvalues not converged
     c_bands:  2 eigenvalues not converged
     c_bands:  1 eigenvalues not converged
     c_bands:  5 eigenvalues not converged
     c_bands:  4 eigenvalues not converged
     c_bands:  5 eigenvalues not converged
     c_bands:  5 eigenvalues not converged
     ethr =  1.00E-06,  avg # of iterations = 19.6

     total cpu time spent up to now is     1657.7 secs

     total energy              =    -556.39749049 Ry
     Harris-Foulkes estimate   =    -564.21563550 Ry
     estimated scf accuracy    <      10.15201481 Ry

     iteration #  2     ecut=    40.00 Ry     beta=0.70
     CG style diagonalization
     ethr =  1.00E-02,  avg # of iterations =  4.0

     total cpu time spent up to now is     1675.4 secs

     total energy              =    -554.80108000 Ry
     Harris-Foulkes estimate   =    -566.04165550 Ry
     estimated scf accuracy    <      27.67728851 Ry

     iteration #  3     ecut=    40.00 Ry     beta=0.70
     CG style diagonalization
     ethr =  1.00E-02,  avg # of iterations =  4.9

     total cpu time spent up to now is     1696.5 secs

     total energy              =    -559.56492802 Ry
     Harris-Foulkes estimate   =    -561.43742321 Ry
     estimated scf accuracy    <       5.55421813 Ry

     iteration #  4     ecut=    40.00 Ry     beta=0.70
     CG style diagonalization
     ethr =  7.21E-03,  avg # of iterations =  3.4

     total cpu time spent up to now is     1710.9 secs

     total energy              =    -560.17828490 Ry
     Harris-Foulkes estimate   =    -560.34161899 Ry
     estimated scf accuracy    <       0.58165580 Ry

     iteration #  5     ecut=    40.00 Ry     beta=0.70
     CG style diagonalization
     c_bands:  2 eigenvalues not converged
     ethr =  7.55E-04,  avg # of iterations =  4.2

     total cpu time spent up to now is     1730.5 secs

     total energy              =    -560.33656392 Ry
     Harris-Foulkes estimate   =    -560.36288377 Ry
     estimated scf accuracy    <       0.06542244 Ry

     iteration #  6     ecut=    40.00 Ry     beta=0.70
     CG style diagonalization
     c_bands:  1 eigenvalues not converged
     c_bands:  1 eigenvalues not converged
     c_bands:  2 eigenvalues not converged
     c_bands:  1 eigenvalues not converged
     c_bands:  1 eigenvalues not converged
     c_bands:  1 eigenvalues not converged
     c_bands:  1 eigenvalues not converged
     c_bands:  1 eigenvalues not converged
     c_bands:  3 eigenvalues not converged
     c_bands:  1 eigenvalues not converged
     c_bands:  1 eigenvalues not converged
     c_bands:  1 eigenvalues not converged
     c_bands:  1 eigenvalues not converged
     c_bands:  1 eigenvalues not converged
     c_bands:  2 eigenvalues not converged
     c_bands:  1 eigenvalues not converged
     c_bands:  1 eigenvalues not converged
     c_bands:  1 eigenvalues not converged
     c_bands:  1 eigenvalues not converged
     ethr =  8.50E-05,  avg # of iterations =  4.3

     total cpu time spent up to now is     1749.3 secs

     total energy              =    -560.35520354 Ry
     Harris-Foulkes estimate   =    -560.36193476 Ry
     estimated scf accuracy    <       0.01447600 Ry

     iteration #  7     ecut=    40.00 Ry     beta=0.70
     CG style diagonalization
     c_bands:  1 eigenvalues not converged
     c_bands:  1 eigenvalues not converged
     c_bands:  1 eigenvalues not converged
     c_bands:  1 eigenvalues not converged
     c_bands:  1 eigenvalues not converged
     c_bands:  1 eigenvalues not converged
     c_bands:  1 eigenvalues not converged
     c_bands:  2 eigenvalues not converged
     c_bands:  1 eigenvalues not converged
     c_bands:  1 eigenvalues not converged
     c_bands:  1 eigenvalues not converged
     ethr =  1.88E-05,  avg # of iterations =  4.2

     total cpu time spent up to now is     1767.5 secs

     total energy              =    -560.35863243 Ry
     Harris-Foulkes estimate   =    -560.36355582 Ry
     estimated scf accuracy    <       0.01374181 Ry

     iteration #  8     ecut=    40.00 Ry     beta=0.70
     CG style diagonalization
     c_bands:  2 eigenvalues not converged
     ethr =  1.78E-05,  avg # of iterations =  3.3

     total cpu time spent up to now is     1782.0 secs

     total energy              =    -560.36071791 Ry
     Harris-Foulkes estimate   =    -560.36073371 Ry
     estimated scf accuracy    <       0.00003909 Ry

     iteration #  9     ecut=    40.00 Ry     beta=0.70
     CG style diagonalization
     c_bands:  1 eigenvalues not converged
     c_bands:  1 eigenvalues not converged
     c_bands:  1 eigenvalues not converged
     c_bands:  1 eigenvalues not converged
     c_bands:  1 eigenvalues not converged
     c_bands:  1 eigenvalues not converged
     c_bands:  1 eigenvalues not converged
     c_bands:  1 eigenvalues not converged
     c_bands:  1 eigenvalues not converged
     c_bands:  1 eigenvalues not converged
     ethr =  5.08E-08,  avg # of iterations =  6.3

     total cpu time spent up to now is     1808.9 secs

     total energy              =    -560.36103106 Ry
     Harris-Foulkes estimate   =    -560.36105840 Ry
     estimated scf accuracy    <       0.00016356 Ry

     iteration # 10     ecut=    40.00 Ry     beta=0.70
     CG style diagonalization
     c_bands:  1 eigenvalues not converged
     c_bands:  1 eigenvalues not converged
     ethr =  5.08E-08,  avg # of iterations =  3.3

     total cpu time spent up to now is     1823.3 secs

     total energy              =    -560.36103612 Ry
     Harris-Foulkes estimate   =    -560.36104148 Ry
     estimated scf accuracy    <       0.00001625 Ry

     iteration # 11     ecut=    40.00 Ry     beta=0.70
     CG style diagonalization
     ethr =  2.11E-08,  avg # of iterations =  3.8

     total cpu time spent up to now is     1839.7 secs

     total energy              =    -560.36103957 Ry
     Harris-Foulkes estimate   =    -560.36104028 Ry
     estimated scf accuracy    <       0.00000235 Ry

     iteration # 12     ecut=    40.00 Ry     beta=0.70
     CG style diagonalization
     ethr =  3.06E-09,  avg # of iterations =  3.6

     total cpu time spent up to now is     1854.6 secs

     End of self-consistent calculation

     Number of k-points >= 100: set verbosity='high' to print the bands.

     the Fermi energy is    17.5934 ev

!    total energy              =    -560.36104007 Ry
     Harris-Foulkes estimate   =    -560.36104009 Ry
     estimated scf accuracy    <       0.00000002 Ry

     The total energy is the sum of the following terms:

     one-electron contribution =     -44.26809887 Ry
     hartree contribution      =      67.43614140 Ry
     xc contribution           =     -69.09368026 Ry
     ewald contribution        =    -514.01133127 Ry
     smearing contrib. (-TS)   =      -0.42407107 Ry

     convergence has been achieved in  12 iterations

     Forces acting on atoms (Ry/au):

     atom    1 type  1   force =     0.00000000    0.00000000    0.00000000
     atom    2 type  2   force =     0.00000000    0.00000000    0.00000000
     atom    3 type  2   force =     0.00000000    0.00000000    0.00000000
     atom    4 type  2   force =     0.00000000    0.00000000    0.00000000
     atom    5 type  2   force =     0.00000000    0.00000000    0.00000000
     atom    6 type  2   force =     0.00000000    0.00000000    0.00000000

     Total force =     0.000000     Total SCF correction =     0.000000


     entering subroutine stress ...

          total   stress  (Ry/bohr**3)                   (kbar)     P= -255.41
  -0.00171076   0.00000000   0.00000000       -251.66      0.00      0.00
   0.00000000  -0.00171076   0.00000000          0.00   -251.66      0.00
   0.00000000   0.00000000  -0.00178730          0.00      0.00   -262.92


     number of scf cycles    =   3
     number of bfgs steps    =   2

     enthalpy old            =    -560.2369415076 Ry
     enthalpy new            =    -560.3610400693 Ry

     CASE: enthalpy_new < enthalpy_old

     Message from routine bfgs:
     history already reset at previous step: stopping
     small trust_radius: resetting bfgs history

     new trust radius        =       0.2841805143 bohr
     new conv_thr            =       0.0000010000 Ry

     new unit-cell volume =    885.18423 a.u.^3 (   131.17077 Ang^3 )

CELL_PARAMETERS (alat=  9.64829493)
   1.108926389   0.000000000   0.000000000
  -0.554463195   0.960358424   0.000000000
   0.000000000   0.000000000   0.925434927

ATOMIC_POSITIONS (crystal)
Ca       0.000000000   0.000000000   0.000000000
Cu       0.333333000   0.666667000   0.000000000
Cu       0.666667000   0.333333000   0.000000000
Cu       0.500000000   0.000000000   0.500000000
Cu       0.500000000   0.500000000   0.500000000
Cu       0.000000000   0.500000000   0.500000000



     Writing output data file Prototype-La-hP6-CaCu5.save
     NEW-OLD atomic charge density approx. for the potential
     NEW k-points: (use verbosity='high' to print them)

     total cpu time spent up to now is     1859.4 secs

     Self-consistent Calculation

     iteration #  1     ecut=    40.00 Ry     beta=0.70
     CG style diagonalization
     c_bands:  2 eigenvalues not converged
     c_bands:  3 eigenvalues not converged
     c_bands:  3 eigenvalues not converged
     c_bands:  3 eigenvalues not converged
     c_bands:  4 eigenvalues not converged
     c_bands:  1 eigenvalues not converged
     c_bands:  2 eigenvalues not converged
     c_bands:  3 eigenvalues not converged
     c_bands:  3 eigenvalues not converged
     c_bands:  1 eigenvalues not converged
     c_bands:  4 eigenvalues not converged
     c_bands:  1 eigenvalues not converged
     c_bands:  4 eigenvalues not converged
     c_bands:  3 eigenvalues not converged
     c_bands:  2 eigenvalues not converged
     c_bands:  5 eigenvalues not converged
     c_bands:  1 eigenvalues not converged
     c_bands:  4 eigenvalues not converged
     c_bands:  5 eigenvalues not converged
     c_bands:  3 eigenvalues not converged
     c_bands:  2 eigenvalues not converged
     c_bands:  2 eigenvalues not converged
     ethr =  1.00E-06,  avg # of iterations = 16.9

     total cpu time spent up to now is     1927.3 secs

     total energy              =    -558.74906726 Ry
     Harris-Foulkes estimate   =    -561.49445734 Ry
     estimated scf accuracy    <       3.44285162 Ry

     iteration #  2     ecut=    40.00 Ry     beta=0.70
     CG style diagonalization
     ethr =  4.47E-03,  avg # of iterations =  3.6

     total cpu time spent up to now is     1943.2 secs

     total energy              =    -559.25375860 Ry
     Harris-Foulkes estimate   =    -562.83714234 Ry
     estimated scf accuracy    <       8.19589036 Ry

     iteration #  3     ecut=    40.00 Ry     beta=0.70
     CG style diagonalization
     ethr =  4.47E-03,  avg # of iterations =  3.6

     total cpu time spent up to now is     1960.0 secs

     total energy              =    -560.35139008 Ry
     Harris-Foulkes estimate   =    -560.43881974 Ry
     estimated scf accuracy    <       0.14733683 Ry

     iteration #  4     ecut=    40.00 Ry     beta=0.70
     CG style diagonalization
     ethr =  1.91E-04,  avg # of iterations =  4.0

     total cpu time spent up to now is     1977.5 secs

     total energy              =    -560.42429658 Ry
     Harris-Foulkes estimate   =    -560.47530501 Ry
     estimated scf accuracy    <       0.14360564 Ry

     iteration #  5     ecut=    40.00 Ry     beta=0.70
     CG style diagonalization
     ethr =  1.87E-04,  avg # of iterations =  3.3

     total cpu time spent up to now is     1993.3 secs

     total energy              =    -560.44980722 Ry
     Harris-Foulkes estimate   =    -560.45480726 Ry
     estimated scf accuracy    <       0.01257212 Ry

     iteration #  6     ecut=    40.00 Ry     beta=0.70
     CG style diagonalization
     c_bands:  1 eigenvalues not converged
     ethr =  1.63E-05,  avg # of iterations =  4.1

     total cpu time spent up to now is     2010.9 secs

     total energy              =    -560.45182869 Ry
     Harris-Foulkes estimate   =    -560.45410582 Ry
     estimated scf accuracy    <       0.00573021 Ry

     iteration #  7     ecut=    40.00 Ry     beta=0.70
     CG style diagonalization
     c_bands:  1 eigenvalues not converged
     ethr =  7.44E-06,  avg # of iterations =  3.4

     total cpu time spent up to now is     2025.0 secs

     total energy              =    -560.45316942 Ry
     Harris-Foulkes estimate   =    -560.45368112 Ry
     estimated scf accuracy    <       0.00192924 Ry

     iteration #  8     ecut=    40.00 Ry     beta=0.70
     CG style diagonalization
     ethr =  2.51E-06,  avg # of iterations =  3.1

     total cpu time spent up to now is     2038.7 secs

     total energy              =    -560.45338215 Ry
     Harris-Foulkes estimate   =    -560.45339559 Ry
     estimated scf accuracy    <       0.00003599 Ry

     iteration #  9     ecut=    40.00 Ry     beta=0.70
     CG style diagonalization
     ethr =  4.67E-08,  avg # of iterations =  4.8

     total cpu time spent up to now is     2062.3 secs

     total energy              =    -560.45341046 Ry
     Harris-Foulkes estimate   =    -560.45342535 Ry
     estimated scf accuracy    <       0.00003090 Ry

     iteration # 10     ecut=    40.00 Ry     beta=0.70
     CG style diagonalization
     ethr =  4.01E-08,  avg # of iterations =  3.5

     total cpu time spent up to now is     2079.3 secs

     total energy              =    -560.45341340 Ry
     Harris-Foulkes estimate   =    -560.45342662 Ry
     estimated scf accuracy    <       0.00003659 Ry

     iteration # 11     ecut=    40.00 Ry     beta=0.70
     CG style diagonalization
     ethr =  4.01E-08,  avg # of iterations =  3.3

     total cpu time spent up to now is     2093.2 secs

     total energy              =    -560.45342086 Ry
     Harris-Foulkes estimate   =    -560.45342268 Ry
     estimated scf accuracy    <       0.00000681 Ry

     iteration # 12     ecut=    40.00 Ry     beta=0.70
     CG style diagonalization
     ethr =  8.84E-09,  avg # of iterations =  3.1

     total cpu time spent up to now is     2106.0 secs

     End of self-consistent calculation

     Number of k-points >= 100: set verbosity='high' to print the bands.

     the Fermi energy is    20.5113 ev

!    total energy              =    -560.45342166 Ry
     Harris-Foulkes estimate   =    -560.45342174 Ry
     estimated scf accuracy    <       0.00000008 Ry

     The total energy is the sum of the following terms:

     one-electron contribution =     -12.40320540 Ry
     hartree contribution      =      59.74273922 Ry
     xc contribution           =     -70.10800427 Ry
     ewald contribution        =    -537.32462805 Ry
     smearing contrib. (-TS)   =      -0.36032316 Ry

     convergence has been achieved in  12 iterations

     Forces acting on atoms (Ry/au):

     atom    1 type  1   force =     0.00000000    0.00000000    0.00000000
     atom    2 type  2   force =     0.00000000    0.00000000    0.00000000
     atom    3 type  2   force =     0.00000000    0.00000000    0.00000000
     atom    4 type  2   force =     0.00000000    0.00000000    0.00000000
     atom    5 type  2   force =     0.00000000    0.00000000    0.00000000
     atom    6 type  2   force =     0.00000000    0.00000000    0.00000000

     Total force =     0.000000     Total SCF correction =     0.000000


     entering subroutine stress ...

          total   stress  (Ry/bohr**3)                   (kbar)     P=   66.58
   0.00037844   0.00000000   0.00000000         55.67      0.00      0.00
   0.00000000   0.00037844   0.00000000          0.00     55.67      0.00
   0.00000000   0.00000000   0.00060099          0.00      0.00     88.41


     The maximum number of steps has been reached.

     End of BFGS Geometry Optimization
Begin final coordinates
     new unit-cell volume =    885.18423 a.u.^3 (   131.17077 Ang^3 )

CELL_PARAMETERS (alat=  9.64829493)
   1.108926389   0.000000000   0.000000000
  -0.554463195   0.960358424   0.000000000
   0.000000000   0.000000000   0.925434927

ATOMIC_POSITIONS (crystal)
Ca       0.000000000   0.000000000   0.000000000
Cu       0.333333000   0.666667000   0.000000000
Cu       0.666667000   0.333333000   0.000000000
Cu       0.500000000   0.000000000   0.500000000
Cu       0.500000000   0.500000000   0.500000000
Cu       0.000000000   0.500000000   0.500000000
End final coordinates



     A final scf calculation at the relaxed structure.
     The G-vectors are recalculated for the final unit cell
     Results may differ from those at the preceding step.
 
     Parallelization info
     --------------------
     sticks:   dense  smooth     PW     G-vecs:    dense   smooth      PW
     Min         315     315     94                 7559     7559    1236
     Max         316     316     96                 7562     7562    1237
     Sum        1261    1261    379                30239    30239    4945
 


     bravais-lattice index     =            0
     lattice parameter (alat)  =       9.6483  a.u.
     unit-cell volume          =     885.1842 (a.u.)^3
     number of atoms/cell      =            6
     number of atomic types    =            2
     number of electrons       =        77.00
     number of Kohn-Sham states=           47
     kinetic-energy cutoff     =      40.0000  Ry
     charge density cutoff     =     160.0000  Ry
     convergence threshold     =      1.0E-06
     mixing beta               =       0.7000
     number of iterations used =            8  plain     mixing
     Exchange-correlation      = SLA-PZ-NOGX-NOGC ( 1 1 0 0 0)
     EXX-fraction              =        0.00

     celldm(1)=   9.648295  celldm(2)=   0.000000  celldm(3)=   0.000000
     celldm(4)=   0.000000  celldm(5)=   0.000000  celldm(6)=   0.000000

     crystal axes: (cart. coord. in units of alat)
               a(1) = (   1.108926   0.000000   0.000000 )  
               a(2) = (  -0.554463   0.960358   0.000000 )  
               a(3) = (   0.000000   0.000000   0.925435 )  

     reciprocal axes: (cart. coord. in units 2 pi/alat)
               b(1) = (  0.901773  0.520639  0.000000 )  
               b(2) = (  0.000000  1.041278  0.000000 )  
               b(3) = (  0.000000  0.000000  1.080573 )  


     PseudoPot. # 1 for Eu read from file:
     /home/cwx6513/pp.La/Eu.UPF
     MD5 check sum: 5efdbbfc50c6a10138933a6429836ad2
     Pseudo is Norm-conserving, Zval = 17.0
     Generated in analytical, separable form
     Using radial grid of 1261 points,  6 beta functions with: 
                l(1) =   0
                l(2) =   0
                l(3) =   1
                l(4) =   1
                l(5) =   2
                l(6) =   3

     PseudoPot. # 2 for Ce read from file:
     /home/cwx6513/pp.La/Ce.UPF
     MD5 check sum: 44451aa79a44a00cf2bc029dc19922f6
     Pseudo is Norm-conserving, Zval = 12.0
     Generated in analytical, separable form
     Using radial grid of 1255 points,  6 beta functions with: 
                l(1) =   0
                l(2) =   0
                l(3) =   1
                l(4) =   1
                l(5) =   2
                l(6) =   3

     atomic species   valence    mass     pseudopotential
        Ca            17.00    40.07800     Eu( 1.00)
        Cu            12.00    63.54600     Ce( 1.00)

     24 Sym. Ops., with inversion, found



   Cartesian axes

     site n.     atom                  positions (alat units)
         1           Ca  tau(   1) = (   0.0000000   0.0000000   0.0000000  )
         2           Cu  tau(   2) = (  -0.0000006   0.6402393   0.0000000  )
         3           Cu  tau(   3) = (   0.5544637   0.3201192   0.0000000  )
         4           Cu  tau(   4) = (   0.5544632   0.0000000   0.4627175  )
         5           Cu  tau(   5) = (   0.2772316   0.4801792   0.4627175  )
         6           Cu  tau(   6) = (  -0.2772316   0.4801792   0.4627175  )

     number of k points=   110  gaussian smearing, width (Ry)=  0.1000

     Number of k-points >= 100: set verbosity='high' to print them.

     Dense  grid:    30239 G-vectors     FFT dimensions: (  45,  45,  36)

     Largest allocated arrays     est. size (Mb)     dimensions
        Kohn-Sham Wavefunctions         0.69 Mb     (    956,   47)
        NL pseudopotentials             1.75 Mb     (    956,  120)
        Each V/rho on FFT grid          0.28 Mb     (  18225)
        Each G-vector array             0.06 Mb     (   7559)
        G-vector shells                 0.01 Mb     (   1375)
     Largest temporary arrays     est. size (Mb)     dimensions
        Each subspace H/S matrix        0.03 Mb     (  47,  47)
        Each <psi_i|beta_j> matrix      0.09 Mb     (    120,   47)
        Arrays for rho mixing           2.22 Mb     (  18225,   8)

     Initial potential from superposition of free atoms

     Starting from uniform charge
     Starting wfc are    0 randomized atomic wfcs

     Writing output data file Prototype-La-hP6-CaCu5.save

     total cpu time spent up to now is     2117.1 secs

     Self-consistent Calculation

     iteration #  1     ecut=    40.00 Ry     beta=0.70
     CG style diagonalization
     c_bands:  1 eigenvalues not converged
     c_bands:  1 eigenvalues not converged
     c_bands:  1 eigenvalues not converged
     c_bands:  1 eigenvalues not converged
     c_bands:  1 eigenvalues not converged
     c_bands:  1 eigenvalues not converged
     c_bands:  1 eigenvalues not converged
     c_bands:  1 eigenvalues not converged
     c_bands:  1 eigenvalues not converged
     c_bands:  1 eigenvalues not converged
     c_bands:  2 eigenvalues not converged
     c_bands:  1 eigenvalues not converged
     c_bands:  1 eigenvalues not converged
     c_bands:  1 eigenvalues not converged
     c_bands:  1 eigenvalues not converged
     c_bands:  2 eigenvalues not converged
     c_bands:  1 eigenvalues not converged
     c_bands:  1 eigenvalues not converged
     c_bands:  1 eigenvalues not converged
     c_bands:  1 eigenvalues not converged
     c_bands:  1 eigenvalues not converged
     c_bands:  1 eigenvalues not converged
     c_bands:  1 eigenvalues not converged
     c_bands:  2 eigenvalues not converged
     c_bands:  1 eigenvalues not converged
     c_bands:  1 eigenvalues not converged
     c_bands:  2 eigenvalues not converged
     c_bands:  1 eigenvalues not converged
     c_bands:  1 eigenvalues not converged
     c_bands:  1 eigenvalues not converged
     c_bands:  1 eigenvalues not converged
     c_bands:  1 eigenvalues not converged
     c_bands:  1 eigenvalues not converged
     c_bands:  1 eigenvalues not converged
     c_bands:  1 eigenvalues not converged
     c_bands:  3 eigenvalues not converged
     c_bands:  1 eigenvalues not converged
     c_bands:  2 eigenvalues not converged
     c_bands:  1 eigenvalues not converged
     c_bands:  1 eigenvalues not converged
     c_bands:  2 eigenvalues not converged
     c_bands:  2 eigenvalues not converged
     c_bands:  1 eigenvalues not converged
     c_bands:  1 eigenvalues not converged
     c_bands:  1 eigenvalues not converged
     c_bands:  2 eigenvalues not converged
     c_bands:  1 eigenvalues not converged
     c_bands:  1 eigenvalues not converged
     c_bands:  1 eigenvalues not converged
     c_bands:  2 eigenvalues not converged
     c_bands:  1 eigenvalues not converged
     ethr =  1.00E-06,  avg # of iterations = 43.2

     total cpu time spent up to now is     2379.0 secs

     total energy              =    -346.79404096 Ry
     Harris-Foulkes estimate   =    -663.47034745 Ry
     estimated scf accuracy    <     390.37824184 Ry

     iteration #  2     ecut=    40.00 Ry     beta=0.70
     CG style diagonalization
     c_bands:  1 eigenvalues not converged
     c_bands:  1 eigenvalues not converged
     c_bands:  2 eigenvalues not converged
     c_bands:  2 eigenvalues not converged
     c_bands:  1 eigenvalues not converged
     c_bands:  2 eigenvalues not converged
     c_bands:  3 eigenvalues not converged
     c_bands:  1 eigenvalues not converged
     c_bands:  2 eigenvalues not converged
     c_bands:  1 eigenvalues not converged
     c_bands:  3 eigenvalues not converged
     c_bands:  2 eigenvalues not converged
     c_bands:  1 eigenvalues not converged
     c_bands:  4 eigenvalues not converged
     c_bands:  1 eigenvalues not converged
     c_bands:  2 eigenvalues not converged
     c_bands:  2 eigenvalues not converged
     c_bands:  1 eigenvalues not converged
     c_bands:  1 eigenvalues not converged
     c_bands:  2 eigenvalues not converged
     c_bands:  1 eigenvalues not converged
     c_bands:  4 eigenvalues not converged
     c_bands:  2 eigenvalues not converged
     c_bands:  1 eigenvalues not converged
     c_bands:  2 eigenvalues not converged
     c_bands:  1 eigenvalues not converged
     c_bands:  3 eigenvalues not converged
     c_bands:  2 eigenvalues not converged
     c_bands:  1 eigenvalues not converged
     c_bands:  2 eigenvalues not converged
     c_bands:  1 eigenvalues not converged
     c_bands:  1 eigenvalues not converged
     c_bands:  1 eigenvalues not converged
     c_bands:  2 eigenvalues not converged
     c_bands:  1 eigenvalues not converged
     c_bands:  1 eigenvalues not converged
     c_bands:  2 eigenvalues not converged
     c_bands:  2 eigenvalues not converged
     c_bands:  1 eigenvalues not converged
     c_bands:  2 eigenvalues not converged
     c_bands:  2 eigenvalues not converged
     c_bands:  1 eigenvalues not converged
     c_bands:  2 eigenvalues not converged
     c_bands:  1 eigenvalues not converged
     c_bands:  2 eigenvalues not converged
     c_bands:  2 eigenvalues not converged
     c_bands:  3 eigenvalues not converged
     c_bands:  1 eigenvalues not converged
     c_bands:  2 eigenvalues not converged
     c_bands:  1 eigenvalues not converged
     c_bands:  1 eigenvalues not converged
     c_bands:  4 eigenvalues not converged
     c_bands:  1 eigenvalues not converged
     c_bands:  1 eigenvalues not converged
     c_bands:  4 eigenvalues not converged
     c_bands:  3 eigenvalues not converged
     c_bands:  2 eigenvalues not converged
     c_bands:  1 eigenvalues not converged
     c_bands:  2 eigenvalues not converged
     c_bands:  1 eigenvalues not converged
     c_bands:  3 eigenvalues not converged
     c_bands:  2 eigenvalues not converged
     c_bands:  1 eigenvalues not converged
     c_bands:  2 eigenvalues not converged
     c_bands:  2 eigenvalues not converged
     c_bands:  1 eigenvalues not converged
     c_bands:  2 eigenvalues not converged
     c_bands:  1 eigenvalues not converged
     c_bands:  2 eigenvalues not converged
     c_bands:  2 eigenvalues not converged
     c_bands:  1 eigenvalues not converged
     c_bands:  3 eigenvalues not converged
     c_bands:  2 eigenvalues not converged
     c_bands:  2 eigenvalues not converged
     c_bands:  1 eigenvalues not converged
     c_bands:  1 eigenvalues not converged
     c_bands:  1 eigenvalues not converged
     c_bands:  2 eigenvalues not converged
     c_bands:  4 eigenvalues not converged
     c_bands:  2 eigenvalues not converged
     c_bands:  2 eigenvalues not converged
     c_bands:  1 eigenvalues not converged
     c_bands:  2 eigenvalues not converged
     ethr =  1.00E-02,  avg # of iterations =  8.1

     total cpu time spent up to now is     2433.1 secs

     total energy              =    -557.35793942 Ry
     Harris-Foulkes estimate   =    -770.80941804 Ry
     estimated scf accuracy    <     382.12586498 Ry

     iteration #  3     ecut=    40.00 Ry     beta=0.70
     CG style diagonalization
     c_bands:  1 eigenvalues not converged
     c_bands:  1 eigenvalues not converged
     c_bands:  1 eigenvalues not converged
     c_bands:  1 eigenvalues not converged
     ethr =  1.00E-02,  avg # of iterations =  6.9

     total cpu time spent up to now is     2478.7 secs

     total energy              =    -552.89932563 Ry
     Harris-Foulkes estimate   =    -577.62218373 Ry
     estimated scf accuracy    <      48.73237300 Ry

     iteration #  4     ecut=    40.00 Ry     beta=0.70
     CG style diagonalization
     c_bands:  1 eigenvalues not converged
     ethr =  1.00E-02,  avg # of iterations =  6.2

     total cpu time spent up to now is     2517.0 secs

     total energy              =    -559.12591335 Ry
     Harris-Foulkes estimate   =    -564.17288279 Ry
     estimated scf accuracy    <      11.87450151 Ry

     iteration #  5     ecut=    40.00 Ry     beta=0.70
     CG style diagonalization
     ethr =  1.00E-02,  avg # of iterations =  3.8

     total cpu time spent up to now is     2542.5 secs

     total energy              =    -560.56672298 Ry
     Harris-Foulkes estimate   =    -561.08707637 Ry
     estimated scf accuracy    <       1.16634093 Ry

     iteration #  6     ecut=    40.00 Ry     beta=0.70
     CG style diagonalization
     c_bands:  1 eigenvalues not converged
     c_bands:  1 eigenvalues not converged
     c_bands:  1 eigenvalues not converged
     ethr =  1.51E-03,  avg # of iterations =  4.3

     total cpu time spent up to now is     2570.9 secs

     total energy              =    -560.70618527 Ry
     Harris-Foulkes estimate   =    -560.96247088 Ry
     estimated scf accuracy    <       0.37639820 Ry

     iteration #  7     ecut=    40.00 Ry     beta=0.70
     CG style diagonalization
     c_bands:  1 eigenvalues not converged
     c_bands:  1 eigenvalues not converged
     c_bands:  1 eigenvalues not converged
     c_bands:  1 eigenvalues not converged
     c_bands:  1 eigenvalues not converged
     c_bands:  1 eigenvalues not converged
     c_bands:  1 eigenvalues not converged
     c_bands:  1 eigenvalues not converged
     ethr =  4.89E-04,  avg # of iterations =  4.3

     total cpu time spent up to now is     2599.3 secs

     total energy              =    -560.95862213 Ry
     Harris-Foulkes estimate   =    -561.10625042 Ry
     estimated scf accuracy    <       0.99923135 Ry

     iteration #  8     ecut=    40.00 Ry     beta=0.70
     CG style diagonalization
     ethr =  4.89E-04,  avg # of iterations =  3.1

     total cpu time spent up to now is     2619.1 secs

     total energy              =    -560.76868266 Ry
     Harris-Foulkes estimate   =    -560.97959879 Ry
     estimated scf accuracy    <       0.47713157 Ry

     iteration #  9     ecut=    40.00 Ry     beta=0.70
     CG style diagonalization
     ethr =  4.89E-04,  avg # of iterations =  3.6

     total cpu time spent up to now is     2641.6 secs

     total energy              =    -560.85175777 Ry
     Harris-Foulkes estimate   =    -560.95956482 Ry
     estimated scf accuracy    <       0.44940963 Ry

     iteration # 10     ecut=    40.00 Ry     beta=0.70
     CG style diagonalization
     ethr =  4.89E-04,  avg # of iterations =  3.1

     total cpu time spent up to now is     2660.5 secs

     total energy              =    -560.91325634 Ry
     Harris-Foulkes estimate   =    -560.91176865 Ry
     estimated scf accuracy    <       0.00048312 Ry

     iteration # 11     ecut=    40.00 Ry     beta=0.70
     CG style diagonalization
     c_bands:  1 eigenvalues not converged
     c_bands:  1 eigenvalues not converged
     c_bands:  4 eigenvalues not converged
     c_bands:  2 eigenvalues not converged
     c_bands:  3 eigenvalues not converged
     c_bands:  2 eigenvalues not converged
     c_bands:  1 eigenvalues not converged
     c_bands:  1 eigenvalues not converged
     c_bands:  1 eigenvalues not converged
     c_bands:  2 eigenvalues not converged
     c_bands:  1 eigenvalues not converged
     c_bands:  1 eigenvalues not converged
     c_bands:  1 eigenvalues not converged
     c_bands:  3 eigenvalues not converged
     c_bands:  3 eigenvalues not converged
     c_bands:  1 eigenvalues not converged
     c_bands:  1 eigenvalues not converged
     c_bands:  2 eigenvalues not converged
     c_bands:  1 eigenvalues not converged
     c_bands:  1 eigenvalues not converged
     c_bands:  3 eigenvalues not converged
     c_bands:  2 eigenvalues not converged
     c_bands:  2 eigenvalues not converged
     c_bands:  1 eigenvalues not converged
     c_bands:  2 eigenvalues not converged
     c_bands:  1 eigenvalues not converged
     c_bands:  1 eigenvalues not converged
     c_bands:  2 eigenvalues not converged
     c_bands:  2 eigenvalues not converged
     c_bands:  1 eigenvalues not converged
     c_bands:  1 eigenvalues not converged
     c_bands:  3 eigenvalues not converged
     c_bands:  4 eigenvalues not converged
     c_bands:  2 eigenvalues not converged
     c_bands:  1 eigenvalues not converged
     c_bands:  1 eigenvalues not converged
     c_bands:  1 eigenvalues not converged
     c_bands:  1 eigenvalues not converged
     c_bands:  3 eigenvalues not converged
     c_bands:  1 eigenvalues not converged
     c_bands:  2 eigenvalues not converged
     c_bands:  1 eigenvalues not converged
     c_bands:  2 eigenvalues not converged
     c_bands:  2 eigenvalues not converged
     c_bands:  2 eigenvalues not converged
     c_bands:  2 eigenvalues not converged
     c_bands:  1 eigenvalues not converged
     c_bands:  1 eigenvalues not converged
     c_bands:  2 eigenvalues not converged
     c_bands:  2 eigenvalues not converged
     c_bands:  1 eigenvalues not converged
     c_bands:  1 eigenvalues not converged
     c_bands:  4 eigenvalues not converged
     c_bands:  2 eigenvalues not converged
     c_bands:  1 eigenvalues not converged
     c_bands:  2 eigenvalues not converged
     c_bands:  3 eigenvalues not converged
     c_bands:  1 eigenvalues not converged
     c_bands:  1 eigenvalues not converged
     c_bands:  2 eigenvalues not converged
     c_bands:  1 eigenvalues not converged
     c_bands:  1 eigenvalues not converged
     c_bands:  1 eigenvalues not converged
     c_bands:  3 eigenvalues not converged
     c_bands:  2 eigenvalues not converged
     c_bands:  2 eigenvalues not converged
     c_bands:  1 eigenvalues not converged
     c_bands:  2 eigenvalues not converged
     c_bands:  2 eigenvalues not converged
     c_bands:  1 eigenvalues not converged
     c_bands:  2 eigenvalues not converged
     c_bands:  1 eigenvalues not converged
     c_bands:  2 eigenvalues not converged
     c_bands:  2 eigenvalues not converged
     c_bands:  2 eigenvalues not converged
     ethr =  6.27E-07,  avg # of iterations =  8.0

     total cpu time spent up to now is     2712.0 secs

     total energy              =    -560.90709831 Ry
     Harris-Foulkes estimate   =    -560.92805631 Ry
     estimated scf accuracy    <       0.09093454 Ry

     iteration # 12     ecut=    40.00 Ry     beta=0.70
     CG style diagonalization
     c_bands:  1 eigenvalues not converged
     c_bands:  1 eigenvalues not converged
     c_bands:  2 eigenvalues not converged
     c_bands:  1 eigenvalues not converged
     c_bands:  1 eigenvalues not converged
     c_bands:  1 eigenvalues not converged
     c_bands:  1 eigenvalues not converged
     c_bands:  2 eigenvalues not converged
     c_bands:  2 eigenvalues not converged
     c_bands:  1 eigenvalues not converged
     c_bands:  1 eigenvalues not converged
     c_bands:  1 eigenvalues not converged
     c_bands:  1 eigenvalues not converged
     c_bands:  1 eigenvalues not converged
     c_bands:  1 eigenvalues not converged
     c_bands:  1 eigenvalues not converged
     c_bands:  2 eigenvalues not converged
     c_bands:  1 eigenvalues not converged
     c_bands:  1 eigenvalues not converged
     ethr =  6.27E-07,  avg # of iterations =  5.5

     total cpu time spent up to now is     2748.3 secs

     total energy              =    -560.91477839 Ry
     Harris-Foulkes estimate   =    -560.91519735 Ry
     estimated scf accuracy    <       0.00142380 Ry

     iteration # 13     ecut=    40.00 Ry     beta=0.70
     CG style diagonalization
     ethr =  6.27E-07,  avg # of iterations =  3.6

     total cpu time spent up to now is     2772.2 secs

     total energy              =    -560.91502991 Ry
     Harris-Foulkes estimate   =    -560.91504110 Ry
     estimated scf accuracy    <       0.00007618 Ry

     iteration # 14     ecut=    40.00 Ry     beta=0.70
     CG style diagonalization
     ethr =  9.89E-08,  avg # of iterations =  3.5

     total cpu time spent up to now is     2795.1 secs

     total energy              =    -560.91503384 Ry
     Harris-Foulkes estimate   =    -560.91503784 Ry
     estimated scf accuracy    <       0.00002878 Ry

     iteration # 15     ecut=    40.00 Ry     beta=0.70
     CG style diagonalization
     ethr =  3.74E-08,  avg # of iterations =  3.1

     total cpu time spent up to now is     2815.6 secs

     total energy              =    -560.91503361 Ry
     Harris-Foulkes estimate   =    -560.91503576 Ry
     estimated scf accuracy    <       0.00000794 Ry

     iteration # 16     ecut=    40.00 Ry     beta=0.70
     CG style diagonalization
     ethr =  1.03E-08,  avg # of iterations =  3.5

     total cpu time spent up to now is     2839.1 secs

     End of self-consistent calculation

     Number of k-points >= 100: set verbosity='high' to print the bands.

     the Fermi energy is    20.4839 ev

!    total energy              =    -560.91503524 Ry
     Harris-Foulkes estimate   =    -560.91503539 Ry
     estimated scf accuracy    <       0.00000016 Ry

     The total energy is the sum of the following terms:

     one-electron contribution =     -13.05044370 Ry
     hartree contribution      =      59.97596899 Ry
     xc contribution           =     -70.15343365 Ry
     ewald contribution        =    -537.32462574 Ry
     smearing contrib. (-TS)   =      -0.36250113 Ry

     convergence has been achieved in  16 iterations

     Forces acting on atoms (Ry/au):

     atom    1 type  1   force =     0.00000000    0.00000000    0.00000000
     atom    2 type  2   force =     0.00000000    0.00000000    0.00000000
     atom    3 type  2   force =     0.00000000    0.00000000    0.00000000
     atom    4 type  2   force =     0.00000000    0.00000000    0.00000000
     atom    5 type  2   force =     0.00000000    0.00000000    0.00000000
     atom    6 type  2   force =     0.00000000    0.00000000    0.00000000

     Total force =     0.000000     Total SCF correction =     0.000000


     entering subroutine stress ...

          total   stress  (Ry/bohr**3)                   (kbar)     P=  305.52
   0.00183993   0.00000000   0.00000000        270.66      0.00      0.00
   0.00000000   0.00183993   0.00000000          0.00    270.66      0.00
   0.00000000   0.00000000   0.00255073          0.00      0.00    375.23


     Writing output data file Prototype-La-hP6-CaCu5.save
 
     init_run     :      7.34s CPU     10.25s WALL (       2 calls)
     electrons    :   1995.80s CPU   2794.18s WALL (       5 calls)
     update_pot   :      1.58s CPU      2.29s WALL (       3 calls)
     forces       :      8.13s CPU     11.08s WALL (       5 calls)
     stress       :     18.98s CPU     23.80s WALL (       5 calls)

     Called by init_run:
     wfcinit      :      6.73s CPU      8.92s WALL (       2 calls)
     potinit      :      0.25s CPU      0.25s WALL (       2 calls)

     Called by electrons:
     c_bands      :   1899.31s CPU   2621.80s WALL (      59 calls)
     sum_band     :     94.98s CPU    140.35s WALL (      59 calls)
     v_of_rho     :      0.09s CPU      0.11s WALL (      64 calls)
     mix_rho      :      0.40s CPU      0.50s WALL (      59 calls)

     Called by c_bands:
     init_us_2    :      6.20s CPU      8.63s WALL (   14300 calls)
     ccgdiagg     :   1631.68s CPU   2220.98s WALL (    7073 calls)
     wfcrot       :    268.52s CPU    396.64s WALL (    7183 calls)

     Called by *cgdiagg:
     h_psi        :   1362.67s CPU   1885.31s WALL ( 1483690 calls)
     cdiaghg      :      7.66s CPU      9.41s WALL (    7183 calls)

     Called by h_psi:
     add_vuspsi   :     94.55s CPU    131.34s WALL ( 1483690 calls)

     General routines
     calbec       :    371.52s CPU    473.90s WALL ( 2961297 calls)
     fft          :      0.41s CPU      0.66s WALL (     279 calls)
     fftw         :   1088.35s CPU   1495.28s WALL ( 3933246 calls)
     davcio       :      3.92s CPU     10.18s WALL (   20790 calls)
 
     Parallel routines
     fft_scatter  :    630.23s CPU    906.97s WALL ( 3933525 calls)
 
     PWSCF        : 33m53.43s CPU    47m25.92s WALL

 
   This run was terminated on:  21:59:20  22Mar2018            

=------------------------------------------------------------------------------=
   JOB DONE.
=------------------------------------------------------------------------------=
