
     Program PWSCF v.5.0.2 starts on 22Mar2018 at 21:11:54 

     This program is part of the open-source Quantum ESPRESSO suite
     for quantum simulation of materials; please cite
         "P. Giannozzi et al., J. Phys.:Condens. Matter 21 395502 (2009);
          URL http://www.quantum-espresso.org", 
     in publications or presentations arising from this work. More details at
     http://www.quantum-espresso.org/quote.php

     Parallel version (MPI), running on     4 processors
     R & G space division:  proc/nbgrp/npool/nimage =       4

     Current dimensions of program PWSCF are:
     Max number of different atomic species (ntypx) = 10
     Max number of k-points (npk) =  40000
     Max angular momentum in pseudopotentials (lmaxx) =  3
     Waiting for input...
     Reading input from standard input

     Subspace diagonalization in iterative solution of the eigenvalue problem:
     a serial algorithm will be used

 
     Parallelization info
     --------------------
     sticks:   dense  smooth     PW     G-vecs:    dense   smooth      PW
     Min         207     207     61                 7381     7381    1191
     Max         208     208     62                 7386     7386    1192
     Sum         829     829    247                29529    29529    4767
 


     bravais-lattice index     =            0
     lattice parameter (alat)  =       7.0151  a.u.
     unit-cell volume          =     862.2778 (a.u.)^3
     number of atoms/cell      =           12
     number of atomic types    =            2
     number of electrons       =       184.00
     number of Kohn-Sham states=          110
     kinetic-energy cutoff     =      40.0000  Ry
     charge density cutoff     =     160.0000  Ry
     convergence threshold     =      1.0E-04
     mixing beta               =       0.7000
     number of iterations used =            8  plain     mixing
     Exchange-correlation      = SLA-PZ-NOGX-NOGC ( 1 1 0 0 0)
     EXX-fraction              =        0.00
     nstep                     =           50


     celldm(1)=   7.015105  celldm(2)=   0.000000  celldm(3)=   0.000000
     celldm(4)=   0.000000  celldm(5)=   0.000000  celldm(6)=   0.000000

     crystal axes: (cart. coord. in units of alat)
               a(1) = (   1.000000   0.000000   0.000000 )  
               a(2) = (   0.000000   1.315963   0.000000 )  
               a(3) = (   0.000000   0.000000   1.898020 )  

     reciprocal axes: (cart. coord. in units 2 pi/alat)
               b(1) = (  1.000000  0.000000  0.000000 )  
               b(2) = (  0.000000  0.759900  0.000000 )  
               b(3) = (  0.000000  0.000000  0.526865 )  


     PseudoPot. # 1 for Eu read from file:
     /home/cwx6513/pp.La/Eu.UPF
     MD5 check sum: 5efdbbfc50c6a10138933a6429836ad2
     Pseudo is Norm-conserving, Zval = 17.0
     Generated in analytical, separable form
     Using radial grid of 1261 points,  6 beta functions with: 
                l(1) =   0
                l(2) =   0
                l(3) =   1
                l(4) =   1
                l(5) =   2
                l(6) =   3

     PseudoPot. # 2 for Ce read from file:
     /home/cwx6513/pp.La/Ce.UPF
     MD5 check sum: 44451aa79a44a00cf2bc029dc19922f6
     Pseudo is Norm-conserving, Zval = 12.0
     Generated in analytical, separable form
     Using radial grid of 1255 points,  6 beta functions with: 
                l(1) =   0
                l(2) =   0
                l(3) =   1
                l(4) =   1
                l(5) =   2
                l(6) =   3

     atomic species   valence    mass     pseudopotential
        Co            17.00    58.93320     Eu( 1.00)
        Si            12.00    28.08550     Ce( 1.00)

      8 Sym. Ops., with inversion, found ( 6 have fractional translation)



   Cartesian axes

     site n.     atom                  positions (alat units)
         1           Co  tau(   1) = (   0.7500000   1.0875135   0.8270358  )
         2           Co  tau(   2) = (   0.2500000   0.2284499   1.0709846  )
         3           Co  tau(   3) = (   0.7500000   0.4295318   0.1219744  )
         4           Co  tau(   4) = (   0.2500000   0.8864316   1.7760460  )
         5           Co  tau(   5) = (   0.2500000   0.7067855   0.5358966  )
         6           Co  tau(   6) = (   0.7500000   0.6091779   1.3621238  )
         7           Co  tau(   7) = (   0.2500000   0.0488038   0.4131136  )
         8           Co  tau(   8) = (   0.7500000   1.2671596   1.4849068  )
         9           Si  tau(   9) = (   0.2500000   0.2669484   1.6960710  )
        10           Si  tau(  10) = (   0.7500000   1.0490149   0.2019494  )
        11           Si  tau(  11) = (   0.2500000   0.9249301   1.1509596  )
        12           Si  tau(  12) = (   0.7500000   0.3910333   0.7470608  )

     number of k points=    12  gaussian smearing, width (Ry)=  0.1000
                       cart. coord. in units 2pi/alat
        k(    1) = (   0.0000000   0.0000000   0.0000000), wk =   0.0833333
        k(    2) = (   0.0000000   0.0000000   0.1317162), wk =   0.1666667
        k(    3) = (   0.0000000   0.0000000  -0.2634324), wk =   0.0833333
        k(    4) = (   0.0000000   0.2532999   0.0000000), wk =   0.1666667
        k(    5) = (   0.0000000   0.2532999   0.1317162), wk =   0.3333333
        k(    6) = (   0.0000000   0.2532999  -0.2634324), wk =   0.1666667
        k(    7) = (  -0.5000000   0.0000000   0.0000000), wk =   0.0833333
        k(    8) = (  -0.5000000   0.0000000   0.1317162), wk =   0.1666667
        k(    9) = (  -0.5000000   0.0000000  -0.2634324), wk =   0.0833333
        k(   10) = (  -0.5000000   0.2532999   0.0000000), wk =   0.1666667
        k(   11) = (  -0.5000000   0.2532999   0.1317162), wk =   0.3333333
        k(   12) = (  -0.5000000   0.2532999  -0.2634324), wk =   0.1666667

     Dense  grid:    29529 G-vectors     FFT dimensions: (  30,  40,  54)

     Largest allocated arrays     est. size (Mb)     dimensions
        Kohn-Sham Wavefunctions         1.55 Mb     (    922,  110)
        NL pseudopotentials             3.38 Mb     (    922,  240)
        Each V/rho on FFT grid          0.26 Mb     (  16800)
        Each G-vector array             0.06 Mb     (   7386)
        G-vector shells                 0.06 Mb     (   7386)
     Largest temporary arrays     est. size (Mb)     dimensions
        Each subspace H/S matrix        0.18 Mb     ( 110, 110)
        Each <psi_i|beta_j> matrix      0.40 Mb     (    240,  110)
        Arrays for rho mixing           2.05 Mb     (  16800,   8)

     Initial potential from superposition of free atoms

     Starting from uniform charge
     Starting wfc are    0 randomized atomic wfcs

     total cpu time spent up to now is        2.1 secs

     Self-consistent Calculation

     iteration #  1     ecut=    40.00 Ry     beta=0.70
     CG style diagonalization
     c_bands:  1 eigenvalues not converged
     c_bands:  1 eigenvalues not converged
     c_bands:  1 eigenvalues not converged
     ethr =  1.00E-02,  avg # of iterations = 11.3

     total cpu time spent up to now is       26.9 secs

     total energy              =   -1586.86418222 Ry
     Harris-Foulkes estimate   =   -1841.70673282 Ry
     estimated scf accuracy    <     334.99119253 Ry

     iteration #  2     ecut=    40.00 Ry     beta=0.70
     CG style diagonalization
     c_bands:  1 eigenvalues not converged
     c_bands:  1 eigenvalues not converged
     ethr =  1.00E-02,  avg # of iterations =  9.7

     total cpu time spent up to now is       48.9 secs

     total energy              =   -1644.16229882 Ry
     Harris-Foulkes estimate   =   -1743.04586260 Ry
     estimated scf accuracy    <     161.35812260 Ry

     iteration #  3     ecut=    40.00 Ry     beta=0.70
     CG style diagonalization
     ethr =  1.00E-02,  avg # of iterations =  6.5

     total cpu time spent up to now is       63.3 secs

     total energy              =   -1692.71596359 Ry
     Harris-Foulkes estimate   =   -1706.85762507 Ry
     estimated scf accuracy    <      30.78221515 Ry

     iteration #  4     ecut=    40.00 Ry     beta=0.70
     CG style diagonalization
     ethr =  1.00E-02,  avg # of iterations =  3.8

     total cpu time spent up to now is       71.2 secs

     total energy              =   -1697.78430915 Ry
     Harris-Foulkes estimate   =   -1698.95658769 Ry
     estimated scf accuracy    <       2.56670029 Ry

     iteration #  5     ecut=    40.00 Ry     beta=0.70
     CG style diagonalization
     ethr =  1.39E-03,  avg # of iterations =  4.3

     total cpu time spent up to now is       80.5 secs

     total energy              =   -1698.32522991 Ry
     Harris-Foulkes estimate   =   -1698.48335192 Ry
     estimated scf accuracy    <       0.32768742 Ry

     iteration #  6     ecut=    40.00 Ry     beta=0.70
     CG style diagonalization
     c_bands:  1 eigenvalues not converged
     c_bands:  2 eigenvalues not converged
     c_bands:  1 eigenvalues not converged
     c_bands:  1 eigenvalues not converged
     ethr =  1.78E-04,  avg # of iterations =  4.9

     total cpu time spent up to now is       91.1 secs

     total energy              =   -1698.44870531 Ry
     Harris-Foulkes estimate   =   -1698.48024145 Ry
     estimated scf accuracy    <       0.06380808 Ry

     iteration #  7     ecut=    40.00 Ry     beta=0.70
     CG style diagonalization
     c_bands:  1 eigenvalues not converged
     c_bands:  1 eigenvalues not converged
     c_bands:  1 eigenvalues not converged
     c_bands:  1 eigenvalues not converged
     ethr =  3.47E-05,  avg # of iterations =  4.4

     total cpu time spent up to now is      100.8 secs

     total energy              =   -1698.47014604 Ry
     Harris-Foulkes estimate   =   -1698.47565044 Ry
     estimated scf accuracy    <       0.01304945 Ry

     iteration #  8     ecut=    40.00 Ry     beta=0.70
     CG style diagonalization
     c_bands:  1 eigenvalues not converged
     c_bands:  1 eigenvalues not converged
     ethr =  7.09E-06,  avg # of iterations =  4.0

     total cpu time spent up to now is      109.4 secs

     total energy              =   -1698.47234001 Ry
     Harris-Foulkes estimate   =   -1698.47288367 Ry
     estimated scf accuracy    <       0.00109163 Ry

     iteration #  9     ecut=    40.00 Ry     beta=0.70
     CG style diagonalization
     c_bands:  1 eigenvalues not converged
     c_bands:  1 eigenvalues not converged
     ethr =  5.93E-07,  avg # of iterations =  4.7

     total cpu time spent up to now is      119.5 secs

     End of self-consistent calculation

          k = 0.0000 0.0000 0.0000 (  3675 PWs)   bands (ev):

   -19.4367 -18.8907 -18.8636 -18.5818 -18.4456 -18.2013 -18.1579 -18.1201
     3.6692   4.3131   4.4653   5.6022   5.8664   6.2602   6.7587   6.7918
     6.8836   7.0296   7.1091   7.2509   7.7779   7.8736   8.0553   8.0624
     8.1591   8.4319   8.6310   8.6986   8.8368   9.1636   9.3993   9.4490
     9.7970   9.9318  10.3980  10.6642  22.7201  23.4487  23.5295  23.7456
    24.2369  24.3052  24.6610  24.7389  24.8131  25.0617  25.6693  25.8892
    32.9944  33.2342  33.2752  33.9400  34.0210  34.2724  34.5977  35.0136
    35.5364  36.4880  36.7570  37.2015  37.3860  37.9304  38.1380  38.5351
    39.1498  39.4823  39.7678  39.8074  39.8883  39.9106  40.7747  40.8782
    41.2286  41.2586  41.6738  42.7131  42.9152  43.0429  43.4605  44.0953
    44.3765  44.5402  44.6656  44.7912  45.2484  45.2990  45.4413  46.3848
    46.9285  47.0755  48.0718  48.3234  48.6549  48.7069  48.9877  49.2763
    49.4799  49.6086  50.0483  50.5745  51.5828  52.2688  52.2813  52.5316
    52.9888  53.1471  53.3879  53.4601  53.7334  54.1497

          k = 0.0000 0.0000 0.1317 (  3675 PWs)   bands (ev):

   -19.3933 -19.0860 -18.6951 -18.5854 -18.4224 -18.2417 -18.1495 -18.1247
     3.7145   4.2806   4.6114   5.6943   5.9108   6.1536   6.3426   6.6233
     6.7874   6.9691   7.2872   7.4830   7.8293   7.8742   8.0667   8.0734
     8.1549   8.4119   8.5135   8.6484   8.7904   8.9412   9.4110   9.7247
     9.9822  10.0531  10.3592  10.7350  22.8084  23.3138  23.5559  23.7749
    24.2568  24.3267  24.5025  24.6231  24.7407  25.0373  25.6634  25.8006
    32.6840  33.2120  33.4618  33.7125  33.9197  34.3020  34.8181  35.5946
    36.0704  36.1527  37.2105  37.3418  37.6175  38.1527  38.1549  38.9896
    39.0099  39.2556  39.7212  39.9442  40.2625  40.4260  40.4403  40.5625
    40.8590  41.0827  41.6538  42.5490  42.5559  42.7738  43.1652  43.4298
    43.8566  44.2153  44.7227  44.9557  44.9973  45.6864  45.8139  46.0407
    46.9251  47.0545  47.6410  48.2897  48.4675  48.7256  48.9728  49.3176
    49.9025  50.1406  50.5059  51.0132  51.3899  51.8220  52.7317  52.8640
    52.9291  53.0247  53.1287  53.5517  53.9969  54.2651

          k = 0.0000 0.0000-0.2634 (  3690 PWs)   bands (ev):

   -19.2704 -19.2704 -18.6055 -18.6055 -18.3384 -18.3384 -18.1365 -18.1365
     3.9343   3.9343   5.3134   5.3134   5.9537   5.9537   6.2777   6.2777
     6.8459   6.8459   7.6497   7.6497   7.8681   7.8681   8.0430   8.0430
     8.1120   8.1120   8.6612   8.6612   8.6995   8.6995   9.5851   9.5851
    10.2154  10.2154  10.5741  10.5741  23.0394  23.0394  23.6995  23.6995
    24.2572  24.2573  24.4105  24.4105  24.9149  24.9149  25.6809  25.6809
    32.7944  32.7944  33.3066  33.3066  34.1528  34.1528  36.2286  36.2286
    36.6019  36.6019  36.7877  36.7877  38.3535  38.3535  38.5446  38.5445
    38.7709  38.7709  39.6643  39.6643  39.9984  39.9983  40.3792  40.3792
    41.7758  41.7758  42.2798  42.2798  42.5293  42.5293  43.2020  43.2020
    43.5252  43.5252  44.1459  44.1459  44.7525  44.7525  46.5115  46.5115
    47.1524  47.1524  47.3681  47.3681  48.3497  48.3497  49.3962  49.3962
    50.8886  50.8885  51.5461  51.5461  51.6722  51.6722  52.2679  52.2680
    52.7549  52.7549  52.8863  52.8863  54.6225  54.6255

          k = 0.0000 0.2533 0.0000 (  3664 PWs)   bands (ev):

   -19.2755 -18.9597 -18.7762 -18.7121 -18.4572 -18.2765 -18.1492 -18.1132
     3.6218   3.8184   5.1174   5.9324   6.1386   6.4966   6.6033   6.7063
     6.7472   6.8977   6.9623   7.1312   7.1765   7.7249   8.0637   8.2610
     8.4952   8.6995   8.7060   8.7749   8.8119   9.0179   9.1228   9.4185
     9.8305  10.3257  10.6593  10.7539  23.0019  23.0944  23.4405  23.5990
    23.8115  23.8370  23.9114  24.1012  24.5257  25.0609  25.0793  25.2827
    33.6803  33.8004  34.1379  34.3098  35.0141  35.1215  35.6309  35.7018
    35.7783  36.0900  36.8315  37.3625  37.5028  37.6406  37.9822  38.5222
    39.3039  39.3405  39.4624  39.6133  40.3201  40.7351  40.9374  40.9705
    41.1758  42.2433  42.5644  42.9115  42.9243  42.9464  43.3727  43.4285
    43.9405  44.6431  44.6883  44.8680  44.8769  44.9838  45.9906  46.7663
    47.0088  47.0313  47.4347  48.0386  48.1927  48.8827  48.9698  48.9735
    49.2722  49.8540  50.0693  50.1384  51.3365  51.4472  51.5183  52.3029
    52.3182  52.4089  53.0676  53.3275  53.6974  54.1273

          k = 0.0000 0.2533 0.1317 (  3669 PWs)   bands (ev):

   -19.2400 -19.0190 -18.7935 -18.7108 -18.3998 -18.2462 -18.1819 -18.1307
     3.7220   3.9734   4.9103   5.6495   6.0094   6.5168   6.5196   6.6588
     6.7696   6.9471   6.9993   7.1518   7.4371   7.8914   8.1270   8.3206
     8.3580   8.5228   8.6287   8.7662   8.7819   8.9535   9.2614   9.3966
     9.9179  10.3043  10.6939  10.8913  23.0840  23.0884  23.3128  23.5874
    23.6129  23.7733  23.9815  24.3228  24.3668  24.9411  25.0320  25.2616
    33.5669  33.8592  34.2748  34.3094  35.1599  35.3029  35.3803  35.9003
    36.3928  36.4797  36.5905  37.0255  37.7281  38.0483  38.1162  38.7107
    38.7796  39.1674  39.3797  39.9003  39.9430  40.4516  40.9016  41.2301
    41.5008  41.6847  42.5117  42.6852  42.7034  42.8868  43.5994  43.6592
    44.0108  44.2975  44.3345  44.9981  45.1297  45.1832  46.0047  46.2886
    46.3563  47.3174  47.4359  47.6601  48.0266  48.5070  48.7968  48.8057
    49.8598  50.2516  50.2530  51.2151  51.3584  51.4922  51.8435  51.8606
    52.3136  52.5416  53.0900  53.1347  53.3145  53.8890

          k = 0.0000 0.2533-0.2634 (  3666 PWs)   bands (ev):

   -19.1421 -19.1421 -18.7586 -18.7586 -18.2834 -18.2834 -18.1768 -18.1768
     3.9948   3.9948   4.9725   4.9725   6.2262   6.2262   6.6086   6.6086
     6.9359   6.9359   7.0593   7.0593   7.8391   7.8391   8.2368   8.2368
     8.2858   8.2858   8.7068   8.7068   8.8252   8.8252   9.3849   9.3849
    10.1256  10.1256  10.8903  10.8903  23.1222  23.1222  23.3094  23.3094
    23.6799  23.6799  24.1158  24.1158  24.6498  24.6498  25.1208  25.1208
    33.7848  33.7848  33.9638  33.9638  35.7174  35.7174  35.8277  35.8277
    36.5559  36.5559  37.3634  37.3634  37.7007  37.7007  38.4317  38.4317
    38.5085  38.5085  39.5453  39.5453  40.1526  40.1526  41.0560  41.0560
    41.3767  41.3767  42.2410  42.2410  43.3350  43.3350  43.4512  43.4512
    44.4593  44.4593  44.5670  44.5670  45.0670  45.0670  46.2255  46.2255
    46.8501  46.8501  46.8767  46.8767  48.4179  48.4179  48.4389  48.4389
    50.0309  50.0309  50.9703  50.9702  51.4515  51.4516  52.2457  52.2459
    52.6626  52.6628  53.0821  53.0822  53.6546  53.6547

          k =-0.5000 0.0000 0.0000 (  3722 PWs)   bands (ev):

   -18.9449 -18.9449 -18.7153 -18.7153 -18.5227 -18.5227 -18.1317 -18.1317
     3.7634   3.7634   4.1941   4.1941   5.4214   5.4214   6.3300   6.3300
     6.5207   6.5207   7.3841   7.3841   7.6960   7.6960   8.1712   8.1712
     8.3906   8.3906   9.1367   9.1367   9.4426   9.4426   9.9667   9.9667
    10.1198  10.1198  11.0054  11.0054  23.6004  23.6004  24.4985  24.4985
    24.8537  24.8537  25.1218  25.1218  25.3868  25.3868  25.7086  25.7086
    34.2442  34.2442  34.9110  34.9110  35.5966  35.5966  35.7457  35.7457
    36.3692  36.3692  36.9003  36.9003  37.5361  37.5361  37.6218  37.6218
    37.6532  37.6532  37.9262  37.9262  38.7852  38.7852  39.3598  39.3598
    39.8235  39.8235  41.1535  41.1535  42.0145  42.0145  42.2687  42.2687
    43.1863  43.1863  44.3443  44.3443  45.8626  45.8626  45.9308  45.9308
    46.9905  46.9905  47.4117  47.4117  48.1899  48.1899  48.6632  48.6632
    49.0527  49.0527  50.1317  50.1316  51.3527  51.3527  52.8742  52.8743
    53.3694  53.3690  53.4835  53.4834  53.6699  53.6696

          k =-0.5000 0.0000 0.1317 (  3710 PWs)   bands (ev):

   -18.9382 -18.9382 -18.7277 -18.7277 -18.5153 -18.5153 -18.1318 -18.1318
     3.6810   3.6810   4.4279   4.4279   5.6049   5.6049   5.9827   5.9827
     6.3691   6.3691   7.2830   7.2830   7.6010   7.6010   8.2738   8.2738
     8.6116   8.6115   9.1398   9.1398   9.4181   9.4181   9.9653   9.9653
    10.2776  10.2776  10.9832  10.9832  23.6717  23.6717  24.4411  24.4411
    24.7010  24.7010  25.1419  25.1419  25.3442  25.3442  25.6424  25.6424
    34.6004  34.6004  34.6405  34.6405  35.4052  35.4052  35.9236  35.9236
    36.5954  36.5954  36.8557  36.8557  37.2145  37.2145  37.7637  37.7637
    38.0157  38.0157  38.2937  38.2937  38.8722  38.8722  39.3798  39.3798
    40.1021  40.1021  40.5575  40.5575  41.5030  41.5030  42.1908  42.1908
    43.3047  43.3047  44.9345  44.9345  45.6287  45.6287  45.8185  45.8185
    46.9107  46.9107  47.0957  47.0957  48.3825  48.3825  48.4831  48.4831
    49.4650  49.4650  50.0654  50.0657  51.2769  51.2768  52.0902  52.0906
    53.0328  53.0330  53.5372  53.5367  54.0786  54.0781

          k =-0.5000 0.0000-0.2634 (  3680 PWs)   bands (ev):

   -18.9292 -18.9292 -18.7406 -18.7406 -18.5081 -18.5081 -18.1318 -18.1318
     3.6262   3.6262   4.7488   4.7488   5.5442   5.5442   5.8802   5.8802
     6.1625   6.1625   7.2427   7.2427   7.4466   7.4466   8.3346   8.3346
     8.8288   8.8288   9.1766   9.1766   9.3703   9.3703   9.9719   9.9719
    10.4699  10.4699  10.9259  10.9259  23.7921  23.7921  24.3710  24.3710
    24.4758  24.4758  25.1643  25.1643  25.4003  25.4003  25.5158  25.5158
    34.3874  34.3874  35.0735  35.0735  35.4686  35.4686  36.1246  36.1246
    36.2076  36.2076  36.8039  36.8039  37.4212  37.4212  37.7433  37.7433
    38.2246  38.2246  38.4589  38.4589  38.9385  38.9385  39.3746  39.3746
    40.3488  40.3488  40.5966  40.5966  41.3907  41.3907  42.0073  42.0073
    42.9520  42.9520  44.8021  44.8021  45.4062  45.4062  45.9371  45.9371
    46.6896  46.6896  47.2453  47.2453  47.9559  47.9559  49.2671  49.2671
    49.4408  49.4408  50.0273  50.0271  51.8713  51.8713  52.1920  52.1917
    52.7053  52.7056  52.9697  52.9698  53.6961  53.6962

          k =-0.5000 0.2533 0.0000 (  3686 PWs)   bands (ev):

   -18.8539 -18.8539 -18.7435 -18.7435 -18.4619 -18.4619 -18.2633 -18.2633
     3.5801   3.5801   3.7669   3.7669   5.8810   5.8810   6.5139   6.5139
     7.1722   7.1722   7.4844   7.4844   7.8194   7.8194   7.9742   7.9742
     8.6907   8.6907   9.0215   9.0215   9.2093   9.2093   9.4888   9.4888
    10.3642  10.3642  10.8435  10.8435  23.7883  23.7883  24.0266  24.0266
    24.1202  24.1202  24.4534  24.4534  25.4007  25.4007  25.4257  25.4257
    34.8299  34.8299  35.1571  35.1571  36.0567  36.0567  36.3224  36.3224
    36.6084  36.6084  36.6941  36.6941  37.6324  37.6324  37.7857  37.7857
    38.7006  38.7006  39.2067  39.2067  39.3011  39.3011  39.5313  39.5313
    40.7877  40.7877  40.7975  40.7975  41.7093  41.7093  42.6495  42.6495
    43.5523  43.5523  44.0953  44.0953  45.2409  45.2409  45.9751  45.9751
    46.0042  46.0042  46.8314  46.8314  47.5275  47.5275  48.9908  48.9908
    49.3399  49.3399  50.1195  50.1195  50.6581  50.6581  51.5509  51.5508
    52.1418  52.1420  52.4262  52.4264  53.1308  53.1305

          k =-0.5000 0.2533 0.1317 (  3692 PWs)   bands (ev):

   -18.8501 -18.8501 -18.7492 -18.7492 -18.4602 -18.4602 -18.2639 -18.2639
     3.5854   3.5854   3.8658   3.8658   5.8942   5.8942   6.2462   6.2462
     6.9743   6.9743   7.4205   7.4205   7.9982   7.9982   8.1525   8.1525
     8.7476   8.7476   9.0365   9.0365   9.1665   9.1665   9.4771   9.4771
    10.4338  10.4338  10.8500  10.8500  23.7912  23.7912  23.8943  23.8943
    24.2863  24.2863  24.5119  24.5119  25.1345  25.1345  25.3712  25.3712
    34.7326  34.7326  35.2918  35.2918  35.9667  35.9667  36.1462  36.1462
    36.6411  36.6411  37.2522  37.2522  37.8332  37.8332  38.3122  38.3122
    38.4100  38.4100  38.9623  38.9623  39.3319  39.3319  39.7447  39.7447
    40.3936  40.3936  41.2174  41.2174  41.7201  41.7201  42.5894  42.5894
    43.4393  43.4393  44.0014  44.0014  44.9808  44.9808  45.5675  45.5675
    46.3670  46.3670  47.0670  47.0670  47.6810  47.6810  48.5675  48.5675
    48.8406  48.8407  49.7157  49.7157  50.4404  50.4401  51.1837  51.1837
    52.0481  52.0482  52.1335  52.1335  53.3242  53.3237

          k =-0.5000 0.2533-0.2634 (  3704 PWs)   bands (ev):

   -18.8449 -18.8449 -18.7559 -18.7559 -18.4595 -18.4595 -18.2649 -18.2649
     3.5941   3.5941   3.9729   3.9729   5.7397   5.7397   6.4074   6.4074
     6.5095   6.5095   7.4121   7.4121   8.2204   8.2204   8.3008   8.3008
     8.8000   8.8000   8.8139   8.8139   9.2986   9.2986   9.4496   9.4496
    10.5214  10.5214  10.8361  10.8361  23.7854  23.7854  23.8150  23.8150
    24.5155  24.5155  24.5741  24.5741  24.8234  24.8234  25.2522  25.2522
    34.5552  34.5552  35.5602  35.5602  35.8443  35.8443  36.1769  36.1769
    37.1051  37.1051  37.3640  37.3640  37.5851  37.5851  38.2549  38.2549
    38.6135  38.6135  39.1879  39.1879  39.4383  39.4383  39.9840  39.9840
    40.1479  40.1479  41.3655  41.3655  41.6161  41.6161  42.5907  42.5907
    42.8768  42.8768  44.4295  44.4295  45.0384  45.0384  45.4197  45.4197
    46.1437  46.1437  47.0833  47.0833  47.6474  47.6474  48.1146  48.1146
    48.7665  48.7665  49.0345  49.0345  50.1437  50.1435  50.8583  50.8584
    51.8691  51.8692  52.7165  52.7166  53.8115  53.8113

     the Fermi energy is    47.7158 ev

!    total energy              =   -1698.47290653 Ry
     Harris-Foulkes estimate   =   -1698.47295187 Ry
     estimated scf accuracy    <       0.00005288 Ry

     The total energy is the sum of the following terms:

     one-electron contribution =     396.24391395 Ry
     hartree contribution      =      91.92216414 Ry
     xc contribution           =    -202.93496730 Ry
     ewald contribution        =   -1983.32076940 Ry
     smearing contrib. (-TS)   =      -0.38324792 Ry

     convergence has been achieved in   9 iterations

     Forces acting on atoms (Ry/au):

     atom    1 type  1   force =     0.00000000   -0.06028859   -0.11704372
     atom    2 type  1   force =     0.00000000    0.06028859    0.11704372
     atom    3 type  1   force =     0.00000000   -0.06028859    0.11704372
     atom    4 type  1   force =     0.00000000    0.06028859   -0.11704372
     atom    5 type  1   force =     0.00000000    0.14855412   -0.18713031
     atom    6 type  1   force =     0.00000000   -0.14855412    0.18713031
     atom    7 type  1   force =     0.00000000    0.14855412    0.18713031
     atom    8 type  1   force =     0.00000000   -0.14855412   -0.18713031
     atom    9 type  2   force =     0.00000000   -0.16119144   -0.02933751
     atom   10 type  2   force =     0.00000000    0.16119144    0.02933751
     atom   11 type  2   force =     0.00000000   -0.16119144    0.02933751
     atom   12 type  2   force =     0.00000000    0.16119144   -0.02933751

     Total force =     0.636438     Total SCF correction =     0.000000


     entering subroutine stress ...

          total   stress  (Ry/bohr**3)                   (kbar)     P= 6429.52
   0.04463805   0.00000000   0.00000000       6566.48      0.00      0.00
   0.00000000   0.04218254   0.00000000          0.00   6205.27      0.00
   0.00000000   0.00000000   0.04430050          0.00      0.00   6516.83


     BFGS Geometry Optimization

     number of scf cycles    =   1
     number of bfgs steps    =   0

     enthalpy new            =   -1698.4729065340 Ry

     new trust radius        =       0.5000000000 bohr
     new conv_thr            =       0.0001000000 Ry

     new unit-cell volume =   1096.38815 a.u.^3 (   162.46796 Ang^3 )

CELL_PARAMETERS (alat=  7.01510508)
   1.085136619   0.000000000   0.000000000
   0.000000000   1.421837003   0.000000000
   0.000000000   0.000000000   2.058389507

ATOMIC_POSITIONS (crystal)
Co       0.750000000   0.825902772   0.435065368
Co       0.250000000   0.174097228   0.564934632
Co       0.750000000   0.325902772   0.064934632
Co       0.250000000   0.674097228   0.935065368
Co       0.250000000   0.538313659   0.281272789
Co       0.750000000   0.461686341   0.718727211
Co       0.250000000   0.038313659   0.218727211
Co       0.750000000   0.961686341   0.781272789
Si       0.250000000   0.201521905   0.893431903
Si       0.750000000   0.798478095   0.106568097
Si       0.250000000   0.701521905   0.606568097
Si       0.750000000   0.298478095   0.393431903



     Writing output data file Prototype-La-oP12-Co2Si.save
     NEW-OLD atomic charge density approx. for the potential
     NEW k-points:
        k(    1) = (   0.0000000   0.0000000   0.0000000), wk =   0.0833333
        k(    2) = (   0.0000000   0.0000000   0.1214542), wk =   0.1666667
        k(    3) = (   0.0000000   0.0000000  -0.2429084), wk =   0.0833333
        k(    4) = (   0.0000000   0.2344385   0.0000000), wk =   0.1666667
        k(    5) = (   0.0000000   0.2344385   0.1214542), wk =   0.3333333
        k(    6) = (   0.0000000   0.2344385  -0.2429084), wk =   0.1666667
        k(    7) = (  -0.4607715   0.0000000   0.0000000), wk =   0.0833333
        k(    8) = (  -0.4607715   0.0000000   0.1214542), wk =   0.1666667
        k(    9) = (  -0.4607715   0.0000000  -0.2429084), wk =   0.0833333
        k(   10) = (  -0.4607715   0.2344385   0.0000000), wk =   0.1666667
        k(   11) = (  -0.4607715   0.2344385   0.1214542), wk =   0.3333333
        k(   12) = (  -0.4607715   0.2344385  -0.2429084), wk =   0.1666667

     total cpu time spent up to now is      123.1 secs

     Self-consistent Calculation

     iteration #  1     ecut=    40.00 Ry     beta=0.70
     CG style diagonalization
     c_bands:  3 eigenvalues not converged
     c_bands:  1 eigenvalues not converged
     c_bands:  1 eigenvalues not converged
     ethr =  1.00E-06,  avg # of iterations = 22.2

     total cpu time spent up to now is      174.5 secs

     total energy              =   -1695.90200224 Ry
     Harris-Foulkes estimate   =   -1713.87781450 Ry
     estimated scf accuracy    <      23.37943946 Ry

     iteration #  2     ecut=    40.00 Ry     beta=0.70
     CG style diagonalization
     ethr =  1.00E-02,  avg # of iterations =  3.9

     total cpu time spent up to now is      183.7 secs

     total energy              =   -1699.03839977 Ry
     Harris-Foulkes estimate   =   -1710.29985894 Ry
     estimated scf accuracy    <      20.83773162 Ry

     iteration #  3     ecut=    40.00 Ry     beta=0.70
     CG style diagonalization
     ethr =  1.00E-02,  avg # of iterations =  3.5

     total cpu time spent up to now is      192.7 secs

     total energy              =   -1704.36586324 Ry
     Harris-Foulkes estimate   =   -1705.16834455 Ry
     estimated scf accuracy    <       1.55329753 Ry

     iteration #  4     ecut=    40.00 Ry     beta=0.70
     CG style diagonalization
     ethr =  8.44E-04,  avg # of iterations =  3.7

     total cpu time spent up to now is      201.5 secs

     total energy              =   -1704.76583511 Ry
     Harris-Foulkes estimate   =   -1704.83636335 Ry
     estimated scf accuracy    <       0.13881085 Ry

     iteration #  5     ecut=    40.00 Ry     beta=0.70
     CG style diagonalization
     ethr =  7.54E-05,  avg # of iterations =  3.8

     total cpu time spent up to now is      210.3 secs

     total energy              =   -1704.79244045 Ry
     Harris-Foulkes estimate   =   -1704.79779019 Ry
     estimated scf accuracy    <       0.01088297 Ry

     iteration #  6     ecut=    40.00 Ry     beta=0.70
     CG style diagonalization
     c_bands:  1 eigenvalues not converged
     c_bands:  1 eigenvalues not converged
     ethr =  5.91E-06,  avg # of iterations =  4.3

     total cpu time spent up to now is      221.3 secs

     total energy              =   -1704.79600274 Ry
     Harris-Foulkes estimate   =   -1704.79657647 Ry
     estimated scf accuracy    <       0.00114313 Ry

     iteration #  7     ecut=    40.00 Ry     beta=0.70
     CG style diagonalization
     c_bands:  1 eigenvalues not converged
     c_bands:  1 eigenvalues not converged
     ethr =  6.21E-07,  avg # of iterations =  4.0

     total cpu time spent up to now is      230.5 secs

     total energy              =   -1704.79623367 Ry
     Harris-Foulkes estimate   =   -1704.79657831 Ry
     estimated scf accuracy    <       0.00084173 Ry

     iteration #  8     ecut=    40.00 Ry     beta=0.70
     CG style diagonalization
     ethr =  4.57E-07,  avg # of iterations =  3.4

     total cpu time spent up to now is      237.6 secs

     End of self-consistent calculation

          k = 0.0000 0.0000 0.0000 (  3675 PWs)   bands (ev):

   -28.0152 -27.8183 -27.7957 -27.7245 -27.6540 -27.5379 -27.4708 -27.4598
    -3.6310  -3.3714  -3.1352  -2.4798  -1.8443  -1.5283  -1.4257  -1.2880
    -1.2801  -1.1418  -1.1163  -0.9917  -0.8186  -0.6668  -0.6001  -0.5788
    -0.5194  -0.4295  -0.3154  -0.2848  -0.2121  -0.1631   0.0301   0.0920
     0.1991   0.2571   0.4579   0.6726  14.4822  14.8467  14.8515  14.9276
    15.0652  15.2559  15.3655  15.3859  15.5414  15.6228  15.8752  16.1980
    25.8582  25.9962  26.0776  26.6667  26.7231  26.7380  26.9477  27.4406
    27.4896  28.4400  28.4721  28.9629  29.0744  29.4671  29.4728  29.4804
    29.9459  30.0533  30.3612  30.7912  31.0158  31.1660  31.6019  31.8410
    31.9609  32.0555  32.3344  32.4557  32.5158  33.0562  33.2142  33.2576
    33.6908  34.0899  34.1864  34.2563  34.3055  34.7263  35.1838  35.2990
    36.0953  36.4223  36.7362  36.8164  37.2043  37.9001  38.1133  38.2335
    38.2793  38.8585  39.0425  39.4542  40.3953  40.7751  41.0297  41.1067
    41.4356  42.0503  42.1246  42.3797  42.6610  42.9574

          k = 0.0000 0.0000 0.1215 (  3675 PWs)   bands (ev):

   -27.9978 -27.8803 -27.7517 -27.7296 -27.6366 -27.5579 -27.4647 -27.4587
    -3.5865  -3.2339  -3.2309  -2.5934  -1.7917  -1.5805  -1.4624  -1.3530
    -1.3421  -1.1769  -0.9784  -0.9322  -0.8065  -0.6865  -0.6332  -0.5769
    -0.5153  -0.4796  -0.3492  -0.2158  -0.2002  -0.1704  -0.1191   0.0477
     0.3038   0.4406   0.4834   0.6463  14.5392  14.8454  14.8457  14.8585
    15.1134  15.2261  15.3273  15.4198  15.5341  15.5351  15.9166  16.1398
    25.8358  25.9328  26.3138  26.3386  26.4165  26.8246  27.2505  27.6004
    27.9235  28.1713  28.9367  29.0622  29.1738  29.6411  29.6759  29.6891
    29.9816  30.2284  30.3731  30.8587  30.9978  31.2837  31.3254  31.3905
    31.5068  31.5243  32.3312  32.3874  32.4907  32.9606  32.9634  32.9962
    33.5627  33.7084  34.3674  34.3804  34.6037  35.0211  35.1311  35.3481
    35.8025  35.9453  36.5152  37.0822  37.5573  37.5793  37.9758  38.0605
    38.4757  39.3736  39.5998  39.6186  40.2071  40.4269  41.0861  41.2317
    41.5941  41.7318  41.9694  42.1496  42.3974  42.7699

          k = 0.0000 0.0000-0.2429 (  3690 PWs)   bands (ev):

   -27.9555 -27.9555 -27.7327 -27.7327 -27.5952 -27.5952 -27.4645 -27.4645
    -3.4388  -3.4388  -2.9108  -2.9108  -1.6535  -1.6535  -1.5107  -1.5107
    -1.2346  -1.2346  -0.8019  -0.8019  -0.7843  -0.7843  -0.6829  -0.6829
    -0.5518  -0.5518  -0.2835  -0.2835  -0.1905  -0.1905  -0.0663  -0.0663
     0.4535   0.4535   0.5636   0.5636  14.6819  14.6819  14.8630  14.8630
    15.1581  15.1581  15.3780  15.3780  15.4907  15.4907  16.0162  16.0162
    25.9017  25.9017  26.0350  26.0350  26.6978  26.6978  28.1740  28.1740
    28.2507  28.2507  28.5234  28.5234  29.7377  29.7377  29.8798  29.8798
    29.9015  29.9015  30.5799  30.5799  30.9721  30.9721  31.1807  31.1807
    31.5292  31.5292  32.4907  32.4907  32.5348  32.5348  33.0405  33.0405
    33.3957  33.3957  33.9782  33.9782  34.6203  34.6203  35.5501  35.5501
    35.9049  35.9049  36.5053  36.5053  37.5299  37.5299  37.9005  37.9005
    39.7971  39.7972  40.0153  40.0153  40.4021  40.4022  40.7262  40.7262
    41.0218  41.0218  41.5967  41.5967  43.0496  43.0496

          k = 0.0000 0.2344 0.0000 (  3664 PWs)   bands (ev):

   -27.9513 -27.8444 -27.7627 -27.7530 -27.6288 -27.5280 -27.5187 -27.4768
    -3.7162  -3.6288  -2.9102  -2.5793  -1.6640  -1.4179  -1.3328  -1.2691
    -1.2421  -1.2124  -1.1745  -1.0605  -1.0373  -0.7507  -0.5385  -0.4158
    -0.3922  -0.2515  -0.2481  -0.2039  -0.1697  -0.0635  -0.0252   0.0674
     0.1560   0.4000   0.4244   0.4789  14.5910  14.5994  14.7804  14.7990
    14.9233  14.9807  15.0879  15.2045  15.3905  15.5705  15.7471  15.8939
    26.6499  26.6612  26.7061  26.8048  27.2726  27.3741  27.7336  27.8566
    27.9826  28.0418  28.7964  28.8679  29.1527  29.2077  29.2762  29.8197
    30.3104  30.3986  30.5138  30.5417  30.9553  31.2913  31.6095  31.7523
    31.9039  32.0093  32.3409  32.6355  32.8298  32.8927  32.9784  33.4637
    33.8412  33.9007  34.0913  34.1862  34.4266  34.6137  35.1369  35.8691
    35.8771  35.9956  36.2875  36.8227  36.8697  37.7095  37.8004  37.8137
    38.0810  38.6835  39.0822  39.3460  39.7730  39.8173  40.4588  40.7181
    40.7227  40.9153  41.2005  41.6733  41.7715  42.0387

          k = 0.0000 0.2344 0.1215 (  3669 PWs)   bands (ev):

   -27.9395 -27.8625 -27.7779 -27.7518 -27.6059 -27.5327 -27.5179 -27.4856
    -3.6587  -3.5519  -2.9990  -2.7270  -1.6254  -1.4186  -1.3814  -1.3494
    -1.2633  -1.1546  -1.1418  -1.0374  -0.9130  -0.7038  -0.4950  -0.4611
    -0.3880  -0.3840  -0.3281  -0.2377  -0.1976  -0.0993  -0.0071   0.0780
     0.2295   0.3556   0.4888   0.5651  14.5983  14.6386  14.7220  14.8002
    14.9058  14.9118  15.1208  15.2735  15.3058  15.5253  15.7687  15.8942
    26.4878  26.5051  26.7622  26.9622  27.2559  27.5155  27.6555  28.0638
    28.2419  28.3709  28.6865  28.8260  29.0684  29.3954  29.5190  29.9707
    30.2670  30.2927  30.3929  30.8889  30.9774  31.0186  31.4572  31.5219
    31.6843  32.0766  32.5655  32.6203  32.6326  32.8762  33.0957  33.3745
    33.4672  33.7597  33.9836  34.3384  34.5624  34.7116  34.9958  35.3072
    35.7752  35.9298  36.1500  36.6410  36.8341  37.4090  37.8408  38.2332
    38.5003  38.7769  38.8592  39.5813  39.6882  40.2112  40.2699  40.5814
    40.6331  41.0223  41.3918  41.4208  41.8437  42.1610

          k = 0.0000 0.2344-0.2429 (  3666 PWs)   bands (ev):

   -27.9042 -27.9042 -27.7691 -27.7691 -27.5613 -27.5613 -27.5009 -27.5009
    -3.5192  -3.5192  -2.9921  -2.9921  -1.5157  -1.5157  -1.3847  -1.3847
    -1.1747  -1.1747  -1.0833  -1.0833  -0.7226  -0.7226  -0.5495  -0.5495
    -0.4236  -0.4236  -0.2998  -0.2998  -0.1604  -0.1604   0.0492   0.0492
     0.3023   0.3023   0.5916   0.5916  14.6281  14.6281  14.7625  14.7625
    14.8613  14.8613  15.1856  15.1856  15.4054  15.4054  15.8399  15.8399
    26.4236  26.4236  26.6877  26.6877  27.7556  27.7556  28.0076  28.0076
    28.3193  28.3193  29.0938  29.0938  29.1896  29.1896  29.7439  29.7439
    30.1353  30.1353  30.4842  30.4842  30.8549  30.8549  31.5891  31.5891
    31.8575  31.8575  32.3950  32.3950  33.0109  33.0109  33.0678  33.0678
    33.6880  33.6880  34.2573  34.2573  34.3806  34.3806  35.1047  35.1047
    35.6205  35.6205  36.1360  36.1360  37.1465  37.1465  37.9200  37.9200
    38.8302  38.8302  39.5017  39.5017  39.7098  39.7098  40.3554  40.3554
    41.2406  41.2406  41.6908  41.6908  41.7751  41.7754

          k =-0.4608 0.0000 0.0000 (  3722 PWs)   bands (ev):

   -27.8348 -27.8348 -27.7744 -27.7744 -27.6767 -27.6767 -27.4755 -27.4755
    -3.6576  -3.6576  -3.2928  -3.2928  -1.9638  -1.9638  -1.4654  -1.4654
    -1.3725  -1.3725  -0.9616  -0.9616  -0.9281  -0.9281  -0.5236  -0.5236
    -0.4245  -0.4245  -0.0713  -0.0713   0.0826   0.0826   0.2918   0.2918
     0.4598   0.4598   0.5773   0.5773  14.7754  14.7754  15.2278  15.2278
    15.4322  15.4322  15.6750  15.6750  15.7830  15.7830  15.7977  15.7977
    26.5780  26.5780  27.1066  27.1066  27.7715  27.7715  27.9745  27.9745
    28.3413  28.3413  28.8700  28.8700  29.0344  29.0344  29.3215  29.3215
    29.3813  29.3813  29.5482  29.5482  30.2351  30.2351  30.6115  30.6115
    30.7681  30.7681  31.6137  31.6137  32.5586  32.5586  32.8130  32.8130
    32.8967  32.8967  34.3380  34.3380  35.6717  35.6717  35.7143  35.7143
    36.1259  36.1259  36.9663  36.9663  37.2984  37.2984  38.2609  38.2609
    38.2622  38.2622  38.5402  38.5402  39.8159  39.8160  41.2813  41.2813
    41.3620  41.3620  41.6498  41.6498  42.4053  42.4055

          k =-0.4608 0.0000 0.1215 (  3710 PWs)   bands (ev):

   -27.8325 -27.8325 -27.7733 -27.7733 -27.6720 -27.6720 -27.4745 -27.4745
    -3.6810  -3.6810  -3.2060  -3.2060  -1.8757  -1.8757  -1.6766  -1.6766
    -1.4636  -1.4636  -1.0009  -1.0009  -0.8295  -0.8295  -0.5050  -0.5050
    -0.3512  -0.3512  -0.0688  -0.0688   0.0846   0.0846   0.3509   0.3509
     0.4600   0.4600   0.5720   0.5720  14.7679  14.7679  15.2650  15.2650
    15.4354  15.4354  15.6590  15.6590  15.7122  15.7122  15.7952  15.7952
    26.8385  26.8385  26.8572  26.8572  27.7941  27.7941  28.0071  28.0071
    28.4395  28.4395  28.7973  28.7973  29.1567  29.1567  29.2643  29.2643
    29.5387  29.5387  29.8198  29.8198  30.2483  30.2483  30.4937  30.4937
    30.9730  30.9730  31.3021  31.3021  32.2333  32.2333  32.6107  32.6107
    33.3817  33.3817  34.4325  34.4325  35.0339  35.0339  35.5541  35.5541
    35.6932  35.6932  36.7136  36.7136  38.1563  38.1563  38.1930  38.1930
    38.3181  38.3181  38.8976  38.8976  39.8040  39.8041  40.8407  40.8408
    41.5861  41.5862  41.7407  41.7408  42.2478  42.2482

          k =-0.4608 0.0000-0.2429 (  3680 PWs)   bands (ev):

   -27.8208 -27.8208 -27.7735 -27.7735 -27.6642 -27.6642 -27.4740 -27.4740
    -3.6974  -3.6974  -3.1118  -3.1118  -1.8516  -1.8516  -1.7565  -1.7565
    -1.5507  -1.5507  -0.9834  -0.9834  -0.9049  -0.9049  -0.4231  -0.4231
    -0.2815  -0.2815  -0.0552  -0.0552   0.0932   0.0932   0.4232   0.4232
     0.4941   0.4941   0.5405   0.5405  14.7598  14.7598  15.3125  15.3125
    15.4686  15.4686  15.5564  15.5564  15.7024  15.7024  15.7813  15.7813
    26.6577  26.6577  27.4186  27.4186  27.4425  27.4425  28.1685  28.1685
    28.3175  28.3175  28.7842  28.7841  29.3923  29.3923  29.3972  29.3972
    29.6714  29.6714  29.8027  29.8027  30.0485  30.0485  30.4631  30.4632
    31.1740  31.1740  31.5754  31.5754  32.0338  32.0338  32.2144  32.2144
    33.5230  33.5230  34.2221  34.2221  34.9708  34.9708  34.9859  34.9859
    35.7435  35.7435  36.7207  36.7207  37.4597  37.4597  38.6538  38.6538
    38.7756  38.7756  39.5046  39.5048  39.7130  39.7131  40.3561  40.3562
    41.8264  41.8264  41.9855  41.9858  42.5065  42.6343

          k =-0.4608 0.2344 0.0000 (  3686 PWs)   bands (ev):

   -27.8023 -27.8023 -27.7790 -27.7790 -27.6314 -27.6314 -27.5295 -27.5295
    -3.7184  -3.7184  -3.5624  -3.5624  -1.6894  -1.6894  -1.3698  -1.3698
    -1.0460  -1.0460  -0.8662  -0.8662  -0.7102  -0.7102  -0.6426  -0.6426
    -0.3743  -0.3743  -0.0647  -0.0647  -0.0165  -0.0165   0.1619   0.1619
     0.3673   0.3673   0.5004   0.5004  14.7835  14.7835  14.9465  14.9465
    15.2965  15.2965  15.3950  15.3950  15.6485  15.6485  15.7441  15.7441
    27.2090  27.2090  27.5783  27.5783  28.1006  28.1006  28.2247  28.2247
    28.5547  28.5547  28.5862  28.5862  29.3571  29.3572  29.4611  29.4611
    30.1120  30.1120  30.4188  30.4188  30.4950  30.4950  30.5897  30.5897
    31.2904  31.2904  31.4431  31.4431  32.1723  32.1723  32.8206  32.8206
    33.4575  33.4575  33.9036  33.9036  34.5941  34.5941  35.2183  35.2183
    35.5001  35.5001  36.6748  36.6748  37.1064  37.1064  37.6663  37.6663
    38.5950  38.5950  38.8162  38.8162  39.4316  39.4316  40.2695  40.2695
    40.8434  40.8435  40.9035  40.9036  41.2988  41.2988

          k =-0.4608 0.2344 0.1215 (  3692 PWs)   bands (ev):

   -27.8054 -27.8054 -27.7800 -27.7800 -27.6310 -27.6310 -27.5293 -27.5293
    -3.7186  -3.7186  -3.5223  -3.5223  -1.6917  -1.6917  -1.4980  -1.4980
    -1.1283  -1.1283  -0.9152  -0.9152  -0.6348  -0.6348  -0.5746  -0.5746
    -0.2868  -0.2868  -0.0969  -0.0969  -0.0148  -0.0148   0.1570   0.1570
     0.3821   0.3821   0.5029   0.5029  14.7749  14.7749  14.9742  14.9742
    15.3049  15.3049  15.3924  15.3924  15.6012  15.6012  15.7060  15.7060
    27.2357  27.2357  27.5103  27.5103  27.9960  27.9960  28.4154  28.4154
    28.5456  28.5456  28.9307  28.9307  29.3753  29.3753  29.7289  29.7289
    29.8909  29.8909  30.1969  30.1969  30.4451  30.4451  30.7695  30.7695
    31.1292  31.1292  31.6998  31.6998  32.1898  32.1898  32.7879  32.7879
    33.3962  33.3962  33.8264  33.8264  34.4956  34.4956  34.9582  34.9582
    35.5414  35.5414  36.2968  36.2968  37.4633  37.4633  37.7314  37.7314
    38.2616  38.2616  38.6031  38.6031  39.2213  39.2213  40.0743  40.0743
    40.7450  40.7452  41.0531  41.0531  41.4775  41.4777

          k =-0.4608 0.2344-0.2429 (  3704 PWs)   bands (ev):

   -27.8047 -27.8047 -27.7829 -27.7829 -27.6353 -27.6353 -27.5309 -27.5309
    -3.7191  -3.7191  -3.4850  -3.4850  -1.7665  -1.7665  -1.4049  -1.4049
    -1.3677  -1.3677  -0.9451  -0.9451  -0.5381  -0.5381  -0.5045  -0.5045
    -0.2192  -0.2192  -0.2130  -0.2130   0.0421   0.0421   0.1562   0.1562
     0.4036   0.4036   0.4896   0.4896  14.7651  14.7651  15.0001  15.0001
    15.3464  15.3464  15.3673  15.3673  15.5425  15.5425  15.6683  15.6683
    27.0881  27.0881  27.7005  27.7005  27.9895  27.9895  28.4323  28.4323
    28.9579  28.9579  28.9928  28.9928  29.1323  29.1324  29.7519  29.7519
    29.9310  29.9310  30.2755  30.2755  30.3871  30.3871  30.8684  30.8684
    31.0255  31.0255  32.0178  32.0178  32.0309  32.0309  32.7166  32.7166
    32.8854  32.8854  34.2600  34.2600  34.4920  34.4920  35.0364  35.0364
    35.1921  35.1921  36.0488  36.0488  37.1935  37.1935  37.9285  37.9285
    38.1893  38.1893  38.2177  38.2177  39.3569  39.3570  39.6369  39.6372
    40.6374  40.6374  41.2684  41.2686  42.3048  42.3049

     the Fermi energy is    36.8864 ev

!    total energy              =   -1704.79631282 Ry
     Harris-Foulkes estimate   =   -1704.79637524 Ry
     estimated scf accuracy    <       0.00007099 Ry

     The total energy is the sum of the following terms:

     one-electron contribution =     195.51603360 Ry
     hartree contribution      =     126.52081386 Ry
     xc contribution           =    -195.58830199 Ry
     ewald contribution        =   -1830.85114253 Ry
     smearing contrib. (-TS)   =      -0.39371576 Ry

     convergence has been achieved in   8 iterations

     Forces acting on atoms (Ry/au):

     atom    1 type  1   force =     0.00000000   -0.03719323   -0.06828363
     atom    2 type  1   force =     0.00000000    0.03719323    0.06828363
     atom    3 type  1   force =     0.00000000   -0.03719323    0.06828363
     atom    4 type  1   force =     0.00000000    0.03719323   -0.06828363
     atom    5 type  1   force =     0.00000000    0.08518255   -0.11203634
     atom    6 type  1   force =     0.00000000   -0.08518255    0.11203634
     atom    7 type  1   force =     0.00000000    0.08518255    0.11203634
     atom    8 type  1   force =     0.00000000   -0.08518255   -0.11203634
     atom    9 type  2   force =     0.00000000   -0.08540300   -0.01780485
     atom   10 type  2   force =     0.00000000    0.08540300    0.01780485
     atom   11 type  2   force =     0.00000000   -0.08540300    0.01780485
     atom   12 type  2   force =     0.00000000    0.08540300   -0.01780485

     Total force =     0.365868     Total SCF correction =     0.000000


     entering subroutine stress ...

          total   stress  (Ry/bohr**3)                   (kbar)     P= 2083.90
   0.01481336   0.00000000   0.00000000       2179.12      0.00      0.00
   0.00000000   0.01333321   0.00000000          0.00   1961.38      0.00
   0.00000000   0.00000000   0.01435164          0.00      0.00   2111.20


     number of scf cycles    =   2
     number of bfgs steps    =   1

     enthalpy old            =   -1698.4729065340 Ry
     enthalpy new            =   -1704.7963128193 Ry

     CASE: enthalpy_new < enthalpy_old

     small trust_radius: resetting bfgs history

     new trust radius        =       2.4524823666 bohr
     new conv_thr            =       0.0001000000 Ry

     new unit-cell volume =   2721.95663 a.u.^3 (   403.35235 Ang^3 )

CELL_PARAMETERS (alat=  7.01510508)
   1.486999743   0.000000000   0.000000000
   0.000000000   1.895778139   0.000000000
   0.000000000   0.000000000   2.796921358

ATOMIC_POSITIONS (crystal)
Co       0.750000000   0.822173878   0.430336525
Co       0.250000000   0.177826122   0.569663475
Co       0.750000000   0.322173878   0.069663475
Co       0.250000000   0.677826122   0.930336525
Co       0.250000000   0.546853832   0.273513943
Co       0.750000000   0.453146168   0.726486057
Co       0.250000000   0.046853832   0.226486057
Co       0.750000000   0.953146168   0.773513943
Si       0.250000000   0.192959631   0.892198865
Si       0.750000000   0.807040369   0.107801135
Si       0.250000000   0.692959631   0.607801135
Si       0.750000000   0.307040369   0.392198865



     Writing output data file Prototype-La-oP12-Co2Si.save
     NEW-OLD atomic charge density approx. for the potential
     NEW k-points:
        k(    1) = (   0.0000000   0.0000000   0.0000000), wk =   0.0833333
        k(    2) = (   0.0000000   0.0000000   0.0893840), wk =   0.1666667
        k(    3) = (   0.0000000   0.0000000  -0.1787680), wk =   0.0833333
        k(    4) = (   0.0000000   0.1758293   0.0000000), wk =   0.1666667
        k(    5) = (   0.0000000   0.1758293   0.0893840), wk =   0.3333333
        k(    6) = (   0.0000000   0.1758293  -0.1787680), wk =   0.1666667
        k(    7) = (  -0.3362475   0.0000000   0.0000000), wk =   0.0833333
        k(    8) = (  -0.3362475   0.0000000   0.0893840), wk =   0.1666667
        k(    9) = (  -0.3362475   0.0000000  -0.1787680), wk =   0.0833333
        k(   10) = (  -0.3362475   0.1758293   0.0000000), wk =   0.1666667
        k(   11) = (  -0.3362475   0.1758293   0.0893840), wk =   0.3333333
        k(   12) = (  -0.3362475   0.1758293  -0.1787680), wk =   0.1666667

     total cpu time spent up to now is      241.6 secs

     Self-consistent Calculation

     iteration #  1     ecut=    40.00 Ry     beta=0.70
     CG style diagonalization
     c_bands:  2 eigenvalues not converged
     c_bands:  4 eigenvalues not converged
     c_bands:  1 eigenvalues not converged
     c_bands:  1 eigenvalues not converged
     ethr =  1.00E-06,  avg # of iterations = 27.9

     total cpu time spent up to now is      299.2 secs

     total energy              =   -1604.98578666 Ry
     Harris-Foulkes estimate   =   -1842.95008344 Ry
     estimated scf accuracy    <     308.13985697 Ry

     iteration #  2     ecut=    40.00 Ry     beta=0.70
     CG style diagonalization
     ethr =  1.00E-02,  avg # of iterations =  6.9

     total cpu time spent up to now is      314.7 secs

     total energy              =   -1610.79275104 Ry
     Harris-Foulkes estimate   =   -1761.87026796 Ry
     estimated scf accuracy    <     271.32380686 Ry

     iteration #  3     ecut=    40.00 Ry     beta=0.70
     CG style diagonalization
     c_bands:  1 eigenvalues not converged
     ethr =  1.00E-02,  avg # of iterations =  8.7

     total cpu time spent up to now is      333.8 secs

     total energy              =   -1695.25879687 Ry
     Harris-Foulkes estimate   =   -1719.06899804 Ry
     estimated scf accuracy    <      57.54418947 Ry

     iteration #  4     ecut=    40.00 Ry     beta=0.70
     CG style diagonalization
     ethr =  1.00E-02,  avg # of iterations =  3.7

     total cpu time spent up to now is      342.5 secs

     total energy              =   -1697.19846124 Ry
     Harris-Foulkes estimate   =   -1700.11639295 Ry
     estimated scf accuracy    <      14.18639592 Ry

     iteration #  5     ecut=    40.00 Ry     beta=0.70
     CG style diagonalization
     ethr =  7.71E-03,  avg # of iterations =  3.0

     total cpu time spent up to now is      348.8 secs

     total energy              =   -1695.83898660 Ry
     Harris-Foulkes estimate   =   -1697.70004120 Ry
     estimated scf accuracy    <       7.72775013 Ry

     iteration #  6     ecut=    40.00 Ry     beta=0.70
     CG style diagonalization
     ethr =  4.20E-03,  avg # of iterations =  3.2

     total cpu time spent up to now is      355.6 secs

     total energy              =   -1695.50902984 Ry
     Harris-Foulkes estimate   =   -1696.25159612 Ry
     estimated scf accuracy    <       2.63437696 Ry

     iteration #  7     ecut=    40.00 Ry     beta=0.70
     CG style diagonalization
     ethr =  1.43E-03,  avg # of iterations =  4.3

     total cpu time spent up to now is      365.1 secs

     total energy              =   -1696.06480211 Ry
     Harris-Foulkes estimate   =   -1696.24206959 Ry
     estimated scf accuracy    <       0.56979292 Ry

     iteration #  8     ecut=    40.00 Ry     beta=0.70
     CG style diagonalization
     c_bands:  1 eigenvalues not converged
     c_bands:  2 eigenvalues not converged
     c_bands:  1 eigenvalues not converged
     c_bands:  1 eigenvalues not converged
     ethr =  3.10E-04,  avg # of iterations =  4.3

     total cpu time spent up to now is      374.6 secs

     total energy              =   -1696.20540017 Ry
     Harris-Foulkes estimate   =   -1696.28157279 Ry
     estimated scf accuracy    <       0.28970081 Ry

     iteration #  9     ecut=    40.00 Ry     beta=0.70
     CG style diagonalization
     c_bands:  1 eigenvalues not converged
     c_bands:  1 eigenvalues not converged
     c_bands:  1 eigenvalues not converged
     ethr =  1.57E-04,  avg # of iterations =  3.4

     total cpu time spent up to now is      382.1 secs

     total energy              =   -1696.24581049 Ry
     Harris-Foulkes estimate   =   -1696.24882198 Ry
     estimated scf accuracy    <       0.01402985 Ry

     iteration # 10     ecut=    40.00 Ry     beta=0.70
     CG style diagonalization
     c_bands:  2 eigenvalues not converged
     c_bands:  2 eigenvalues not converged
     c_bands:  1 eigenvalues not converged
     c_bands:  1 eigenvalues not converged
     c_bands:  2 eigenvalues not converged
     c_bands:  2 eigenvalues not converged
     ethr =  7.62E-06,  avg # of iterations =  5.2

     total cpu time spent up to now is      393.5 secs

     total energy              =   -1696.24767517 Ry
     Harris-Foulkes estimate   =   -1696.25414745 Ry
     estimated scf accuracy    <       0.02428907 Ry

     iteration # 11     ecut=    40.00 Ry     beta=0.70
     CG style diagonalization
     c_bands:  1 eigenvalues not converged
     c_bands:  1 eigenvalues not converged
     ethr =  7.62E-06,  avg # of iterations =  3.6

     total cpu time spent up to now is      401.1 secs

     total energy              =   -1696.25057135 Ry
     Harris-Foulkes estimate   =   -1696.25075562 Ry
     estimated scf accuracy    <       0.00047863 Ry

     iteration # 12     ecut=    40.00 Ry     beta=0.70
     CG style diagonalization
     c_bands:  1 eigenvalues not converged
     c_bands:  1 eigenvalues not converged
     c_bands:  2 eigenvalues not converged
     c_bands:  1 eigenvalues not converged
     ethr =  2.60E-07,  avg # of iterations =  5.4

     total cpu time spent up to now is      413.1 secs

     total energy              =   -1696.25080804 Ry
     Harris-Foulkes estimate   =   -1696.25133691 Ry
     estimated scf accuracy    <       0.00269599 Ry

     iteration # 13     ecut=    40.00 Ry     beta=0.70
     CG style diagonalization
     c_bands:  1 eigenvalues not converged
     ethr =  2.60E-07,  avg # of iterations =  3.7

     total cpu time spent up to now is      420.5 secs

     total energy              =   -1696.25084820 Ry
     Harris-Foulkes estimate   =   -1696.25096148 Ry
     estimated scf accuracy    <       0.00034647 Ry

     iteration # 14     ecut=    40.00 Ry     beta=0.70
     CG style diagonalization
     c_bands:  1 eigenvalues not converged
     c_bands:  1 eigenvalues not converged
     ethr =  1.88E-07,  avg # of iterations =  3.8

     total cpu time spent up to now is      428.2 secs

     End of self-consistent calculation

          k = 0.0000 0.0000 0.0000 (  3675 PWs)   bands (ev):

   -47.1424 -47.1037 -47.0793 -47.0093 -46.9987 -46.9199 -46.8890 -46.8358
   -27.0703 -27.0667 -27.0567 -27.0530 -21.5486 -21.5382 -21.5248 -21.5211
   -21.5208 -21.5150 -21.5137 -21.4968 -21.4939 -21.4874 -21.4830 -21.4818
   -21.4797 -21.4755 -21.4605 -21.4504 -21.4470 -21.4413 -21.4393 -21.4209
   -21.4208 -21.4141 -21.3969 -21.3880  -7.9673  -7.9350  -7.9112  -7.8901
    -7.8737  -7.8687  -7.8684  -7.8575  -7.8574  -7.8447  -7.8437  -7.8043
     8.0903   8.7422   8.9595   9.0020   9.0404   9.0486   9.0868   9.0906
     9.1206   9.1972   9.2399   9.4055   9.4348   9.4783   9.5174   9.6931
     9.7867   9.8134   9.9091   9.9653  10.0468  10.0888  10.1180  10.1198
    10.1868  10.3255  10.3437  10.3742  10.4813  10.4923  10.5318  10.5881
    10.6143  10.6422  10.7481  10.7777  10.8983  11.0764  11.2925  11.2930
    11.3780  11.3848  11.4569  11.5547  12.1070  12.4256  12.4384  12.7013
    12.7491  13.0481  13.2469  13.5399  13.5486  13.5785  13.6182  13.6868
    13.8305  13.9039  14.2153  14.2501  14.2745  14.2852

          k = 0.0000 0.0000 0.0894 (  3675 PWs)   bands (ev):

   -47.1536 -47.1252 -47.1097 -46.9961 -46.9413 -46.9283 -46.9118 -46.8066
   -27.0757 -27.0670 -27.0633 -27.0382 -21.5460 -21.5338 -21.5326 -21.5286
   -21.5218 -21.5203 -21.5180 -21.5038 -21.4931 -21.4912 -21.4861 -21.4757
   -21.4748 -21.4682 -21.4635 -21.4477 -21.4450 -21.4418 -21.4313 -21.4189
   -21.4171 -21.4146 -21.4032 -21.3908  -7.9633  -7.9434  -7.9397  -7.9023
    -7.8931  -7.8803  -7.8552  -7.8384  -7.8353  -7.8300  -7.8217  -7.8188
     8.2169   8.7961   8.8958   8.9012   8.9616   8.9948   9.0340   9.0698
     9.2219   9.2326   9.2951   9.3146   9.5093   9.5955   9.6499   9.6868
     9.6880   9.7741   9.9027  10.0321  10.0458  10.0512  10.0531  10.0808
    10.0873  10.2321  10.3274  10.3395  10.3995  10.4925  10.5305  10.5534
    10.7198  10.7614  10.8622  10.9319  11.0049  11.0485  11.1442  11.2437
    11.3361  11.3590  11.4435  11.5500  12.0330  12.0335  12.7120  12.7683
    12.9997  13.0701  13.1759  13.4382  13.5295  13.5384  13.6147  13.6244
    13.7000  13.7142  14.0928  14.2768  14.3420  14.4255

          k = 0.0000 0.0000-0.1788 (  3690 PWs)   bands (ev):

   -47.1821 -47.1821 -47.0540 -47.0540 -46.9767 -46.9767 -46.8851 -46.8851
   -27.0768 -27.0768 -27.0598 -27.0598 -21.5463 -21.5463 -21.5267 -21.5267
   -21.5266 -21.5266 -21.5240 -21.5240 -21.4913 -21.4913 -21.4849 -21.4849
   -21.4651 -21.4651 -21.4602 -21.4602 -21.4529 -21.4529 -21.4339 -21.4339
   -21.4170 -21.4170 -21.4052 -21.4052  -7.9818  -7.9818  -7.9298  -7.9298
    -7.8930  -7.8930  -7.8481  -7.8481  -7.8350  -7.8350  -7.8225  -7.8225
     8.5413   8.5413   8.8136   8.8136   8.9674   8.9674   9.0115   9.0115
     9.3477   9.3477   9.3998   9.3998   9.4407   9.4407   9.6943   9.6943
     9.7537   9.7537   9.8500   9.8500  10.0108  10.0108  10.0579  10.0579
    10.1742  10.1742  10.3213  10.3213  10.5260  10.5260  10.5263  10.5263
    10.7621  10.7621  10.9658  10.9658  11.0246  11.0246  11.1403  11.1403
    11.3887  11.3887  11.4181  11.4181  11.8671  11.8671  13.0047  13.0047
    13.0897  13.0897  13.1451  13.1451  13.3695  13.3695  13.5857  13.5857
    13.7273  13.7273  14.1923  14.1923  14.3297  14.3298

          k = 0.0000 0.1758 0.0000 (  3664 PWs)   bands (ev):

   -47.1242 -47.0744 -47.0671 -47.0304 -46.9339 -46.8771 -46.8522 -46.8346
   -27.0840 -27.0718 -27.0323 -27.0277 -21.5260 -21.5235 -21.5185 -21.5184
   -21.5165 -21.5083 -21.5051 -21.5048 -21.5048 -21.4937 -21.4872 -21.4816
   -21.4803 -21.4552 -21.4539 -21.4523 -21.4415 -21.4360 -21.4303 -21.4303
   -21.4158 -21.4119 -21.4099 -21.4021  -7.9535  -7.9386  -7.9192  -7.9124
    -7.8896  -7.8768  -7.8676  -7.8530  -7.8253  -7.8162  -7.8118  -7.7991
     8.5383   8.9854   9.0995   9.1816   9.1869   9.2009   9.2248   9.2393
     9.3597   9.3631   9.3906   9.3909   9.4787   9.5475   9.6152   9.6360
     9.6550   9.6976   9.7381   9.9284   9.9511   9.9672  10.0584  10.0852
    10.2617  10.3049  10.3239  10.3571  10.4203  10.5297  10.5983  10.6119
    10.6690  10.6944  10.7794  10.7990  10.9303  11.0500  11.0721  11.2091
    11.3510  11.3672  11.4276  11.4358  11.9709  12.1660  12.2612  12.5229
    12.6879  12.7684  12.8769  13.0767  13.1023  13.3615  13.5006  13.6111
    13.6925  13.7948  13.9317  13.9543  14.0864  14.1012

          k = 0.0000 0.1758 0.0894 (  3669 PWs)   bands (ev):

   -47.1637 -47.0818 -47.0577 -47.0151 -46.9504 -46.9108 -46.8647 -46.8368
   -27.0771 -27.0682 -27.0502 -27.0355 -21.5370 -21.5257 -21.5232 -21.5195
   -21.5193 -21.5128 -21.5092 -21.4998 -21.4964 -21.4933 -21.4902 -21.4859
   -21.4844 -21.4608 -21.4505 -21.4422 -21.4417 -21.4332 -21.4318 -21.4266
   -21.4179 -21.4169 -21.4138 -21.4045  -7.9704  -7.9472  -7.9300  -7.9146
    -7.8842  -7.8750  -7.8597  -7.8525  -7.8472  -7.8150  -7.8038  -7.8026
     8.6440   8.9875   9.0289   9.1087   9.1455   9.2024   9.2317   9.2739
     9.3558   9.3933   9.4178   9.4744   9.5508   9.5524   9.5963   9.6415
     9.6603   9.6981   9.7499   9.9468   9.9596   9.9788  10.0068  10.0975
    10.2478  10.2492  10.2959  10.3512  10.4228  10.4951  10.5566  10.6353
    10.6433  10.6714  10.7761  10.7810  10.9352  11.0086  11.0518  11.1182
    11.2626  11.3477  11.4149  11.4170  11.7844  12.1862  12.5315  12.6222
    12.7387  12.7982  12.8232  13.0318  13.0397  13.2101  13.4768  13.5827
    13.7785  13.8495  13.9112  13.9919  14.1286  14.1433

          k = 0.0000 0.1758-0.1788 (  3666 PWs)   bands (ev):

   -47.0798 -47.0798 -47.0068 -47.0068 -46.9403 -46.9403 -46.8903 -46.8903
   -27.0632 -27.0632 -27.0493 -27.0493 -21.5264 -21.5264 -21.5168 -21.5168
   -21.5156 -21.5156 -21.5057 -21.5057 -21.4901 -21.4901 -21.4868 -21.4868
   -21.4741 -21.4741 -21.4457 -21.4457 -21.4393 -21.4393 -21.4240 -21.4240
   -21.4225 -21.4225 -21.4104 -21.4104  -7.9640  -7.9640  -7.9146  -7.9146
    -7.8659  -7.8659  -7.8468  -7.8468  -7.8383  -7.8383  -7.8123  -7.8123
     8.9022   8.9022   8.9903   8.9903   9.1352   9.1352   9.2822   9.2822
     9.3646   9.3646   9.5256   9.5256   9.5395   9.5395   9.6405   9.6405
     9.6605   9.6605   9.8853   9.8853  10.0348  10.0348  10.0520  10.0520
    10.1037  10.1037  10.3426  10.3426  10.4902  10.4902  10.5347  10.5347
    10.6643  10.6643  10.8338  10.8338  10.8865  10.8865  11.0561  11.0562
    11.2052  11.2052  11.3799  11.3799  11.9906  11.9906  12.7403  12.7403
    12.8434  12.8434  12.9029  12.9029  12.9425  12.9425  13.5251  13.5251
    13.8580  13.8580  13.9933  13.9933  14.0871  14.0871

          k =-0.3362 0.0000 0.0000 (  3722 PWs)   bands (ev):

   -47.1598 -47.1598 -47.1305 -47.1305 -47.0608 -47.0608 -47.0447 -47.0447
   -27.0962 -27.0962 -27.0942 -27.0942 -21.5533 -21.5533 -21.5390 -21.5390
   -21.5375 -21.5375 -21.5264 -21.5264 -21.5059 -21.5059 -21.4819 -21.4819
   -21.4790 -21.4790 -21.4701 -21.4701 -21.4551 -21.4551 -21.4409 -21.4409
   -21.4174 -21.4174 -21.3970 -21.3970  -7.9674  -7.9674  -7.9422  -7.9422
    -7.9072  -7.9072  -7.8912  -7.8912  -7.8762  -7.8762  -7.8464  -7.8464
     8.8196   8.8196   8.9973   8.9973   9.1462   9.1462   9.1563   9.1563
     9.3470   9.3470   9.5182   9.5182   9.6352   9.6352   9.7248   9.7248
     9.7325   9.7325   9.8425   9.8425   9.8540   9.8540   9.9943   9.9943
    10.1529  10.1529  10.3302  10.3302  10.4322  10.4322  10.6545  10.6545
    10.6617  10.6617  10.7043  10.7043  10.9780  10.9780  11.2725  11.2725
    11.4894  11.4894  11.8762  11.8762  11.9672  11.9672  12.7040  12.7040
    12.8951  12.8951  13.1740  13.1740  13.3943  13.3943  13.4798  13.4798
    13.5917  13.5917  13.8625  13.8625  14.0791  14.0791

          k =-0.3362 0.0000 0.0894 (  3710 PWs)   bands (ev):

   -47.1188 -47.1188 -47.1017 -47.1017 -47.0710 -47.0710 -46.9978 -46.9978
   -27.0897 -27.0897 -27.0832 -27.0832 -21.5493 -21.5493 -21.5369 -21.5369
   -21.5342 -21.5342 -21.5218 -21.5218 -21.5037 -21.5037 -21.4832 -21.4832
   -21.4769 -21.4769 -21.4606 -21.4606 -21.4535 -21.4535 -21.4341 -21.4341
   -21.4197 -21.4197 -21.4015 -21.4015  -7.9610  -7.9610  -7.9187  -7.9187
    -7.9036  -7.9036  -7.8963  -7.8963  -7.8641  -7.8641  -7.8450  -7.8450
     8.8566   8.8566   8.9619   8.9619   9.1809   9.1809   9.2869   9.2869
     9.2899   9.2899   9.4824   9.4824   9.5884   9.5884   9.6678   9.6678
     9.7925   9.7925   9.9161   9.9161   9.9417   9.9417  10.0309  10.0309
    10.1746  10.1746  10.2569  10.2569  10.4496  10.4496  10.5362  10.5362
    10.6003  10.6003  10.6835  10.6835  10.9705  10.9705  11.1585  11.1585
    11.4727  11.4727  11.5336  11.5336  12.3297  12.3297  12.9614  12.9614
    12.9686  12.9686  13.1974  13.1974  13.2594  13.2594  13.3796  13.3796
    13.6309  13.6309  13.8012  13.8012  14.2228  14.2235

          k =-0.3362 0.0000-0.1788 (  3680 PWs)   bands (ev):

   -47.0856 -47.0856 -47.0425 -47.0425 -46.9636 -46.9636 -46.9451 -46.9451
   -27.0714 -27.0714 -27.0614 -27.0614 -21.5519 -21.5519 -21.5309 -21.5309
   -21.5247 -21.5247 -21.5049 -21.5049 -21.4957 -21.4957 -21.4750 -21.4750
   -21.4732 -21.4732 -21.4553 -21.4553 -21.4497 -21.4497 -21.4300 -21.4300
   -21.4086 -21.4086 -21.3957 -21.3957  -7.9530  -7.9530  -7.9182  -7.9182
    -7.8819  -7.8819  -7.8731  -7.8731  -7.8465  -7.8465  -7.8151  -7.8151
     8.8569   8.8569   9.0898   9.0898   9.1103   9.1103   9.2362   9.2362
     9.3870   9.3870   9.4302   9.4302   9.6642   9.6642   9.7478   9.7478
     9.8031   9.8031   9.9457   9.9457   9.9817   9.9817  10.0021  10.0021
    10.1869  10.1869  10.2142  10.2142  10.2508  10.2508  10.5228  10.5228
    10.5741  10.5741  10.7416  10.7416  10.9364  10.9364  11.1560  11.1560
    11.3815  11.3815  11.4526  11.4526  12.4642  12.4642  13.0563  13.0563
    13.0687  13.0687  13.2034  13.2034  13.2224  13.2224  13.2610  13.2610
    13.7116  13.7116  13.9905  13.9905  14.0362  14.0362

          k =-0.3362 0.1758 0.0000 (  3686 PWs)   bands (ev):

   -47.0602 -47.0602 -47.0524 -47.0524 -47.0336 -47.0336 -46.9735 -46.9735
   -27.0833 -27.0833 -27.0676 -27.0676 -21.5331 -21.5331 -21.5296 -21.5296
   -21.5219 -21.5219 -21.5000 -21.5000 -21.4964 -21.4964 -21.4780 -21.4780
   -21.4698 -21.4698 -21.4595 -21.4595 -21.4507 -21.4507 -21.4372 -21.4372
   -21.4089 -21.4089 -21.4078 -21.4078  -7.9444  -7.9444  -7.9268  -7.9268
    -7.8911  -7.8911  -7.8686  -7.8686  -7.8479  -7.8479  -7.8437  -7.8437
     9.0298   9.0298   9.2208   9.2208   9.3016   9.3016   9.3560   9.3560
     9.5551   9.5551   9.5559   9.5559   9.8108   9.8108   9.8270   9.8270
     9.8516   9.8516   9.9322   9.9322   9.9588   9.9588  10.0608  10.0608
    10.1226  10.1226  10.1325  10.1325  10.3014  10.3014  10.4612  10.4612
    10.5627  10.5627  10.8560  10.8560  10.8642  10.8642  11.0185  11.0185
    11.2157  11.2157  11.6771  11.6771  12.0468  12.0468  12.2431  12.2431
    12.8225  12.8225  12.8679  12.8679  13.3155  13.3155  13.3885  13.3885
    13.5635  13.5635  13.7230  13.7230  13.9006  13.9006

          k =-0.3362 0.1758 0.0894 (  3692 PWs)   bands (ev):

   -47.0745 -47.0745 -47.0470 -47.0470 -47.0312 -47.0312 -47.0057 -47.0057
   -27.0879 -27.0879 -27.0676 -27.0676 -21.5342 -21.5342 -21.5298 -21.5298
   -21.5212 -21.5212 -21.5088 -21.5088 -21.4955 -21.4955 -21.4809 -21.4809
   -21.4714 -21.4714 -21.4582 -21.4582 -21.4487 -21.4487 -21.4424 -21.4424
   -21.4127 -21.4127 -21.4102 -21.4102  -7.9677  -7.9677  -7.9284  -7.9284
    -7.8835  -7.8835  -7.8768  -7.8768  -7.8484  -7.8484  -7.8367  -7.8367
     9.0715   9.0715   9.1503   9.1503   9.3931   9.3931   9.4483   9.4483
     9.5347   9.5347   9.5967   9.5967   9.6362   9.6362   9.7911   9.7911
     9.8548   9.8548   9.9576   9.9576  10.0123  10.0123  10.0619  10.0619
    10.1428  10.1428  10.1842  10.1842  10.3433  10.3433  10.4066  10.4066
    10.5822  10.5822  10.7437  10.7437  10.8561  10.8561  10.9769  10.9769
    11.1985  11.1985  11.3969  11.3969  12.1323  12.1323  12.3902  12.3902
    12.7963  12.7963  12.9447  12.9447  13.1881  13.1881  13.4549  13.4549
    13.5717  13.5717  13.7924  13.7925  13.8647  13.8647

          k =-0.3362 0.1758-0.1788 (  3704 PWs)   bands (ev):

   -47.1001 -47.1001 -47.0864 -47.0864 -47.0387 -47.0387 -47.0260 -47.0260
   -27.0987 -27.0987 -27.0701 -27.0701 -21.5395 -21.5395 -21.5350 -21.5350
   -21.5190 -21.5190 -21.5084 -21.5084 -21.5065 -21.5065 -21.4812 -21.4812
   -21.4770 -21.4770 -21.4625 -21.4625 -21.4505 -21.4505 -21.4446 -21.4446
   -21.4157 -21.4157 -21.4139 -21.4139  -7.9856  -7.9856  -7.9465  -7.9465
    -7.8830  -7.8830  -7.8810  -7.8810  -7.8585  -7.8585  -7.8275  -7.8275
     9.0491   9.0491   9.2927   9.2927   9.3052   9.3052   9.4742   9.4742
     9.5094   9.5094   9.6497   9.6497   9.7342   9.7342   9.7512   9.7512
     9.8296   9.8296   9.9238   9.9238   9.9654   9.9654  10.0386  10.0386
    10.1259  10.1259  10.2383  10.2383  10.3496  10.3496  10.4839  10.4839
    10.5106  10.5106  10.7220  10.7220  10.8221  10.8221  10.9280  10.9280
    11.1254  11.1254  11.2819  11.2819  12.1456  12.1456  12.4345  12.4345
    12.8618  12.8618  12.9426  12.9426  13.1705  13.1705  13.3772  13.3772
    13.6503  13.6503  13.7965  13.7965  13.9692  13.9692

     the Fermi energy is    11.9930 ev

!    total energy              =   -1696.25089204 Ry
     Harris-Foulkes estimate   =   -1696.25093977 Ry
     estimated scf accuracy    <       0.00005175 Ry

     The total energy is the sum of the following terms:

     one-electron contribution =    -466.71930977 Ry
     hartree contribution      =     303.54763288 Ry
     xc contribution           =    -179.85525784 Ry
     ewald contribution        =   -1352.16244425 Ry
     smearing contrib. (-TS)   =      -1.06151306 Ry

     convergence has been achieved in  14 iterations

     Forces acting on atoms (Ry/au):

     atom    1 type  1   force =     0.00000000   -0.00774970   -0.00064071
     atom    2 type  1   force =     0.00000000    0.00774970    0.00064071
     atom    3 type  1   force =     0.00000000   -0.00774970    0.00064071
     atom    4 type  1   force =     0.00000000    0.00774970   -0.00064071
     atom    5 type  1   force =     0.00000000   -0.00231833    0.00956785
     atom    6 type  1   force =     0.00000000    0.00231833   -0.00956785
     atom    7 type  1   force =     0.00000000   -0.00231833   -0.00956785
     atom    8 type  1   force =     0.00000000    0.00231833    0.00956785
     atom    9 type  2   force =     0.00000000   -0.00301650   -0.00232603
     atom   10 type  2   force =     0.00000000    0.00301650    0.00232603
     atom   11 type  2   force =     0.00000000   -0.00301650    0.00232603
     atom   12 type  2   force =     0.00000000    0.00301650   -0.00232603

     Total force =     0.026222     Total SCF correction =     0.000000


     entering subroutine stress ...

          total   stress  (Ry/bohr**3)                   (kbar)     P=-1303.34
  -0.00905314   0.00000000   0.00000000      -1331.76      0.00      0.00
   0.00000000  -0.00863577   0.00000000          0.00  -1270.37      0.00
   0.00000000   0.00000000  -0.00889083          0.00      0.00  -1307.89


     number of scf cycles    =   3
     number of bfgs steps    =   2

     enthalpy old            =   -1704.7963128193 Ry
     enthalpy new            =   -1696.2508920440 Ry

     CASE: enthalpy_new > enthalpy_old

     new trust radius        =       0.9320717333 bohr

     trust_radius < trust_radius_min

     resetting bfgs history

     Message from routine bfgs:
     history already reset at previous step: stopping
     new conv_thr            =       0.0001000000 Ry

     new unit-cell volume =   1310.92773 a.u.^3 (   194.25944 Ang^3 )

CELL_PARAMETERS (alat=  7.01510508)
   1.156390793   0.000000000   0.000000000
   0.000000000   1.501394114   0.000000000
   0.000000000   0.000000000   2.187141460

ATOMIC_POSITIONS (crystal)
Co       0.750000000   0.825411071   0.434464961
Co       0.250000000   0.174588929   0.565535039
Co       0.750000000   0.325411071   0.065535039
Co       0.250000000   0.674588929   0.934464961
Co       0.250000000   0.539439786   0.280287672
Co       0.750000000   0.460560214   0.719712328
Co       0.250000000   0.039439786   0.219712328
Co       0.750000000   0.960560214   0.780287672
Si       0.250000000   0.200392864   0.893275348
Si       0.750000000   0.799607136   0.106724652
Si       0.250000000   0.700392864   0.606724652
Si       0.750000000   0.299607136   0.393275348



     Writing output data file Prototype-La-oP12-Co2Si.save
     NEW-OLD atomic charge density approx. for the potential
     NEW k-points:
        k(    1) = (   0.0000000   0.0000000   0.0000000), wk =   0.0833333
        k(    2) = (   0.0000000   0.0000000   0.1143044), wk =   0.1666667
        k(    3) = (   0.0000000   0.0000000  -0.2286089), wk =   0.0833333
        k(    4) = (   0.0000000   0.2220159   0.0000000), wk =   0.1666667
        k(    5) = (   0.0000000   0.2220159   0.1143044), wk =   0.3333333
        k(    6) = (   0.0000000   0.2220159  -0.2286089), wk =   0.1666667
        k(    7) = (  -0.4323798   0.0000000   0.0000000), wk =   0.0833333
        k(    8) = (  -0.4323798   0.0000000   0.1143044), wk =   0.1666667
        k(    9) = (  -0.4323798   0.0000000  -0.2286089), wk =   0.0833333
        k(   10) = (  -0.4323798   0.2220159   0.0000000), wk =   0.1666667
        k(   11) = (  -0.4323798   0.2220159   0.1143044), wk =   0.3333333
        k(   12) = (  -0.4323798   0.2220159  -0.2286089), wk =   0.1666667

     total cpu time spent up to now is      431.5 secs

     Self-consistent Calculation

     iteration #  1     ecut=    40.00 Ry     beta=0.70
     CG style diagonalization
     c_bands:  3 eigenvalues not converged
     c_bands:  1 eigenvalues not converged
     c_bands:  1 eigenvalues not converged
     c_bands:  1 eigenvalues not converged
     c_bands:  1 eigenvalues not converged
     c_bands:  4 eigenvalues not converged
     c_bands:  3 eigenvalues not converged
     c_bands:  2 eigenvalues not converged
     ethr =  1.00E-06,  avg # of iterations = 32.6

     total cpu time spent up to now is      508.9 secs

     total energy              =   -1637.02682698 Ry
     Harris-Foulkes estimate   =   -1812.51485916 Ry
     estimated scf accuracy    <     221.11287584 Ry

     iteration #  2     ecut=    40.00 Ry     beta=0.70
     CG style diagonalization
     ethr =  1.00E-02,  avg # of iterations =  7.4

     total cpu time spent up to now is      527.9 secs

     total energy              =   -1684.92058522 Ry
     Harris-Foulkes estimate   =   -1737.84341177 Ry
     estimated scf accuracy    <      84.82019181 Ry

     iteration #  3     ecut=    40.00 Ry     beta=0.70
     CG style diagonalization
     ethr =  1.00E-02,  avg # of iterations =  4.9

     total cpu time spent up to now is      539.8 secs

     total energy              =   -1703.41854678 Ry
     Harris-Foulkes estimate   =   -1707.97499631 Ry
     estimated scf accuracy    <       8.01601441 Ry

     iteration #  4     ecut=    40.00 Ry     beta=0.70
     CG style diagonalization
     ethr =  4.36E-03,  avg # of iterations =  3.9

     total cpu time spent up to now is      549.5 secs

     total energy              =   -1705.79757514 Ry
     Harris-Foulkes estimate   =   -1706.95570441 Ry
     estimated scf accuracy    <       2.65376749 Ry

     iteration #  5     ecut=    40.00 Ry     beta=0.70
     CG style diagonalization
     ethr =  1.44E-03,  avg # of iterations =  3.6

     total cpu time spent up to now is      557.8 secs

     total energy              =   -1706.32306791 Ry
     Harris-Foulkes estimate   =   -1706.38993215 Ry
     estimated scf accuracy    <       0.11453893 Ry

     iteration #  6     ecut=    40.00 Ry     beta=0.70
     CG style diagonalization
     c_bands:  1 eigenvalues not converged
     c_bands:  1 eigenvalues not converged
     ethr =  6.22E-05,  avg # of iterations =  4.9

     total cpu time spent up to now is      570.3 secs

     total energy              =   -1706.36914742 Ry
     Harris-Foulkes estimate   =   -1706.41015339 Ry
     estimated scf accuracy    <       0.11385149 Ry

     iteration #  7     ecut=    40.00 Ry     beta=0.70
     CG style diagonalization
     ethr =  6.19E-05,  avg # of iterations =  3.3

     total cpu time spent up to now is      577.5 secs

     total energy              =   -1706.38433830 Ry
     Harris-Foulkes estimate   =   -1706.38869309 Ry
     estimated scf accuracy    <       0.01041749 Ry

     iteration #  8     ecut=    40.00 Ry     beta=0.70
     CG style diagonalization
     c_bands:  1 eigenvalues not converged
     c_bands:  1 eigenvalues not converged
     c_bands:  2 eigenvalues not converged
     c_bands:  1 eigenvalues not converged
     ethr =  5.66E-06,  avg # of iterations =  4.1

     total cpu time spent up to now is      587.0 secs

     total energy              =   -1706.38640631 Ry
     Harris-Foulkes estimate   =   -1706.38670513 Ry
     estimated scf accuracy    <       0.00062028 Ry

     iteration #  9     ecut=    40.00 Ry     beta=0.70
     CG style diagonalization
     ethr =  3.37E-07,  avg # of iterations =  4.4

     total cpu time spent up to now is      597.0 secs

     total energy              =   -1706.38664989 Ry
     Harris-Foulkes estimate   =   -1706.38672048 Ry
     estimated scf accuracy    <       0.00015396 Ry

     iteration # 10     ecut=    40.00 Ry     beta=0.70
     CG style diagonalization
     ethr =  8.37E-08,  avg # of iterations =  3.7

     total cpu time spent up to now is      604.9 secs

     End of self-consistent calculation

          k = 0.0000 0.0000 0.0000 (  3675 PWs)   bands (ev):

   -33.5795 -33.4958 -33.4900 -33.4805 -33.4406 -33.3672 -33.2943 -33.2923
    -8.8441  -8.7626  -8.5910  -8.4448  -6.8032  -6.6291  -6.6190  -6.5852
    -6.4857  -6.3970  -6.3732  -6.3700  -6.2998  -6.1100  -6.0971  -6.0632
    -6.0623  -6.0525  -6.0035  -5.9437  -5.8421  -5.8035  -5.7932  -5.7670
    -5.7518  -5.6482  -5.4154  -5.3304   9.0310   9.1903   9.2166   9.2643
     9.3325   9.4201   9.4794   9.5193   9.5431   9.7367   9.7559  10.0411
    21.3271  21.6043  21.6286  22.0735  22.0805  22.1851  22.2412  22.5455
    22.6858  23.1870  23.2978  23.4847  23.8731  23.9419  24.1551  24.2635
    24.4077  24.5929  24.8212  25.2568  25.4806  25.7158  25.9172  26.0896
    26.1599  26.2251  26.2941  26.4359  26.5336  26.5545  26.9236  27.1121
    27.3774  27.4062  27.6681  27.7097  28.0088  28.3053  28.4882  28.9971
    29.3898  29.6715  29.6727  29.6853  30.4903  30.8123  31.3026  31.5794
    31.6869  31.9297  32.1261  32.4919  33.3635  33.5555  33.7192  33.7310
    34.0759  34.5563  35.1530  35.2180  35.2521  35.3385

          k = 0.0000 0.0000 0.1143 (  3675 PWs)   bands (ev):

   -33.5687 -33.5157 -33.4896 -33.4799 -33.4269 -33.3888 -33.2997 -33.2708
    -8.8136  -8.7117  -8.6331  -8.4868  -6.7681  -6.6638  -6.5959  -6.5826
    -6.5424  -6.4596  -6.3930  -6.2933  -6.2768  -6.1674  -6.1117  -6.1057
    -6.0543  -6.0386  -5.9966  -5.9466  -5.8920  -5.8039  -5.7915  -5.7898
    -5.6002  -5.5972  -5.4089  -5.3574   9.0714   9.1819   9.2007   9.2716
     9.3089   9.3975   9.4885   9.5323   9.5569   9.6548   9.8260  10.0026
    21.4216  21.5023  21.7815  21.8009  21.8365  22.1646  22.5484  22.7313
    22.9313  23.2104  23.4339  23.7751  23.9534  23.9854  24.3050  24.3667
    24.4360  24.5773  24.8640  25.2839  25.3904  25.5808  25.6162  25.6891
    25.7768  25.8205  26.2617  26.4357  26.4985  26.6169  26.7543  26.9486
    27.3994  27.4154  27.8237  27.9882  28.1499  28.4963  28.7164  28.8337
    29.0166  29.0663  29.7819  29.9741  30.5135  30.5319  31.4699  31.4830
    31.5959  32.2459  32.4164  32.9058  33.1709  33.3001  33.6522  33.8852
    34.0872  34.3177  34.3342  34.8740  35.3304  35.5999

          k = 0.0000 0.0000-0.2286 (  3690 PWs)   bands (ev):

   -33.5607 -33.5607 -33.4876 -33.4876 -33.4001 -33.4001 -33.2922 -33.2922
    -8.7313  -8.7313  -8.5972  -8.5972  -6.6846  -6.6846  -6.6300  -6.6300
    -6.5126  -6.5126  -6.3293  -6.3293  -6.2119  -6.2119  -6.1683  -6.1683
    -6.0336  -6.0336  -5.9795  -5.9795  -5.8742  -5.8742  -5.7919  -5.7919
    -5.5765  -5.5765  -5.3934  -5.3934   9.1655   9.1655   9.1838   9.1838
     9.3546   9.3546   9.5447   9.5447   9.5559   9.5559   9.9127   9.9127
    21.5169  21.5169  21.5488  21.5488  22.0619  22.0619  23.1835  23.1835
    23.2080  23.2080  23.4825  23.4825  23.9447  23.9447  24.4669  24.4669
    24.5577  24.5577  24.8496  24.8496  25.3456  25.3456  25.4573  25.4573
    25.5719  25.5719  26.5315  26.5315  26.5849  26.5849  26.9052  26.9052
    27.2716  27.2716  27.7172  27.7172  28.2895  28.2895  28.8394  28.8394
    29.1586  29.1586  29.6844  29.6844  30.3270  30.3270  31.4571  31.4571
    32.6905  32.6906  32.8526  32.8526  32.9280  32.9281  33.6716  33.6716
    33.6753  33.6753  34.4260  34.4261  35.5242  35.5249

          k = 0.0000 0.2220 0.0000 (  3664 PWs)   bands (ev):

   -33.5467 -33.5116 -33.4803 -33.4685 -33.3992 -33.3601 -33.3308 -33.3053
    -8.9163  -8.8863  -8.5446  -8.4728  -6.6919  -6.5798  -6.5109  -6.4743
    -6.4652  -6.4500  -6.4385  -6.3702  -6.3171  -6.1755  -6.0635  -6.0123
    -5.9193  -5.9079  -5.8672  -5.8596  -5.8474  -5.8156  -5.8026  -5.7422
    -5.7192  -5.6896  -5.5972  -5.5190   9.0388   9.0851   9.1184   9.1554
     9.2678   9.2798   9.3841   9.4559   9.5402   9.6033   9.7952   9.8691
    21.9834  22.1869  22.2078  22.2131  22.5074  22.5919  22.7981  22.9920
    23.0394  23.2528  23.6664  23.7051  23.8001  23.9956  24.0089  24.4315
[...]

     total energy              =   -1708.20344266 Ry
     Harris-Foulkes estimate   =   -1711.94665565 Ry
     estimated scf accuracy    <       9.95333175 Ry

     iteration #  5     ecut=    40.00 Ry     beta=0.70
     CG style diagonalization
     ethr =  5.41E-03,  avg # of iterations =  3.5

     total cpu time spent up to now is      996.5 secs

     total energy              =   -1708.09629091 Ry
     Harris-Foulkes estimate   =   -1709.71079494 Ry
     estimated scf accuracy    <       2.87536847 Ry

     iteration #  6     ecut=    40.00 Ry     beta=0.70
     CG style diagonalization
     ethr =  1.56E-03,  avg # of iterations =  4.2

     total cpu time spent up to now is     1011.7 secs

     total energy              =   -1708.80079288 Ry
     Harris-Foulkes estimate   =   -1708.94117284 Ry
     estimated scf accuracy    <       0.27799762 Ry

     iteration #  7     ecut=    40.00 Ry     beta=0.70
     CG style diagonalization
     c_bands:  2 eigenvalues not converged
     ethr =  1.51E-04,  avg # of iterations =  4.5

     total cpu time spent up to now is     1028.3 secs

     total energy              =   -1708.88258572 Ry
     Harris-Foulkes estimate   =   -1708.93430621 Ry
     estimated scf accuracy    <       0.13555427 Ry

     iteration #  8     ecut=    40.00 Ry     beta=0.70
     CG style diagonalization
     ethr =  7.37E-05,  avg # of iterations =  3.3

     total cpu time spent up to now is     1039.6 secs

     total energy              =   -1708.90482962 Ry
     Harris-Foulkes estimate   =   -1708.90607521 Ry
     estimated scf accuracy    <       0.00282989 Ry

     iteration #  9     ecut=    40.00 Ry     beta=0.70
     CG style diagonalization
     c_bands:  2 eigenvalues not converged
     c_bands:  2 eigenvalues not converged
     c_bands:  1 eigenvalues not converged
     c_bands:  2 eigenvalues not converged
     c_bands:  1 eigenvalues not converged
     ethr =  1.54E-06,  avg # of iterations =  6.3

     total cpu time spent up to now is     1064.2 secs

     total energy              =   -1708.90905177 Ry
     Harris-Foulkes estimate   =   -1708.91026773 Ry
     estimated scf accuracy    <       0.00352033 Ry

     iteration # 10     ecut=    40.00 Ry     beta=0.70
     CG style diagonalization
     c_bands:  1 eigenvalues not converged
     c_bands:  1 eigenvalues not converged
     ethr =  1.54E-06,  avg # of iterations =  3.3

     total cpu time spent up to now is     1076.8 secs

     total energy              =   -1708.90913620 Ry
     Harris-Foulkes estimate   =   -1708.90937426 Ry
     estimated scf accuracy    <       0.00045554 Ry

     iteration # 11     ecut=    40.00 Ry     beta=0.70
     CG style diagonalization
     ethr =  2.48E-07,  avg # of iterations =  4.1

     total cpu time spent up to now is     1093.2 secs

     End of self-consistent calculation

          k = 0.0000 0.0000 0.0000 (  5631 PWs)   bands (ev):

   -33.7163 -33.6383 -33.6130 -33.5927 -33.5318 -33.4798 -33.4249 -33.4212
    -8.8334  -8.7347  -8.5567  -8.3495  -7.1195  -6.9663  -6.9345  -6.8997
    -6.8380  -6.7663  -6.7404  -6.7127  -6.6776  -6.4916  -6.4910  -6.4478
    -6.4158  -6.4110  -6.3959  -6.3128  -6.2340  -6.2249  -6.1475  -6.1155
    -6.1096  -6.0719  -5.7753  -5.7124   9.0110   9.1632   9.1908   9.2381
     9.2956   9.3953   9.4567   9.4866   9.4951   9.7178   9.7317  10.0075
    21.2986  21.5849  21.6083  22.0414  22.0528  22.1638  22.1982  22.5162
    22.6661  23.1250  23.2717  23.4728  23.8524  23.9226  24.1021  24.2293
    24.3731  24.5694  24.7791  25.2282  25.4668  25.6858  25.9168  26.0187
    26.1265  26.2008  26.2889  26.4191  26.4685  26.4997  26.8832  27.0823
    27.3376  27.3813  27.6427  27.6910  27.9877  28.2510  28.4694  28.9782
    29.3582  29.6154  29.6500  29.6833  30.4148  30.7706  31.2079  31.5171
    31.6488  31.8873  32.0934  32.3918  33.3360  33.5139  33.6510  33.7012
    33.9255  34.5183  34.9047  35.0619  35.1651  35.1770

          k = 0.0000 0.0000 0.1143 (  5609 PWs)   bands (ev):

   -33.7083 -33.6587 -33.6018 -33.5920 -33.5224 -33.4852 -33.4234 -33.4213
    -8.8015  -8.6750  -8.6045  -8.4014  -7.0908  -6.9785  -6.9182  -6.9045
    -6.8800  -6.8015  -6.7173  -6.6563  -6.6339  -6.5164  -6.5041  -6.4516
    -6.4401  -6.4199  -6.3786  -6.3153  -6.2483  -6.2299  -6.2247  -6.1899
    -5.9740  -5.9698  -5.7677  -5.7209   9.0449   9.1550   9.1843   9.2403
     9.2850   9.3730   9.4582   9.4955   9.5074   9.6349   9.8008   9.9742
    21.3933  21.4854  21.7590  21.7731  21.8150  22.1323  22.5213  22.7085
    22.8962  23.1861  23.3653  23.7381  23.9275  23.9559  24.2652  24.3473
    24.4036  24.5423  24.8322  25.2539  25.3643  25.5468  25.5550  25.6626
    25.7569  25.8088  26.2359  26.3971  26.4859  26.5761  26.7341  26.9264
    27.3548  27.3785  27.8076  27.9723  28.1247  28.4564  28.6960  28.7886
    28.9870  29.0475  29.7838  29.9093  30.4348  30.4780  31.4081  31.4189
    31.5516  32.2012  32.3588  32.8169  33.1416  33.2525  33.5993  33.8613
    33.9919  34.2538  34.2724  34.7895  35.1547  35.2819

          k = 0.0000 0.0000-0.2286 (  5594 PWs)   bands (ev):

   -33.6872 -33.6872 -33.5941 -33.5941 -33.5022 -33.5022 -33.4217 -33.4217
    -8.7101  -8.7101  -8.5348  -8.5348  -7.0257  -7.0257  -6.9484  -6.9484
    -6.8260  -6.8260  -6.6490  -6.6490  -6.5622  -6.5622  -6.5479  -6.5479
    -6.4312  -6.4312  -6.3354  -6.3354  -6.2278  -6.2278  -6.2269  -6.2269
    -5.9142  -5.9142  -5.7438  -5.7438   9.1335   9.1335   9.1672   9.1672
     9.3339   9.3339   9.5096   9.5096   9.5213   9.5213   9.8923   9.8923
    21.4918  21.4918  21.5317  21.5317  22.0355  22.0355  23.1536  23.1536
    23.1717  23.1717  23.4531  23.4531  23.8784  23.8784  24.4446  24.4446
    24.5307  24.5307  24.8215  24.8215  25.3093  25.3093  25.4160  25.4160
    25.5620  25.5620  26.5024  26.5024  26.5710  26.5710  26.8732  26.8732
    27.2649  27.2649  27.6754  27.6754  28.2673  28.2673  28.8043  28.8043
    29.1024  29.1024  29.6795  29.6795  30.2682  30.2682  31.4027  31.4027
    32.6279  32.6279  32.7694  32.7694  32.8904  32.8904  33.6145  33.6145
    33.6371  33.6371  34.3604  34.3605  35.4916  35.4919

          k = 0.0000 0.2220 0.0000 (  5567 PWs)   bands (ev):

   -33.6894 -33.6469 -33.6056 -33.6014 -33.5101 -33.4643 -33.4535 -33.4348
    -8.9082  -8.8704  -8.4911  -8.3911  -7.0163  -6.9050  -6.8561  -6.8195
    -6.8033  -6.7880  -6.7738  -6.7221  -6.6732  -6.5374  -6.4178  -6.4053
    -6.3190  -6.2652  -6.2605  -6.2580  -6.2170  -6.2147  -6.1837  -6.0905
    -6.0854  -6.0810  -5.9838  -5.8615   9.0136   9.0545   9.0893   9.1334
     9.2468   9.2478   9.3624   9.4193   9.5160   9.5638   9.7647   9.8426
    21.9525  22.1680  22.1866  22.1904  22.4729  22.5623  22.7654  22.9566
    23.0170  23.2300  23.6284  23.6455  23.7674  23.9551  23.9915  24.4068
    24.6348  24.6564  24.7961  24.9294  25.0946  25.7182  25.7683  25.8134
    26.0184  26.0268  26.2478  26.4170  26.5358  26.8059  26.9381  27.2590
    27.3402  27.5340  27.5445  27.6547  28.0566  28.3265  28.4674  28.9016
    29.0638  29.3420  29.4704  29.8626  29.9490  30.6204  30.6900  30.8407
    31.2909  31.6155  32.1794  32.3640  32.5435  32.5467  33.2962  33.4129
    33.5275  33.6408  33.9815  34.0796  34.3703  34.5613

          k = 0.0000 0.2220 0.1143 (  5597 PWs)   bands (ev):

   -33.6839 -33.6537 -33.6093 -33.6037 -33.5019 -33.4702 -33.4514 -33.4385
    -8.8768  -8.8346  -8.5274  -8.4431  -6.9958  -6.9076  -6.8817  -6.8747
    -6.8277  -6.7787  -6.7475  -6.6864  -6.6330  -6.5389  -6.4284  -6.3989
    -6.3951  -6.3331  -6.3115  -6.2627  -6.2477  -6.1965  -6.1961  -6.1375
    -6.0169  -5.9836  -5.9509  -5.8689   9.0169   9.0798   9.0872   9.1238
     9.2147   9.2319   9.3762   9.4423   9.4720   9.5433   9.7825   9.8458
    21.8836  22.0243  22.0880  22.3313  22.4186  22.6646  22.8564  23.0128
    23.3158  23.3845  23.6632  23.7095  23.7335  23.9479  24.2016  24.4694
    24.5852  24.7220  24.9103  25.0155  25.0322  25.4456  25.5624  25.7020
    25.8563  26.1996  26.3071  26.3500  26.5699  26.6464  27.0333  27.0544
    27.1733  27.3743  27.5754  27.7036  28.1924  28.2307  28.2877  28.6530
    28.9380  29.2049  29.3484  29.7356  29.8637  30.4528  31.0927  31.3280
    31.4495  31.7707  31.7798  32.2025  32.3612  32.9007  33.0383  33.3588
    33.5778  33.7827  34.0551  34.1577  34.5287  34.6578

          k = 0.0000 0.2220-0.2286 (  5572 PWs)   bands (ev):

   -33.6696 -33.6696 -33.6069 -33.6069 -33.4832 -33.4832 -33.4443 -33.4443
    -8.8110  -8.8109  -8.5368  -8.5368  -6.9417  -6.9417  -6.8986  -6.8986
    -6.7748  -6.7748  -6.7076  -6.7076  -6.5530  -6.5530  -6.4775  -6.4775
    -6.3587  -6.3587  -6.3083  -6.3083  -6.2233  -6.2233  -6.1661  -6.1661
    -5.9606  -5.9606  -5.8870  -5.8870   9.0409   9.0409   9.1454   9.1454
     9.1798   9.1798   9.4094   9.4094   9.4942   9.4942   9.8243   9.8243
    21.8393  21.8393  22.1138  22.1138  22.7977  22.7977  23.1626  23.1626
    23.2468  23.2468  23.8008  23.8008  24.0533  24.0533  24.2575  24.2575
    24.6760  24.6760  24.8944  24.8944  25.0964  25.0964  25.7308  25.7308
    25.8010  25.8010  26.3076  26.3076  26.7864  26.7864  26.8201  26.8201
    27.2396  27.2396  27.8803  27.8803  27.9365  27.9365  28.2792  28.2792
    28.9261  28.9261  29.4259  29.4259  30.1793  30.1793  31.2892  31.2892
    31.7656  31.7656  32.1834  32.1834  32.3331  32.3332  33.1233  33.1234
    33.9779  33.9783  34.3734  34.3739  34.4014  34.4016

          k =-0.4324 0.0000 0.0000 (  5604 PWs)   bands (ev):

   -33.6323 -33.6323 -33.6135 -33.6135 -33.5361 -33.5361 -33.4225 -33.4225
    -8.8793  -8.8793  -8.6430  -8.6430  -7.2068  -7.2068  -6.9101  -6.9101
    -6.8742  -6.8742  -6.7274  -6.7274  -6.6478  -6.6478  -6.3991  -6.3991
    -6.3674  -6.3674  -6.1812  -6.1812  -6.1091  -6.1091  -6.0170  -6.0170
    -5.9781  -5.9781  -5.7784  -5.7784   9.1093   9.1093   9.3459   9.3459
     9.4596   9.4596   9.5784   9.5784   9.7254   9.7254   9.7605   9.7605
    21.8299  21.8299  22.2488  22.2488  22.8045  22.8045  23.0774  23.0774
    23.3398  23.3398  23.6729  23.6729  23.8011  23.8011  24.1095  24.1095
    24.1966  24.1966  24.3755  24.3755  24.8777  24.8777  24.9356  24.9356
    25.3416  25.3416  25.8134  25.8134  26.6041  26.6041  26.7585  26.7585
    26.9309  26.9309  28.0258  28.0258  28.4870  28.4870  29.2602  29.2602
    29.2976  29.2976  30.2543  30.2543  30.5318  30.5318  31.0657  31.0657
    31.7017  31.7017  31.9767  31.9767  32.4869  32.4869  33.7130  33.7131
    33.9485  33.9486  33.9927  33.9927  34.7286  34.7289

          k =-0.4324 0.0000 0.1143 (  5628 PWs)   bands (ev):

   -33.6319 -33.6319 -33.6151 -33.6151 -33.5365 -33.5365 -33.4230 -33.4230
    -8.8875  -8.8875  -8.6192  -8.6192  -7.1712  -7.1712  -7.0393  -7.0393
    -6.9231  -6.9231  -6.6989  -6.6989  -6.6066  -6.6066  -6.4182  -6.4182
    -6.3341  -6.3341  -6.1811  -6.1811  -6.0977  -6.0977  -6.0213  -6.0213
    -5.9700  -5.9700  -5.7805  -5.7805   9.0854   9.0854   9.3902   9.3902
     9.4648   9.4648   9.5765   9.5765   9.6826   9.6826   9.7581   9.7581
    22.0271  22.0271  22.0426  22.0426  22.9569  22.9569  22.9979  22.9979
    23.3598  23.3598  23.7269  23.7269  23.8117  23.8117  24.0764  24.0764
    24.3317  24.3317  24.5571  24.5571  24.7732  24.7732  25.0731  25.0731
    25.3263  25.3263  25.6570  25.6570  26.4440  26.4440  26.6430  26.6430
    27.1969  27.1969  27.9797  27.9797  28.0293  28.0293  28.9006  28.9006
    29.1780  29.1780  29.9170  29.9170  31.0227  31.0227  31.5332  31.5332
    31.7459  31.7459  32.1512  32.1512  32.4201  32.4201  33.3467  33.3467
    34.1195  34.1197  34.2936  34.2939  34.5039  34.5042

          k =-0.4324 0.0000-0.2286 (  5624 PWs)   bands (ev):

   -33.6310 -33.6310 -33.6161 -33.6161 -33.5364 -33.5364 -33.4226 -33.4226
    -8.8946  -8.8946  -8.5940  -8.5940  -7.1234  -7.1234  -7.1166  -7.1166
    -6.9667  -6.9667  -6.6798  -6.6798  -6.6485  -6.6485  -6.3485  -6.3485
    -6.3364  -6.3364  -6.1796  -6.1796  -6.0905  -6.0905  -6.0114  -6.0114
    -5.9654  -5.9654  -5.7853  -5.7853   9.0657   9.0657   9.4375   9.4375
     9.4927   9.4927   9.5522   9.5522   9.6372   9.6372   9.7539   9.7539
    21.8841  21.8841  22.4692  22.4692  22.5994  22.5994  23.0700  23.0700
    23.3964  23.3964  23.7256  23.7256  23.9667  23.9667  24.2907  24.2907
    24.3140  24.3140  24.5552  24.5552  24.7593  24.7593  24.9307  24.9307
    25.5221  25.5221  25.9539  25.9539  26.1635  26.1635  26.2211  26.2211
    27.3665  27.3665  27.5978  27.5978  28.2244  28.2244  28.5194  28.5194
    29.1635  29.1635  29.6431  29.6431  31.2337  31.2337  31.5753  31.5753
    31.9898  31.9898  32.3750  32.3751  32.5010  32.5010  32.9561  32.9562
    34.0971  34.0972  34.6015  34.6015  34.7656  34.7658

          k =-0.4324 0.2220 0.0000 (  5616 PWs)   bands (ev):

   -33.6245 -33.6245 -33.6163 -33.6163 -33.5112 -33.5112 -33.4534 -33.4534
    -8.9024  -8.9024  -8.7956  -8.7956  -7.0439  -7.0439  -6.8586  -6.8586
    -6.6965  -6.6965  -6.6056  -6.6056  -6.5518  -6.5518  -6.5014  -6.5014
    -6.3967  -6.3967  -6.1593  -6.1593  -6.1521  -6.1521  -6.0660  -6.0660
    -6.0005  -6.0005  -5.9573  -5.9573   9.0808   9.0808   9.1519   9.1519
     9.4886   9.4886   9.4998   9.4998   9.6082   9.6082   9.6926   9.6926
    22.4027  22.4027  22.7299  22.7299  23.1601  23.1601  23.1881  23.1881
    23.4825  23.4825  23.5405  23.5405  24.1758  24.1758  24.2978  24.2978
    24.7532  24.7532  24.9660  24.9660  24.9764  24.9764  25.0943  25.0943
    25.4354  25.4354  25.6236  25.6236  26.2781  26.2781  26.7277  26.7277
    27.1665  27.1665  27.6344  27.6344  27.8901  27.8901  28.5183  28.5183
    28.9534  28.9534  29.8049  29.8049  30.4762  30.4762  30.7519  30.7519
    31.6968  31.6968  31.7293  31.7293  32.4525  32.4526  32.9080  32.9081
    33.6155  33.6159  33.7126  33.7129  33.9742  33.9748

          k =-0.4324 0.2220 0.1143 (  5606 PWs)   bands (ev):

   -33.6243 -33.6243 -33.6164 -33.6164 -33.5107 -33.5107 -33.4532 -33.4532
    -8.9030  -8.9030  -8.7822  -8.7822  -7.0416  -7.0416  -6.9251  -6.9251
    -6.7438  -6.7438  -6.6321  -6.6321  -6.5021  -6.5021  -6.4816  -6.4816
    -6.3161  -6.3161  -6.1899  -6.1899  -6.1373  -6.1373  -6.0500  -6.0500
    -6.0097  -6.0097  -5.9576  -5.9576   9.0647   9.0647   9.1822   9.1822
     9.4749   9.4749   9.4850   9.4850   9.6199   9.6199   9.6787   9.6787
    22.4484  22.4484  22.6327  22.6327  23.0678  23.0678  23.4484  23.4484
    23.5385  23.5385  23.7425  23.7425  24.1320  24.1320  24.4086  24.4086
    24.5018  24.5018  24.8006  24.8006  25.0100  25.0100  25.1780  25.1780
    25.4215  25.4215  25.8237  25.8237  26.3322  26.3322  26.6457  26.6457
    27.1807  27.1807  27.4294  27.4294  27.8541  27.8541  28.4281  28.4281
    28.8772  28.8772  29.3816  29.3816  30.6083  30.6083  31.0773  31.0773
    31.5110  31.5110  31.6999  31.6999  32.2074  32.2074  32.9106  32.9107
    33.4281  33.4283  33.8040  33.8042  34.0745  34.0745

          k =-0.4324 0.2220-0.2286 (  5600 PWs)   bands (ev):

   -33.6236 -33.6236 -33.6169 -33.6169 -33.5104 -33.5104 -33.4533 -33.4533
    -8.9024  -8.9024  -8.7697  -8.7697  -7.0733  -7.0733  -6.8826  -6.8826
    -6.8585  -6.8585  -6.6521  -6.6521  -6.4576  -6.4576  -6.4383  -6.4383
    -6.2596  -6.2596  -6.2426  -6.2426  -6.1068  -6.1068  -6.0370  -6.0370
    -6.0159  -6.0159  -5.9667  -5.9667   9.0528   9.0528   9.2115   9.2115
     9.4483   9.4483   9.4805   9.4805   9.6397   9.6397   9.6557   9.6557
    22.3224  22.3224  22.8714  22.8714  22.9892  22.9892  23.5499  23.5499
    23.7277  23.7277  23.8343  23.8343  23.9542  23.9542  24.4838  24.4838
    24.5064  24.5064  24.7916  24.7916  24.8183  24.8183  25.2700  25.2700
    25.4577  25.4577  26.1367  26.1367  26.1765  26.1765  26.5662  26.5662
    26.6956  26.6956  27.7484  27.7484  27.9184  27.9184  28.3596  28.3596
    28.7847  28.7847  29.0558  29.0558  30.4260  30.4260  31.2400  31.2400
    31.4835  31.4835  31.5711  31.5711  32.4476  32.4476  32.4763  32.4765
    33.3440  33.3441  33.9200  33.9201  34.5761  34.5763

     the Fermi energy is    30.0721 ev

!    total energy              =   -1708.90928288 Ry
     Harris-Foulkes estimate   =   -1708.90934179 Ry
     estimated scf accuracy    <       0.00006542 Ry

     The total energy is the sum of the following terms:

     one-electron contribution =      51.04164543 Ry
     hartree contribution      =     156.92623546 Ry
     xc contribution           =    -191.35972194 Ry
     ewald contribution        =   -1725.09105700 Ry
     smearing contrib. (-TS)   =      -0.42638484 Ry

     convergence has been achieved in  11 iterations

     Forces acting on atoms (Ry/au):

     atom    1 type  1   force =     0.00000000   -0.00663428   -0.01272022
     atom    2 type  1   force =     0.00000000    0.00663428    0.01272022
     atom    3 type  1   force =     0.00000000   -0.00663428    0.01272022
     atom    4 type  1   force =     0.00000000    0.00663428   -0.01272022
     atom    5 type  1   force =     0.00000000    0.04976797   -0.07895610
     atom    6 type  1   force =     0.00000000   -0.04976797    0.07895610
     atom    7 type  1   force =     0.00000000    0.04976797    0.07895610
     atom    8 type  1   force =     0.00000000   -0.04976797   -0.07895610
     atom    9 type  2   force =     0.00000000   -0.04493074    0.00085511
     atom   10 type  2   force =     0.00000000    0.04493074   -0.00085511
     atom   11 type  2   force =     0.00000000   -0.04493074   -0.00085511
     atom   12 type  2   force =     0.00000000    0.04493074    0.00085511

     Total force =     0.209153     Total SCF correction =     0.000000


     entering subroutine stress ...

          total   stress  (Ry/bohr**3)                   (kbar)     P=  945.88
   0.00678721   0.00000000   0.00000000        998.43      0.00      0.00
   0.00000000   0.00598941   0.00000000          0.00    881.07      0.00
   0.00000000   0.00000000   0.00651328          0.00      0.00    958.14


     Writing output data file Prototype-La-oP12-Co2Si.save
 
     init_run     :      3.70s CPU      4.52s WALL (       2 calls)
     electrons    :    955.52s CPU   1074.55s WALL (       5 calls)
     update_pot   :      1.89s CPU      1.91s WALL (       3 calls)
     forces       :      4.11s CPU      4.30s WALL (       5 calls)
     stress       :     12.17s CPU     12.38s WALL (       5 calls)

     Called by init_run:
     wfcinit      :      2.76s CPU      3.57s WALL (       2 calls)
     potinit      :      0.42s CPU      0.42s WALL (       2 calls)

     Called by electrons:
     c_bands      :    936.08s CPU   1035.73s WALL (      52 calls)
     sum_band     :     19.00s CPU     24.69s WALL (      52 calls)
     v_of_rho     :      0.09s CPU      0.10s WALL (      57 calls)
     mix_rho      :      0.10s CPU      0.12s WALL (      52 calls)

     Called by c_bands:
     init_us_2    :      1.38s CPU      1.64s WALL (    1392 calls)
     ccgdiagg     :    864.19s CPU    946.81s WALL (     728 calls)
     wfcrot       :     73.26s CPU     90.11s WALL (     740 calls)

     Called by *cgdiagg:
     h_psi        :    604.59s CPU    694.31s WALL (  420489 calls)
     cdiaghg      :      3.97s CPU      4.31s WALL (     740 calls)

     Called by h_psi:
     add_vuspsi   :    117.48s CPU    125.63s WALL (  420489 calls)

     General routines
     calbec       :    285.49s CPU    300.48s WALL (  840358 calls)
     fft          :      0.19s CPU      0.21s WALL (     251 calls)
     fftw         :    314.60s CPU    365.73s WALL ( 1070938 calls)
     davcio       :      0.74s CPU      1.83s WALL (    2016 calls)
 
     Parallel routines
     fft_scatter  :    137.52s CPU    160.29s WALL ( 1071189 calls)
 
     PWSCF        : 16m17.77s CPU    18m19.21s WALL

 
   This run was terminated on:  21:30:13  22Mar2018            

=------------------------------------------------------------------------------=
   JOB DONE.
=------------------------------------------------------------------------------=
