
     Program PWSCF v.5.0.2 starts on 23Mar2018 at  2:21: 9 

     This program is part of the open-source Quantum ESPRESSO suite
     for quantum simulation of materials; please cite
         "P. Giannozzi et al., J. Phys.:Condens. Matter 21 395502 (2009);
          URL http://www.quantum-espresso.org", 
     in publications or presentations arising from this work. More details at
     http://www.quantum-espresso.org/quote.php

     Parallel version (MPI), running on     4 processors
     R & G space division:  proc/nbgrp/npool/nimage =       4

     Current dimensions of program PWSCF are:
     Max number of different atomic species (ntypx) = 10
     Max number of k-points (npk) =  40000
     Max angular momentum in pseudopotentials (lmaxx) =  3
     Waiting for input...
     Reading input from standard input

     Subspace diagonalization in iterative solution of the eigenvalue problem:
     a serial algorithm will be used

 
     Parallelization info
     --------------------
     sticks:   dense  smooth     PW     G-vecs:    dense   smooth      PW
     Min         233     233     69                 5311     5311     851
     Max         234     234     70                 5314     5314     854
     Sum         933     933    277                21247    21247    3407
 


     bravais-lattice index     =            0
     lattice parameter (alat)  =       8.5346  a.u.
     unit-cell volume          =     621.6493 (a.u.)^3
     number of atoms/cell      =            8
     number of atomic types    =            2
     number of electrons       =       166.00
     number of Kohn-Sham states=          100
     kinetic-energy cutoff     =      40.0000  Ry
     charge density cutoff     =     160.0000  Ry
     convergence threshold     =      1.0E-04
     mixing beta               =       0.7000
     number of iterations used =            8  plain     mixing
     Exchange-correlation      = SLA-PZ-NOGX-NOGC ( 1 1 0 0 0)
     EXX-fraction              =        0.00
     nstep                     =           50


     celldm(1)=   8.534573  celldm(2)=   0.000000  celldm(3)=   0.000000
     celldm(4)=   0.000000  celldm(5)=   0.000000  celldm(6)=   0.000000

     crystal axes: (cart. coord. in units of alat)
               a(1) = (   1.000000   0.000000   0.000000 )  
               a(2) = (   0.000000   1.000000   0.000000 )  
               a(3) = (   0.000000   0.000000   1.000000 )  

     reciprocal axes: (cart. coord. in units 2 pi/alat)
               b(1) = (  1.000000  0.000000  0.000000 )  
               b(2) = (  0.000000  1.000000  0.000000 )  
               b(3) = (  0.000000  0.000000  1.000000 )  


     PseudoPot. # 1 for Dy read from file:
     /home/cwx6513/pp.La/Dy.UPF
     MD5 check sum: 9597327bec62616a94a14d07f3fd9936
     Pseudo is Norm-conserving, Zval = 20.0
     Generated in analytical, separable form
     Using radial grid of 1265 points,  6 beta functions with: 
                l(1) =   0
                l(2) =   0
                l(3) =   1
                l(4) =   1
                l(5) =   2
                l(6) =   3

     PseudoPot. # 2 for Tm read from file:
     /home/cwx6513/pp.La/Tm.UPF
     MD5 check sum: 245516e0878b5372ceeb9443ded2c4e1
     Pseudo is Norm-conserving, Zval = 23.0
     Generated in analytical, separable form
     Using radial grid of 1269 points,  6 beta functions with: 
                l(1) =   0
                l(2) =   0
                l(3) =   1
                l(4) =   1
                l(5) =   2
                l(6) =   3

     atomic species   valence    mass     pseudopotential
        Cr            20.00    51.99610     Dy( 1.00)
        Si            23.00    28.08550     Tm( 1.00)

     48 Sym. Ops., with inversion, found (24 have fractional translation)



   Cartesian axes

     site n.     atom                  positions (alat units)
         1           Cr  tau(   1) = (   0.0000000   0.5000000   0.2500000  )
         2           Cr  tau(   2) = (   0.0000000   0.5000000   0.7500000  )
         3           Cr  tau(   3) = (   0.5000000   0.7500000   0.0000000  )
         4           Cr  tau(   4) = (   0.5000000   0.2500000   0.0000000  )
         5           Cr  tau(   5) = (   0.7500000   0.0000000   0.5000000  )
         6           Cr  tau(   6) = (   0.2500000   0.0000000   0.5000000  )
         7           Si  tau(   7) = (   0.5000000   0.5000000   0.5000000  )
         8           Si  tau(   8) = (   0.0000000   0.0000000   0.0000000  )

     number of k points=    48  gaussian smearing, width (Ry)=  0.1000
                       cart. coord. in units 2pi/alat
        k(    1) = (   0.0000000   0.0000000   0.0000000), wk =   0.0095238
        k(    2) = (   0.0000000   0.0000000   0.1428571), wk =   0.0190476
        k(    3) = (   0.0000000   0.0000000   0.2857143), wk =   0.0190476
        k(    4) = (   0.0000000   0.0000000   0.4285714), wk =   0.0190476
        k(    5) = (   0.0000000   0.1666667   0.0000000), wk =   0.0190476
        k(    6) = (   0.0000000   0.1666667   0.1428571), wk =   0.0380952
        k(    7) = (   0.0000000   0.1666667   0.2857143), wk =   0.0380952
        k(    8) = (   0.0000000   0.1666667   0.4285714), wk =   0.0380952
        k(    9) = (   0.0000000   0.3333333   0.0000000), wk =   0.0190476
        k(   10) = (   0.0000000   0.3333333   0.1428571), wk =   0.0380952
        k(   11) = (   0.0000000   0.3333333   0.2857143), wk =   0.0380952
        k(   12) = (   0.0000000   0.3333333   0.4285714), wk =   0.0380952
        k(   13) = (   0.0000000  -0.5000000   0.0000000), wk =   0.0095238
        k(   14) = (   0.0000000  -0.5000000   0.1428571), wk =   0.0190476
        k(   15) = (   0.0000000  -0.5000000   0.2857143), wk =   0.0190476
        k(   16) = (   0.0000000  -0.5000000   0.4285714), wk =   0.0190476
        k(   17) = (   0.2000000   0.0000000   0.0000000), wk =   0.0190476
        k(   18) = (   0.2000000   0.0000000   0.1428571), wk =   0.0380952
        k(   19) = (   0.2000000   0.0000000   0.2857143), wk =   0.0380952
        k(   20) = (   0.2000000   0.0000000   0.4285714), wk =   0.0380952
        k(   21) = (   0.2000000   0.1666667   0.0000000), wk =   0.0380952
        k(   22) = (   0.2000000   0.1666667   0.1428571), wk =   0.0761905
        k(   23) = (   0.2000000   0.1666667   0.2857143), wk =   0.0761905
        k(   24) = (   0.2000000   0.1666667   0.4285714), wk =   0.0761905
        k(   25) = (   0.2000000   0.3333333   0.0000000), wk =   0.0380952
        k(   26) = (   0.2000000   0.3333333   0.1428571), wk =   0.0761905
        k(   27) = (   0.2000000   0.3333333   0.2857143), wk =   0.0761905
        k(   28) = (   0.2000000   0.3333333   0.4285714), wk =   0.0761905
        k(   29) = (   0.2000000  -0.5000000   0.0000000), wk =   0.0190476
        k(   30) = (   0.2000000  -0.5000000   0.1428571), wk =   0.0380952
        k(   31) = (   0.2000000  -0.5000000   0.2857143), wk =   0.0380952
        k(   32) = (   0.2000000  -0.5000000   0.4285714), wk =   0.0380952
        k(   33) = (   0.4000000   0.0000000   0.0000000), wk =   0.0190476
        k(   34) = (   0.4000000   0.0000000   0.1428571), wk =   0.0380952
        k(   35) = (   0.4000000   0.0000000   0.2857143), wk =   0.0380952
        k(   36) = (   0.4000000   0.0000000   0.4285714), wk =   0.0380952
        k(   37) = (   0.4000000   0.1666667   0.0000000), wk =   0.0380952
        k(   38) = (   0.4000000   0.1666667   0.1428571), wk =   0.0761905
        k(   39) = (   0.4000000   0.1666667   0.2857143), wk =   0.0761905
        k(   40) = (   0.4000000   0.1666667   0.4285714), wk =   0.0761905
        k(   41) = (   0.4000000   0.3333333   0.0000000), wk =   0.0380952
        k(   42) = (   0.4000000   0.3333333   0.1428571), wk =   0.0761905
        k(   43) = (   0.4000000   0.3333333   0.2857143), wk =   0.0761905
        k(   44) = (   0.4000000   0.3333333   0.4285714), wk =   0.0761905
        k(   45) = (   0.4000000  -0.5000000   0.0000000), wk =   0.0190476
        k(   46) = (   0.4000000  -0.5000000   0.1428571), wk =   0.0380952
        k(   47) = (   0.4000000  -0.5000000   0.2857143), wk =   0.0380952
        k(   48) = (   0.4000000  -0.5000000   0.4285714), wk =   0.0380952

     Dense  grid:    21247 G-vectors     FFT dimensions: (  36,  36,  36)

     Largest allocated arrays     est. size (Mb)     dimensions
        Kohn-Sham Wavefunctions         1.04 Mb     (    683,  100)
        NL pseudopotentials             1.67 Mb     (    683,  160)
        Each V/rho on FFT grid          0.18 Mb     (  11664)
        Each G-vector array             0.04 Mb     (   5314)
        G-vector shells                 0.04 Mb     (   5314)
     Largest temporary arrays     est. size (Mb)     dimensions
        Each subspace H/S matrix        0.15 Mb     ( 100, 100)
        Each <psi_i|beta_j> matrix      0.24 Mb     (    160,  100)
        Arrays for rho mixing           1.42 Mb     (  11664,   8)

     Initial potential from superposition of free atoms

     Starting from uniform charge
     Starting wfc are    0 randomized atomic wfcs

     total cpu time spent up to now is        4.2 secs

     Self-consistent Calculation

     iteration #  1     ecut=    40.00 Ry     beta=0.70
     CG style diagonalization
     c_bands:  1 eigenvalues not converged
     c_bands:  1 eigenvalues not converged
     c_bands:  1 eigenvalues not converged
     ethr =  1.00E-02,  avg # of iterations = 11.2

     total cpu time spent up to now is       54.5 secs

     total energy              =   -1949.59470711 Ry
     Harris-Foulkes estimate   =   -2635.54974148 Ry
     estimated scf accuracy    <     858.57173490 Ry

     iteration #  2     ecut=    40.00 Ry     beta=0.70
     CG style diagonalization
     c_bands:  1 eigenvalues not converged
     c_bands:  1 eigenvalues not converged
     c_bands:  1 eigenvalues not converged
     c_bands:  1 eigenvalues not converged
     c_bands:  1 eigenvalues not converged
     c_bands:  1 eigenvalues not converged
     c_bands:  1 eigenvalues not converged
     ethr =  1.00E-02,  avg # of iterations =  8.4

     total cpu time spent up to now is       92.7 secs

     total energy              =   -2137.76875605 Ry
     Harris-Foulkes estimate   =   -2480.80782058 Ry
     estimated scf accuracy    <     568.60889333 Ry

     iteration #  3     ecut=    40.00 Ry     beta=0.70
     CG style diagonalization
     c_bands:  1 eigenvalues not converged
     c_bands:  1 eigenvalues not converged
     c_bands:  1 eigenvalues not converged
     c_bands:  1 eigenvalues not converged
     c_bands:  1 eigenvalues not converged
     ethr =  1.00E-02,  avg # of iterations =  9.7

     total cpu time spent up to now is      265.2 secs

     total energy              =   -2279.15109047 Ry
     Harris-Foulkes estimate   =   -2297.33369247 Ry
     estimated scf accuracy    <      31.53943617 Ry

     iteration #  4     ecut=    40.00 Ry     beta=0.70
     CG style diagonalization
     ethr =  1.00E-02,  avg # of iterations =  4.0

     total cpu time spent up to now is      352.8 secs

     total energy              =   -2287.74844816 Ry
     Harris-Foulkes estimate   =   -2288.50591315 Ry
     estimated scf accuracy    <       1.09633430 Ry

     iteration #  5     ecut=    40.00 Ry     beta=0.70
     CG style diagonalization
     c_bands:  1 eigenvalues not converged
     ethr =  6.60E-04,  avg # of iterations =  4.5

     total cpu time spent up to now is      456.1 secs

     total energy              =   -2288.09493113 Ry
     Harris-Foulkes estimate   =   -2288.39640509 Ry
     estimated scf accuracy    <       0.46807718 Ry

     iteration #  6     ecut=    40.00 Ry     beta=0.70
     CG style diagonalization
     c_bands:  1 eigenvalues not converged
     c_bands:  1 eigenvalues not converged
     c_bands:  1 eigenvalues not converged
     c_bands:  1 eigenvalues not converged
     ethr =  2.82E-04,  avg # of iterations =  3.8

     total cpu time spent up to now is      530.4 secs

     total energy              =   -2288.20621369 Ry
     Harris-Foulkes estimate   =   -2288.21044273 Ry
     estimated scf accuracy    <       0.00667009 Ry

     iteration #  7     ecut=    40.00 Ry     beta=0.70
     CG style diagonalization
     c_bands:  1 eigenvalues not converged
     c_bands:  1 eigenvalues not converged
     c_bands:  1 eigenvalues not converged
     c_bands:  1 eigenvalues not converged
     c_bands:  2 eigenvalues not converged
     c_bands:  1 eigenvalues not converged
     c_bands:  1 eigenvalues not converged
     c_bands:  2 eigenvalues not converged
     c_bands:  3 eigenvalues not converged
     c_bands:  2 eigenvalues not converged
     c_bands:  1 eigenvalues not converged
     c_bands:  2 eigenvalues not converged
     c_bands:  1 eigenvalues not converged
     c_bands:  1 eigenvalues not converged
     c_bands:  1 eigenvalues not converged
     c_bands:  1 eigenvalues not converged
     c_bands:  1 eigenvalues not converged
     c_bands:  1 eigenvalues not converged
     c_bands:  1 eigenvalues not converged
     c_bands:  1 eigenvalues not converged
     c_bands:  2 eigenvalues not converged
     c_bands:  2 eigenvalues not converged
     c_bands:  2 eigenvalues not converged
     c_bands:  3 eigenvalues not converged
     c_bands:  1 eigenvalues not converged
     c_bands:  2 eigenvalues not converged
     ethr =  4.02E-06,  avg # of iterations =  5.0

     total cpu time spent up to now is      630.4 secs

     total energy              =   -2288.20957745 Ry
     Harris-Foulkes estimate   =   -2288.20997675 Ry
     estimated scf accuracy    <       0.00056060 Ry

     iteration #  8     ecut=    40.00 Ry     beta=0.70
     CG style diagonalization
     c_bands:  1 eigenvalues not converged
     c_bands:  1 eigenvalues not converged
     c_bands:  2 eigenvalues not converged
     c_bands:  1 eigenvalues not converged
     c_bands:  1 eigenvalues not converged
     c_bands:  1 eigenvalues not converged
     c_bands:  1 eigenvalues not converged
     c_bands:  2 eigenvalues not converged
     c_bands:  1 eigenvalues not converged
     ethr =  3.38E-07,  avg # of iterations =  4.1

     total cpu time spent up to now is      698.7 secs

     total energy              =   -2288.20972327 Ry
     Harris-Foulkes estimate   =   -2288.20987842 Ry
     estimated scf accuracy    <       0.00025233 Ry

     iteration #  9     ecut=    40.00 Ry     beta=0.70
     CG style diagonalization
     c_bands:  1 eigenvalues not converged
     c_bands:  1 eigenvalues not converged
     ethr =  1.52E-07,  avg # of iterations =  3.7

     total cpu time spent up to now is      776.1 secs

     End of self-consistent calculation

          k = 0.0000 0.0000 0.0000 (  2601 PWs)   bands (ev):

   -62.7768 -62.7156 -36.5583 -36.4475 -36.4475 -35.8118 -35.8118 -35.8118
   -21.7632 -21.7632 -21.7632 -21.7370 -21.7370 -21.7370  -5.9925  -5.9925
    -5.6822  -3.9801  -3.9801  -3.9801  -3.1626  -3.1626  -3.1626  -3.1384
    -3.1384  -3.1384  -2.9069  -2.9069  -2.9069  -1.8439  -1.8439  -1.8439
    25.4889  25.4889  26.0149  26.0149  26.0656  26.0656  26.0656  26.3366
    26.3366  26.3366  29.7070  31.1091  31.1726  31.1726  31.1726  31.2294
    31.7566  31.7566  33.0810  33.0810  33.0810  33.5501  36.2568  36.2568
    36.2568  36.5032  36.5032  37.9182  37.9182  37.9182  38.3151  38.3151
    38.3151  40.3998  40.3998  41.1208  41.1208  41.1208  41.4232  41.4232
    41.4232  46.2338  46.2338  46.2338  47.2899  47.2899  47.5997  47.9181
    51.8467  51.8467  51.8467  53.4196  53.4196  53.4196  53.4489  53.4489
    53.4489  54.0653  54.0653  54.0653  54.6978  54.6978  54.7665  54.7665
    54.7665  56.8193  56.8194  56.8195

          k = 0.0000 0.0000 0.1429 (  2657 PWs)   bands (ev):

   -62.8187 -62.7825 -36.5563 -36.4587 -36.4207 -35.8846 -35.8482 -35.8482
   -21.7849 -21.7849 -21.7771 -21.7667 -21.7667 -21.7630  -6.0094  -5.9393
    -5.6306  -3.9798  -3.9798  -3.9423  -3.2570  -3.2570  -3.1835  -3.1707
    -3.0764  -3.0764  -2.9544  -2.9544  -2.9516  -2.0746  -1.8556  -1.8556
    25.4766  25.5502  25.9618  25.9654  26.0086  26.0086  26.0659  26.2936
    26.2936  26.3091  29.9105  30.4905  31.3055  31.3205  31.3205  31.6924
    32.0895  32.3237  32.8632  33.2415  33.2415  33.7339  35.9511  35.9511
    36.2175  36.3529  36.4810  37.5751  37.9738  37.9738  38.4500  38.4500
    38.5813  40.0536  40.0988  41.0522  41.0522  41.2477  41.2477  41.3642
    41.6309  44.2728  46.1531  46.1531  46.7945  47.4526  47.9066  49.5044
    51.7701  51.7701  52.0366  52.1093  52.7413  53.1579  53.1579  53.5431
    53.5431  54.1224  54.1224  54.2519  54.6312  54.8607  55.0527  55.0527
    55.5956  57.0740  57.0742  57.3841

          k = 0.0000 0.0000 0.2857 (  2677 PWs)   bands (ev):

   -62.8299 -62.8102 -36.5503 -36.4769 -36.3566 -35.9739 -35.8547 -35.8547
   -21.7903 -21.7903 -21.7843 -21.7767 -21.7743 -21.7743  -5.9856  -5.8928
    -5.2084  -3.9702  -3.9702  -3.8348  -3.3211  -3.3038  -3.3038  -3.1505
    -3.0194  -3.0194  -2.9922  -2.9878  -2.9878  -2.7312  -1.8650  -1.8650
    25.4411  25.6355  25.8493  25.8493  25.8762  25.9087  26.0833  26.2468
    26.2577  26.2577  30.2641  30.3618  31.3162  31.5808  31.6852  31.6852
    32.3697  33.6201  33.6346  33.6346  33.8924  34.2390  35.5498  35.5498
    35.7081  36.0436  36.4077  36.9297  37.4828  37.4828  38.6319  38.6319
    38.8276  39.5021  39.6306  40.8959  40.8959  41.5505  41.5505  41.6917
    41.7327  41.8793  45.7068  45.7068  45.8916  46.9229  49.0240  50.6525
    50.9705  50.9705  51.2893  51.5322  53.2144  53.2144  53.6382  54.0839
    54.0839  54.5913  54.5914  54.8610  54.8784  55.2856  55.3325  55.3326
    56.1837  57.0224  57.9805  57.9816

          k = 0.0000 0.0000 0.4286 (  2658 PWs)   bands (ev):

   -62.8030 -62.8007 -36.5207 -36.4831 -36.2346 -36.0979 -35.8495 -35.8495
   -21.7814 -21.7814 -21.7747 -21.7747 -21.7632 -21.7556  -5.9518  -5.9152
    -4.4619  -3.9651  -3.9651  -3.6588  -3.5964  -3.4646  -3.3141  -3.3141
    -3.0974  -3.0395  -3.0253  -3.0253  -2.9466  -2.9466  -1.8607  -1.8607
    25.4499  25.5511  25.7087  25.7087  25.8923  25.9101  26.1204  26.1767
    26.2543  26.2543  30.3105  30.4702  31.4013  31.4670  32.0182  32.0182
    32.8764  34.0318  34.0318  34.1930  34.9345  35.3627  35.3627  35.6077
    35.6541  35.6597  36.2841  36.6832  36.7443  36.7443  38.3258  38.6876
    38.6876  39.1108  39.1978  39.2767  40.6412  40.6412  41.9048  41.9723
    42.4906  42.4906  45.0329  45.0329  45.6399  46.1588  50.1817  50.1817
    50.3583  50.5018  51.0529  52.5391  53.2273  53.2273  54.0498  54.1575
    54.3494  54.3494  55.4722  55.4722  55.6999  55.9616  55.9617  55.9818
    56.4645  56.4944  57.3843  57.9567

          k = 0.0000 0.1667 0.0000 (  2653 PWs)   bands (ev):

   -62.8122 -62.7825 -36.5508 -36.4558 -36.4110 -35.8962 -35.8486 -35.8486
   -21.7826 -21.7826 -21.7712 -21.7668 -21.7668 -21.7622  -6.0061  -5.9214
    -5.5905  -3.9751  -3.9751  -3.9204  -3.2664  -3.2664  -3.1876  -3.1792
    -3.0625  -3.0625  -2.9589  -2.9589  -2.9566  -2.1511  -1.8541  -1.8541
    25.4723  25.5683  25.9495  25.9500  25.9889  25.9889  26.0678  26.2847
    26.2847  26.3006  29.9803  30.4281  31.3100  31.3709  31.3709  31.6782
    32.2133  32.5636  32.8288  33.2962  33.2962  33.7984  35.8757  35.8757
    36.2014  36.2930  36.4722  37.4662  37.9363  37.9363  38.4983  38.4983
    38.6512  39.9595  40.0207  41.0566  41.0566  41.2085  41.2085  41.4231
    41.6799  43.8657  46.1107  46.1107  46.6430  47.3980  48.0435  49.8731
    51.6910  51.6910  51.8080  51.9537  52.8004  53.1506  53.1506  53.6045
    53.6045  54.1675  54.1675  54.3294  54.6662  54.9059  55.1094  55.1094
    55.7625  57.1892  57.1893  57.5365

          k = 0.0000 0.1667 0.1429 (  2662 PWs)   bands (ev):

   -62.8274 -62.7858 -36.5555 -36.4399 -36.4086 -35.8961 -35.8842 -35.8506
   -21.7907 -21.7858 -21.7797 -21.7779 -21.7645 -21.7546  -5.9700  -5.8186
    -5.5626  -3.9648  -3.9402  -3.9192  -3.3236  -3.3089  -3.1575  -3.1504
    -3.0917  -3.0329  -3.0086  -2.9765  -2.9259  -2.1690  -2.0850  -1.8562
    25.5000  25.5873  25.9026  25.9091  25.9695  25.9696  26.0306  26.2154
    26.2600  26.2730  30.1667  30.2657  31.3815  31.5266  31.7508  32.0459
    32.2044  32.9339  32.9634  33.1045  33.4618  33.9699  35.5193  35.6812
    36.1931  36.2657  36.5770  37.3815  37.9208  38.0381  38.3562  38.6077
    38.6612  39.7077  39.9253  40.8772  40.9084  41.0405  41.1509  41.4737
    41.7637  43.7796  44.2999  46.2258  46.7724  47.6948  48.5102  49.6448
    51.5041  51.5819  51.7607  52.4988  53.0145  53.0831  53.1134  53.3121
    53.8344  53.8409  53.8987  54.3852  54.5742  55.1424  55.2543  55.3812
    56.2811  57.1427  57.2300  58.2696

          k = 0.0000 0.1667 0.2857 (  2666 PWs)   bands (ev):

   -62.8179 -62.8039 -36.5338 -36.4459 -36.3474 -35.9763 -35.8974 -35.8522
   -21.7872 -21.7855 -21.7808 -21.7754 -21.7709 -21.7574  -5.9502  -5.7005
    -5.2105  -3.9436  -3.9181  -3.8298  -3.4038  -3.3512  -3.2126  -3.1551
    -3.0593  -3.0350  -3.0087  -2.9845  -2.9276  -2.7090  -2.1692  -1.8593
    25.4735  25.6419  25.8161  25.8204  25.8561  25.8860  26.0218  26.1373
    26.2179  26.2457  30.2159  30.5584  31.3807  31.9191  32.1044  32.2382
    32.5903  33.3307  33.6563  33.8605  34.1401  34.4395  34.9621  35.4022
    35.9961  36.0969  36.3710  37.0014  37.4758  37.6727  38.2675  38.5411
    38.9695  39.2291  39.8577  40.5230  40.7261  40.9965  41.0969  41.5604
    41.7737  42.2018  43.6887  46.1444  46.2364  46.6239  49.3210  50.1218
    50.6951  50.9770  51.6387  52.5378  53.2896  53.3659  53.6699  53.7822
    54.0855  54.2616  54.3307  54.6625  55.0221  55.5433  55.5752  55.8070
    56.7404  57.3402  57.4379  58.4226

          k = 0.0000 0.1667 0.4286 (  2658 PWs)   bands (ev):

   -62.8080 -62.7974 -36.5002 -36.4609 -36.2351 -36.0973 -35.8933 -35.8562
   -21.7836 -21.7833 -21.7765 -21.7757 -21.7613 -21.7490  -5.9417  -5.6972
    -4.4698  -3.9264  -3.9123  -3.6741  -3.5899  -3.4876  -3.3605  -3.2618
    -3.1903  -3.0540  -3.0252  -2.9866  -2.9458  -2.9445  -2.1699  -1.8531
    25.4579  25.5412  25.6707  25.7479  25.8642  25.8840  26.0364  26.1230
    26.1693  26.2523  30.3824  30.6198  31.3920  32.1083  32.2893  32.4837
    32.9225  33.9998  34.0585  34.2549  35.0462  35.3022  35.3147  35.6705
    35.7502  35.7707  35.8873  36.6376  36.7618  37.3938  38.1590  38.1782
    38.8334  38.8462  39.1242  39.8457  40.3945  40.6328  40.9780  41.6851
    41.8902  42.6820  43.4746  45.0468  45.9231  46.0505  49.8863  49.9029
    50.7938  51.1976  51.4877  52.2739  53.2507  53.7759  53.8508  54.0762
    54.2334  54.3229  54.6502  55.0412  55.4797  56.1224  56.2133  56.5448
    56.7350  57.4806  57.8318  57.9301

          k = 0.0000 0.3333 0.0000 (  2677 PWs)   bands (ev):

   -62.8300 -62.8095 -36.5439 -36.4844 -36.3175 -36.0247 -35.8492 -35.8492
   -21.7903 -21.7903 -21.7805 -21.7805 -21.7767 -21.7673  -5.9753  -5.8932
    -4.9999  -3.9699  -3.9699  -3.7848  -3.3894  -3.3115  -3.3115  -3.1340
    -3.0206  -3.0206  -3.0020  -2.9773  -2.9773  -2.9735  -1.8720  -1.8720
    25.4351  25.6256  25.7915  25.7915  25.8696  25.9068  26.0932  26.2226
    26.2547  26.2547  30.2560  30.4605  31.3428  31.5389  31.8164  31.8164
    32.4116  33.7814  33.7814  34.2521  34.4070  34.4582  35.3601  35.4607
    35.4607  35.9318  36.3746  36.8007  37.2196  37.2196  38.6519  38.6519
    38.7421  39.3600  39.4915  40.7952  40.7952  40.8369  41.7780  41.8694
    41.8694  41.9287  45.4818  45.4818  45.7043  46.6711  49.5496  50.4561
    50.6524  50.6524  51.0734  52.0534  53.2264  53.2264  53.9444  54.2415
    54.2415  54.8071  54.8874  54.8874  55.1005  55.5062  55.5125  55.5125
    56.2562  56.5230  57.8608  58.3276

          k = 0.0000 0.3333 0.1429 (  2660 PWs)   bands (ev):

   -62.8087 -62.8010 -36.5213 -36.4538 -36.3139 -36.0130 -35.8863 -35.8534
   -21.7872 -21.7809 -21.7754 -21.7744 -21.7691 -21.7527  -5.9490  -5.7593
    -4.9898  -3.9431  -3.9264  -3.7751  -3.4249  -3.3468  -3.2496  -3.1528
    -3.0569  -3.0406  -3.0140  -2.9674  -2.9400  -2.9398  -2.0873  -1.8539
    25.4574  25.6237  25.7674  25.8036  25.8426  25.8851  26.0445  26.1584
    26.2010  26.2492  30.2471  30.5937  31.3926  31.9468  31.9994  32.2169
    32.5517  33.6137  33.9514  34.2363  34.4980  34.5951  34.8988  35.3667
    35.8724  36.0001  36.2416  36.7775  37.2025  37.5144  38.3074  38.4774
    38.9790  39.1482  39.7770  40.3394  40.7982  40.9995  41.0240  41.4952
    41.6702  42.3201  43.9480  45.8720  46.0218  46.4045  49.7186  50.1132
    50.4564  50.9957  51.4284  52.4404  53.4193  53.5097  53.5874  54.0724
    54.2196  54.2870  54.5472  55.0409  55.0481  55.4315  55.8146  56.0168
    56.5244  57.2640  57.5283  58.5794

          k = 0.0000 0.3333 0.2857 (  2658 PWs)   bands (ev):

   -62.8133 -62.7947 -36.4971 -36.3983 -36.3056 -36.0177 -35.9716 -35.8588
   -21.7851 -21.7803 -21.7772 -21.7742 -21.7603 -21.7509  -5.9408  -5.2764
    -4.9844  -3.8929  -3.8373  -3.7769  -3.4686  -3.4081  -3.2506  -3.2080
    -3.1101  -3.0607  -2.9911  -2.9497  -2.9449  -2.9099  -2.6827  -1.8560
    25.4549  25.5847  25.6659  25.8034  25.8191  25.8863  25.9403  25.9810
    26.1935  26.2475  30.3758  30.8577  31.3688  32.4905  32.7401  32.9211
    33.2481  33.6262  34.1439  34.3485  34.4867  34.9087  34.9629  35.2961
    35.5529  35.8143  36.0783  36.7938  37.6491  37.8110  37.9186  38.3442
    38.6775  39.1914  39.9259  39.9412  40.3297  40.4456  40.9042  40.9316
    41.2912  41.6923  42.6551  44.6283  45.9984  46.9835  49.6834  49.8720
    49.9526  51.1888  52.5158  52.6444  53.0798  53.3080  53.6157  54.0918
    54.3283  54.6565  55.0973  55.6463  55.6783  55.7939  56.0820  56.1256
    56.7769  57.1593  58.0669  58.3756

          k = 0.0000 0.3333 0.4286 (  2654 PWs)   bands (ev):

   -62.8016 -62.7970 -36.4897 -36.3540 -36.2378 -36.1012 -36.0092 -35.8542
   -21.7896 -21.7851 -21.7784 -21.7748 -21.7435 -21.7403  -5.9365  -5.0311
    -4.4818  -3.8490  -3.8241  -3.7259  -3.5741  -3.4715  -3.4270  -3.3434
    -3.2348  -3.1027  -3.0642  -2.9482  -2.9248  -2.9234  -2.9053  -1.8655
    25.4254  25.4804  25.5430  25.7873  25.8389  25.8909  25.8982  25.9330
    26.1819  26.2607  30.6810  30.9388  31.3302  32.7184  33.0253  33.2784
    33.8557  34.1513  34.2589  34.6773  34.7106  35.0869  35.3655  35.5806
    35.6600  35.9787  35.9922  36.0388  37.7654  37.8530  37.9715  38.2137
    38.2323  38.7725  39.3978  39.6650  39.9797  40.0937  40.5112  40.7840
    40.8937  41.1660  42.9262  43.0388  45.7743  47.6573  49.2252  49.2697
    50.4844  51.1340  52.7586  53.0456  53.2759  53.5449  53.5819  54.0145
    54.4022  54.6833  55.0114  55.5204  56.2338  56.2385  56.3722  57.0141
    57.2550  58.0078  58.2839  58.4271

          k = 0.0000-0.5000 0.0000 (  2666 PWs)   bands (ev):

   -62.8087 -62.8087 -36.5057 -36.5057 -36.1690 -36.1690 -35.8505 -35.8505
   -21.7832 -21.7832 -21.7793 -21.7793 -21.7625 -21.7625  -5.9383  -5.9383
    -4.0324  -4.0324  -3.9644  -3.9644  -3.5775  -3.5775  -3.3170  -3.3170
    -3.0697  -3.0697  -3.0356  -3.0356  -2.9401  -2.9401  -1.8615  -1.8615
    25.4906  25.4906  25.6882  25.6882  25.9059  25.9059  26.1458  26.1458
    26.2538  26.2538  30.3893  30.3893  31.4291  31.4291  32.0704  32.0704
    33.4932  33.4932  34.1043  34.1043  35.2894  35.2894  35.3450  35.3450
    36.1074  36.1074  36.4887  36.4887  36.6040  36.6040  38.2597  38.2597
    38.6989  38.6989  39.1928  39.1928  40.6005  40.6005  41.9578  41.9578
    42.6909  42.6909  44.8791  44.8791  45.8354  45.8354  50.0600  50.0600
    50.4397  50.4397  51.9267  51.9267  53.2143  53.2143  53.9828  53.9828
    54.3511  54.3511  55.6216  55.6216  56.0345  56.0345  56.1158  56.1160
    56.5871  56.5871  57.4172  57.4172

          k = 0.0000-0.5000 0.1429 (  2666 PWs)   bands (ev):

   -62.8093 -62.8092 -36.5019 -36.4785 -36.1719 -36.1690 -35.8830 -35.8531
   -21.7882 -21.7847 -21.7828 -21.7796 -21.7581 -21.7564  -5.9366  -5.7612
    -4.0763  -4.0296  -3.9336  -3.8897  -3.6190  -3.5577  -3.3500  -3.2843
    -3.1754  -3.0532  -3.0343  -2.9759  -2.9580  -2.9421  -2.0944  -1.8594
    25.4793  25.4977  25.6599  25.7216  25.8844  25.8863  26.0641  26.1533
    26.1578  26.2527  30.4489  30.5052  31.3959  31.9291  32.2751  32.4015
    33.3033  33.6366  34.1449  34.2720  35.1880  35.3746  35.5068  35.5421
    35.5492  36.0378  36.4429  36.5142  36.6179  37.2512  37.9633  38.2344
    38.2539  38.8828  39.0028  39.7275  40.3785  40.6148  41.1824  41.7656
    42.2438  42.7494  43.7892  45.0338  45.7649  45.8543  49.8508  49.9145
    51.0813  51.1408  51.5517  52.0507  53.1755  53.5279  53.9043  54.0248
    54.2724  54.4517  54.5414  55.2027  55.6280  56.1779  56.3263  56.6651
    57.1556  57.3234  57.3656  58.0140

          k = 0.0000-0.5000 0.2857 (  2658 PWs)   bands (ev):

   -62.8029 -62.8026 -36.4889 -36.3897 -36.1733 -36.1701 -35.9714 -35.8585
   -21.7907 -21.7892 -21.7798 -21.7764 -21.7447 -21.7421  -5.9404  -5.2547
    -4.1199  -4.0158  -3.8677  -3.7777  -3.6826  -3.5001  -3.4135  -3.3176
    -3.2317  -3.0959  -3.0359  -2.9615  -2.9332  -2.9222  -2.6883  -1.8657
    25.4424  25.4785  25.5648  25.7730  25.8538  25.8814  25.9253  25.9711
    26.1756  26.2584  30.6794  30.7873  31.3335  32.7830  32.8618  33.1632
    33.5035  33.9532  34.2571  34.5740  34.6450  35.1422  35.6006  35.6261
    35.7957  35.8248  36.0750  36.8505  37.1329  37.8213  37.8371  37.9753
    38.1866  38.3125  39.3772  39.9229  39.9502  40.3741  40.7381  40.8216
    41.3207  41.6819  42.9068  43.3205  45.7922  47.2835  49.3056  49.4017
    50.7284  51.1746  52.6329  53.0809  53.3815  53.4375  53.4764  53.8573
    54.1848  54.6382  55.1635  55.6355  55.7549  55.9308  56.2556  57.1949
    57.4118  57.8397  58.0680  58.2446

          k = 0.0000-0.5000 0.4286 (  2662 PWs)   bands (ev):

   -62.8067 -62.8067 -36.4945 -36.2804 -36.1782 -36.1768 -36.0846 -35.8522
   -21.7892 -21.7890 -21.7841 -21.7802 -21.7441 -21.7410  -5.9302  -4.5226
    -4.1471  -4.0211  -3.7920  -3.7670  -3.6998  -3.5533  -3.4477  -3.4460
    -3.4347  -3.1435  -3.1357  -3.1210  -2.9132  -2.9121  -2.8973  -1.8740
    25.3962  25.4038  25.4559  25.7963  25.8083  25.8589  25.9125  25.9188
    26.1822  26.2727  31.0224  31.0592  31.2614  32.5118  33.3504  33.6665
    34.1448  34.5001  34.5179  34.9550  35.0891  35.1118  35.2428  35.4554
    35.9567  35.9736  36.0160  36.9634  37.2193  37.6624  37.8084  38.4064
    38.4079  38.7038  38.8575  39.3266  39.6131  39.6377  39.7475  40.7213
    40.7319  40.9905  41.6501  43.0747  45.6085  48.5030  48.7859  48.9772
    50.6745  50.7594  52.3182  53.1501  53.2739  53.6372  53.6695  54.5762
    54.8444  54.9991  55.0819  55.5467  56.2121  56.7179  56.9372  57.3496
    57.5114  57.5413  58.3820  58.6974

          k = 0.2000 0.0000 0.0000 (  2661 PWs)   bands (ev):

   -62.8288 -62.7819 -36.5598 -36.4596 -36.3983 -35.9149 -35.8490 -35.8490
   -21.7891 -21.7891 -21.7799 -21.7669 -21.7669 -21.7608  -6.0006  -5.9034
    -5.5130  -3.9735  -3.9735  -3.8979  -3.2806  -3.2806  -3.2264  -3.1721
    -3.0482  -3.0482  -2.9656  -2.9656  -2.9646  -2.2913  -1.8605  -1.8605
    25.4645  25.5937  25.9268  25.9332  25.9540  25.9540  26.0709  26.2741
    26.2741  26.2872  30.0877  30.3592  31.3096  31.4506  31.4506  31.6538
    32.3551  32.8611  32.9184  33.3809  33.3809  33.9031  35.7727  35.7727
    36.1712  36.1831  36.4571  37.3030  37.8515  37.8515  38.5560  38.5560
    38.7396  39.8251  39.9093  41.0566  41.0566  41.1949  41.1949  41.5040
    41.7450  43.2837  46.0283  46.0283  46.4148  47.2970  48.2642  50.3694
    51.4011  51.5286  51.5286  51.7673  52.9882  53.1624  53.1624  53.7086
    53.7086  54.2490  54.2490  54.4558  54.7050  54.9850  55.1684  55.1684
    55.9472  57.3817  57.3818  57.7495

          k = 0.2000 0.0000 0.1429 (  2667 PWs)   bands (ev):

   -62.8219 -62.8007 -36.5519 -36.4442 -36.3974 -35.9144 -35.8845 -35.8547
   -21.7904 -21.7895 -21.7827 -21.7731 -21.7689 -21.7603  -5.9661  -5.7883
    -5.4981  -3.9616  -3.9371  -3.9003  -3.3455  -3.3225  -3.1669  -3.1530
    -3.0790  -3.0272  -3.0200  -2.9810  -2.9279  -2.3032  -2.0898  -1.8569
    25.4942  25.6083  25.8797  25.8956  25.9359  25.9471  26.0302  26.1951
    26.2515  26.2615  30.2329  30.2652  31.3811  31.6102  31.8437  32.0406
    32.3994  32.9287  33.1761  33.2447  33.5486  34.0693  35.3916  35.6031
    36.1757  36.2049  36.5852  37.2415  37.8722  37.9348  38.3632  38.6078
    38.7539  39.5954  39.8833  40.8326  40.8626  41.0105  41.1188  41.4998
    41.8560  43.2449  44.2284  46.2189  46.6251  47.5098  48.6409  49.8690
    51.3300  51.3379  51.7182  52.4900  53.0385  53.1627  53.3365  53.5035
    53.8190  53.8307  53.9909  54.3824  54.7155  55.1956  55.3379  55.4002
    56.5471  57.2179  57.3330  58.3612

          k = 0.2000 0.0000 0.2857 (  2659 PWs)   bands (ev):

   -62.8093 -62.8001 -36.5221 -36.4337 -36.3440 -35.9745 -35.9148 -35.8538
   -21.7804 -21.7802 -21.7776 -21.7770 -21.7664 -21.7559  -5.9472  -5.6031
    -5.2042  -3.9336  -3.8973  -3.8272  -3.4120  -3.3678  -3.1930  -3.1652
    -3.0666  -3.0285  -3.0176  -2.9777  -2.9216  -2.7079  -2.2930  -1.8563
    25.4774  25.6431  25.7965  25.8102  25.8455  25.8869  25.9993  26.0964
    26.2132  26.2429  30.2235  30.6307  31.3773  32.0163  32.3285  32.4262
    32.6965  33.2748  33.6426  33.9488  34.2570  34.5215  34.8465  35.3621
    35.9723  36.1083  36.2361  37.1932  37.4129  37.6881  38.1735  38.5227
    39.0017  39.1276  39.9176  40.4328  40.5579  40.9234  41.0050  41.4849
    41.7483  42.2910  43.1675  46.0666  46.3622  46.4043  49.4095  50.0965
    50.5651  50.9579  51.7917  52.5938  53.3318  53.3696  53.5875  53.7542
    54.1138  54.3918  54.5666  54.7343  55.0818  55.6446  55.6855  55.9665
    56.6512  57.2304  57.6216  58.5578

          k = 0.2000 0.0000 0.4286 (  2660 PWs)   bands (ev):

   -62.8097 -62.7994 -36.4983 -36.4453 -36.2356 -36.1001 -35.9118 -35.8573
   -21.7846 -21.7843 -21.7804 -21.7770 -21.7558 -21.7511  -5.9413  -5.5970
    -4.4758  -3.9135  -3.8948  -3.6821  -3.5886  -3.4942  -3.3760  -3.2492
    -3.2213  -3.0656  -3.0114  -2.9980  -2.9426  -2.9315  -2.2984  -1.8530
    25.4565  25.5354  25.6516  25.7588  25.8587  25.8777  26.0030  26.0768
    26.1725  26.2519  30.4208  30.6799  31.3802  32.3806  32.4053  32.6660
    32.9324  33.9633  34.0607  34.3408  35.0735  35.2141  35.3320  35.5704
    35.7625  35.8189  35.8959  36.5672  36.9624  37.4942  38.0692  38.1524
    38.7179  38.8005  39.1769  39.9938  40.3105  40.5131  40.8298  41.5868
    41.6223  42.7278  42.9793  44.6917  45.9047  46.3780  49.7862  49.7960
    50.6882  51.3281  51.7927  52.3367  53.2979  53.6601  53.8019  53.9558
    54.2809  54.6298  54.7819  54.8629  55.4955  56.1606  56.2580  56.5418
    56.8093  57.7107  57.8867  58.0453

          k = 0.2000 0.1667 0.0000 (  2672 PWs)   bands (ev):

   -62.8208 -62.8126 -36.5524 -36.4428 -36.3907 -35.9184 -35.9002 -35.8548
   -21.7980 -21.7878 -21.7782 -21.7781 -21.7773 -21.7576  -5.9648  -5.7426
    -5.4931  -3.9558  -3.9239  -3.9003  -3.3612  -3.3337  -3.1586  -3.1535
    -3.0840  -3.0292  -3.0209  -2.9969  -2.9256  -2.3062  -2.1660  -1.8605
    25.4975  25.6163  25.8666  25.8850  25.9235  25.9410  26.0199  26.1734
    26.2464  26.2539  30.2131  30.3231  31.3820  31.6648  31.9511  32.1839
    32.4050  32.9561  33.1484  33.3599  33.6044  34.1273  35.2994  35.5577
    36.1732  36.1780  36.5950  37.2258  37.8591  37.9148  38.3179  38.6242
    38.7667  39.5247  39.8817  40.7857  40.7858  40.9516  41.1247  41.4791
    41.9152  43.1981  43.8733  46.2645  46.5900  47.3706  48.7390  49.9025
    51.2391  51.2712  51.7070  52.6335  52.9773  53.1718  53.4608  53.5537
    53.7331  53.8226  54.1091  54.3065  54.8026  55.2282  55.3911  55.4977
    56.6344  57.2060  57.3981  58.4405

          k = 0.2000 0.1667 0.1429 (  2665 PWs)   bands (ev):

   -62.8200 -62.8001 -36.5311 -36.4231 -36.3998 -35.9178 -35.8987 -35.8788
   -21.7953 -21.7830 -21.7806 -21.7762 -21.7638 -21.7582  -5.8049  -5.7276
    -5.4862  -3.9283  -3.9078  -3.8891  -3.4561  -3.2410  -3.2114  -3.0923
    -3.0848  -3.0657  -3.0424  -2.9630  -2.9423  -2.3036  -2.1702  -2.0848
    25.5522  25.6071  25.8265  25.8445  25.9262  25.9348  25.9906  26.1346
    26.1894  26.1924  30.1727  30.4890  31.8395  31.9563  32.0396  32.2819
    32.4429  33.0957  33.2928  33.4026  33.6225  34.2824  35.1590  35.2590
    36.2072  36.4553  36.6331  37.2073  37.7620  37.8227  38.3628  38.4346
    38.6436  39.5923  39.7090  40.6019  40.6166  40.6953  41.0322  41.5859
    41.7353  43.3128  43.9887  44.3986  47.4030  47.5021  48.5473  49.9087
    50.4402  51.5705  51.7382  52.3975  53.2543  53.2870  53.7135  53.8533
    53.9051  53.9875  54.4019  54.5623  54.8005  55.0504  55.1150  56.0980
    56.6155  56.8506  58.3914  58.6549

          k = 0.2000 0.1667 0.2857 (  2655 PWs)   bands (ev):

   -62.8153 -62.7850 -36.4901 -36.4147 -36.3487 -35.9769 -35.9126 -35.8941
   -21.7834 -21.7792 -21.7765 -21.7675 -21.7641 -21.7514  -5.7185  -5.5883
    -5.2138  -3.9007  -3.8666  -3.8076  -3.5262  -3.2612  -3.2262  -3.1547
    -3.0936  -3.0529  -3.0140  -2.9665  -2.9390  -2.6949  -2.2925  -2.1639
    25.5371  25.6466  25.7517  25.8069  25.8279  25.8588  25.9681  26.0638
    26.1235  26.1421  30.2575  30.8254  32.0499  32.2957  32.4523  32.6415
    32.8755  33.4086  33.6630  33.7598  34.4805  34.6578  34.7514  35.0041
    36.2250  36.3266  36.6404  36.9140  37.3193  37.6247  38.0371  38.1353
    38.8810  39.3902  39.7041  40.2786  40.3061  40.3880  40.6377  41.5787
    41.8708  42.0740  43.5452  44.1458  46.4328  46.7923  48.7144  50.1227
    50.3874  51.1418  51.7851  52.2346  53.3529  53.6664  54.0635  54.3072
    54.4270  54.6794  54.9329  55.0921  55.1137  55.5068  55.8242  56.3049
    56.6409  57.3633  57.8034  58.4950

          k = 0.2000 0.1667 0.4286 (  2655 PWs)   bands (ev):

   -62.8015 -62.7966 -36.4631 -36.4335 -36.2367 -36.1027 -35.9119 -35.8934
   -21.7828 -21.7804 -21.7756 -21.7718 -21.7529 -21.7513  -5.6984  -5.5915
    -4.4833  -3.8817  -3.8682  -3.6722  -3.6083  -3.5406  -3.3185  -3.2980
    -3.1647  -3.1257  -2.9914  -2.9745  -2.9667  -2.9453  -2.2936  -2.1675
    25.4893  25.5390  25.7054  25.7363  25.8099  25.8320  25.9905  26.0514
    26.0852  26.1336  30.5376  30.8455  32.0620  32.3543  32.7872  32.8797
    33.0855  33.9074  34.1701  34.3184  34.8923  35.2199  35.4837  35.6312
    35.6824  36.1211  36.1836  36.4597  36.9934  37.5195  37.7379  37.9013
    38.5884  38.7849  39.5734  39.7584  40.1222  40.3056  40.4336  40.7563
    41.8243  42.1346  43.8294  44.5251  44.9166  45.5208  49.3290  49.8462
    51.0024  51.1246  51.9802  52.3930  53.1531  53.7761  54.0425  54.1916
    54.8858  54.9201  55.1068  55.3658  55.8457  56.1790  56.4072  56.7469
    56.9432  57.3455  57.5104  58.0590

          k = 0.2000 0.3333 0.0000 (  2656 PWs)   bands (ev):

   -62.8113 -62.7921 -36.5128 -36.4371 -36.3112 -36.0137 -35.9118 -35.8522
   -21.7839 -21.7786 -21.7755 -21.7740 -21.7659 -21.7493  -5.9418  -5.5938
    -4.9901  -3.9260  -3.8956  -3.7779  -3.4426  -3.3718  -3.2235  -3.1848
    -3.0768  -3.0298  -3.0201  -2.9623  -2.9374  -2.9219  -2.2942  -1.8570
    25.4636  25.6175  25.7380  25.8046  25.8314  25.8767  25.9996  26.0851
    26.1978  26.2460  30.2730  30.6992  31.3825  32.1672  32.3691  32.5136
    32.6888  33.5171  34.0956  34.2010  34.5272  34.7130  34.8336  35.3163
    35.8825  35.9744  36.0408  37.1137  37.1397  37.6068  38.1262  38.4288
    38.9628  39.0690  39.9508  40.1461  40.5376  40.9229  40.9555  41.1682
    41.5238  42.4551  43.0769  45.5854  46.1511  46.4085  49.7680  50.0381
    50.2625  51.0727  51.8211  52.4394  53.4250  53.5488  53.6507  53.7476
    54.3048  54.6295  54.6413  55.0117  55.2202  55.6524  55.9802  56.2721
    56.3831  57.3490  57.6283  58.5052

          k = 0.2000 0.3333 0.1429 (  2657 PWs)   bands (ev):

   -62.8134 -62.7903 -36.4909 -36.4250 -36.3137 -36.0176 -35.9107 -35.8843
   -21.7817 -21.7801 -21.7762 -21.7704 -21.7654 -21.7516  -5.7703  -5.5883
    -4.9969  -3.8986  -3.8754  -3.7652  -3.5292  -3.2948  -3.2517  -3.1615
    -3.1028  -3.0708  -2.9943  -2.9714  -2.9384  -2.9254  -2.2959  -2.0871
    25.5035  25.6197  25.7677  25.7766  25.8042  25.8399  25.9821  26.0714
    26.1202  26.1613  30.3138  30.8417  31.8877  32.3283  32.4855  32.6788
    32.8404  33.6424  33.9353  34.2132  34.4727  34.7925  34.9290  35.0696
    36.0551  36.1610  36.3814  36.8435  37.1730  37.5910  37.9646  38.1111
    38.9070  39.3684  39.7584  40.1239  40.2803  40.3875  40.5343  41.4134
    41.6395  42.0927  43.4982  44.5509  45.8455  46.5118  49.1259  50.1047
    50.5062  51.0424  51.8127  52.3612  53.2417  53.7401  53.9822  54.3291
    54.4367  54.7288  54.9136  55.1424  55.3415  55.7894  56.0084  56.2578
    56.7103  57.4441  57.6911  58.2674

          k = 0.2000 0.3333 0.2857 (  2656 PWs)   bands (ev):

   -62.8100 -62.7906 -36.4486 -36.3819 -36.3172 -36.0166 -35.9681 -35.9138
   -21.7832 -21.7827 -21.7757 -21.7639 -21.7603 -21.7485  -5.5989  -5.2627
    -4.9968  -3.8557  -3.7955  -3.7391  -3.6155  -3.2793  -3.2634  -3.2003
    -3.1285  -3.0891  -3.0159  -2.9698  -2.9436  -2.9148  -2.6878  -2.2937
    25.5400  25.6055  25.7240  25.7466  25.7569  25.8336  25.9123  25.9481
    26.0369  26.0988  30.5202  31.1421  32.3391  32.8955  33.0157  33.2201
    33.3596  33.7481  34.0653  34.1830  34.3745  34.7210  35.0459  35.2959
    36.0221  36.3274  36.4761  36.8280  37.2324  37.4717  37.5308  37.9008
    38.9418  39.1530  39.6336  39.8354  39.9343  39.9994  40.0750  40.9280
    41.6926  41.8530  42.4971  44.0146  45.0807  46.4713  47.7698  49.6995
    50.8206  50.9460  52.1216  52.6090  53.6695  53.9850  54.3201  54.6564
    55.1999  55.3662  55.4733  55.6808  56.0665  56.1749  56.3796  56.6674
    56.8429  57.2158  57.5089  58.4504

          k = 0.2000 0.3333 0.4286 (  2643 PWs)   bands (ev):

   -62.7899 -62.7852 -36.4276 -36.3475 -36.2354 -36.1000 -36.0013 -35.9144
   -21.7788 -21.7777 -21.7664 -21.7655 -21.7465 -21.7390  -5.5911  -5.0234
    -4.4887  -3.8119  -3.8039  -3.7061  -3.6077  -3.5168  -3.3383  -3.3142
    -3.1986  -3.1282  -3.0539  -2.9904  -2.9656  -2.9425  -2.9150  -2.2883
    25.4985  25.5192  25.6286  25.7572  25.7722  25.8123  25.8743  25.9195
    25.9919  26.1074  30.9033  31.2297  32.3016  33.0530  33.3104  33.5001
    33.8984  34.1893  34.2794  34.5579  34.6816  35.2294  35.3859  35.5851
    35.8853  36.0785  36.2909  36.4741  36.9775  37.4871  37.7130  38.0286
    38.4972  38.6516  39.3098  39.4429  39.7540  39.8520  40.1415  40.2240
    40.8699  42.0050  42.2489  43.4257  44.4963  46.0193  47.6775  48.8169
    50.9690  51.2446  52.2121  53.6365  53.8463  54.4087  54.4775  54.6722
    55.2008  55.6653  55.8769  55.9343  56.0302  56.7723  56.8465  57.0073
    57.2434  57.3998  57.9354  58.6197

          k = 0.2000-0.5000 0.0000 (  2658 PWs)   bands (ev):

   -62.8019 -62.8016 -36.4957 -36.4448 -36.1705 -36.1681 -35.9126 -35.8529
   -21.7811 -21.7796 -21.7784 -21.7760 -21.7565 -21.7546  -5.9373  -5.5957
    -4.0957  -4.0237  -3.9108  -3.8445  -3.6462  -3.5351  -3.3715  -3.2603
    -3.2305  -3.0695  -3.0042  -2.9974  -2.9351  -2.9301  -2.2942  -1.8548
    25.4686  25.4981  25.6307  25.7448  25.8733  25.8753  26.0047  26.0765
    26.1666  26.2538  30.5179  30.6054  31.3734  32.3760  32.4681  32.6859
    33.1919  33.7484  34.1678  34.4120  35.1407  35.1635  35.4574  35.5853
    35.6602  35.9670  36.3954  36.6234  36.7896  37.5207  37.8326  38.0596
    38.2100  38.6572  39.1633  40.0026  40.2087  40.4969  40.8199  41.6026
    41.7978  42.8032  42.9891  44.4032  45.8496  46.3633  49.6607  49.7655
    51.0401  51.3202  51.7464  52.4404  53.2268  53.5664  53.7992  53.8020
    54.4357  54.5934  54.7930  54.8400  55.5949  56.2413  56.3148  56.8127
    57.1137  57.6455  57.7520  58.4387

          k = 0.2000-0.5000 0.1429 (  2658 PWs)   bands (ev):

   -62.8021 -62.8017 -36.4673 -36.4421 -36.1706 -36.1701 -35.9126 -35.8839
   -21.7848 -21.7836 -21.7780 -21.7760 -21.7508 -21.7500  -5.7607  -5.5962
    -4.0836  -4.0559  -3.8573  -3.8359  -3.6317  -3.5837  -3.3414  -3.3091
    -3.1689  -3.1218  -2.9887  -2.9687  -2.9632  -2.9496  -2.2939  -2.0891
    25.4907  25.5027  25.6730  25.7275  25.8374  25.8406  26.0011  26.0693
    26.0835  26.1615  30.6506  30.6854  31.8778  32.3527  32.7512  32.8502
    33.3567  33.5785  34.3258  34.4643  34.9705  35.1974  35.5462  35.6397
    35.7957  36.0105  36.3916  36.6104  37.1067  37.3428  37.6436  37.7391
    38.3430  38.4478  39.5127  39.8241  40.2403  40.2760  40.5946  40.7220
    41.8534  42.3510  43.9199  44.4131  45.1328  45.2938  49.5989  49.7982
    51.0999  51.2463  51.9309  52.3986  53.2439  53.3480  53.9706  54.0911
    54.8376  54.8779  55.0787  55.3032  55.7845  56.2077  56.6252  56.7358
    57.0356  57.3287  57.7072  57.8919

          k = 0.2000-0.5000 0.2857 (  2648 PWs)   bands (ev):

   -62.7926 -62.7920 -36.4307 -36.3854 -36.1710 -36.1704 -35.9640 -35.9130
   -21.7781 -21.7759 -21.7730 -21.7719 -21.7455 -21.7435  -5.5909  -5.2530
    -4.0996  -4.0610  -3.7949  -3.7718  -3.6613  -3.5792  -3.3367  -3.3260
    -3.1729  -3.1348  -3.0273  -2.9805  -2.9644  -2.9438  -2.6921  -2.2918
    25.4995  25.5104  25.6510  25.7515  25.7825  25.7960  25.9039  25.9784
    25.9896  26.1015  30.9529  30.9893  32.3095  33.0231  33.2810  33.3967
    33.5874  33.7299  34.4678  34.5406  34.7656  35.0069  35.5924  35.7371
    35.9681  36.1051  36.5058  36.8304  37.1068  37.1212  37.4927  37.8747
    38.2083  38.2919  39.5016  39.6514  39.8098  39.9782  40.2120  40.4038
    40.9250  41.9888  43.2674  43.4115  44.6143  45.3203  48.4667  48.8829
    51.0131  51.1880  52.3488  53.3436  53.6802  53.9714  54.5087  54.5268
    55.3255  55.3641  55.7374  55.8505  56.1170  56.5599  56.6877  56.7926
    57.1536  57.4279  58.0814  58.2332

          k = 0.2000-0.5000 0.4286 (  2646 PWs)   bands (ev):

   -62.7902 -62.7896 -36.4243 -36.2641 -36.1744 -36.1730 -36.0857 -35.9159
   -21.7776 -21.7773 -21.7740 -21.7715 -21.7390 -21.7367  -5.5940  -4.5164
    -4.1259  -4.0491  -3.7899  -3.7481  -3.7241  -3.5340  -3.4642  -3.3554
    -3.3542  -3.1552  -3.1078  -3.1002  -2.9613  -2.9567  -2.9523  -2.2906
    25.4708  25.4728  25.5351  25.7736  25.7738  25.8337  25.8437  25.8579
    25.9741  26.1187  31.3182  31.3361  32.2481  32.9040  33.3476  33.7067
    34.3596  34.5764  34.6778  35.1420  35.1493  35.4080  35.4343  35.6179
    35.7720  36.0028  36.0262  36.5367  37.0179  37.1718  38.0890  38.1681
    38.2699  38.4589  38.6687  39.0812  39.4579  39.5177  39.9071  40.5883
    40.7117  41.5657  41.7452  42.1271  44.8026  46.4653  47.0080  47.9293
    51.2440  51.3516  51.9283  54.1157  54.3539  54.4612  54.6935  55.1375
    55.5089  55.6081  56.2017  56.3786  56.5775  56.9371  57.0039  57.2562
    57.5183  57.7485  57.9664  58.2456

          k = 0.4000 0.0000 0.0000 (  2657 PWs)   bands (ev):

   -62.8150 -62.7863 -36.5231 -36.4834 -36.2616 -36.0711 -35.8467 -35.8467
   -21.7855 -21.7855 -21.7724 -21.7724 -21.7654 -21.7504  -5.9574  -5.9060
    -4.6254  -3.9651  -3.9651  -3.6920  -3.4812  -3.3596  -3.3142  -3.3142
    -3.1051  -3.0239  -3.0211  -3.0211  -2.9565  -2.9565  -1.8632  -1.8632
    25.4405  25.5770  25.7279  25.7279  25.8842  25.9089  26.1114  26.1910
    26.2546  26.2546  30.2883  30.4892  31.3881  31.4864  31.9711  31.9711
    32.6851  33.9688  33.9688  34.4530  34.7895  35.2346  35.3817  35.3817
    35.4132  35.7192  36.3186  36.7054  36.8652  36.8652  38.4655  38.6780
    38.6780  39.2281  39.3307  39.6042  40.6779  40.6779  41.8738  41.9669
    42.3259  42.3259  45.1539  45.1539  45.6163  46.3094  50.2952  50.2952
    50.3203  50.3556  50.9129  52.5211  53.2333  53.2333  54.1648  54.2789
    54.3386  54.3386  55.3224  55.3225  55.5340  55.8405  55.8405  55.8579
    56.3883  56.4309  57.5164  58.2603

          k = 0.4000 0.0000 0.1429 (  2659 PWs)   bands (ev):

   -62.8115 -62.7961 -36.5093 -36.4641 -36.2585 -36.0725 -35.8821 -35.8563
   -21.7838 -21.7833 -21.7802 -21.7738 -21.7622 -21.7511  -5.9436  -5.7578
    -4.6357  -3.9360  -3.9238  -3.6978  -3.4940  -3.3858  -3.3501  -3.2594
    -3.1642  -3.0455  -3.0380  -2.9805  -2.9549  -2.9509  -2.0916  -1.8525
    25.4529  25.5691  25.7008  25.7552  25.8601  25.8882  26.0549  26.1546
    26.1762  26.2514  30.3214  30.6055  31.4015  31.9398  32.1663  32.3350
    32.7576  33.9032  34.1372  34.2876  34.8988  35.1114  35.3167  35.3951
    35.7711  35.8270  35.9328  36.6742  36.8090  37.3637  38.2717  38.2841
    38.9493  38.9828  39.4591  39.7454  40.5279  40.6923  41.1158  41.7313
    41.8950  42.5655  43.8362  45.4384  45.8785  46.0276  49.9506  50.0881
    50.5486  51.0478  51.2990  52.3786  53.2921  53.6982  53.8074  54.1604
    54.2952  54.3253  54.5338  55.1210  55.4112  55.7527  56.1155  56.4823
    56.5299  57.2812  57.7158  58.0307

          k = 0.4000 0.0000 0.2857 (  2657 PWs)   bands (ev):

   -62.8112 -62.7942 -36.4923 -36.3900 -36.2607 -36.0768 -35.9721 -35.8572
   -21.7906 -21.7824 -21.7794 -21.7759 -21.7534 -21.7405  -5.9411  -5.2612
    -4.6441  -3.8793  -3.8386  -3.7266  -3.4967  -3.4141  -3.4030  -3.2909
    -3.2073  -3.0814  -3.0368  -2.9749  -2.9348  -2.9124  -2.6873  -1.8615
    25.4423  25.5286  25.6042  25.7865  25.8406  25.8806  25.9299  25.9703
    26.1833  26.2539  30.5096  30.8684  31.3567  32.7102  32.7669  33.0526
    33.3836  33.8417  34.2045  34.5241  34.9287  35.0544  35.2315  35.3966
    35.5625  35.7964  35.9876  36.4065  37.6084  37.8135  37.8602  38.2352
    38.4599  39.1256  39.3170  39.9162  40.2339  40.3548  40.6289  40.8204
    41.3014  41.6228  42.8068  43.8962  45.8738  47.1688  49.5036  49.5396
    50.3316  51.2781  52.5832  52.9300  53.0481  53.3654  53.5322  54.2803
    54.4323  54.5226  55.0100  55.5547  55.7154  55.9525  56.2976  56.6353
    56.9469  57.9638  58.1481  58.1895

          k = 0.4000 0.0000 0.4286 (  2657 PWs)   bands (ev):

   -62.8056 -62.7987 -36.4902 -36.3013 -36.2321 -36.1161 -36.0599 -35.8552
   -21.7934 -21.7862 -21.7814 -21.7718 -21.7464 -21.7381  -5.9344  -4.6939
    -4.4759  -3.8196  -3.7917  -3.7601  -3.5738  -3.4587  -3.4447  -3.4140
    -3.3947  -3.1273  -3.1002  -3.0957  -2.9305  -2.9152  -2.8988  -1.8709
    25.4068  25.4389  25.4904  25.7931  25.8216  25.8721  25.9074  25.9139
    26.1826  26.2674  30.8496  31.0287  31.3037  32.6034  33.3605  33.3707
    34.0976  34.2947  34.5413  34.8642  35.0046  35.0715  35.3308  35.5732
    35.7168  35.8366  36.0004  36.0319  37.6950  37.9827  38.1392  38.1711
    38.2814  38.9770  39.1787  39.4360  39.4576  39.8414  40.0274  40.6479
    40.7817  41.0265  42.2672  43.0142  45.6771  48.1554  48.9704  49.0748
    50.5407  50.9508  52.4655  53.1614  53.5400  53.6025  53.6150  54.1798
    54.5187  54.8881  55.0224  55.5341  56.2312  56.6522  56.9371  56.9689
    57.5331  57.7092  58.4649  58.5892

          k = 0.4000 0.1667 0.0000 (  2659 PWs)   bands (ev):

   -62.8080 -62.7998 -36.5054 -36.4561 -36.2588 -36.0731 -35.8935 -35.8576
   -21.7847 -21.7830 -21.7765 -21.7757 -21.7619 -21.7517  -5.9435  -5.6958
    -4.6374  -3.9283  -3.9118  -3.6996  -3.4966  -3.3897  -3.3606  -3.2498
    -3.1849  -3.0512  -3.0292  -2.9875  -2.9522  -2.9417  -2.1709  -1.8521
    25.4546  25.5660  25.6903  25.7623  25.8546  25.8830  26.0337  26.1236
    26.1764  26.2510  30.3385  30.6446  31.3943  32.1118  32.2356  32.4542
    32.7774  33.8825  34.1928  34.2488  34.9328  35.0910  35.3074  35.4228
    35.7856  35.8158  35.8556  36.7761  36.8014  37.4323  38.1886  38.2645
    38.8977  38.9992  39.4162  39.8479  40.4828  40.6625  40.9597  41.6690
    41.7389  42.6052  43.4947  45.2543  45.9911  46.0855  49.9071  50.0153
    50.5175  51.1499  51.5029  52.3189  53.3138  53.6880  53.8962  54.0426
    54.3043  54.3377  54.6188  55.0308  55.4019  55.8755  56.1821  56.4802
    56.5391  57.4448  57.7515  58.0358

          k = 0.4000 0.1667 0.1429 (  2662 PWs)   bands (ev):

   -62.8095 -62.8028 -36.4851 -36.4469 -36.2615 -36.0792 -35.8945 -35.8855
   -21.7862 -21.7835 -21.7791 -21.7761 -21.7614 -21.7513  -5.7688  -5.6885
    -4.6440  -3.9000  -3.8960  -3.6977  -3.5468  -3.4045  -3.3095  -3.2824
    -3.1537  -3.1208  -2.9854  -2.9835  -2.9720  -2.9485  -2.1715  -2.0922
    25.4797  25.5639  25.7262  25.7445  25.8181  25.8516  26.0189  26.0967
    26.1240  26.1608  30.4011  30.7700  31.8978  32.0811  32.5365  32.6307
    32.8979  34.0075  34.0974  34.1959  34.9211  35.0425  35.3695  35.4046
    35.7270  36.0229  36.2406  36.4032  37.0052  37.4984  37.8896  38.1122
    38.7069  39.2881  39.5170  39.6745  40.2907  40.5789  40.6758  40.9361
    42.0068  42.1978  44.0635  44.5643  45.4829  45.8048  49.6430  50.0289
    50.7931  51.1485  51.6389  52.3040  53.1485  53.7959  53.8978  54.0866
    54.6475  54.7570  54.7869  55.0915  55.5429  55.9519  56.2763  56.5710
    56.9253  57.3429  57.5982  57.8915

          k = 0.4000 0.1667 0.2857 (  2650 PWs)   bands (ev):

   -62.7953 -62.7941 -36.4531 -36.3846 -36.2640 -36.0719 -35.9670 -35.8955
   -21.7830 -21.7772 -21.7728 -21.7702 -21.7487 -21.7460  -5.6984  -5.2537
    -4.6466  -3.8428  -3.8214  -3.7068  -3.5886  -3.4066  -3.3245  -3.2913
    -3.1872  -3.1105  -3.0330  -2.9728  -2.9620  -2.9336  -2.6896  -2.1642
    25.4945  25.5440  25.6647  25.7698  25.7832  25.8247  25.9142  25.9660
    26.0503  26.1416  30.6364  31.0700  32.0378  32.9502  33.0054  33.2390
    33.4314  33.9064  34.1722  34.4332  34.6831  35.1954  35.3066  35.4213
    35.7154  36.1439  36.2210  36.5245  37.2516  37.5597  37.6544  37.9505
    38.6406  39.0949  39.3971  39.6337  39.9926  40.0038  40.1541  40.8413
    41.0163  42.1962  42.5636  44.1826  44.6804  46.2599  48.3850  49.5198
    50.9298  51.0655  52.1203  53.0119  53.4252  53.9767  54.2116  54.4108
    55.0169  55.3490  55.4684  55.6646  56.0106  56.3073  56.3891  56.7950
    56.9958  57.3204  57.7366  58.5822

          k = 0.4000 0.1667 0.4286 (  2652 PWs)   bands (ev):

   -62.7974 -62.7949 -36.4438 -36.3001 -36.2331 -36.1093 -36.0603 -35.9006
   -21.7834 -21.7824 -21.7760 -21.7696 -21.7479 -21.7376  -5.6976  -4.6857
    -4.4824  -3.7975  -3.7863  -3.7557  -3.6066  -3.4918  -3.4267  -3.3542
    -3.3377  -3.1444  -3.0944  -3.0855  -2.9565  -2.9523  -2.9318  -2.1669
    25.4619  25.4762  25.5511  25.7710  25.7926  25.8523  25.8634  25.8750
    26.0314  26.1573  31.0199  31.2543  31.9800  32.8788  33.3408  33.5689
    34.2130  34.3292  34.5544  34.9008  35.0656  35.2329  35.4114  35.6172
    35.7461  35.9044  35.9762  36.3156  36.9689  37.6742  38.0620  38.2297
    38.4392  38.7100  39.1022  39.2203  39.4347  39.7017  39.8374  40.3941
    40.9764  41.3810  42.3743  42.5122  44.9585  46.8643  47.4740  48.6883
    51.0839  51.2228  51.9220  53.7184  53.9764  54.2087  54.5755  54.8193
    54.9929  55.4497  55.7487  55.9344  56.0602  56.8910  57.0377  57.2390
    57.3052  57.5479  58.0373  58.5440

          k = 0.4000 0.3333 0.0000 (  2652 PWs)   bands (ev):

   -62.8022 -62.7935 -36.4913 -36.3537 -36.2584 -36.0771 -36.0083 -35.8531
   -21.7869 -21.7848 -21.7781 -21.7736 -21.7445 -21.7394  -5.9362  -5.0378
    -4.6414  -3.8558  -3.8088  -3.7379  -3.4861  -3.4257  -3.4051  -3.3284
    -3.2230  -3.0963  -3.0612  -2.9516  -2.9259  -2.9170  -2.9042  -1.8651
    25.4290  25.5000  25.5613  25.7900  25.8370  25.8921  25.9024  25.9311
    26.1840  26.2585  30.6156  30.9473  31.3429  32.7367  32.9407  33.2175
    33.7484  34.1216  34.3055  34.6583  34.7986  35.0602  35.1313  35.5023
    35.5699  35.7900  36.0224  36.1714  37.7792  37.8094  38.0798  38.2678
    38.2878  39.1378  39.3595  39.6864  40.0456  40.1464  40.4860  40.8241
    40.8730  41.1643  42.8868  43.3002  45.8100  47.5636  49.3182  49.3293
    50.3665  51.1816  52.7768  52.9819  53.2592  53.3906  53.5799  54.1418
    54.4631  54.6921  54.9229  55.5064  56.2007  56.2266  56.3426  56.7886
    57.2100  58.0885  58.1744  58.3216

          k = 0.4000 0.3333 0.1429 (  2654 PWs)   bands (ev):

   -62.8011 -62.7962 -36.4590 -36.3516 -36.2614 -36.0773 -36.0081 -35.8891
   -21.7851 -21.7824 -21.7798 -21.7723 -21.7451 -21.7429  -5.7615  -5.0354
    -4.6451  -3.8274  -3.8026  -3.7288  -3.5645  -3.4079  -3.3440  -3.3282
    -3.2103  -3.1141  -3.0582  -2.9660  -2.9624  -2.9256  -2.9113  -2.0875
    25.4712  25.5159  25.6086  25.7742  25.7982  25.8508  25.8931  25.9198
    26.0746  26.1748  30.7180  31.1116  31.8408  32.9201  33.0987  33.3578
    33.7914  34.1688  34.2469  34.5998  34.6529  35.1810  35.2730  35.4724
    35.6738  35.9567  36.1864  36.3194  37.3353  37.6913  37.7654  38.1653
    38.5373  39.0742  39.3243  39.5207  39.9221  39.9607  40.2477  40.3183
    41.0032  41.8425  42.4421  43.5107  45.0391  46.7961  48.1946  49.3350
    50.9634  51.0700  52.0652  53.3962  53.5327  53.8385  54.1060  54.4291
    55.0549  55.2783  55.3903  55.7389  55.8498  56.4709  56.5992  56.8533
    57.1784  57.4584  57.9190  58.5310

          k = 0.4000 0.3333 0.2857 (  2651 PWs)   bands (ev):

   -62.7943 -62.7940 -36.3815 -36.3372 -36.2668 -36.0758 -36.0115 -35.9721
   -21.7839 -21.7754 -21.7714 -21.7623 -21.7502 -21.7468  -5.2540  -5.0267
    -4.6555  -3.8230  -3.7682  -3.6815  -3.6187  -3.4003  -3.3230  -3.2659
    -3.2074  -3.1274  -3.0544  -3.0275  -2.9855  -2.9845  -2.9150  -2.6877
    25.5637  25.5698  25.6846  25.7013  25.7283  25.7759  25.8421  25.8650
    25.9382  25.9924  31.0387  31.4913  33.1904  33.2981  33.4611  33.7189
    33.8684  34.2083  34.3067  34.4883  34.6004  35.0620  35.1574  35.3797
    36.1768  36.3037  36.4693  36.7106  36.9077  37.1317  37.4675  37.6788
    38.7762  39.0263  39.1536  39.3877  39.5992  39.7210  39.7802  40.2733
    41.0111  41.3149  42.4128  43.2825  44.2045  45.2117  46.5037  48.1020
    50.9194  51.4607  52.7802  53.4643  54.5345  54.7794  55.1603  55.3319
    55.6179  55.8143  56.0705  56.4509  56.5691  56.8730  57.0796  57.2255
    57.4625  57.6539  57.7495  58.5208

          k = 0.4000 0.3333 0.4286 (  2646 PWs)   bands (ev):

   -62.7900 -62.7874 -36.3346 -36.2827 -36.2404 -36.1044 -36.0660 -36.0111
   -21.7771 -21.7706 -21.7668 -21.7571 -21.7526 -21.7446  -5.0243  -4.6674
    -4.4931  -3.8231  -3.8091  -3.7097  -3.6120  -3.4843  -3.3742  -3.3057
    -3.2511  -3.1747  -3.1007  -3.0677  -3.0402  -3.0184  -3.0094  -2.9183
    25.5735  25.5814  25.6607  25.6785  25.7075  25.7653  25.7951  25.8018
    25.8694  25.9261  31.5146  31.7799  33.4110  33.4767  33.7312  33.9758
    34.2209  34.5618  34.6516  34.7479  34.7706  35.1473  35.4231  35.4615
    35.9667  36.0286  36.2736  36.7000  36.8455  37.3637  37.5364  37.5504
    38.5617  38.7174  39.0694  39.2034  39.3840  39.5160  39.6766  40.0854
    40.3639  41.4434  41.9562  43.1469  43.4067  44.7660  45.3101  46.5987
    51.2976  51.7133  53.2410  54.2988  54.6364  55.4809  55.7483  56.1459
    56.2053  56.3086  56.4333  56.7593  56.8742  57.1256  57.3510  57.6264
    57.9763  58.1346  58.3474  58.6285

          k = 0.4000-0.5000 0.0000 (  2650 PWs)   bands (ev):

   -62.7958 -62.7956 -36.4871 -36.2942 -36.1738 -36.1727 -36.0624 -35.8523
   -21.7878 -21.7873 -21.7781 -21.7743 -21.7368 -21.7332  -5.9305  -4.6763
    -4.1405  -4.0135  -3.8045  -3.7395  -3.7030  -3.4522  -3.4406  -3.4202
    -3.4168  -3.1291  -3.1036  -3.1026  -2.9177  -2.9143  -2.8978  -1.8715
    25.4036  25.4185  25.4721  25.7946  25.8165  25.8664  25.9078  25.9202
    26.1826  26.2704  30.9609  31.0190  31.2765  32.5589  33.3911  33.5101
    34.1622  34.4071  34.4092  34.9089  35.0141  35.1202  35.4052  35.4236
    35.7308  35.9177  35.9907  36.9586  37.2323  37.6801  37.8919  38.3245
    38.4625  38.5850  39.0857  39.3910  39.5798  39.7064  40.0619  40.6934
    40.7326  41.0219  41.9297  43.0489  45.6428  48.3249  48.8609  49.0269
    50.6682  50.8240  52.4169  53.1945  53.4173  53.6100  53.6318  54.3585
    54.6772  54.9056  55.0535  55.5604  56.2204  56.7633  56.9652  57.1748
    57.4911  57.5618  58.4335  58.7884

          k = 0.4000-0.5000 0.1429 (  2650 PWs)   bands (ev):

   -62.7949 -62.7937 -36.4528 -36.2927 -36.1739 -36.1721 -36.0633 -35.8882
   -21.7808 -21.7803 -21.7763 -21.7735 -21.7414 -21.7389  -5.7573  -4.6730
    -4.1327  -4.0372  -3.7632  -3.7481  -3.7271  -3.4841  -3.4498  -3.3780
    -3.3542  -3.1427  -3.1020  -3.0960  -2.9449  -2.9411  -2.9172  -2.0868
    25.4421  25.4508  25.5169  25.7839  25.7945  25.8623  25.8644  25.8854
    26.0641  26.1875  31.1153  31.1546  31.7840  32.7697  33.3906  33.5707
    34.2605  34.3917  34.5198  35.0580  35.0670  35.2484  35.3758  35.6663
    35.7818  35.8362  35.9546  37.0129  37.0856  37.0898  37.9991  38.2725
    38.2943  38.5993  39.0783  39.2359  39.5053  39.6912  39.8065  40.5977
    40.6614  41.5045  41.9862  42.5771  45.1854  47.0619  47.8683  48.6998
    51.0996  51.2293  51.7896  53.5422  53.7702  54.0706  54.7067  54.8850
    55.0401  55.1822  55.6167  55.7073  56.1004  56.9702  56.9855  57.1759
    57.2979  57.7047  58.1110  58.6507

          k = 0.4000-0.5000 0.2857 (  2640 PWs)   bands (ev):

   -62.7837 -62.7834 -36.3679 -36.2836 -36.1706 -36.1685 -36.0638 -35.9728
   -21.7738 -21.7738 -21.7620 -21.7608 -21.7434 -21.7420  -5.2528  -4.6639
    -4.1049  -4.0665  -3.7975  -3.7819  -3.6371  -3.4828  -3.4142  -3.3109
    -3.2751  -3.1695  -3.0936  -3.0770  -3.0161  -2.9943  -2.9941  -2.6873
    25.5352  25.5359  25.6190  25.7244  25.7280  25.7783  25.8142  25.8525
    25.8644  25.9909  31.5330  31.5455  33.1715  33.2327  33.4677  33.8354
    34.4470  34.5565  34.6329  34.8118  34.8647  35.1456  35.5111  35.6401
    36.0216  36.0548  36.2914  36.5325  36.9569  37.2203  37.6887  37.8431
    38.2454  38.2820  39.0336  39.2489  39.3986  39.4537  39.8532  40.5020
    40.6169  41.0812  42.2204  42.4581  43.9504  45.0062  46.2605  46.8517
    51.3757  51.4546  52.7708  54.3322  54.7585  55.3580  55.5091  55.5902
    55.6854  56.1531  56.4137  56.6713  56.7599  57.0418  57.5432  57.5771
    57.7034  58.0481  58.0791  58.2533

          k = 0.4000-0.5000 0.4286 (  2640 PWs)   bands (ev):

   -62.7817 -62.7817 -36.2715 -36.2464 -36.1721 -36.1703 -36.0960 -36.0722
   -21.7677 -21.7676 -21.7548 -21.7547 -21.7510 -21.7509  -4.6625  -4.5008
    -4.0900  -4.0834  -3.8360  -3.8330  -3.6971  -3.5760  -3.3511  -3.3068
    -3.2433  -3.2126  -3.1413  -3.1271  -3.0785  -3.0741  -3.0567  -3.0547
    25.6114  25.6120  25.6631  25.6679  25.6945  25.7207  25.7616  25.7625
    25.8169  25.8357  32.0464  32.0477  33.5818  33.5822  34.0540  34.1146
    34.1788  34.2005  34.9567  35.0070  35.2084  35.3225  35.4720  35.5182
    35.7683  36.0178  36.7714  36.9126  36.9960  37.1515  37.3346  37.3540
    38.1983  38.3393  38.9532  39.1541  39.2704  39.3485  39.4317  39.4710
    41.2162  41.2538  42.4773  42.8765  43.0326  43.5527  44.6718  44.8131
    51.8602  51.8618  54.0320  54.4253  55.3043  55.4501  56.2477  56.3723
    56.6514  56.6532  57.2682  57.2842  57.3381  57.4288  57.5560  57.7072
    58.3906  58.5240  58.6198  58.7563

     the Fermi energy is    52.2862 ev

!    total energy              =   -2288.20978480 Ry
     Harris-Foulkes estimate   =   -2288.20978649 Ry
     estimated scf accuracy    <       0.00000195 Ry

     The total energy is the sum of the following terms:

     one-electron contribution =      37.91725354 Ry
     hartree contribution      =     217.56936639 Ry
     xc contribution           =    -212.76530245 Ry
     ewald contribution        =   -2330.70662567 Ry
     smearing contrib. (-TS)   =      -0.22447661 Ry

     convergence has been achieved in   9 iterations

     Forces acting on atoms (Ry/au):

     atom    1 type  1   force =     0.00000000    0.00000000    0.00000000
     atom    2 type  1   force =     0.00000000    0.00000000    0.00000000
     atom    3 type  1   force =     0.00000000    0.00000000    0.00000000
     atom    4 type  1   force =     0.00000000    0.00000000    0.00000000
     atom    5 type  1   force =     0.00000000    0.00000000    0.00000000
     atom    6 type  1   force =     0.00000000    0.00000000    0.00000000
     atom    7 type  2   force =     0.00000000    0.00000000    0.00000000
     atom    8 type  2   force =     0.00000000    0.00000000    0.00000000

     Total force =     0.000000     Total SCF correction =     0.000000


     entering subroutine stress ...

          total   stress  (Ry/bohr**3)                   (kbar)     P= 5814.50
   0.03952614   0.00000000   0.00000000       5814.50      0.00      0.00
   0.00000000   0.03952614   0.00000000          0.00   5814.50      0.00
   0.00000000   0.00000000   0.03952614          0.00      0.00   5814.50


     BFGS Geometry Optimization

     number of scf cycles    =   1
     number of bfgs steps    =   0

     enthalpy new            =   -2288.2097847951 Ry

     new trust radius        =       0.5000000000 bohr
     new conv_thr            =       0.0001000000 Ry

     new unit-cell volume =    828.02266 a.u.^3 (   122.70030 Ang^3 )

CELL_PARAMETERS (alat=  8.53457320)
   1.100269143   0.000000000   0.000000000
   0.000000000   1.100269143   0.000000000
   0.000000000   0.000000000   1.100269143

ATOMIC_POSITIONS (crystal)
Cr       0.000000000   0.500000000   0.250000000
Cr       0.000000000   0.500000000   0.750000000
Cr       0.500000000   0.750000000   0.000000000
Cr       0.500000000   0.250000000   0.000000000
Cr       0.750000000   0.000000000   0.500000000
Cr       0.250000000   0.000000000   0.500000000
Si       0.500000000   0.500000000   0.500000000
Si       0.000000000   0.000000000   0.000000000



     Writing output data file Prototype-La-cP8-Cr3Si.save
     NEW-OLD atomic charge density approx. for the potential
     NEW k-points:
        k(    1) = (   0.0000000   0.0000000   0.0000000), wk =   0.0095238
        k(    2) = (   0.0000000   0.0000000   0.1298384), wk =   0.0190476
        k(    3) = (   0.0000000   0.0000000   0.2596767), wk =   0.0190476
        k(    4) = (   0.0000000   0.0000000   0.3895151), wk =   0.0190476
        k(    5) = (   0.0000000   0.1514781   0.0000000), wk =   0.0190476
        k(    6) = (   0.0000000   0.1514781   0.1298384), wk =   0.0380952
        k(    7) = (   0.0000000   0.1514781   0.2596767), wk =   0.0380952
        k(    8) = (   0.0000000   0.1514781   0.3895151), wk =   0.0380952
        k(    9) = (   0.0000000   0.3029562   0.0000000), wk =   0.0190476
        k(   10) = (   0.0000000   0.3029562   0.1298384), wk =   0.0380952
        k(   11) = (   0.0000000   0.3029562   0.2596767), wk =   0.0380952
        k(   12) = (   0.0000000   0.3029562   0.3895151), wk =   0.0380952
        k(   13) = (   0.0000000  -0.4544343   0.0000000), wk =   0.0095238
        k(   14) = (   0.0000000  -0.4544343   0.1298384), wk =   0.0190476
        k(   15) = (   0.0000000  -0.4544343   0.2596767), wk =   0.0190476
        k(   16) = (   0.0000000  -0.4544343   0.3895151), wk =   0.0190476
        k(   17) = (   0.1817737   0.0000000   0.0000000), wk =   0.0190476
        k(   18) = (   0.1817737   0.0000000   0.1298384), wk =   0.0380952
        k(   19) = (   0.1817737   0.0000000   0.2596767), wk =   0.0380952
        k(   20) = (   0.1817737   0.0000000   0.3895151), wk =   0.0380952
        k(   21) = (   0.1817737   0.1514781   0.0000000), wk =   0.0380952
        k(   22) = (   0.1817737   0.1514781   0.1298384), wk =   0.0761905
        k(   23) = (   0.1817737   0.1514781   0.2596767), wk =   0.0761905
        k(   24) = (   0.1817737   0.1514781   0.3895151), wk =   0.0761905
        k(   25) = (   0.1817737   0.3029562   0.0000000), wk =   0.0380952
        k(   26) = (   0.1817737   0.3029562   0.1298384), wk =   0.0761905
        k(   27) = (   0.1817737   0.3029562   0.2596767), wk =   0.0761905
        k(   28) = (   0.1817737   0.3029562   0.3895151), wk =   0.0761905
        k(   29) = (   0.1817737  -0.4544343   0.0000000), wk =   0.0190476
        k(   30) = (   0.1817737  -0.4544343   0.1298384), wk =   0.0380952
        k(   31) = (   0.1817737  -0.4544343   0.2596767), wk =   0.0380952
        k(   32) = (   0.1817737  -0.4544343   0.3895151), wk =   0.0380952
        k(   33) = (   0.3635474   0.0000000   0.0000000), wk =   0.0190476
        k(   34) = (   0.3635474   0.0000000   0.1298384), wk =   0.0380952
        k(   35) = (   0.3635474   0.0000000   0.2596767), wk =   0.0380952
        k(   36) = (   0.3635474   0.0000000   0.3895151), wk =   0.0380952
        k(   37) = (   0.3635474   0.1514781   0.0000000), wk =   0.0380952
        k(   38) = (   0.3635474   0.1514781   0.1298384), wk =   0.0761905
        k(   39) = (   0.3635474   0.1514781   0.2596767), wk =   0.0761905
        k(   40) = (   0.3635474   0.1514781   0.3895151), wk =   0.0761905
        k(   41) = (   0.3635474   0.3029562   0.0000000), wk =   0.0380952
        k(   42) = (   0.3635474   0.3029562   0.1298384), wk =   0.0761905
        k(   43) = (   0.3635474   0.3029562   0.2596767), wk =   0.0761905
        k(   44) = (   0.3635474   0.3029562   0.3895151), wk =   0.0761905
        k(   45) = (   0.3635474  -0.4544343   0.0000000), wk =   0.0190476
        k(   46) = (   0.3635474  -0.4544343   0.1298384), wk =   0.0380952
        k(   47) = (   0.3635474  -0.4544343   0.2596767), wk =   0.0380952
        k(   48) = (   0.3635474  -0.4544343   0.3895151), wk =   0.0380952

     total cpu time spent up to now is      792.6 secs

     Self-consistent Calculation

     iteration #  1     ecut=    40.00 Ry     beta=0.70
     CG style diagonalization
     c_bands:  1 eigenvalues not converged
     c_bands:  1 eigenvalues not converged
     c_bands:  1 eigenvalues not converged
     c_bands:  1 eigenvalues not converged
     c_bands:  1 eigenvalues not converged
     c_bands:  1 eigenvalues not converged
     c_bands:  3 eigenvalues not converged
     c_bands:  2 eigenvalues not converged
     c_bands:  1 eigenvalues not converged
     c_bands:  2 eigenvalues not converged
     c_bands:  1 eigenvalues not converged
     c_bands:  3 eigenvalues not converged
     ethr =  1.00E-06,  avg # of iterations = 21.8

     total cpu time spent up to now is     1134.5 secs

     total energy              =   -2278.44251973 Ry
     Harris-Foulkes estimate   =   -2312.12561493 Ry
     estimated scf accuracy    <      42.72358700 Ry

     iteration #  2     ecut=    40.00 Ry     beta=0.70
     CG style diagonalization
     ethr =  1.00E-02,  avg # of iterations =  4.0

     total cpu time spent up to now is     1196.8 secs

     total energy              =   -2290.99277217 Ry
     Harris-Foulkes estimate   =   -2294.64993835 Ry
     estimated scf accuracy    <       5.46441338 Ry

     iteration #  3     ecut=    40.00 Ry     beta=0.70
     CG style diagonalization
     ethr =  3.29E-03,  avg # of iterations =  3.7

     total cpu time spent up to now is     1256.6 secs

     total energy              =   -2292.35469843 Ry
     Harris-Foulkes estimate   =   -2292.40571843 Ry
     estimated scf accuracy    <       0.07991090 Ry

     iteration #  4     ecut=    40.00 Ry     beta=0.70
     CG style diagonalization
     ethr =  4.81E-05,  avg # of iterations =  4.1

     total cpu time spent up to now is     1325.6 secs

     total energy              =   -2292.38603215 Ry
     Harris-Foulkes estimate   =   -2292.38811484 Ry
     estimated scf accuracy    <       0.00334287 Ry

     iteration #  5     ecut=    40.00 Ry     beta=0.70
     CG style diagonalization
     c_bands:  1 eigenvalues not converged
     c_bands:  1 eigenvalues not converged
     c_bands:  1 eigenvalues not converged
     ethr =  2.01E-06,  avg # of iterations =  4.1

     total cpu time spent up to now is     1394.7 secs

     End of self-consistent calculation

          k = 0.0000 0.0000 0.0000 (  2601 PWs)   bands (ev):

   -74.3764 -74.2561 -47.4050 -47.4050 -47.2584 -47.0312 -47.0312 -47.0312
   -33.8988 -33.8988 -33.8988 -33.8809 -33.8809 -33.8809 -15.5633 -15.5633
   -15.4651 -14.6499 -14.6499 -14.6499 -14.3421 -14.3421 -14.3421 -14.2795
   -14.2795 -14.2795 -14.2069 -14.2069 -14.2069 -13.7966 -13.7966 -13.7966
    14.3945  14.3945  14.5164  14.5164  14.5929  14.5929  14.5929  14.6806
    14.6806  14.6806  20.1914  21.5377  22.0560  22.1637  22.1637  22.3950
    22.3950  22.3950  23.4419  23.4419  23.4419  24.1143  25.5180  25.5180
    25.5180  25.6455  25.6455  26.7573  26.7573  26.7573  26.9655  26.9655
    26.9655  28.1323  28.1323  28.5997  28.5997  28.5997  28.6865  28.6865
    28.6865  32.4971  32.4971  32.4971  32.6806  33.0657  33.0657  34.7839
    37.8396  37.8396  37.8396  39.2895  39.2895  40.1244  40.1244  40.1244
    40.3076  40.3076  40.3076  41.3484  41.3484  41.3484  42.0286  42.0286
    42.0286  43.4117  44.8216  44.8216

          k = 0.0000 0.0000 0.1298 (  2657 PWs)   bands (ev):

   -74.4745 -74.3900 -47.4190 -47.3783 -47.2894 -47.1624 -47.1401 -47.1401
   -33.9243 -33.9243 -33.9181 -33.9022 -33.9022 -33.9009 -15.6018 -15.5789
   -15.4634 -14.6513 -14.6513 -14.6367 -14.3744 -14.3744 -14.3330 -14.3236
   -14.3115 -14.3115 -14.2602 -14.2602 -14.2555 -13.8910 -13.8132 -13.8132
    14.3788  14.4012  14.4905  14.4976  14.5552  14.5552  14.5726  14.6604
    14.6604  14.6693  20.3392  21.3337  22.0514  22.1463  22.4362  22.4872
    22.4872  22.8742  23.2995  23.5403  23.5403  24.2084  25.3133  25.3133
    25.4978  25.5754  25.6961  26.4167  26.7569  26.7569  27.0091  27.0349
    27.0349  27.9443  27.9889  28.5772  28.5772  28.6597  28.6597  28.7066
    28.8023  30.7399  32.4618  32.4618  32.7417  32.8787  34.7991  34.8124
    37.3328  37.3328  37.3763  37.8823  40.0628  40.0628  40.0738  40.2639
    40.7793  40.7793  41.2632  41.2632  41.2793  41.4209  42.1664  42.3447
    42.3447  43.2473  44.8893  45.1632

          k = 0.0000 0.0000 0.2597 (  2677 PWs)   bands (ev):

   -74.4970 -74.4511 -47.4201 -47.3643 -47.3611 -47.1921 -47.1593 -47.1593
   -33.9275 -33.9275 -33.9257 -33.9207 -33.9094 -33.9094 -15.5976 -15.5672
   -15.2604 -14.6404 -14.6404 -14.5979 -14.4047 -14.4006 -14.4006 -14.3155
   -14.3062 -14.3062 -14.2805 -14.2805 -14.2717 -14.1934 -13.8245 -13.8245
    14.3675  14.4271  14.4644  14.4877  14.5197  14.5197  14.5796  14.6330
    14.6330  14.6495  20.7184  21.1470  21.9741  22.1048  22.7146  22.7146
    23.0008  23.4332  23.7810  23.7953  23.7953  24.4703  25.0235  25.0235
    25.1392  25.4072  25.7389  25.8874  26.4022  26.4022  26.9701  27.1189
    27.1189  27.6513  27.7425  28.4753  28.4753  28.8632  28.8945  28.9431
    28.9878  28.9878  32.2624  32.2624  32.3841  32.5000  35.1377  36.1999
    36.4944  36.4944  37.2275  37.3052  40.1030  40.1030  40.6779  41.0151
    41.0151  41.0800  41.4696  41.5750  41.8088  41.8088  42.3503  42.5256
    42.8506  42.8506  45.2104  45.2104

          k = 0.0000 0.0000 0.3895 (  2658 PWs)   bands (ev):

   -74.4365 -74.4329 -47.3788 -47.3586 -47.2859 -47.2284 -47.1434 -47.1434
   -33.9161 -33.9161 -33.9122 -33.9122 -33.9109 -33.9029 -15.5886 -15.5750
   -14.9170 -14.6341 -14.6341 -14.5301 -14.5123 -14.4579 -14.3994 -14.3994
   -14.2974 -14.2904 -14.2904 -14.2798 -14.2666 -14.2666 -13.8172 -13.8172
    14.3945  14.4151  14.4751  14.4911  14.4911  14.4952  14.6031  14.6220
    14.6294  14.6294  21.0567  21.1080  21.9623  22.0431  22.9201  22.9201
    23.2019  23.8946  24.0521  24.0521  24.7050  24.8319  24.9132  24.9132
    25.0483  25.1813  25.6750  25.6860  25.8957  25.8957  26.6372  27.1157
    27.1157  27.1576  27.4949  27.5453  28.3695  28.3695  28.9689  28.9996
    29.5357  29.5357  31.9350  31.9350  32.0867  32.2069  35.4719  35.7460
    35.9579  35.9579  37.9906  38.7253  40.0790  40.0790  40.3615  41.0072
    41.1471  41.1472  41.2061  41.5691  42.3783  42.3783  42.4621  42.5270
    43.3031  43.3031  45.5459  45.7946

          k = 0.0000 0.1515 0.0000 (  2653 PWs)   bands (ev):

   -74.4599 -74.3899 -47.4030 -47.3715 -47.2836 -47.1667 -47.1410 -47.1410
   -33.9219 -33.9219 -33.9129 -33.9022 -33.9022 -33.9008 -15.6008 -15.5719
   -15.4433 -14.6448 -14.6448 -14.6197 -14.3784 -14.3784 -14.3386 -14.3223
   -14.3064 -14.3064 -14.2622 -14.2622 -14.2572 -13.9181 -13.8107 -13.8107
    14.3783  14.4055  14.4868  14.4978  14.5549  14.5549  14.5735  14.6570
    14.6570  14.6672  20.3918  21.2929  22.0414  22.1417  22.5187  22.5187
    22.5415  23.0116  23.2638  23.5746  23.5746  24.2417  25.2605  25.2605
    25.4894  25.5439  25.7085  26.3146  26.7251  26.7251  27.0175  27.0604
    27.0604  27.8938  27.9492  28.5688  28.5688  28.6743  28.6743  28.7341
    28.8299  30.4315  32.4437  32.4437  32.7144  32.8106  34.8442  35.1535
    37.1921  37.1921  37.3021  37.6392  40.0730  40.0730  40.2678  40.3170
    40.8704  40.8703  41.2853  41.2853  41.4103  41.4464  42.2075  42.4338
    42.4337  43.1563  44.9223  45.2771

          k = 0.0000 0.1515 0.1298 (  2662 PWs)   bands (ev):

   -74.4917 -74.3975 -47.3877 -47.3709 -47.3388 -47.1632 -47.1591 -47.1466
   -33.9286 -33.9257 -33.9189 -33.9159 -33.9000 -33.8943 -15.5942 -15.5202
   -15.4318 -14.6371 -14.6353 -14.6218 -14.4017 -14.3939 -14.3320 -14.3296
   -14.3225 -14.2900 -14.2800 -14.2709 -14.2447 -13.9429 -13.9053 -13.8134
    14.3847  14.4088  14.4811  14.4892  14.5444  14.5468  14.5616  14.6377
    14.6435  14.6633  20.5350  21.2162  22.0600  22.4038  22.5204  22.6190
    22.6822  23.2693  23.3460  23.4596  23.6752  24.3285  25.0090  25.1094
    25.5131  25.5780  25.7509  26.2772  26.6351  26.7732  26.9586  26.9681
    27.1227  27.7797  27.8886  28.4256  28.4810  28.5689  28.5979  28.7500
    29.0306  30.3876  30.7750  32.5252  32.7101  33.8063  34.8913  35.1662
    36.8417  36.9650  37.0221  38.3336  39.1401  39.7408  40.5436  40.5444
    40.6616  40.9124  41.4517  41.4877  41.7274  42.2256  42.5281  42.5754
    42.8217  43.4896  44.8681  45.1551

          k = 0.0000 0.1515 0.2597 (  2666 PWs)   bands (ev):

   -74.4700 -74.4369 -47.3862 -47.3620 -47.3303 -47.1968 -47.1676 -47.1519
   -33.9238 -33.9224 -33.9204 -33.9150 -33.9099 -33.9006 -15.5923 -15.4753
   -15.2620 -14.6226 -14.6201 -14.5915 -14.4338 -14.4098 -14.3570 -14.3314
   -14.3128 -14.2858 -14.2837 -14.2822 -14.2490 -14.1675 -13.9436 -13.8153
    14.3838  14.4293  14.4585  14.4844  14.5091  14.5268  14.5760  14.6093
    14.6172  14.6475  20.8952  21.1457  22.0108  22.4671  22.8700  22.9260
    23.1044  23.4011  23.6772  23.9334  23.9924  24.5532  24.6002  24.9124
    25.4350  25.4844  25.5898  25.9917  26.3975  26.4717  26.8569  26.8935
    27.2303  27.5153  27.8308  28.2484  28.3171  28.5273  28.6647  28.8064
    28.9338  29.3424  30.3988  32.4570  32.6157  32.7012  35.5351  35.7329
    36.1410  36.8456  37.4887  38.2027  39.0133  39.6145  40.2526  40.4692
    41.2531  41.2896  41.8312  41.9982  42.3043  42.6045  42.6985  43.1195
    43.4367  43.5580  44.9935  45.1946

          k = 0.0000 0.1515 0.3895 (  2658 PWs)   bands (ev):

   -74.4479 -74.4244 -47.3681 -47.3513 -47.2809 -47.2226 -47.1644 -47.1575
   -33.9200 -33.9186 -33.9159 -33.9108 -33.9086 -33.8972 -15.5956 -15.4754
   -14.9162 -14.6109 -14.6106 -14.5272 -14.5167 -14.4599 -14.4134 -14.3757
   -14.3424 -14.3078 -14.2863 -14.2770 -14.2719 -14.2577 -13.9440 -13.8046
    14.3948  14.4169  14.4698  14.4765  14.4854  14.5000  14.5873  14.6004
    14.6120  14.6340  21.1744  21.1793  21.9896  22.4451  23.1014  23.1043
    23.2773  23.8863  23.9734  24.1780  24.5924  24.7470  24.9638  25.0029
    25.1475  25.3206  25.3211  25.8186  25.8350  26.2646  26.5972  26.8083
    27.0396  27.2439  27.3065  27.8128  28.2143  28.3237  28.4833  28.8736
    29.1204  29.6283  30.4921  31.4817  32.2606  32.5885  35.3665  35.6382
    36.6912  37.0930  37.3211  38.1857  39.6298  39.7789  40.0854  40.6643
    41.2948  41.5402  41.5600  42.4138  42.6287  42.7970  42.8928  43.3344
    43.6655  43.7675  44.9636  45.0416

          k = 0.0000 0.3030 0.0000 (  2677 PWs)   bands (ev):

   -74.4970 -74.4497 -47.4192 -47.3950 -47.3150 -47.2394 -47.1428 -47.1428
   -33.9269 -33.9269 -33.9220 -33.9155 -33.9155 -33.9118 -15.5957 -15.5628
   -15.1782 -14.6416 -14.6416 -14.5765 -14.4371 -14.4043 -14.4043 -14.3096
[...]
    20.5843  21.0065  21.0890  21.1556  23.4510  23.8525  24.3958  24.9216
    28.2383  28.2638  29.8756  30.4858  30.9195  31.5345  32.1753  32.4554
    32.7408  33.2659  33.3488  33.3593  33.8082  33.8708  33.8749  34.7084
    35.0561  35.3067  35.3410  35.7688

          k = 0.3364 0.0000 0.0000 (  4440 PWs)   bands (ev):

   -83.3106 -83.2825 -55.1979 -55.1865 -55.1678 -55.1451 -55.1213 -55.1213
   -41.9831 -41.9831 -41.9766 -41.9734 -41.9734 -41.9626 -22.6594 -22.6400
   -22.3572 -22.1659 -22.1659 -22.1155 -22.0970 -22.0843 -22.0698 -22.0698
   -22.0389 -22.0300 -22.0299 -22.0168 -22.0108 -22.0108 -21.8024 -21.8024
     6.9193   6.9275   6.9400   6.9465   6.9694   6.9694   6.9939   7.0060
     7.0070   7.0070  14.7955  15.0256  15.9783  16.0256  16.8832  16.8832
    16.9912  17.5287  17.6159  17.6159  17.6964  18.1656  18.2128  18.2128
    18.2219  18.4543  18.7318  18.7758  18.9912  18.9912  19.3104  19.6654
    19.6654  19.8539  19.9279  19.9720  20.5111  20.5111  20.8155  20.8388
    21.2622  21.2622  23.3560  23.5616  23.9093  23.9093  25.8356  26.4839
    26.7885  26.7885  28.5909  29.3814  30.5278  30.6573  30.6573  31.6727
    31.6795  31.6795  32.0836  32.3733  33.0505  33.6175  33.7450  33.7451
    35.4845  35.4845  36.4102  36.4103

          k = 0.3364 0.0000 0.1201 (  4466 PWs)   bands (ev):

   -83.3132 -83.3102 -55.1988 -55.1934 -55.1747 -55.1491 -55.1317 -55.1263
   -41.9903 -41.9861 -41.9847 -41.9828 -41.9784 -41.9709 -22.6540 -22.6135
   -22.3616 -22.1633 -22.1620 -22.1219 -22.1057 -22.0927 -22.0848 -22.0699
   -22.0523 -22.0387 -22.0270 -22.0270 -22.0184 -22.0155 -21.8501 -21.8073
     6.9202   6.9277   6.9380   6.9458   6.9651   6.9693   6.9925   6.9991
     7.0003   7.0081  14.8724  15.0571  15.9966  16.2258  16.9508  16.9767
    17.0489  17.4959  17.6118  17.6776  17.6872  18.0667  18.0959  18.2726
    18.4484  18.5261  18.5292  18.8170  18.9686  19.1336  19.2983  19.5152
    19.6959  19.8062  19.8593  20.0745  20.4495  20.5009  20.5862  20.7844
    21.0523  21.3166  22.4824  23.3291  23.7194  24.2154  25.9514  26.6479
    26.9226  27.7707  28.0022  29.0602  29.9506  30.1988  30.7513  31.3277
    32.2463  32.4042  32.5388  33.1445  33.2224  33.5754  33.7677  34.1911
    35.4426  35.7145  35.9381  36.1754

          k = 0.3364 0.0000 0.2403 (  4466 PWs)   bands (ev):

   -83.3204 -83.3042 -55.1958 -55.1829 -55.1719 -55.1546 -55.1408 -55.1310
   -41.9895 -41.9870 -41.9850 -41.9816 -41.9807 -41.9708 -22.6570 -22.5040
   -22.3679 -22.1505 -22.1477 -22.1279 -22.1073 -22.0932 -22.0915 -22.0764
   -22.0633 -22.0444 -22.0373 -22.0190 -22.0150 -22.0093 -21.9653 -21.8004
     6.9216   6.9269   6.9389   6.9439   6.9550   6.9701   6.9843   6.9897
     6.9963   7.0103  15.0567  15.1445  15.9928  16.8459  17.1203  17.1600
    17.2352  17.4277  17.6137  17.7011  17.8318  18.0088  18.0367  18.2007
    18.4149  18.5791  18.6507  18.8321  19.1029  19.2333  19.2875  19.3034
    19.6591  19.7163  19.7655  20.0985  20.2471  20.3025  20.4353  20.5541
    20.6850  21.1821  21.3893  22.2869  23.9789  24.8917  25.9936  26.3224
    26.8086  27.8296  28.6224  29.3306  29.5241  30.1680  30.4604  31.5899
    32.7807  32.8649  33.1865  33.6782  33.7443  34.0951  34.3948  34.5722
    34.9148  35.2704  35.8961  36.0186

          k = 0.3364 0.0000 0.3604 (  4464 PWs)   bands (ev):

   -83.3137 -83.3102 -55.1914 -55.1743 -55.1668 -55.1577 -55.1520 -55.1341
   -41.9897 -41.9874 -41.9809 -41.9803 -41.9791 -41.9750 -22.6592 -22.3745
   -22.3329 -22.1533 -22.1370 -22.1347 -22.1213 -22.1033 -22.0964 -22.0894
   -22.0842 -22.0583 -22.0523 -22.0489 -22.0197 -22.0131 -22.0079 -21.7928
     6.9221   6.9238   6.9422   6.9441   6.9453   6.9704   6.9736   6.9880
     6.9943   7.0118  15.2151  15.2293  15.9882  17.0905  17.3118  17.3682
    17.5509  17.6913  17.7143  17.7681  17.8790  17.8997  18.0924  18.2709
    18.4848  18.5844  18.6302  18.7195  19.1181  19.2160  19.3264  19.3567
    19.4379  19.5315  19.6667  19.8250  19.8770  20.0822  20.3553  20.5401
    20.5513  20.6015  21.3674  21.4413  24.3284  25.5229  26.0328  26.1292
    26.3058  26.9108  28.6030  29.8857  29.9602  30.8785  31.4474  31.6586
    32.9431  33.1501  33.3692  33.5058  33.6050  33.7546  33.9056  34.9491
    35.2590  35.5470  35.7293  35.8115

          k = 0.3364 0.1402 0.0000 (  4456 PWs)   bands (ev):

   -83.3088 -83.3032 -55.1984 -55.1891 -55.1718 -55.1487 -55.1310 -55.1231
   -41.9853 -41.9836 -41.9836 -41.9824 -41.9737 -41.9693 -22.6542 -22.5962
   -22.3621 -22.1602 -22.1591 -22.1215 -22.1045 -22.0922 -22.0832 -22.0648
   -22.0562 -22.0368 -22.0279 -22.0221 -22.0153 -22.0109 -21.8590 -21.8059
     6.9210   6.9281   6.9384   6.9460   6.9638   6.9698   6.9920   6.9971
     6.9994   7.0087  14.8989  15.0693  15.9964  16.3043  16.9746  17.0097
    17.0671  17.4886  17.6057  17.6827  17.6989  18.0666  18.0797  18.2911
    18.4196  18.5271  18.5499  18.8472  18.9574  19.1578  19.2960  19.4774
    19.7052  19.7915  19.8310  20.1027  20.4293  20.4603  20.5557  20.7704
    20.9771  21.3294  22.2598  23.1825  23.7409  24.3135  25.9357  26.6019
    27.1591  27.7099  28.1199  28.9245  29.9759  30.0710  30.6160  31.4209
    32.3285  32.5425  32.6498  33.2181  33.4126  33.6290  33.7774  34.3000
    35.4081  35.7922  35.7996  36.1199

          k = 0.3364 0.1402 0.1201 (  4447 PWs)   bands (ev):

   -83.3038 -83.2981 -55.1942 -55.1875 -55.1712 -55.1457 -55.1312 -55.1222
   -41.9842 -41.9830 -41.9815 -41.9746 -41.9709 -41.9698 -22.6134 -22.5932
   -22.3629 -22.1534 -22.1517 -22.1201 -22.1067 -22.0970 -22.0742 -22.0691
   -22.0472 -22.0403 -22.0266 -22.0248 -22.0139 -22.0075 -21.8596 -21.8425
     6.9226   6.9292   6.9373   6.9446   6.9655   6.9671   6.9919   6.9928
     6.9993   7.0030  14.9762  15.1082  16.2157  16.3111  17.0557  17.0759
    17.1333  17.5363  17.5666  17.6735  17.6971  18.0563  18.1146  18.2643
    18.4428  18.5929  18.6248  18.6814  19.0400  19.1506  19.2903  19.4499
    19.5771  19.7473  19.9726  20.0244  20.3834  20.4274  20.4806  20.5553
    21.0326  21.1241  22.3965  22.8201  23.3159  23.8426  26.4304  26.5404
    27.3787  27.8412  28.0764  28.4485  30.1252  30.7581  31.0275  31.2995
    32.0523  32.5966  33.0036  33.1341  33.3319  33.9820  34.4038  34.5172
    35.4574  35.6809  35.8189  35.8398

          k = 0.3364 0.1402 0.2403 (  4460 PWs)   bands (ev):

   -83.3112 -83.3075 -55.1929 -55.1826 -55.1731 -55.1521 -55.1400 -55.1304
   -41.9895 -41.9879 -41.9835 -41.9790 -41.9730 -41.9728 -22.5968 -22.5014
   -22.3696 -22.1472 -22.1447 -22.1247 -22.1109 -22.0997 -22.0785 -22.0713
   -22.0609 -22.0437 -22.0382 -22.0240 -22.0168 -22.0117 -21.9618 -21.8611
     6.9250   6.9294   6.9369   6.9421   6.9581   6.9680   6.9816   6.9888
     6.9910   7.0006  15.1524  15.2051  16.3034  16.8645  17.2307  17.2522
    17.3079  17.4906  17.6254  17.6804  17.7632  17.9775  18.1187  18.2915
    18.3680  18.6227  18.6746  18.8009  19.0138  19.1379  19.2465  19.2946
    19.5739  19.6778  19.8676  20.0473  20.1345  20.2594  20.3172  20.4745
    20.6228  21.0942  21.5037  22.5197  22.8604  24.0000  25.3792  26.4220
    27.4872  27.9515  28.8099  29.5827  30.4094  30.7407  30.9575  31.7156
    32.4549  33.0220  33.3229  33.3333  33.6911  34.2514  34.6460  34.8181
    35.1078  35.3620  35.6411  36.0966

          k = 0.3364 0.1402 0.3604 (  4471 PWs)   bands (ev):

   -83.3172 -83.3156 -55.1911 -55.1739 -55.1719 -55.1583 -55.1530 -55.1372
   -41.9906 -41.9877 -41.9861 -41.9806 -41.9797 -41.9788 -22.6024 -22.3762
   -22.3356 -22.1538 -22.1393 -22.1332 -22.1261 -22.1060 -22.0976 -22.0855
   -22.0806 -22.0602 -22.0511 -22.0493 -22.0225 -22.0194 -22.0134 -21.8577
     6.9249   6.9268   6.9399   6.9414   6.9488   6.9689   6.9721   6.9854
     6.9876   7.0008  15.2992  15.3033  16.3048  17.2137  17.3968  17.4610
    17.5738  17.6680  17.7422  17.8053  17.8964  17.9739  18.0689  18.3063
    18.4114  18.5795  18.6366  18.7013  18.9166  19.0952  19.2662  19.3114
    19.4702  19.5362  19.6419  19.8280  19.8884  20.0327  20.1891  20.3668
    20.6500  20.9592  21.1342  21.5462  23.3759  24.3207  24.6734  25.6258
    27.7018  27.9549  29.5347  30.3687  30.5091  31.0223  31.7066  31.8884
    33.0831  33.1296  33.4057  33.6692  33.6874  33.8885  34.0214  34.6887
    35.1527  35.2028  35.6947  35.8231

          k = 0.3364 0.2803 0.0000 (  4467 PWs)   bands (ev):

   -83.3171 -83.3095 -55.1971 -55.1796 -55.1719 -55.1572 -55.1440 -55.1294
   -41.9894 -41.9877 -41.9854 -41.9805 -41.9795 -41.9741 -22.6557 -22.4554
   -22.3689 -22.1470 -22.1453 -22.1298 -22.1076 -22.0926 -22.0910 -22.0830
   -22.0648 -22.0480 -22.0445 -22.0171 -22.0158 -22.0123 -22.0062 -21.8003
     6.9217   6.9262   6.9399   6.9438   6.9513   6.9703   6.9794   6.9889
     6.9957   7.0107  15.1207  15.1770  15.9909  17.0838  17.1442  17.2163
    17.3443  17.4555  17.6519  17.7245  17.8801  17.9262  17.9995  18.2059
    18.4737  18.5832  18.6830  18.7442  19.2068  19.2201  19.2620  19.3112
    19.5810  19.7018  19.7866  19.9935  20.1256  20.2579  20.2886  20.5573
    20.6499  20.8366  21.4105  21.9390  24.1024  25.1300  26.0713  26.2107
    26.5339  27.4939  29.0424  29.1189  30.0394  30.0700  30.7813  31.5268
    32.9035  33.0308  33.3868  33.7000  33.7386  34.0799  34.2428  34.7358
    34.9127  35.3318  35.8384  35.8447

          k = 0.3364 0.2803 0.1201 (  4466 PWs)   bands (ev):

   -83.3191 -83.3067 -55.1929 -55.1821 -55.1722 -55.1538 -55.1441 -55.1333
   -41.9910 -41.9893 -41.9872 -41.9801 -41.9754 -41.9724 -22.6148 -22.4519
   -22.3708 -22.1454 -22.1409 -22.1287 -22.1101 -22.0983 -22.0832 -22.0749
   -22.0620 -22.0495 -22.0444 -22.0237 -22.0189 -22.0168 -22.0114 -21.8408
     6.9243   6.9280   6.9386   6.9422   6.9536   6.9691   6.9777   6.9877
     6.9909   7.0032  15.1887  15.2259  16.2219  17.1224  17.2246  17.2851
    17.3863  17.4850  17.6725  17.7013  17.8098  17.9487  18.0613  18.2793
    18.4091  18.6031  18.6932  18.7506  19.0670  19.1395  19.2405  19.3047
    19.5731  19.6739  19.8150  19.9751  20.1380  20.1651  20.2339  20.3639
    20.6335  21.1412  21.1906  22.1044  23.2234  24.4137  25.1896  26.3122
    27.3730  27.7422  29.0978  30.0387  30.1201  30.5993  31.0191  31.7051
    32.7310  33.0986  33.4407  33.5521  33.8287  34.1583  34.3455  34.6520
    35.0516  35.3203  35.7331  35.9651

          k = 0.3364 0.2803 0.2403 (  4466 PWs)   bands (ev):

   -83.3167 -83.3110 -55.1862 -55.1812 -55.1747 -55.1535 -55.1441 -55.1407
   -41.9875 -41.9849 -41.9847 -41.9806 -41.9791 -41.9786 -22.4985 -22.4492
   -22.3695 -22.1388 -22.1345 -22.1215 -22.1162 -22.1022 -22.0800 -22.0704
   -22.0641 -22.0457 -22.0406 -22.0331 -22.0265 -22.0205 -22.0160 -21.9693
     6.9295   6.9322   6.9353   6.9377   6.9595   6.9647   6.9724   6.9831
     6.9847   6.9877  15.3502  15.3519  16.8847  17.1713  17.4220  17.4903
    17.5138  17.5843  17.6800  17.7490  17.7863  17.8467  18.0619  18.2374
    18.5421  18.6146  18.6558  18.8038  18.8768  18.9549  19.0730  19.1704
    19.5937  19.6385  19.8585  19.9161  20.0392  20.0698  20.1672  20.2338
    20.5158  20.8524  21.4945  22.0141  22.5532  23.1917  24.0299  25.2148
    28.4085  29.1001  29.9403  30.3455  31.1233  31.4355  31.6173  32.0742
    32.6235  33.1098  33.3339  33.6089  33.8904  34.0606  34.6298  34.7555
    35.0226  35.3395  35.6430  36.0628

          k = 0.3364 0.2803 0.3604 (  4466 PWs)   bands (ev):

   -83.3183 -83.3102 -55.1823 -55.1752 -55.1707 -55.1585 -55.1493 -55.1447
   -41.9880 -41.9847 -41.9838 -41.9819 -41.9800 -41.9771 -22.4465 -22.3717
   -22.3349 -22.1525 -22.1347 -22.1289 -22.1204 -22.1026 -22.0958 -22.0802
   -22.0693 -22.0632 -22.0509 -22.0445 -22.0340 -22.0302 -22.0261 -22.0173
     6.9317   6.9325   6.9357   6.9367   6.9576   6.9649   6.9680   6.9768
     6.9796   6.9813  15.4757  15.4864  17.1925  17.4945  17.5531  17.6804
    17.7001  17.7389  17.8371  17.8440  17.9207  17.9316  17.9744  18.2300
    18.4367  18.4691  18.5223  18.7362  18.8173  18.9296  18.9833  19.0445
    19.4274  19.5174  19.7245  19.8402  19.9162  19.9406  19.9908  20.2277
    20.4411  20.9959  21.3656  22.0473  22.1034  22.9073  23.3187  24.1551
    29.2161  29.6669  30.7790  31.2130  31.3825  32.0030  32.1360  32.3518
    32.9357  33.2858  33.4460  33.6539  33.8142  34.0395  34.4135  34.5698
    34.6516  35.3048  35.3946  35.8218

          k = 0.3364-0.4205 0.0000 (  4466 PWs)   bands (ev):

   -83.3135 -83.3133 -55.1940 -55.1737 -55.1635 -55.1629 -55.1526 -55.1325
   -41.9869 -41.9867 -41.9834 -41.9833 -41.9781 -41.9779 -22.6566 -22.3715
   -22.2462 -22.2389 -22.1339 -22.1334 -22.1304 -22.1047 -22.0955 -22.0915
   -22.0874 -22.0561 -22.0547 -22.0511 -22.0185 -22.0125 -22.0098 -21.7959
     6.9225   6.9229   6.9433   6.9438   6.9439   6.9691   6.9728   6.9877
     6.9941   7.0120  15.2400  15.2415  15.9874  17.0718  17.3655  17.4107
    17.6051  17.6225  17.7293  17.8019  17.8570  18.0521  18.1677  18.3862
    18.5201  18.5368  18.6771  18.7095  18.8885  19.0903  19.3686  19.3796
    19.3950  19.5376  19.5792  19.8164  19.8553  20.0101  20.3747  20.5418
    20.5654  20.5938  21.1806  21.4490  24.3987  25.6431  25.9751  26.0220
    26.5110  26.6222  28.4864  29.9380  30.1276  30.8825  32.0238  32.0416
    32.3115  33.0819  33.2933  33.4322  33.6320  33.7749  33.7938  35.0080
    35.4059  35.4842  35.8143  35.8233

          k = 0.3364-0.4205 0.1201 (  4472 PWs)   bands (ev):

   -83.3168 -83.3166 -55.1930 -55.1742 -55.1660 -55.1643 -55.1532 -55.1358
   -41.9860 -41.9859 -41.9852 -41.9851 -41.9814 -41.9813 -22.6173 -22.3749
   -22.2450 -22.2397 -22.1372 -22.1339 -22.1302 -22.1046 -22.0991 -22.0904
   -22.0841 -22.0572 -22.0568 -22.0485 -22.0199 -22.0177 -22.0115 -21.8450
     6.9246   6.9250   6.9414   6.9416   6.9462   6.9685   6.9725   6.9856
     6.9884   7.0035  15.2996  15.3007  16.2216  17.1645  17.4329  17.4775
    17.5933  17.6205  17.7611  17.8265  17.9210  18.0960  18.2033  18.3320
    18.4486  18.5334  18.6294  18.7508  18.8557  18.9176  19.3040  19.3494
    19.3608  19.5077  19.6189  19.8331  19.8680  19.9933  20.2284  20.4219
    20.5351  21.0322  21.2230  21.2293  23.7579  24.2952  25.0546  25.6243
    27.5337  27.6500  29.3651  30.2560  30.4589  31.0481  32.1409  32.1987
    32.4771  33.2206  33.2666  33.4636  33.6966  33.8573  34.0242  34.7866
    35.1412  35.4475  35.6423  35.7189

          k = 0.3364-0.4205 0.2403 (  4478 PWs)   bands (ev):

   -83.3211 -83.3207 -55.1899 -55.1764 -55.1667 -55.1661 -55.1546 -55.1421
   -41.9912 -41.9912 -41.9857 -41.9857 -41.9803 -41.9803 -22.5002 -22.3733
   -22.2467 -22.2448 -22.1359 -22.1321 -22.1244 -22.1027 -22.1025 -22.0811
   -22.0792 -22.0595 -22.0553 -22.0486 -22.0329 -22.0289 -22.0251 -21.9723
     6.9296   6.9301   6.9373   6.9378   6.9529   6.9651   6.9711   6.9769
     6.9808   6.9856  15.4472  15.4477  16.8933  17.3979  17.5552  17.6311
    17.6905  17.6966  17.8157  17.9146  17.9193  18.0105  18.2106  18.3569
    18.4099  18.4340  18.6033  18.6782  18.7150  18.7913  19.0984  19.1408
    19.3213  19.4583  19.6933  19.8681  19.9124  19.9272  20.0257  20.5268
    20.5873  20.6091  21.4545  21.5805  22.6519  22.9665  23.9570  24.2221
    29.0733  29.0887  30.5184  31.0139  31.4180  31.5822  32.1889  32.6662
    32.8560  32.9849  33.5341  33.6236  33.8517  33.9787  34.2906  34.4757
    34.6927  35.2245  35.5060  35.7667

          k = 0.3364-0.4205 0.3604 (  4482 PWs)   bands (ev):

   -83.3221 -83.3220 -55.1782 -55.1739 -55.1665 -55.1664 -55.1585 -55.1546
   -41.9905 -41.9905 -41.9864 -41.9863 -41.9827 -41.9827 -22.3687 -22.3369
   -22.2474 -22.2463 -22.1537 -22.1349 -22.1347 -22.1235 -22.0892 -22.0820
   -22.0758 -22.0702 -22.0620 -22.0578 -22.0519 -22.0461 -22.0412 -22.0404
     6.9328   6.9330   6.9348   6.9349   6.9596   6.9623   6.9684   6.9695
     6.9746   6.9750  15.5845  15.5852  17.6125  17.6153  17.6604  17.7756
    17.8086  17.8261  17.9488  18.0069  18.0283  18.0440  18.1945  18.2339
    18.2805  18.3171  18.5778  18.5951  18.7314  18.7548  18.8709  18.8798
    19.1710  19.3152  19.7118  19.7793  19.8489  19.8873  19.9003  19.9187
    20.9887  20.9934  21.6933  21.8315  22.0788  22.2227  22.9732  23.0412
    30.1688  30.1721  31.5793  31.7145  31.8301  31.9993  32.7542  32.8766
    32.8872  33.0782  33.7535  33.7720  34.0105  34.0573  34.2300  34.3022
    34.5937  34.8387  35.4781  35.5702

     the Fermi energy is    29.0483 ev

!    total energy              =   -2297.26555132 Ry
     Harris-Foulkes estimate   =   -2297.26555136 Ry
     estimated scf accuracy    <       0.00000004 Ry

     The total energy is the sum of the following terms:

     one-electron contribution =    -495.57641526 Ry
     hartree contribution      =     363.09359371 Ry
     xc contribution           =    -204.52393290 Ry
     ewald contribution        =   -1960.07388216 Ry
     smearing contrib. (-TS)   =      -0.18491472 Ry

     convergence has been achieved in  12 iterations

     Forces acting on atoms (Ry/au):

     atom    1 type  1   force =     0.00000000    0.00000000    0.00000000
     atom    2 type  1   force =     0.00000000    0.00000000    0.00000000
     atom    3 type  1   force =     0.00000000    0.00000000    0.00000000
     atom    4 type  1   force =     0.00000000    0.00000000    0.00000000
     atom    5 type  1   force =     0.00000000    0.00000000    0.00000000
     atom    6 type  1   force =     0.00000000    0.00000000    0.00000000
     atom    7 type  2   force =     0.00000000    0.00000000    0.00000000
     atom    8 type  2   force =     0.00000000    0.00000000    0.00000000

     Total force =     0.000000     Total SCF correction =     0.000000


     entering subroutine stress ...

          total   stress  (Ry/bohr**3)                   (kbar)     P=  227.00
   0.00154309   0.00000000   0.00000000        227.00      0.00      0.00
   0.00000000   0.00154309   0.00000000          0.00    227.00      0.00
   0.00000000   0.00000000   0.00154309          0.00      0.00    227.00


     Writing output data file Prototype-La-cP8-Cr3Si.save
 
     init_run     :     16.72s CPU     24.97s WALL (       2 calls)
     electrons    :   4150.51s CPU   6114.10s WALL (       5 calls)
     update_pot   :      2.29s CPU      3.98s WALL (       3 calls)
     forces       :     11.79s CPU     18.03s WALL (       5 calls)
     stress       :     26.98s CPU     38.92s WALL (       5 calls)

     Called by init_run:
     wfcinit      :     15.97s CPU     23.39s WALL (       2 calls)
     potinit      :      0.28s CPU      0.33s WALL (       2 calls)

     Called by electrons:
     c_bands      :   3996.45s CPU   5862.68s WALL (      42 calls)
     sum_band     :    152.25s CPU    230.48s WALL (      42 calls)
     v_of_rho     :      0.33s CPU      0.44s WALL (      47 calls)
     mix_rho      :      0.17s CPU      0.35s WALL (      42 calls)

     Called by c_bands:
     init_us_2    :      2.19s CPU      4.44s WALL (    4608 calls)
     ccgdiagg     :   3547.15s CPU   5178.04s WALL (    2292 calls)
     wfcrot       :    462.51s CPU    701.45s WALL (    2340 calls)

     Called by *cgdiagg:
     h_psi        :   2506.17s CPU   3703.75s WALL ( 1168266 calls)
     cdiaghg      :     22.77s CPU     33.33s WALL (    2340 calls)

     Called by h_psi:
     add_vuspsi   :    112.63s CPU    175.72s WALL ( 1168266 calls)

     General routines
     calbec       :    849.31s CPU   1205.84s WALL ( 2334672 calls)
     fft          :      1.32s CPU      1.80s WALL (     211 calls)
     fftw         :   1986.65s CPU   2920.55s WALL ( 3001452 calls)
     davcio       :      1.86s CPU      5.02s WALL (    6624 calls)
 
     Parallel routines
     fft_scatter  :   1577.79s CPU   2281.92s WALL ( 3001663 calls)
 
     PWSCF        :     1h10m CPU        1h43m WALL

 
   This run was terminated on:   4: 4:36  23Mar2018            

=------------------------------------------------------------------------------=
   JOB DONE.
=------------------------------------------------------------------------------=
