
     Program PWSCF v.5.0.2 starts on 23Mar2018 at  2:21: 9 

     This program is part of the open-source Quantum ESPRESSO suite
     for quantum simulation of materials; please cite
         "P. Giannozzi et al., J. Phys.:Condens. Matter 21 395502 (2009);
          URL http://www.quantum-espresso.org", 
     in publications or presentations arising from this work. More details at
     http://www.quantum-espresso.org/quote.php

     Parallel version (MPI), running on     4 processors
     R & G space division:  proc/nbgrp/npool/nimage =       4

     Current dimensions of program PWSCF are:
     Max number of different atomic species (ntypx) = 10
     Max number of k-points (npk) =  40000
     Max angular momentum in pseudopotentials (lmaxx) =  3
     Waiting for input...
     Reading input from standard input

     Subspace diagonalization in iterative solution of the eigenvalue problem:
     a serial algorithm will be used

 
     Parallelization info
     --------------------
     sticks:   dense  smooth     PW     G-vecs:    dense   smooth      PW
     Min         267     267     77                11587    11587    1762
     Max         268     268     79                11596    11596    1765
     Sum        1069    1069    313                46361    46361    7055
 


     bravais-lattice index     =            0
     lattice parameter (alat)  =       9.9235  a.u.
     unit-cell volume          =    1361.0366 (a.u.)^3
     number of atoms/cell      =           12
     number of atomic types    =            2
     number of electrons       =       264.00
     number of Kohn-Sham states=          158
     kinetic-energy cutoff     =      40.0000  Ry
     charge density cutoff     =     160.0000  Ry
     convergence threshold     =      1.0E-04
     mixing beta               =       0.7000
     number of iterations used =            8  plain     mixing
     Exchange-correlation      = SLA-PZ-NOGX-NOGC ( 1 1 0 0 0)
     EXX-fraction              =        0.00
     nstep                     =           50


     celldm(1)=   9.923489  celldm(2)=   0.000000  celldm(3)=   0.000000
     celldm(4)=   0.000000  celldm(5)=   0.000000  celldm(6)=   0.000000

     crystal axes: (cart. coord. in units of alat)
               a(1) = (   1.000000   0.000000   0.000000 )  
               a(2) = (  -0.500000   0.866025   0.000000 )  
               a(3) = (   0.000000   0.000000   1.608222 )  

     reciprocal axes: (cart. coord. in units 2 pi/alat)
               b(1) = (  1.000000  0.577350  0.000000 )  
               b(2) = (  0.000000  1.154701  0.000000 )  
               b(3) = (  0.000000  0.000000  0.621805 )  


     PseudoPot. # 1 for Dy read from file:
     /home/cwx6513/pp.La/Dy.UPF
     MD5 check sum: 9597327bec62616a94a14d07f3fd9936
     Pseudo is Norm-conserving, Zval = 20.0
     Generated in analytical, separable form
     Using radial grid of 1265 points,  6 beta functions with: 
                l(1) =   0
                l(2) =   0
                l(3) =   1
                l(4) =   1
                l(5) =   2
                l(6) =   3

     PseudoPot. # 2 for Tm read from file:
     /home/cwx6513/pp.La/Tm.UPF
     MD5 check sum: 245516e0878b5372ceeb9443ded2c4e1
     Pseudo is Norm-conserving, Zval = 23.0
     Generated in analytical, separable form
     Using radial grid of 1269 points,  6 beta functions with: 
                l(1) =   0
                l(2) =   0
                l(3) =   1
                l(4) =   1
                l(5) =   2
                l(6) =   3

     atomic species   valence    mass     pseudopotential
        Mg            20.00    24.30500     Dy( 1.00)
        Zn            23.00    65.39000     Tm( 1.00)

     24 Sym. Ops., with inversion, found (12 have fractional translation)



   Cartesian axes

     site n.     atom                  positions (alat units)
         1           Mg  tau(   1) = (  -0.0000005   0.5773506   0.1003820  )
         2           Mg  tau(   2) = (   0.5000005   0.2886748   0.9044931  )
         3           Mg  tau(   3) = (   0.5000005   0.2886748   1.5078402  )
         4           Mg  tau(   4) = (  -0.0000005   0.5773506   0.7037291  )
         5           Zn  tau(   5) = (   0.0000000   0.0000000   0.0000000  )
         6           Zn  tau(   6) = (   0.0000000   0.0000000   0.8041111  )
         7           Zn  tau(   7) = (   0.0000000   0.2950739   1.2061667  )
         8           Zn  tau(   8) = (   0.7444585   0.1475370   0.4020556  )
         9           Zn  tau(   9) = (   0.2555415   0.1475370   0.4020556  )
        10           Zn  tau(  10) = (   0.2444585   0.7184884   1.2061667  )
        11           Zn  tau(  11) = (  -0.2444585   0.7184884   1.2061667  )
        12           Zn  tau(  12) = (   0.5000000   0.5709515   0.4020556  )

     number of k points=    12  gaussian smearing, width (Ry)=  0.1000
                       cart. coord. in units 2pi/alat
        k(    1) = (   0.0000000   0.0000000   0.0000000), wk =   0.0833333
        k(    2) = (   0.0000000   0.0000000   0.1554512), wk =   0.1666667
        k(    3) = (   0.0000000   0.0000000  -0.3109023), wk =   0.0833333
        k(    4) = (   0.0000000   0.3849002   0.0000000), wk =   0.1666667
        k(    5) = (   0.0000000   0.3849002   0.1554512), wk =   0.3333333
        k(    6) = (   0.0000000   0.3849002  -0.3109023), wk =   0.1666667
        k(    7) = (  -0.5000000  -0.2886751   0.0000000), wk =   0.0833333
        k(    8) = (  -0.5000000  -0.2886751   0.1554512), wk =   0.1666667
        k(    9) = (  -0.5000000  -0.2886751  -0.3109023), wk =   0.0833333
        k(   10) = (  -0.5000000   0.0962250   0.0000000), wk =   0.1666667
        k(   11) = (  -0.5000000   0.0962250   0.1554512), wk =   0.3333333
        k(   12) = (  -0.5000000   0.0962250  -0.3109023), wk =   0.1666667

     Dense  grid:    46361 G-vectors     FFT dimensions: (  40,  40,  72)

     Largest allocated arrays     est. size (Mb)     dimensions
        Kohn-Sham Wavefunctions         3.56 Mb     (   1478,  158)
        NL pseudopotentials             5.41 Mb     (   1478,  240)
        Each V/rho on FFT grid          0.44 Mb     (  28800)
        Each G-vector array             0.09 Mb     (  11589)
        G-vector shells                 0.09 Mb     (  11589)
     Largest temporary arrays     est. size (Mb)     dimensions
        Each subspace H/S matrix        0.38 Mb     ( 158, 158)
        Each <psi_i|beta_j> matrix      0.58 Mb     (    240,  158)
        Arrays for rho mixing           3.52 Mb     (  28800,   8)

     Initial potential from superposition of free atoms

     Starting from uniform charge
     Starting wfc are    0 randomized atomic wfcs

     total cpu time spent up to now is        5.4 secs

     Self-consistent Calculation

     iteration #  1     ecut=    40.00 Ry     beta=0.70
     CG style diagonalization
     ethr =  1.00E-02,  avg # of iterations = 18.3

     total cpu time spent up to now is      149.8 secs

     total energy              =   -3038.36704454 Ry
     Harris-Foulkes estimate   =   -5098.76118332 Ry
     estimated scf accuracy    <    2502.23053269 Ry

     iteration #  2     ecut=    40.00 Ry     beta=0.70
     CG style diagonalization
     ethr =  1.00E-02,  avg # of iterations = 15.4

     total cpu time spent up to now is      259.7 secs

     total energy              =   -2984.19352857 Ry
     Harris-Foulkes estimate   =   -4872.72357453 Ry
     estimated scf accuracy    <    3772.76848285 Ry

     iteration #  3     ecut=    40.00 Ry     beta=0.70
     CG style diagonalization
     c_bands:  4 eigenvalues not converged
     c_bands:  3 eigenvalues not converged
     c_bands:  4 eigenvalues not converged
     c_bands:  4 eigenvalues not converged
     c_bands:  1 eigenvalues not converged
     c_bands:  3 eigenvalues not converged
     c_bands:  1 eigenvalues not converged
     ethr =  1.00E-02,  avg # of iterations = 13.9

     total cpu time spent up to now is      361.9 secs

     total energy              =   -3912.80572605 Ry
     Harris-Foulkes estimate   =   -4112.81630487 Ry
     estimated scf accuracy    <     479.79215813 Ry

     iteration #  4     ecut=    40.00 Ry     beta=0.70
     CG style diagonalization
     ethr =  1.00E-02,  avg # of iterations =  6.0

     total cpu time spent up to now is      402.7 secs

     total energy              =   -3967.68335913 Ry
     Harris-Foulkes estimate   =   -3984.38889632 Ry
     estimated scf accuracy    <      32.93642035 Ry

     iteration #  5     ecut=    40.00 Ry     beta=0.70
     CG style diagonalization
     ethr =  1.00E-02,  avg # of iterations =  3.6

     total cpu time spent up to now is      427.8 secs

     total energy              =   -3974.79658301 Ry
     Harris-Foulkes estimate   =   -3976.65991597 Ry
     estimated scf accuracy    <       3.38002450 Ry

     iteration #  6     ecut=    40.00 Ry     beta=0.70
     CG style diagonalization
     ethr =  1.28E-03,  avg # of iterations =  3.2

     total cpu time spent up to now is      447.7 secs

     total energy              =   -3975.34927763 Ry
     Harris-Foulkes estimate   =   -3975.55744803 Ry
     estimated scf accuracy    <       0.38447500 Ry

     iteration #  7     ecut=    40.00 Ry     beta=0.70
     CG style diagonalization
     c_bands:  1 eigenvalues not converged
     c_bands:  1 eigenvalues not converged
     ethr =  1.46E-04,  avg # of iterations =  3.5

     total cpu time spent up to now is      467.2 secs

     total energy              =   -3975.41931900 Ry
     Harris-Foulkes estimate   =   -3975.45547643 Ry
     estimated scf accuracy    <       0.06737442 Ry

     iteration #  8     ecut=    40.00 Ry     beta=0.70
     CG style diagonalization
     c_bands:  2 eigenvalues not converged
     c_bands:  1 eigenvalues not converged
     ethr =  2.55E-05,  avg # of iterations =  3.5

     total cpu time spent up to now is      488.1 secs

     total energy              =   -3975.43621089 Ry
     Harris-Foulkes estimate   =   -3975.44017142 Ry
     estimated scf accuracy    <       0.00833944 Ry

     iteration #  9     ecut=    40.00 Ry     beta=0.70
     CG style diagonalization
     c_bands:  1 eigenvalues not converged
     ethr =  3.16E-06,  avg # of iterations =  3.8

     total cpu time spent up to now is      511.3 secs

     total energy              =   -3975.43800375 Ry
     Harris-Foulkes estimate   =   -3975.43835718 Ry
     estimated scf accuracy    <       0.00073978 Ry

     iteration # 10     ecut=    40.00 Ry     beta=0.70
     CG style diagonalization
     ethr =  2.80E-07,  avg # of iterations =  4.0

     total cpu time spent up to now is      536.1 secs

     End of self-consistent calculation

          k = 0.0000 0.0000 0.0000 (  5769 PWs)   bands (ev):

   -77.3623 -77.3621 -77.3427 -77.3128 -77.3128 -77.2968 -77.2968 -77.2666
   -48.2671 -48.2665 -48.2557 -48.2539 -36.8150 -36.6823 -36.5088 -36.2871
   -36.2871 -36.2759 -36.2627 -36.2627 -36.1971 -36.1970 -36.0952 -36.0395
   -36.0395 -36.0347 -36.0347 -35.9374 -35.9374 -35.9298 -35.8981 -35.8981
   -35.8768 -35.8768 -35.8514 -35.8363 -15.3151 -15.3063 -15.2957 -15.2957
   -15.2762 -15.2762 -15.2308 -15.2084 -15.2002 -15.2002 -15.1979 -15.1979
     9.1323   9.5607   9.8520  10.4974  10.4974  10.6173  10.6173  10.8469
    10.8470  10.9619  11.1875  11.1875  11.7430  12.0349  12.1005  12.1005
    12.1997  12.1998  12.5900  12.7923  12.7924  13.0826  13.0827  13.1626
    13.2599  13.2599  13.3466  13.3544  13.3545  13.3651  13.4666  13.4667
    13.5719  13.5719  14.1159  14.1159  14.3846  14.3846  14.7799  14.7824
    16.3709  18.1189  20.2984  22.9498  23.5000  23.5000  23.8315  23.9912
    23.9912  24.2215  24.2215  24.3084  24.3084  24.3771  24.8380  24.8381
    25.2884  25.2885  25.9706  26.0814  26.3108  26.3108  26.3123  26.3376
    26.3376  28.5734  28.5734  28.8964  28.8964  29.0730  29.8231  29.8231
    30.5288  30.7529  31.0115  31.0115  31.5923  31.5924  31.8138  32.2915
    33.0172  34.0304  34.0305  35.6030  36.3464  36.3465  36.6529  36.7415
    36.7416  37.2022  37.6535  37.8634  37.8635  38.2717  38.2717  38.3212
    38.3212  38.3792  39.0717  39.6770  39.7399  39.7984  39.7984  40.1279
    41.0708  41.2137  41.3911  41.3912  41.7847  42.2874

          k = 0.0000 0.0000 0.1555 (  5780 PWs)   bands (ev):

   -77.3691 -77.3643 -77.3181 -77.3181 -77.3104 -77.3073 -77.3072 -77.2928
   -48.2724 -48.2633 -48.2578 -48.2553 -36.8020 -36.7065 -36.4834 -36.3063
   -36.2911 -36.2911 -36.2717 -36.2717 -36.1839 -36.1838 -36.0978 -36.0978
   -36.0569 -35.9904 -35.9903 -35.9396 -35.9287 -35.9287 -35.9058 -35.9058
   -35.8885 -35.8885 -35.8564 -35.8492 -15.3089 -15.3066 -15.2886 -15.2886
   -15.2853 -15.2853 -15.2385 -15.2128 -15.2020 -15.2020 -15.1998 -15.1998
     9.1663   9.4274  10.0517  10.5082  10.5082  10.5870  10.5870  10.7583
    10.9057  10.9057  11.1400  11.1400  11.8666  12.0288  12.1041  12.1041
    12.1759  12.1759  12.6684  12.8701  12.8701  13.0831  13.0831  13.0839
    13.2511  13.2511  13.3089  13.3089  13.3480  13.3612  13.4828  13.4829
    13.5565  13.5566  14.1536  14.1537  14.3452  14.3453  14.7799  14.7809
    16.5140  17.6303  20.9940  22.8552  23.5530  23.5530  23.8933  23.8933
    24.0937  24.1933  24.2994  24.2994  24.3396  24.3396  24.8454  24.8455
    25.2013  25.2014  25.2440  25.8696  26.3010  26.3010  26.3081  26.3081
    26.9091  28.0430  28.8551  28.8551  28.9560  28.9560  29.5339  29.5339
    30.5054  30.5054  31.0382  31.7136  32.0866  32.2301  32.2302  32.3464
    33.1288  34.5835  34.5836  35.1215  35.1215  35.2510  36.4739  36.9090
    37.1185  37.1186  37.4145  37.6770  37.6770  38.4395  38.4396  38.5819
    38.5978  38.5978  38.7383  39.5325  39.8312  40.0676  40.0676  40.1459
    40.3372  40.7764  40.7985  40.7985  41.6116  41.6116

          k = 0.0000 0.0000-0.3109 (  5780 PWs)   bands (ev):

   -77.3582 -77.3582 -77.3493 -77.3493 -77.2918 -77.2917 -77.2917 -77.2917
   -48.2675 -48.2673 -48.2562 -48.2560 -36.7544 -36.7544 -36.4179 -36.4179
   -36.2756 -36.2756 -36.2756 -36.2756 -36.1363 -36.1363 -36.1363 -36.1363
   -36.0111 -36.0111 -35.9426 -35.9426 -35.9426 -35.9426 -35.9111 -35.9111
   -35.9111 -35.9111 -35.8430 -35.8430 -15.3087 -15.3085 -15.2852 -15.2851
   -15.2851 -15.2851 -15.2353 -15.2351 -15.1969 -15.1969 -15.1969 -15.1969
     9.2651   9.2651  10.3956  10.3956  10.5404  10.5405  10.5405  10.5405
    11.0268  11.0268  11.0269  11.0269  11.9871  11.9871  12.1312  12.1312
    12.1312  12.1313  12.8794  12.8794  13.0204  13.0204  13.0204  13.0204
    13.2473  13.2473  13.2473  13.2474  13.3572  13.3572  13.5200  13.5201
    13.5201  13.5201  14.2494  14.2494  14.2494  14.2494  14.7811  14.7811
    16.9458  16.9458  22.1355  22.1356  23.7033  23.7033  23.7033  23.7034
    24.3331  24.3331  24.3778  24.3778  24.3779  24.3779  24.9753  24.9753
    24.9754  24.9754  25.0688  25.0689  26.2888  26.2888  26.2889  26.2889
    27.3879  27.3880  29.1485  29.1486  29.1486  29.1486  29.6172  29.6172
    29.6172  29.6173  31.5338  31.5338  32.6258  32.6258  33.5378  33.5379
    33.5379  33.5379  34.4340  34.4340  35.8066  35.8066  35.8737  35.8737
    35.8738  35.8738  38.2593  38.2593  38.2593  38.2593  38.3378  38.3379
    39.1798  39.1798  39.4957  39.4958  39.5228  39.5228  39.5228  39.5228
    40.5213  40.5213  40.8350  40.8350  40.8350  40.8350

          k = 0.0000 0.3849 0.0000 (  5787 PWs)   bands (ev):

   -77.3695 -77.3647 -77.3489 -77.3272 -77.3095 -77.3076 -77.2924 -77.2860
   -48.2675 -48.2647 -48.2611 -48.2595 -36.6961 -36.5744 -36.5261 -36.3848
   -36.2990 -36.2392 -36.2016 -36.1993 -36.1942 -36.1889 -36.0683 -36.0507
   -36.0460 -36.0366 -36.0327 -36.0309 -35.9985 -35.9624 -35.9576 -35.9311
   -35.9001 -35.8872 -35.8826 -35.8695 -15.3147 -15.3134 -15.2946 -15.2843
   -15.2839 -15.2753 -15.2402 -15.2192 -15.2104 -15.2034 -15.2027 -15.1902
     9.7194  10.1064  10.1532  10.6822  10.6838  10.8431  10.9442  11.0504
    11.1891  11.3199  11.4316  11.5218  11.7572  11.9181  12.1685  12.2517
    12.2545  12.4340  12.4831  12.5502  12.6175  12.6475  12.6720  12.7932
    12.8960  13.0432  13.0898  13.2392  13.2874  13.3089  13.3851  13.4213
    13.4487  13.5511  13.6450  13.7727  13.8145  13.9887  14.1568  14.4785
    17.1800  18.6928  20.2942  21.1485  21.3065  23.5107  24.0388  24.0453
    24.1263  24.5354  24.5890  24.5903  24.7304  24.8889  25.1060  25.1276
    25.2669  25.3772  25.5375  25.7927  25.8026  26.3190  26.4645  26.4666
    26.4888  26.5047  27.2640  27.5976  28.3469  29.3458  29.5131  29.7132
    30.3402  31.4857  31.5773  32.5874  32.8997  33.1112  33.8539  34.2348
    34.5384  34.6030  35.8399  35.8783  36.2484  36.5879  36.8960  37.1719
    37.5063  37.5180  37.5884  37.7978  37.8025  38.1398  38.7544  38.8015
    39.2010  39.2776  39.4623  39.7706  39.9903  40.1711  40.6625  40.7699
    40.9004  40.9419  41.6953  41.8603  42.0272  42.4206

          k = 0.0000 0.3849 0.1555 (  5804 PWs)   bands (ev):

   -77.3810 -77.3743 -77.3406 -77.3292 -77.3227 -77.3161 -77.3067 -77.2947
   -48.2700 -48.2662 -48.2648 -48.2622 -36.6931 -36.6208 -36.4827 -36.3956
   -36.2940 -36.2330 -36.2264 -36.2211 -36.1938 -36.1759 -36.1150 -36.0891
   -36.0472 -36.0361 -36.0094 -35.9945 -35.9799 -35.9679 -35.9486 -35.9393
   -35.9153 -35.8988 -35.8830 -35.8781 -15.3203 -15.3132 -15.2971 -15.2866
   -15.2865 -15.2783 -15.2417 -15.2313 -15.2105 -15.2055 -15.2008 -15.1915
     9.7451   9.9476  10.3550  10.6411  10.7146  10.9070  10.9591  11.0342
    11.0664  11.2535  11.3471  11.4901  11.8964  11.9526  12.1799  12.2623
    12.2834  12.3393  12.4273  12.4630  12.6368  12.7597  12.7764  12.8272
    12.9282  12.9839  13.1669  13.2332  13.2711  13.2780  13.3686  13.4402
    13.4533  13.5092  13.6790  13.7319  13.8285  13.8869  14.2470  14.4458
    17.3104  18.3073  20.3729  21.0212  21.9165  23.5893  23.8411  23.9977
    24.1286  24.3950  24.5253  24.6823  24.8493  24.8999  24.9131  25.0988
    25.1532  25.2285  25.6082  25.8915  25.9423  26.2600  26.3285  26.4266
    26.7678  26.7778  27.0688  27.6575  28.2012  28.2834  29.1833  30.7021
    31.1718  31.6991  31.8274  32.6696  32.7058  32.9043  32.9618  34.0988
    34.6331  35.0441  35.5013  35.8271  36.5590  36.6258  36.8629  37.0734
    37.4529  37.4691  37.6563  38.0051  38.1109  38.1532  38.6618  38.7647
    38.7877  39.1217  39.6446  39.7744  40.1357  40.3739  40.3983  40.5071
    40.8936  41.0985  41.1406  41.5808  41.9075  42.0314

          k = 0.0000 0.3849-0.3109 (  5816 PWs)   bands (ev):

   -77.3815 -77.3815 -77.3364 -77.3364 -77.3236 -77.3235 -77.3135 -77.3134
   -48.2690 -48.2690 -48.2666 -48.2666 -36.6696 -36.6696 -36.4338 -36.4338
   -36.2731 -36.2731 -36.2317 -36.2317 -36.1686 -36.1686 -36.1382 -36.1382
   -36.0387 -36.0387 -35.9757 -35.9757 -35.9700 -35.9700 -35.9422 -35.9422
   -35.9255 -35.9255 -35.8813 -35.8813 -15.3156 -15.3154 -15.2909 -15.2909
   -15.2889 -15.2889 -15.2404 -15.2402 -15.2080 -15.2080 -15.1991 -15.1991
     9.8206   9.8206  10.5562  10.5562  10.8225  10.8225  10.9967  10.9967
    11.0560  11.0560  11.4165  11.4166  11.9758  11.9758  12.2274  12.2274
    12.2874  12.2874  12.4389  12.4389  12.6721  12.6721  12.8367  12.8368
    13.1105  13.1105  13.1211  13.1211  13.3041  13.3041  13.3467  13.3467
    13.4678  13.4678  13.7593  13.7593  13.7809  13.7809  14.3613  14.3613
    17.7069  17.7069  20.6757  20.6758  22.9977  22.9977  23.7932  23.7932
    24.3291  24.3291  24.6579  24.6580  24.7771  24.7772  25.0266  25.0266
    25.0444  25.0444  25.8908  25.8908  26.1651  26.1652  26.3024  26.3024
    26.6545  26.6545  27.3723  27.3723  28.0145  28.0146  30.0718  30.0718
    31.8727  31.8727  31.9188  31.9188  33.0723  33.0723  33.5033  33.5033
    34.6016  34.6016  35.6209  35.6209  36.4834  36.4834  37.1771  37.1771
    37.6409  37.6409  37.6892  37.6892  38.0734  38.0734  38.6663  38.6663
    39.2784  39.2784  39.5306  39.5306  40.1942  40.1942  40.3854  40.3854
    40.9710  40.9710  41.3432  41.3432  41.3776  41.3776

          k =-0.5000-0.2887 0.0000 (  5800 PWs)   bands (ev):

   -77.3870 -77.3648 -77.3382 -77.3347 -77.3190 -77.3144 -77.2964 -77.2943
   -48.2699 -48.2683 -48.2620 -48.2603 -36.6467 -36.5287 -36.5281 -36.4436
   -36.3071 -36.2192 -36.2057 -36.1910 -36.1788 -36.1785 -36.0821 -36.0763
   -36.0535 -36.0443 -36.0419 -36.0332 -36.0089 -35.9859 -35.9806 -35.9251
   -35.9099 -35.8968 -35.8865 -35.8726 -15.3244 -15.3109 -15.2980 -15.2855
   -15.2818 -15.2602 -15.2554 -15.2318 -15.2125 -15.2060 -15.1985 -15.1911
     9.9479  10.1989  10.3254  10.7130  10.8441  10.9786  11.0998  11.1071
    11.3353  11.4500  11.6014  11.9860  11.9964  11.9972  12.0294  12.1413
    12.2316  12.3355  12.3472  12.4467  12.5205  12.5791  12.5942  12.7050
    12.7599  12.7812  12.8511  13.1825  13.1955  13.2018  13.2667  13.2831
    13.3432  13.4769  13.5636  13.5753  13.7592  13.8189  14.1746  14.4692
    17.7255  18.9224  19.5983  20.5059  21.4648  23.5543  23.9757  24.1813
    24.2271  24.4903  24.8267  24.8659  24.9520  24.9645  25.2195  25.2252
    25.2440  25.3972  25.4447  25.4588  25.7818  25.9990  26.3257  26.3584
    26.4460  26.5257  26.5670  27.3803  27.9508  28.9438  29.3052  30.0330
    30.5502  31.3546  32.0115  33.4411  33.8898  34.1902  34.2897  34.7410
    34.8507  35.3377  35.7725  36.0781  36.1342  36.1476  36.4440  36.6240
    37.0593  37.2600  37.7391  38.3077  38.3600  38.6983  38.7551  38.8979
    39.2087  39.3527  39.6044  39.6751  39.8908  40.8772  41.0455  41.3239
    41.4191  41.7611  41.8345  42.0007  42.0303  42.0938

          k =-0.5000-0.2887 0.1555 (  5822 PWs)   bands (ev):

   -77.3918 -77.3719 -77.3436 -77.3428 -77.3394 -77.3189 -77.3175 -77.3004
   -48.2724 -48.2715 -48.2667 -48.2638 -36.6421 -36.5808 -36.4874 -36.4463
   -36.3101 -36.2210 -36.2152 -36.2078 -36.1992 -36.1626 -36.1268 -36.0911
   -36.0621 -36.0523 -36.0168 -36.0116 -35.9960 -35.9885 -35.9667 -35.9416
   -35.9193 -35.9010 -35.8920 -35.8909 -15.3206 -15.3179 -15.3014 -15.2919
   -15.2821 -15.2766 -15.2520 -15.2382 -15.2137 -15.2112 -15.2000 -15.1917
     9.9662  10.1133  10.4590  10.7353  10.8258  10.9495  10.9970  11.0839
    11.3560  11.5098  11.6075  11.8866  12.0134  12.0439  12.0866  12.1511
    12.1760  12.2393  12.3615  12.3844  12.4465  12.6179  12.6548  12.6596
    12.8209  12.8702  12.9363  13.1959  13.2018  13.2306  13.2535  13.3138
    13.3539  13.5020  13.5350  13.5593  13.7062  13.7261  14.2407  14.4350
    17.8330  18.6856  19.5788  20.3249  22.0648  23.6375  23.6976  23.9714
    24.4233  24.6119  24.6648  24.7372  24.7781  24.8251  25.1877  25.2182
    25.2722  25.3562  25.5839  25.7617  25.8306  26.0597  26.2872  26.2935
    26.4934  26.5399  26.8556  27.6599  27.8848  27.9506  28.8969  30.5273
    30.8249  31.8736  32.2299  33.0696  33.4790  34.0163  34.3975  34.7614
    34.9357  35.0434  35.5901  35.7120  35.8178  35.9374  37.1889  37.2655
    37.3947  37.8591  38.1030  38.1517  38.2727  38.4764  38.4881  38.6634
    39.0227  39.1750  39.6135  39.9895  40.0336  40.5511  40.7318  41.0081
    41.2584  41.7039  41.7172  41.8253  42.0545  42.3469

          k =-0.5000-0.2887-0.3109 (  5804 PWs)   bands (ev):

   -77.3803 -77.3803 -77.3255 -77.3255 -77.3238 -77.3237 -77.3036 -77.3036
   -48.2672 -48.2671 -48.2646 -48.2645 -36.6185 -36.6185 -36.4584 -36.4584
   -36.2701 -36.2701 -36.2202 -36.2202 -36.1557 -36.1557 -36.1192 -36.1192
   -36.0535 -36.0534 -36.0002 -36.0002 -35.9670 -35.9670 -35.9384 -35.9384
   -35.9290 -35.9290 -35.8914 -35.8914 -15.3149 -15.3148 -15.2949 -15.2949
   -15.2744 -15.2743 -15.2376 -15.2374 -15.2099 -15.2098 -15.2004 -15.2004
    10.0241  10.0241  10.6848  10.6848  10.7914  10.7914  11.0426  11.0426
    11.4226  11.4227  11.7596  11.7596  12.0582  12.0582  12.1330  12.1330
    12.1908  12.1908  12.2643  12.2643  12.5658  12.5658  12.6606  12.6606
    12.8976  12.8976  13.1296  13.1296  13.1793  13.1793  13.3436  13.3436
    13.4492  13.4492  13.5840  13.5840  13.5851  13.5851  14.3490  14.3490
    18.1794  18.1794  19.9084  19.9085  23.0615  23.0615  23.8392  23.8393
    24.3727  24.3728  24.6272  24.6272  24.7997  24.7998  25.2492  25.2492
    25.2634  25.2634  25.7115  25.7116  26.1297  26.1298  26.1827  26.1827
    26.8135  26.8135  26.9265  26.9266  27.9340  27.9340  29.3194  29.3194
    32.0265  32.0266  32.6717  32.6717  33.4504  33.4504  34.4087  34.4087
    34.9667  34.9667  35.6779  35.6779  36.0009  36.0009  37.2482  37.2482
    37.7814  37.7814  38.0346  38.0346  38.2014  38.2014  38.7938  38.7938
    39.4942  39.4943  39.7497  39.7497  40.4438  40.4438  40.5170  40.5170
    40.8726  40.8727  42.0361  42.0362  42.2417  42.2419

          k =-0.5000 0.0962 0.0000 (  5827 PWs)   bands (ev):

   -77.3880 -77.3837 -77.3533 -77.3416 -77.3343 -77.3255 -77.3143 -77.2985
   -48.2716 -48.2699 -48.2689 -48.2666 -36.6490 -36.5379 -36.5302 -36.4412
   -36.3410 -36.2109 -36.2032 -36.2001 -36.1877 -36.1792 -36.0748 -36.0699
   -36.0650 -36.0574 -36.0424 -36.0342 -36.0082 -35.9804 -35.9794 -35.9326
   -35.9120 -35.9114 -35.9105 -35.8894 -15.3243 -15.3199 -15.3059 -15.2967
   -15.2827 -15.2641 -15.2536 -15.2316 -15.2135 -15.2075 -15.2039 -15.2007
    10.0412  10.2215  10.4806  10.6908  10.7813  10.9016  10.9045  11.1249
    11.3003  11.4459  11.6000  11.7763  11.8738  11.9592  12.0941  12.1033
    12.2137  12.2523  12.4588  12.5379  12.5659  12.6145  12.6624  12.7412
    12.7787  12.8955  12.9090  13.0130  13.1840  13.2622  13.3126  13.3802
    13.4321  13.5171  13.5639  13.6638  13.7771  13.7944  14.0934  14.2720
    17.6473  19.0227  19.7944  20.5910  21.4421  23.0640  23.1546  24.3887
    24.5734  24.7072  24.7708  24.8378  24.9112  24.9883  25.1164  25.1222
    25.2622  25.3219  25.4197  25.8153  25.8598  25.8819  26.2783  26.4053
    26.4700  26.6155  26.9037  27.0495  27.9576  29.0536  30.0535  30.1182
    30.5684  31.6026  32.1034  32.7537  33.0573  33.8686  34.1376  34.2345
    34.9798  35.3723  35.3818  35.4702  36.2314  36.8303  37.0367  37.3021
    37.6955  37.7772  37.9323  38.4363  38.4528  38.5955  38.7473  39.1528
    39.2631  39.3984  39.4681  39.6809  39.7808  40.1737  40.1941  40.8854
    41.0222  41.6387  41.7807  42.0170  42.2984  42.4857

          k =-0.5000 0.0962 0.1555 (  5825 PWs)   bands (ev):

   -77.3843 -77.3816 -77.3501 -77.3451 -77.3284 -77.3225 -77.3187 -77.3023
   -48.2716 -48.2702 -48.2676 -48.2662 -36.6408 -36.5790 -36.4904 -36.4459
   -36.3259 -36.2257 -36.2127 -36.2059 -36.1927 -36.1618 -36.1171 -36.0933
   -36.0623 -36.0546 -36.0186 -36.0046 -35.9813 -35.9779 -35.9695 -35.9373
   -35.9200 -35.9126 -35.9079 -35.9005 -15.3214 -15.3172 -15.3034 -15.2988
   -15.2818 -15.2700 -15.2470 -15.2382 -15.2143 -15.2083 -15.2021 -15.1981
    10.0567  10.1730  10.5658  10.6867  10.7698  10.9398  10.9563  11.0621
    11.2391  11.2992  11.7136  11.7851  11.8592  11.9329  12.0851  12.0987
    12.2299  12.3178  12.4078  12.4364  12.5264  12.6211  12.7242  12.7778
    12.8455  12.9015  12.9723  13.0621  13.2263  13.2623  13.2966  13.4137
    13.4423  13.4893  13.5258  13.6086  13.7202  13.7834  14.1357  14.2565
    17.7664  18.6844  19.8743  20.4533  22.0698  23.0297  23.0409  24.1375
    24.4690  24.6323  24.6766  24.7501  24.8538  24.9424  25.0154  25.1446
    25.3804  25.5116  25.5929  25.7902  25.9104  25.9834  26.2415  26.3921
    26.5125  26.5779  26.9839  27.1815  28.1897  29.0488  29.1557  30.0030
    31.4211  31.5490  31.9015  32.4435  33.1474  33.4100  34.0123  34.8547
    35.1794  35.3765  35.6180  35.8612  36.2400  36.7594  36.8659  37.3575
    37.5945  37.8697  37.9830  38.0737  38.2452  38.5987  38.6932  38.8467
    39.1789  39.3807  39.5999  39.7975  39.9634  40.2064  40.2659  40.8378
    41.2092  41.3969  41.7232  41.8976  42.0151  42.3660

          k =-0.5000 0.0962-0.3109 (  5824 PWs)   bands (ev):

   -77.3808 -77.3808 -77.3439 -77.3439 -77.3220 -77.3220 -77.3182 -77.3182
   -48.2692 -48.2692 -48.2685 -48.2684 -36.6165 -36.6165 -36.4582 -36.4582
   -36.2821 -36.2821 -36.2123 -36.2123 -36.1589 -36.1589 -36.1331 -36.1331
   -36.0581 -36.0581 -35.9904 -35.9904 -35.9675 -35.9675 -35.9490 -35.9490
   -35.9290 -35.9290 -35.9117 -35.9117 -15.3174 -15.3173 -15.3014 -15.3014
   -15.2767 -15.2766 -15.2406 -15.2404 -15.2121 -15.2121 -15.2017 -15.2016
    10.1044  10.1044  10.6678  10.6678  10.8493  10.8493  11.0345  11.0345
    11.1735  11.1736  11.7913  11.7913  11.8693  11.8693  12.0845  12.0845
    12.2958  12.2958  12.3922  12.3922  12.5645  12.5645  12.7457  12.7457
    12.9089  12.9089  13.1345  13.1345  13.2144  13.2144  13.4063  13.4063
    13.4358  13.4358  13.5017  13.5017  13.7276  13.7276  14.2073  14.2073
    18.1304  18.1304  20.1635  20.1636  22.8686  22.8686  23.3001  23.3001
    24.5111  24.5111  24.7079  24.7080  24.7879  24.7880  25.0847  25.0847
    25.5047  25.5047  25.8725  25.8726  26.0337  26.0338  26.2440  26.2440
    26.6208  26.6208  26.8732  26.8732  28.9202  28.9202  29.4591  29.4591
    31.1170  31.1170  31.9387  31.9387  34.0311  34.0311  34.4885  34.4885
    34.9293  34.9293  35.9376  35.9376  36.5480  36.5480  37.0156  37.0156
    37.7197  37.7197  37.8214  37.8214  38.4969  38.4969  38.7513  38.7513
    39.4648  39.4648  39.6194  39.6195  39.9433  39.9434  40.8065  40.8066
    41.1124  41.1125  41.5203  41.5203  42.1098  42.1100

     the Fermi energy is    35.8797 ev

!    total energy              =   -3975.43813034 Ry
     Harris-Foulkes estimate   =   -3975.43818444 Ry
     estimated scf accuracy    <       0.00006682 Ry

     The total energy is the sum of the following terms:

     one-electron contribution =    -853.61596068 Ry
     hartree contribution      =     638.11210246 Ry
     xc contribution           =    -340.59275836 Ry
     ewald contribution        =   -3418.94472799 Ry
     smearing contrib. (-TS)   =      -0.39678578 Ry

     convergence has been achieved in  10 iterations

     Forces acting on atoms (Ry/au):

     atom    1 type  1   force =     0.00000000    0.00000000    0.02172577
     atom    2 type  1   force =     0.00000000    0.00000000    0.02172577
     atom    3 type  1   force =     0.00000000    0.00000000   -0.02172577
     atom    4 type  1   force =     0.00000000    0.00000000   -0.02172577
     atom    5 type  2   force =     0.00000000    0.00000000    0.00000000
     atom    6 type  2   force =     0.00000000    0.00000000    0.00000000
     atom    7 type  2   force =     0.00000000    0.19953151    0.00000000
     atom    8 type  2   force =    -0.17279936    0.09976576    0.00000000
     atom    9 type  2   force =     0.17279936    0.09976576    0.00000000
     atom   10 type  2   force =    -0.17279936   -0.09976576    0.00000000
     atom   11 type  2   force =     0.17279936   -0.09976576    0.00000000
     atom   12 type  2   force =     0.00000000   -0.19953151    0.00000000

     Total force =     0.490678     Total SCF correction =     0.000000


     entering subroutine stress ...

          total   stress  (Ry/bohr**3)                   (kbar)     P= 1310.14
   0.00894107   0.00000000   0.00000000       1315.28      0.00      0.00
   0.00000000   0.00894107   0.00000000          0.00   1315.28      0.00
   0.00000000   0.00000000   0.00883630          0.00      0.00   1299.86


     BFGS Geometry Optimization

     number of scf cycles    =   1
     number of bfgs steps    =   0

     enthalpy new            =   -3975.4381303429 Ry

     new trust radius        =       0.5000000000 bohr
     new conv_thr            =       0.0001000000 Ry

     new unit-cell volume =   1655.66975 a.u.^3 (   245.34494 Ang^3 )

CELL_PARAMETERS (alat=  9.92348860)
   1.067764947   0.000000000   0.000000000
  -0.533882474   0.924711570   0.000000000
   0.000000000   0.000000000   1.715926328

ATOMIC_POSITIONS (crystal)
Mg       0.333333000   0.666667000   0.062830706
Mg       0.666667000   0.333333000   0.562830706
Mg       0.666667000   0.333333000   0.937169294
Mg       0.333333000   0.666667000   0.437169294
Zn       0.000000000   0.000000000   0.000000000
Zn       0.000000000   0.000000000   0.500000000
Zn       0.173880349   0.347760697   0.750000000
Zn       0.826119651   0.173880349   0.250000000
Zn       0.347760697   0.173880349   0.250000000
Zn       0.652239303   0.826119651   0.750000000
Zn       0.173880349   0.826119651   0.750000000
Zn       0.826119651   0.652239303   0.250000000



     Writing output data file Prototype-La-hP12-MgZn2.save
     NEW-OLD atomic charge density approx. for the potential
     NEW k-points:
        k(    1) = (   0.0000000   0.0000000   0.0000000), wk =   0.0833333
        k(    2) = (   0.0000000   0.0000000   0.1456939), wk =   0.1666667
        k(    3) = (   0.0000000   0.0000000  -0.2913878), wk =   0.0833333
        k(    4) = (   0.0000000   0.3604728   0.0000000), wk =   0.1666667
        k(    5) = (   0.0000000   0.3604728   0.1456939), wk =   0.3333333
        k(    6) = (   0.0000000   0.3604728  -0.2913878), wk =   0.1666667
        k(    7) = (  -0.4682679  -0.2703546   0.0000000), wk =   0.0833333
        k(    8) = (  -0.4682679  -0.2703546   0.1456939), wk =   0.1666667
        k(    9) = (  -0.4682679  -0.2703546  -0.2913878), wk =   0.0833333
        k(   10) = (  -0.4682679   0.0901182   0.0000000), wk =   0.1666667
        k(   11) = (  -0.4682679   0.0901182   0.1456939), wk =   0.3333333
        k(   12) = (  -0.4682679   0.0901182  -0.2913878), wk =   0.1666667

     total cpu time spent up to now is      543.8 secs

     Self-consistent Calculation

     iteration #  1     ecut=    40.00 Ry     beta=0.70
     CG style diagonalization
     c_bands:  2 eigenvalues not converged
     c_bands:  1 eigenvalues not converged
     ethr =  1.00E-06,  avg # of iterations = 21.4

     total cpu time spent up to now is      678.8 secs

     total energy              =   -3996.08432727 Ry
     Harris-Foulkes estimate   =   -3999.14317659 Ry
     estimated scf accuracy    <       3.73570977 Ry

     iteration #  2     ecut=    40.00 Ry     beta=0.70
     CG style diagonalization
     ethr =  1.42E-03,  avg # of iterations =  5.3

     total cpu time spent up to now is      711.1 secs

     total energy              =   -4002.81400520 Ry
     Harris-Foulkes estimate   =   -3984.67795851 Ry
     estimated scf accuracy    <      17.39096016 Ry

     iteration #  3     ecut=    40.00 Ry     beta=0.70
     CG style diagonalization
     ethr =  1.42E-03,  avg # of iterations =  4.6

     total cpu time spent up to now is      738.9 secs

     total energy              =   -3986.03729035 Ry
     Harris-Foulkes estimate   =   -4007.49713080 Ry
     estimated scf accuracy    <      57.68300802 Ry

     iteration #  4     ecut=    40.00 Ry     beta=0.70
     CG style diagonalization
     ethr =  1.42E-03,  avg # of iterations =  4.5

     total cpu time spent up to now is      767.5 secs

     total energy              =   -3991.87179078 Ry
     Harris-Foulkes estimate   =   -3985.87332399 Ry
     estimated scf accuracy    <      17.97649160 Ry

     iteration #  5     ecut=    40.00 Ry     beta=0.70
     CG style diagonalization
     ethr =  1.42E-03,  avg # of iterations =  4.3

     total cpu time spent up to now is      793.1 secs

     total energy              =   -3989.49485108 Ry
     Harris-Foulkes estimate   =   -3993.44375857 Ry
     estimated scf accuracy    <      43.88955704 Ry

     iteration #  6     ecut=    40.00 Ry     beta=0.70
     CG style diagonalization
     ethr =  1.42E-03,  avg # of iterations =  3.4

     total cpu time spent up to now is      813.0 secs

     total energy              =   -3991.53918138 Ry
     Harris-Foulkes estimate   =   -3989.60718514 Ry
     estimated scf accuracy    <      35.00722767 Ry

     iteration #  7     ecut=    40.00 Ry     beta=0.70
     CG style diagonalization
     ethr =  1.42E-03,  avg # of iterations =  3.2

     total cpu time spent up to now is      832.9 secs

     total energy              =   -3989.26983268 Ry
     Harris-Foulkes estimate   =   -3991.57023067 Ry
     estimated scf accuracy    <      35.48594808 Ry

     iteration #  8     ecut=    40.00 Ry     beta=0.70
     CG style diagonalization
     ethr =  1.42E-03,  avg # of iterations =  3.4

     total cpu time spent up to now is      853.9 secs

     total energy              =   -3973.65590739 Ry
     Harris-Foulkes estimate   =   -3989.19129503 Ry
     estimated scf accuracy    <      25.02464587 Ry

     iteration #  9     ecut=    40.00 Ry     beta=0.70
     CG style diagonalization
     ethr =  1.42E-03,  avg # of iterations =  4.6

     total cpu time spent up to now is      880.5 secs

     total energy              =   -3976.35092456 Ry
     Harris-Foulkes estimate   =   -3976.35221904 Ry
     estimated scf accuracy    <       0.06966280 Ry

     iteration # 10     ecut=    40.00 Ry     beta=0.70
     CG style diagonalization
     c_bands:  1 eigenvalues not converged
     c_bands:  2 eigenvalues not converged
     ethr =  2.64E-05,  avg # of iterations =  9.2

     total cpu time spent up to now is      938.6 secs

     total energy              =   -3976.39867698 Ry
     Harris-Foulkes estimate   =   -3976.38090464 Ry
     estimated scf accuracy    <       0.11079099 Ry

     iteration # 11     ecut=    40.00 Ry     beta=0.70
     CG style diagonalization
     c_bands:  1 eigenvalues not converged
     c_bands:  2 eigenvalues not converged
     ethr =  2.64E-05,  avg # of iterations =  4.4

     total cpu time spent up to now is      964.4 secs

     total energy              =   -3976.40684129 Ry
     Harris-Foulkes estimate   =   -3976.41688279 Ry
     estimated scf accuracy    <       0.08190373 Ry

     iteration # 12     ecut=    40.00 Ry     beta=0.70
     CG style diagonalization
     c_bands:  4 eigenvalues not converged
     c_bands:  2 eigenvalues not converged
     c_bands:  5 eigenvalues not converged
     ethr =  2.64E-05,  avg # of iterations =  6.3

     total cpu time spent up to now is     1003.8 secs

     total energy              =   -3976.57019676 Ry
     Harris-Foulkes estimate   =   -3976.37880276 Ry
     estimated scf accuracy    <       0.10224535 Ry

     iteration # 13     ecut=    40.00 Ry     beta=0.70
     CG style diagonalization
     c_bands:  4 eigenvalues not converged
     ethr =  2.64E-05,  avg # of iterations =  7.4

     total cpu time spent up to now is     1048.5 secs

     total energy              =   -3979.26625626 Ry
     Harris-Foulkes estimate   =   -3976.75358645 Ry
     estimated scf accuracy    <       0.33185641 Ry

     iteration # 14     ecut=    40.00 Ry     beta=0.70
     CG style diagonalization
     c_bands:  3 eigenvalues not converged
     c_bands:  5 eigenvalues not converged
     c_bands:  5 eigenvalues not converged
     ethr =  2.64E-05,  avg # of iterations =  7.8

     total cpu time spent up to now is     1098.7 secs

     total energy              =   -3978.27258429 Ry
     Harris-Foulkes estimate   =   -3981.78524085 Ry
     estimated scf accuracy    <       8.80000395 Ry

     iteration # 15     ecut=    40.00 Ry     beta=0.70
     CG style diagonalization
     c_bands:  1 eigenvalues not converged
     c_bands:  5 eigenvalues not converged
     ethr =  2.64E-05,  avg # of iterations =  9.2

     total cpu time spent up to now is     1154.3 secs

     total energy              =   -3977.27236364 Ry
     Harris-Foulkes estimate   =   -3977.93059477 Ry
     estimated scf accuracy    <       2.06477124 Ry

     iteration # 16     ecut=    40.00 Ry     beta=0.70
     CG style diagonalization
     c_bands:  1 eigenvalues not converged
     c_bands:  2 eigenvalues not converged
     c_bands:  2 eigenvalues not converged
     c_bands:  5 eigenvalues not converged
     ethr =  2.64E-05,  avg # of iterations =  6.0

     total cpu time spent up to now is     1193.1 secs

     total energy              =   -3976.96131103 Ry
     Harris-Foulkes estimate   =   -3977.07571470 Ry
     estimated scf accuracy    <       1.02347959 Ry

     iteration # 17     ecut=    40.00 Ry     beta=0.70
     CG style diagonalization
     c_bands:  3 eigenvalues not converged
     c_bands:  4 eigenvalues not converged
     c_bands:  4 eigenvalues not converged
     ethr =  2.64E-05,  avg # of iterations =  6.6

     total cpu time spent up to now is     1231.8 secs

     total energy              =   -3976.96224515 Ry
     Harris-Foulkes estimate   =   -3976.92552854 Ry
     estimated scf accuracy    <       0.29421156 Ry

     iteration # 18     ecut=    40.00 Ry     beta=0.70
     CG style diagonalization
     ethr =  2.64E-05,  avg # of iterations =  5.0

     total cpu time spent up to now is     1262.5 secs

     total energy              =   -3977.15584592 Ry
     Harris-Foulkes estimate   =   -3977.01100148 Ry
     estimated scf accuracy    <       0.61221308 Ry

     iteration # 19     ecut=    40.00 Ry     beta=0.70
     CG style diagonalization
     c_bands:  2 eigenvalues not converged
     c_bands:  2 eigenvalues not converged
     c_bands:  5 eigenvalues not converged
     c_bands:  4 eigenvalues not converged
     ethr =  2.64E-05,  avg # of iterations =  6.1

     total cpu time spent up to now is     1298.9 secs

     total energy              =   -3977.19689411 Ry
     Harris-Foulkes estimate   =   -3977.26627648 Ry
     estimated scf accuracy    <       0.97619329 Ry

     iteration # 20     ecut=    40.00 Ry     beta=0.70
     CG style diagonalization
     c_bands:  2 eigenvalues not converged
     c_bands:  2 eigenvalues not converged
     c_bands:  4 eigenvalues not converged
     ethr =  2.64E-05,  avg # of iterations =  7.5

     total cpu time spent up to now is     1346.8 secs

     total energy              =   -3976.69473698 Ry
     Harris-Foulkes estimate   =   -3977.16127596 Ry
     estimated scf accuracy    <       2.07080939 Ry

     iteration # 21     ecut=    40.00 Ry     beta=0.70
     CG style diagonalization
     ethr =  2.64E-05,  avg # of iterations =  4.0

     total cpu time spent up to now is     1370.1 secs

     total energy              =   -3976.76892519 Ry
     Harris-Foulkes estimate   =   -3976.73432168 Ry
     estimated scf accuracy    <       0.13769257 Ry

     iteration # 22     ecut=    40.00 Ry     beta=0.70
     CG style diagonalization
     c_bands:  2 eigenvalues not converged
     c_bands:  2 eigenvalues not converged
     c_bands:  5 eigenvalues not converged
     c_bands:  4 eigenvalues not converged
     c_bands:  2 eigenvalues not converged
     ethr =  2.64E-05,  avg # of iterations =  7.1

     total cpu time spent up to now is     1414.3 secs

     total energy              =   -3976.77642447 Ry
     Harris-Foulkes estimate   =   -3976.83024651 Ry
     estimated scf accuracy    <       0.61404648 Ry

     iteration # 23     ecut=    40.00 Ry     beta=0.70
     CG style diagonalization
     c_bands:  2 eigenvalues not converged
     c_bands:  4 eigenvalues not converged
     c_bands:  5 eigenvalues not converged
     ethr =  2.64E-05,  avg # of iterations =  5.8

     total cpu time spent up to now is     1450.0 secs

     total energy              =   -3976.45825491 Ry
     Harris-Foulkes estimate   =   -3976.75414989 Ry
     estimated scf accuracy    <       1.09979237 Ry

     iteration # 24     ecut=    40.00 Ry     beta=0.70
     CG style diagonalization
     ethr =  2.64E-05,  avg # of iterations =  3.8

     total cpu time spent up to now is     1472.1 secs

     total energy              =   -3976.48730275 Ry
     Harris-Foulkes estimate   =   -3976.48888113 Ry
     estimated scf accuracy    <       0.00549461 Ry

     iteration # 25     ecut=    40.00 Ry     beta=0.70
     CG style diagonalization
     c_bands:  2 eigenvalues not converged
     ethr =  2.08E-06,  avg # of iterations = 17.7

     total cpu time spent up to now is     1583.4 secs

     total energy              =   -3976.47409733 Ry
     Harris-Foulkes estimate   =   -3976.47026962 Ry
     estimated scf accuracy    <       0.09210654 Ry

     iteration # 26     ecut=    40.00 Ry     beta=0.70
     CG style diagonalization
     c_bands:  2 eigenvalues not converged
     ethr =  2.08E-06,  avg # of iterations = 17.7

     total cpu time spent up to now is     1694.1 secs

     total energy              =   -3976.65365953 Ry
     Harris-Foulkes estimate   =   -3976.46219131 Ry
     estimated scf accuracy    <       0.89823645 Ry

     iteration # 27     ecut=    40.00 Ry     beta=0.70
     CG style diagonalization
     c_bands:  1 eigenvalues not converged
     ethr =  2.08E-06,  avg # of iterations = 17.4

     total cpu time spent up to now is     1800.7 secs

     total energy              =   -3976.48218511 Ry
     Harris-Foulkes estimate   =   -3976.36479094 Ry
     estimated scf accuracy    <       1.26752247 Ry

     iteration # 28     ecut=    40.00 Ry     beta=0.70
     CG style diagonalization
     ethr =  2.08E-06,  avg # of iterations = 17.2

     total cpu time spent up to now is     1908.3 secs

     total energy              =   -3976.28074944 Ry
     Harris-Foulkes estimate   =   -3976.33055672 Ry
     estimated scf accuracy    <       2.31022120 Ry

     iteration # 29     ecut=    40.00 Ry     beta=0.70
     CG style diagonalization
     c_bands:  1 eigenvalues not converged
     ethr =  2.08E-06,  avg # of iterations = 17.3

     total cpu time spent up to now is     2016.7 secs

     total energy              =   -3975.84230913 Ry
     Harris-Foulkes estimate   =   -3976.34039525 Ry
     estimated scf accuracy    <       2.69333883 Ry

     iteration # 30     ecut=    40.00 Ry     beta=0.70
     CG style diagonalization
     c_bands:  1 eigenvalues not converged
     ethr =  2.08E-06,  avg # of iterations = 17.8

     total cpu time spent up to now is     2126.0 secs

     total energy              =   -3976.54176120 Ry
     Harris-Foulkes estimate   =   -3976.50384409 Ry
     estimated scf accuracy    <       1.85529561 Ry

     iteration # 31     ecut=    40.00 Ry     beta=0.70
     CG style diagonalization
     c_bands:  1 eigenvalues not converged
     ethr =  2.08E-06,  avg # of iterations = 17.7

     total cpu time spent up to now is     2236.3 secs

     total energy              =   -3976.14528072 Ry
     Harris-Foulkes estimate   =   -3976.48505153 Ry
     estimated scf accuracy    <       2.91048770 Ry

     iteration # 32     ecut=    40.00 Ry     beta=0.70
     CG style diagonalization
     c_bands:  1 eigenvalues not converged
     ethr =  2.08E-06,  avg # of iterations = 17.9

     total cpu time spent up to now is     2349.3 secs

     total energy              =   -3977.28598621 Ry
     Harris-Foulkes estimate   =   -3976.64702544 Ry
     estimated scf accuracy    <       2.90279850 Ry

     iteration # 33     ecut=    40.00 Ry     beta=0.70
     CG style diagonalization
     c_bands:  4 eigenvalues not converged
     ethr =  2.08E-06,  avg # of iterations = 16.8

     total cpu time spent up to now is     2454.2 secs

     total energy              =   -3975.92548897 Ry
     Harris-Foulkes estimate   =   -3976.39929071 Ry
     estimated scf accuracy    <       3.92169072 Ry

     iteration # 34     ecut=    40.00 Ry     beta=0.70
     CG style diagonalization
     c_bands:  1 eigenvalues not converged
     ethr =  2.08E-06,  avg # of iterations = 17.5

     total cpu time spent up to now is     2561.6 secs

     total energy              =   -3975.91057599 Ry
     Harris-Foulkes estimate   =   -3976.55728222 Ry
     estimated scf accuracy    <       4.44690100 Ry

     iteration # 35     ecut=    40.00 Ry     beta=0.70
     CG style diagonalization
     c_bands:  3 eigenvalues not converged
     ethr =  2.08E-06,  avg # of iterations = 18.1

     total cpu time spent up to now is     2668.7 secs

     total energy              =   -3976.85023510 Ry
     Harris-Foulkes estimate   =   -3976.87087673 Ry
     estimated scf accuracy    <       3.50517317 Ry

     iteration # 36     ecut=    40.00 Ry     beta=0.70
     CG style diagonalization
     c_bands:  4 eigenvalues not converged
     ethr =  2.08E-06,  avg # of iterations = 18.0

     total cpu time spent up to now is     2780.1 secs

     total energy              =   -3976.32535533 Ry
     Harris-Foulkes estimate   =   -3976.88341310 Ry
     estimated scf accuracy    <       3.46432633 Ry

     iteration # 37     ecut=    40.00 Ry     beta=0.70
     CG style diagonalization
     c_bands:  2 eigenvalues not converged
     c_bands:  1 eigenvalues not converged
     c_bands:  2 eigenvalues not converged
     ethr =  2.08E-06,  avg # of iterations = 18.0

     total cpu time spent up to now is     2894.3 secs

     total energy              =   -3975.99350429 Ry
     Harris-Foulkes estimate   =   -3977.32165496 Ry
     estimated scf accuracy    <       2.65725726 Ry

     iteration # 38     ecut=    40.00 Ry     beta=0.70
     CG style diagonalization
     c_bands:  2 eigenvalues not converged
     c_bands:  1 eigenvalues not converged
     c_bands:  2 eigenvalues not converged
     c_bands:  1 eigenvalues not converged
     c_bands:  2 eigenvalues not converged
     ethr =  2.08E-06,  avg # of iterations = 18.3

     total cpu time spent up to now is     3011.0 secs

     total energy              =   -3981.44021719 Ry
     Harris-Foulkes estimate   =   -3979.48099227 Ry
     estimated scf accuracy    <       0.83997170 Ry

     iteration # 39     ecut=    40.00 Ry     beta=0.70
     CG style diagonalization
     ethr =  2.08E-06,  avg # of iterations = 17.1

     total cpu time spent up to now is     3120.0 secs

     total energy              =   -3976.68764336 Ry
     Harris-Foulkes estimate   =   -3976.69289130 Ry
     estimated scf accuracy    <       3.93887270 Ry

     iteration # 40     ecut=    40.00 Ry     beta=0.70
     CG style diagonalization
     ethr =  2.08E-06,  avg # of iterations = 17.2

     total cpu time spent up to now is     3229.7 secs

     total energy              =   -3976.26523520 Ry
     Harris-Foulkes estimate   =   -3976.69510616 Ry
     estimated scf accuracy    <       3.93616117 Ry

     iteration # 41     ecut=    40.00 Ry     beta=0.70
     CG style diagonalization
     c_bands:  2 eigenvalues not converged
     ethr =  2.08E-06,  avg # of iterations = 18.0

     total cpu time spent up to now is     3342.5 secs

     total energy              =   -3975.18806077 Ry
     Harris-Foulkes estimate   =   -3976.94169134 Ry
     estimated scf accuracy    <       3.31738198 Ry

     iteration # 42     ecut=    40.00 Ry     beta=0.70
     CG style diagonalization
     c_bands:  2 eigenvalues not converged
     ethr =  2.08E-06,  avg # of iterations = 18.5

     total cpu time spent up to now is     3456.7 secs

     total energy              =   -3977.41583864 Ry
     Harris-Foulkes estimate   =   -3979.24557603 Ry
     estimated scf accuracy    <       3.12748624 Ry

     iteration # 43     ecut=    40.00 Ry     beta=0.70
     CG style diagonalization
     c_bands:  2 eigenvalues not converged
     c_bands:  2 eigenvalues not converged
     c_bands:  1 eigenvalues not converged
     c_bands:  1 eigenvalues not converged
     c_bands:  1 eigenvalues not converged
     c_bands:  2 eigenvalues not converged
     ethr =  2.08E-06,  avg # of iterations = 19.2

     total cpu time spent up to now is     3576.5 secs

     total energy              =   -3984.08005345 Ry
     Harris-Foulkes estimate   =   -3983.82289076 Ry
     estimated scf accuracy    <       0.01450296 Ry

     iteration # 44     ecut=    40.00 Ry     beta=0.70
     CG style diagonalization
     c_bands:  3 eigenvalues not converged
     ethr =  2.08E-06,  avg # of iterations = 19.0

     total cpu time spent up to now is     3697.2 secs

     total energy              =   -3980.24905776 Ry
     Harris-Foulkes estimate   =   -3980.21960288 Ry
     estimated scf accuracy    <       0.50443153 Ry

     iteration # 45     ecut=    40.00 Ry     beta=0.70
     CG style diagonalization
     c_bands:  5 eigenvalues not converged
     ethr =  2.08E-06,  avg # of iterations = 19.1

     total cpu time spent up to now is     3815.1 secs

     total energy              =   -3980.08805626 Ry
     Harris-Foulkes estimate   =   -3980.09272839 Ry
     estimated scf accuracy    <       0.54934831 Ry

     iteration # 46     ecut=    40.00 Ry     beta=0.70
     CG style diagonalization
     c_bands:  3 eigenvalues not converged
     ethr =  2.08E-06,  avg # of iterations = 19.1

     total cpu time spent up to now is     3935.1 secs

     total energy              =   -3980.11925165 Ry
     Harris-Foulkes estimate   =   -3980.11141154 Ry
     estimated scf accuracy    <       0.54194679 Ry

     iteration # 47     ecut=    40.00 Ry     beta=0.70
     CG style diagonalization
     c_bands:  3 eigenvalues not converged
     ethr =  2.08E-06,  avg # of iterations = 19.1

     total cpu time spent up to now is     4052.3 secs

     total energy              =   -3980.05174877 Ry
     Harris-Foulkes estimate   =   -3980.07928834 Ry
     estimated scf accuracy    <       0.55350648 Ry

     iteration # 48     ecut=    40.00 Ry     beta=0.70
     CG style diagonalization
     c_bands:  3 eigenvalues not converged
     ethr =  2.08E-06,  avg # of iterations = 19.1

     total cpu time spent up to now is     4172.6 secs

     total energy              =   -3980.26017515 Ry
     Harris-Foulkes estimate   =   -3980.19305438 Ry
     estimated scf accuracy    <       0.51272616 Ry

     iteration # 49     ecut=    40.00 Ry     beta=0.70
     CG style diagonalization
     c_bands:  2 eigenvalues not converged
     ethr =  2.08E-06,  avg # of iterations = 19.0

     total cpu time spent up to now is     4289.2 secs

     total energy              =   -3979.86922714 Ry
     Harris-Foulkes estimate   =   -3979.92078440 Ry
     estimated scf accuracy    <       0.13376054 Ry

     iteration # 50     ecut=    40.00 Ry     beta=0.70
     CG style diagonalization
     c_bands:  3 eigenvalues not converged
     c_bands:  3 eigenvalues not converged
     ethr =  2.08E-06,  avg # of iterations = 19.1

     total cpu time spent up to now is     4409.5 secs

     total energy              =   -3980.46589061 Ry
     Harris-Foulkes estimate   =   -3980.41121503 Ry
     estimated scf accuracy    <       2.29763675 Ry

     iteration # 51     ecut=    40.00 Ry     beta=0.70
     CG style diagonalization
     c_bands:  3 eigenvalues not converged
     ethr =  2.08E-06,  avg # of iterations = 17.5

     total cpu time spent up to now is     4517.3 secs

     total energy              =   -3980.19027269 Ry
     Harris-Foulkes estimate   =   -3980.29930199 Ry
     estimated scf accuracy    <       9.63071131 Ry

     iteration # 52     ecut=    40.00 Ry     beta=0.70
     CG style diagonalization
     ethr =  2.08E-06,  avg # of iterations =  3.1

     total cpu time spent up to now is     4535.4 secs

     total energy              =   -3980.05475720 Ry
     Harris-Foulkes estimate   =   -3980.19072731 Ry
     estimated scf accuracy    <       9.37722489 Ry

     iteration # 53     ecut=    40.00 Ry     beta=0.70
     CG style diagonalization
     ethr =  2.08E-06,  avg # of iterations =  3.5

     total cpu time spent up to now is     4556.9 secs

     total energy              =   -3979.90216274 Ry
     Harris-Foulkes estimate   =   -3980.05551923 Ry
     estimated scf accuracy    <       9.06091795 Ry

     iteration # 54     ecut=    40.00 Ry     beta=0.70
     CG style diagonalization
     ethr =  2.08E-06,  avg # of iterations =  3.5

     total cpu time spent up to now is     4579.0 secs

     total energy              =   -3979.64302511 Ry
     Harris-Foulkes estimate   =   -3979.90306767 Ry
     estimated scf accuracy    <       8.68607405 Ry

     iteration # 55     ecut=    40.00 Ry     beta=0.70
     CG style diagonalization
     ethr =  2.08E-06,  avg # of iterations =  4.0

     total cpu time spent up to now is     4601.4 secs

     total energy              =   -3979.77804204 Ry
     Harris-Foulkes estimate   =   -3979.64557334 Ry
     estimated scf accuracy    <       8.06270139 Ry

     iteration # 56     ecut=    40.00 Ry     beta=0.70
     CG style diagonalization
     ethr =  2.08E-06,  avg # of iterations =  3.4

     total cpu time spent up to now is     4622.0 secs

     total energy              =   -3979.76506630 Ry
     Harris-Foulkes estimate   =   -3979.77868840 Ry
     estimated scf accuracy    <       8.36624585 Ry

     iteration # 57     ecut=    40.00 Ry     beta=0.70
     CG style diagonalization
     ethr =  2.08E-06,  avg # of iterations =  3.0

     total cpu time spent up to now is     4640.1 secs

     total energy              =   -3979.57191692 Ry
     Harris-Foulkes estimate   =   -3979.76509602 Ry
     estimated scf accuracy    <       8.33912078 Ry

     iteration # 58     ecut=    40.00 Ry     beta=0.70
     CG style diagonalization
     ethr =  2.08E-06,  avg # of iterations =  3.6

     total cpu time spent up to now is     4662.0 secs

     total energy              =   -3978.84210763 Ry
     Harris-Foulkes estimate   =   -3979.57321776 Ry
     estimated scf accuracy    <       7.89430579 Ry

     iteration # 59     ecut=    40.00 Ry     beta=0.70
     CG style diagonalization
     ethr =  2.08E-06,  avg # of iterations =  5.0

     total cpu time spent up to now is     4691.3 secs

     total energy              =   -3974.93943924 Ry
     Harris-Foulkes estimate   =   -3978.86405359 Ry
     estimated scf accuracy    <       6.19943080 Ry

     iteration # 60     ecut=    40.00 Ry     beta=0.70
     CG style diagonalization
     c_bands:  1 eigenvalues not converged
     ethr =  2.08E-06,  avg # of iterations =  7.6

     total cpu time spent up to now is     4741.8 secs

     total energy              =   -3976.29756175 Ry
     Harris-Foulkes estimate   =   -3976.29998954 Ry
     estimated scf accuracy    <       0.00516566 Ry

     iteration # 61     ecut=    40.00 Ry     beta=0.70
     CG style diagonalization
     ethr =  1.96E-06,  avg # of iterations =  3.5

     total cpu time spent up to now is     4761.9 secs

     total energy              =   -3976.29823366 Ry
     Harris-Foulkes estimate   =   -3976.29842198 Ry
     estimated scf accuracy    <       0.00095986 Ry

     iteration # 62     ecut=    40.00 Ry     beta=0.70
     CG style diagonalization
     ethr =  3.64E-07,  avg # of iterations =  3.1

     total cpu time spent up to now is     4780.5 secs

     total energy              =   -3976.29814687 Ry
     Harris-Foulkes estimate   =   -3976.29830648 Ry
     estimated scf accuracy    <       0.00050634 Ry

     iteration # 63     ecut=    40.00 Ry     beta=0.70
     CG style diagonalization
     ethr =  1.92E-07,  avg # of iterations =  3.4

     total cpu time spent up to now is     4801.8 secs

     total energy              =   -3976.29817217 Ry
     Harris-Foulkes estimate   =   -3976.29822860 Ry
     estimated scf accuracy    <       0.00033184 Ry

     iteration # 64     ecut=    40.00 Ry     beta=0.70
     CG style diagonalization
     ethr =  1.26E-07,  avg # of iterations =  3.0

     total cpu time spent up to now is     4820.0 secs

     total energy              =   -3976.29808343 Ry
     Harris-Foulkes estimate   =   -3976.29817878 Ry
     estimated scf accuracy    <       0.00020230 Ry

     iteration # 65     ecut=    40.00 Ry     beta=0.70
     CG style diagonalization
     ethr =  7.66E-08,  avg # of iterations =  3.5

     total cpu time spent up to now is     4839.4 secs

     End of self-consistent calculation

          k = 0.0000 0.0000 0.0000 (  5769 PWs)   bands (ev):

   -83.3040 -83.2569 -83.2568 -83.2451 -83.2450 -83.2115 -83.2096 -83.1742
   -54.2802 -54.2689 -54.2623 -54.2320 -42.7460 -42.6871 -42.5040 -42.4792
   -42.4792 -42.4707 -42.4707 -42.4217 -42.3832 -42.3831 -42.3667 -42.3388
   -42.3388 -42.3161 -42.3161 -42.2853 -42.2852 -42.2717 -42.2671 -42.2671
   -42.2517 -42.2382 -42.2164 -42.2164 -21.3011 -21.2854 -21.2762 -21.2762
   -21.2546 -21.2545 -21.2476 -21.2211 -21.2196 -21.2196 -21.2117 -21.2117
     4.2820   4.4912   4.8544   5.0750   5.0751   5.1204   5.1204   5.4334
     5.4335   5.4384   5.7012   5.7012   5.9760   6.1337   6.1703   6.1704
     6.2758   6.2758   6.5019   6.6465   6.6465   6.7717   6.7718   6.8101
     6.8472   6.8473   6.9125   6.9224   6.9264   6.9264   6.9975   6.9976
     7.1108   7.1108   7.4090   7.4091   7.5300   7.5300   7.7968   7.8044
    11.7803  13.0924  15.3023  17.3106  17.9119  17.9119  18.3617  18.6721
    18.6721  18.6902  18.6902  18.8285  18.8285  18.9215  19.2115  19.2115
    19.5004  19.5005  19.9497  19.9908  20.1528  20.1528  20.1680  20.1721
    20.1721  21.7520  21.7520  21.8735  21.8735  22.4748  22.9626  22.9626
    23.3840  23.7753  23.9967  23.9967  24.7162  24.7163  24.9291  25.4450
    26.5846  27.0836  27.0837  29.0611  29.3614  29.3616  29.6275  29.6554
    29.6555  30.7122  30.8505  31.0702  31.0703  31.4006  31.4007  31.9500
    31.9500  32.2628  32.4538  33.0523  34.2295  34.2610  34.2610  34.2626
    34.3102  34.3257  34.5362  34.5362  35.2445  35.8463

          k = 0.0000 0.0000 0.1457 (  5780 PWs)   bands (ev):

   -83.2792 -83.2754 -83.2754 -83.2596 -83.2596 -83.2259 -83.2036 -83.1867
   -54.2827 -54.2787 -54.2586 -54.2368 -42.7377 -42.6929 -42.5067 -42.4822
   -42.4822 -42.4769 -42.4769 -42.4282 -42.3835 -42.3835 -42.3562 -42.3561
   -42.3461 -42.3040 -42.3039 -42.2958 -42.2958 -42.2744 -42.2615 -42.2614
   -42.2587 -42.2494 -42.2220 -42.2220 -21.2921 -21.2908 -21.2674 -21.2674
   -21.2662 -21.2662 -21.2560 -21.2260 -21.2211 -21.2211 -21.2152 -21.2152
     4.3029   4.4462   4.9418   5.0792   5.0793   5.1131   5.1131   5.3327
     5.4668   5.4669   5.6547   5.6547   6.0344   6.1299   6.1946   6.1946
     6.2659   6.2659   6.5462   6.6752   6.6752   6.7676   6.7677   6.7678
     6.8500   6.8500   6.9007   6.9007   6.9089   6.9167   7.0087   7.0087
     7.0880   7.0880   7.4255   7.4255   7.5128   7.5128   7.7960   7.7999
    11.9013  12.7634  15.8036  17.2144  17.9828  17.9829  18.4630  18.4630
    18.5682  18.7645  18.7855  18.7855  18.8519  18.8519  19.2405  19.2406
    19.4182  19.4833  19.4834  19.9237  20.1465  20.1465  20.1491  20.1491
    20.5588  21.3521  21.8969  21.8970  21.9085  21.9086  22.8053  22.8053
    23.6212  23.6212  24.0446  24.7951  24.9665  25.2665  25.2665  25.5745
    26.7478  27.4573  27.4573  28.1119  28.1120  28.1920  29.3011  30.0527
    30.0528  30.1310  30.8499  30.9282  30.9283  31.9600  31.9600  32.1919
    32.1919  32.4225  32.5560  33.6378  33.7123  33.9557  33.9557  34.1010
    34.3702  34.4412  34.4412  34.4739  35.5504  35.5505

          k = 0.0000 0.0000-0.2914 (  5780 PWs)   bands (ev):

   -83.3112 -83.3112 -83.2366 -83.2366 -83.2366 -83.2366 -83.1953 -83.1953
   -54.2775 -54.2774 -54.2495 -54.2494 -42.7088 -42.7088 -42.5009 -42.5009
   -42.4732 -42.4732 -42.4732 -42.4732 -42.3612 -42.3611 -42.3611 -42.3611
   -42.3182 -42.3182 -42.3026 -42.3026 -42.3026 -42.3026 -42.2447 -42.2446
   -42.2411 -42.2411 -42.2411 -42.2411 -21.2917 -21.2915 -21.2648 -21.2648
   -21.2647 -21.2647 -21.2548 -21.2546 -21.2127 -21.2127 -21.2126 -21.2126
     4.3572   4.3572   5.0945   5.0945   5.0945   5.0945   5.1306   5.1306
     5.5573   5.5573   5.5573   5.5573   6.0949   6.0949   6.2392   6.2393
     6.2393   6.2393   6.6575   6.6575   6.7369   6.7369   6.7369   6.7369
     6.8619   6.8619   6.8619   6.8619   6.9223   6.9223   7.0438   7.0438
     7.0438   7.0438   7.4692   7.4693   7.4693   7.4693   7.7999   7.7999
    12.2502  12.2502  16.6721  16.6721  18.1888  18.1889  18.1889  18.1889
    18.8007  18.8008  18.8470  18.8470  18.8471  18.8471  19.3138  19.3139
    19.3633  19.3633  19.3634  19.3634  20.1364  20.1364  20.1364  20.1365
    20.8181  20.8182  21.9983  21.9984  21.9984  21.9984  22.9907  22.9907
    22.9907  22.9908  24.5224  24.5224  26.0350  26.0350  26.4407  26.4408
    26.4408  26.4408  27.2339  27.2339  28.7578  28.7578  28.7999  28.7999
    28.8000  28.8000  31.8530  31.8531  31.8531  31.8531  32.0784  32.0785
    32.8915  32.8915  32.9299  32.9300  32.9300  32.9300  33.9645  33.9645
    34.5259  34.5259  34.9698  34.9698  34.9698  34.9698

          k = 0.0000 0.3605 0.0000 (  5787 PWs)   bands (ev):

   -83.3199 -83.2900 -83.2738 -83.2596 -83.2326 -83.2223 -83.2151 -83.1835
   -54.2782 -54.2740 -54.2584 -54.2557 -42.6823 -42.6543 -42.5323 -42.5239
   -42.4922 -42.4659 -42.4588 -42.3956 -42.3846 -42.3764 -42.3558 -42.3447
   -42.3355 -42.3334 -42.3221 -42.3209 -42.3046 -42.2791 -42.2765 -42.2738
   -42.2671 -42.2631 -42.2378 -42.2113 -21.2925 -21.2891 -21.2737 -21.2709
   -21.2706 -21.2616 -21.2468 -21.2315 -21.2294 -21.2248 -21.2226 -21.2104
     4.6688   4.8384   5.0453   5.2172   5.2663   5.2965   5.5041   5.5045
     5.5629   5.6584   5.7832   5.8026   5.9367   6.0408   6.2336   6.2572
     6.3082   6.4200   6.4392   6.4447   6.5124   6.5415   6.5469   6.5611
     6.7140   6.7576   6.7725   6.8779   6.9011   6.9167   6.9484   6.9895
     7.0002   7.0473   7.1618   7.1991   7.2100   7.3850   7.4226   7.6071
    12.4421  13.6420  15.0352  15.8545  15.8560  17.9138  18.3593  18.6625
    18.7815  18.9863  19.0123  19.0427  19.0541  19.2177  19.3616  19.4163
    19.4875  19.5778  19.6148  19.8196  19.8216  20.1776  20.2677  20.2724
    20.2725  20.2911  20.9336  21.3044  21.7196  22.0524  23.0029  23.1812
    23.1827  24.6213  24.7016  25.5167  25.5500  26.0048  26.7616  27.1239
    27.6117  27.7188  28.4798  28.6705  29.2087  29.3960  29.8394  29.8433
    30.3234  30.3800  30.5125  30.8193  30.9914  31.8230  31.8775  32.2913
    32.3094  32.3317  32.4986  33.1064  33.4519  33.6675  33.7574  33.8354
    34.3555  34.6058  34.9258  35.1529  35.2656  35.5659

          k = 0.0000 0.3605 0.1457 (  5804 PWs)   bands (ev):

   -83.3077 -83.2963 -83.2911 -83.2846 -83.2656 -83.2580 -83.2156 -83.1822
   -54.2860 -54.2788 -54.2646 -54.2605 -42.6836 -42.6633 -42.5286 -42.5256
   -42.4856 -42.4645 -42.4610 -42.4252 -42.3849 -42.3828 -42.3692 -42.3528
   -42.3483 -42.3432 -42.3184 -42.3109 -42.3108 -42.2793 -42.2710 -42.2686
   -42.2659 -42.2546 -42.2462 -42.2307 -21.2990 -21.2929 -21.2766 -21.2749
   -21.2705 -21.2643 -21.2519 -21.2465 -21.2294 -21.2279 -21.2199 -21.2114
     4.6852   4.7916   5.1028   5.2166   5.2426   5.3584   5.4929   5.4980
     5.5624   5.6016   5.6788   5.7623   6.0245   6.1006   6.2454   6.2475
     6.3418   6.3555   6.3607   6.4266   6.5425   6.5595   6.6028   6.6159
     6.7160   6.7263   6.8102   6.8701   6.8713   6.9082   6.9417   6.9973
     7.0061   7.0366   7.1691   7.1743   7.2226   7.3069   7.4921   7.5905
    12.5557  13.3609  15.0853  15.5464  16.5894  17.9729  18.2951  18.4528
    18.7220  18.8949  18.9976  19.0542  19.1619  19.2266  19.2382  19.3817
    19.4314  19.4371  19.7115  19.8730  19.9129  20.1292  20.1769  20.2737
    20.4542  20.4739  20.9026  21.2490  21.5115  21.5337  22.4247  23.8541
    24.2057  24.7603  24.8401  25.6571  25.6808  25.7489  25.7939  27.1761
    27.3801  27.8854  28.4117  28.7700  29.4564  29.4827  29.6371  29.9904
    30.2145  30.3322  30.7462  31.0453  31.1190  31.4322  31.6406  31.6757
    32.1604  32.5635  33.0561  33.1051  33.3124  33.3957  33.8842  34.2647
    34.4521  34.5315  34.8653  34.9023  35.0847  35.3083

          k = 0.0000 0.3605-0.2914 (  5816 PWs)   bands (ev):

   -83.3123 -83.3123 -83.2867 -83.2867 -83.2769 -83.2769 -83.2133 -83.2133
   -54.2844 -54.2843 -54.2693 -54.2692 -42.6791 -42.6791 -42.5311 -42.5311
   -42.4675 -42.4675 -42.4619 -42.4619 -42.3814 -42.3814 -42.3660 -42.3660
   -42.3478 -42.3478 -42.3153 -42.3153 -42.2934 -42.2934 -42.2716 -42.2715
   -42.2577 -42.2577 -42.2440 -42.2440 -21.2941 -21.2940 -21.2822 -21.2822
   -21.2684 -21.2684 -21.2539 -21.2537 -21.2294 -21.2294 -21.2195 -21.2195
     4.7261   4.7261   5.1718   5.1718   5.3342   5.3342   5.4925   5.4925
     5.5358   5.5358   5.6804   5.6804   6.1138   6.1138   6.2725   6.2725
     6.2867   6.2867   6.4014   6.4014   6.5743   6.5743   6.5992   6.5992
     6.7876   6.7876   6.8009   6.8009   6.9011   6.9012   6.9499   6.9499
     7.0116   7.0116   7.1974   7.1974   7.2229   7.2229   7.5507   7.5507
    12.8884  12.8884  15.2879  15.2879  17.6171  17.6171  18.1285  18.1285
    18.8396  18.8396  19.0816  19.0817  19.1142  19.1143  19.3126  19.3127
    19.3436  19.3436  19.9105  19.9106  20.0670  20.0671  20.1655  20.1655
    20.4232  20.4232  20.8915  20.8916  21.4321  21.4322  23.2929  23.2929
    24.8681  24.8681  24.8818  24.8818  26.0848  26.0848  26.3443  26.3443
    27.4973  27.4974  28.3727  28.3727  29.5286  29.5286  30.0356  30.0356
    30.4059  30.4059  30.6339  30.6339  31.1897  31.1897  32.0042  32.0042
    32.3772  32.3772  32.6663  32.6663  33.5871  33.5871  34.0261  34.0261
    34.5948  34.5948  34.6185  34.6186  34.9986  34.9986

          k =-0.4683-0.2704 0.0000 (  5800 PWs)   bands (ev):

   -83.3263 -83.3003 -83.2986 -83.2670 -83.2486 -83.2369 -83.2152 -83.1796
   -54.2828 -54.2770 -54.2712 -54.2528 -42.6571 -42.6357 -42.5624 -42.5258
   -42.5013 -42.4640 -42.4548 -42.3968 -42.3879 -42.3756 -42.3674 -42.3493
   -42.3466 -42.3444 -42.3328 -42.3213 -42.3062 -42.2804 -42.2774 -42.2756
   -42.2706 -42.2695 -42.2431 -42.2133 -21.3027 -21.2876 -21.2738 -21.2724
   -21.2624 -21.2605 -21.2549 -21.2455 -21.2334 -21.2327 -21.2231 -21.2073
     4.8075   4.9355   5.0942   5.3666   5.3719   5.4894   5.5288   5.5977
     5.6144   5.7249   5.7405   5.8836   6.0383   6.1406   6.1775   6.2204
     6.3083   6.3173   6.3565   6.4103   6.4295   6.4699   6.5952   6.6016
     6.6047   6.6224   6.6434   6.8238   6.8477   6.8748   6.8916   6.9178
     6.9466   7.0384   7.0537   7.0558   7.2007   7.2923   7.4340   7.5981
    12.9023  13.8347  14.6757  14.9198  16.0610  17.9423  18.2384  18.7458
    18.8696  18.9746  19.1010  19.2093  19.2509  19.3690  19.4279  19.4340
    19.5343  19.5500  19.5611  19.6351  19.7038  19.9639  20.1724  20.2077
    20.2391  20.2950  20.4869  21.0503  21.3753  22.0240  22.7739  23.3125
    23.3556  24.3326  25.4374  26.2806  26.8002  27.1292  27.3051  27.3724
    27.7403  28.0737  28.3644  28.6399  28.7927  28.9038  29.3288  29.5105
    29.9439  30.0438  30.9687  31.4929  31.6425  31.7044  32.0070  32.1207
    32.2717  32.3455  32.8691  32.9417  33.3690  33.5503  33.6670  33.9354
    34.9008  34.9408  35.0037  35.3850  35.4099  35.7429

          k =-0.4683-0.2704 0.1457 (  5822 PWs)   bands (ev):

   -83.3246 -83.3229 -83.3190 -83.3027 -83.2781 -83.2532 -83.2057 -83.2025
   -54.2908 -54.2893 -54.2688 -54.2661 -42.6580 -42.6416 -42.5585 -42.5490
   -42.4912 -42.4662 -42.4625 -42.4197 -42.3913 -42.3761 -42.3749 -42.3607
   -42.3548 -42.3490 -42.3240 -42.3172 -42.3076 -42.2847 -42.2795 -42.2792
   -42.2757 -42.2675 -42.2490 -42.2267 -21.2985 -21.2978 -21.2794 -21.2732
   -21.2726 -21.2703 -21.2623 -21.2536 -21.2359 -21.2346 -21.2200 -21.2129
     4.8173   4.9018   5.1545   5.3659   5.3707   5.4765   5.5140   5.5360
     5.5866   5.6881   5.8625   5.8967   6.0081   6.1074   6.1957   6.2248
     6.2816   6.2947   6.3294   6.3996   6.4401   6.4669   6.5270   6.5703
     6.6723   6.6839   6.7125   6.8165   6.8503   6.8636   6.9059   6.9243
     6.9634   7.0428   7.0487   7.0524   7.1700   7.2207   7.4806   7.5797
    13.0089  13.7089  14.4983  14.8144  16.6504  17.9917  18.2087  18.3573
    18.9192  19.0502  19.0532  19.1137  19.1560  19.1961  19.3912  19.4172
    19.5648  19.5868  19.7054  19.7378  19.8274  19.9984  20.1485  20.1948
    20.2526  20.3112  20.6496  21.2372  21.3257  21.4054  22.1067  23.6720
    23.9994  25.0588  25.1241  26.1230  26.4166  26.8491  27.4282  27.4845
    27.7496  27.7561  28.2366  28.3406  28.6846  28.6871  30.1459  30.1670
    30.2161  30.7194  30.9585  31.1072  31.6362  31.7044  31.7579  31.9096
    31.9452  32.3307  32.5213  32.6030  33.2238  33.6953  34.1075  34.1707
    34.5044  34.7681  35.1081  35.1668  35.1709  35.5137

          k =-0.4683-0.2704-0.2914 (  5804 PWs)   bands (ev):

   -83.3162 -83.3162 -83.2870 -83.2869 -83.2774 -83.2774 -83.1704 -83.1704
   -54.2786 -54.2784 -54.2667 -54.2665 -42.6528 -42.6528 -42.5530 -42.5530
   -42.4664 -42.4663 -42.4543 -42.4543 -42.3722 -42.3722 -42.3604 -42.3604
   -42.3478 -42.3477 -42.3188 -42.3188 -42.2808 -42.2808 -42.2800 -42.2800
   -42.2562 -42.2562 -42.2455 -42.2455 -21.2925 -21.2923 -21.2726 -21.2726
   -21.2644 -21.2643 -21.2487 -21.2486 -21.2327 -21.2326 -21.2224 -21.2223
     4.8530   4.8530   5.2877   5.2877   5.3856   5.3857   5.5637   5.5637
     5.5923   5.5924   5.9455   5.9455   6.0159   6.0159   6.2290   6.2290
     6.2745   6.2745   6.3248   6.3248   6.4785   6.4785   6.5244   6.5244
     6.7385   6.7385   6.8072   6.8072   6.8095   6.8095   6.9436   6.9436
     7.0091   7.0091   7.0913   7.0914   7.1140   7.1140   7.5390   7.5390
    13.3257  13.3258  14.5927  14.5927  17.6451  17.6451  18.1130  18.1130
    18.8739  18.8740  19.0610  19.0610  19.1490  19.1490  19.4769  19.4769
    19.4960  19.4960  19.7811  19.7812  20.0345  20.0346  20.0873  20.0873
    20.4729  20.4729  20.6064  20.6064  21.4102  21.4103  22.6657  22.6657
    25.0091  25.0091  25.8138  25.8138  26.4010  26.4010  27.1398  27.1398
    27.6446  27.6446  28.4612  28.4612  28.7543  28.7543  30.1346  30.1347
    30.8844  30.8844  31.1780  31.1780  31.4726  31.4726  31.8037  31.8037
    32.2923  32.2923  32.3611  32.3611  33.5584  33.5584  33.6613  33.6613
    34.6842  34.6842  34.9199  34.9199  35.1824  35.1824

          k =-0.4683 0.0901 0.0000 (  5827 PWs)   bands (ev):

   -83.3393 -83.3210 -83.3129 -83.2969 -83.2716 -83.2485 -83.2378 -83.2041
   -54.2917 -54.2811 -54.2803 -54.2679 -42.6605 -42.6484 -42.5637 -42.5279
   -42.5172 -42.4586 -42.4562 -42.4019 -42.3936 -42.3859 -42.3658 -42.3530
   -42.3522 -42.3394 -42.3306 -42.3265 -42.3201 -42.2893 -42.2837 -42.2810
   -42.2800 -42.2731 -42.2471 -42.2299 -21.3036 -21.2987 -21.2834 -21.2778
   -21.2756 -21.2630 -21.2570 -21.2423 -21.2381 -21.2305 -21.2261 -21.2253
     4.8866   5.0191   5.1317   5.2963   5.3060   5.3166   5.4615   5.5931
     5.6895   5.7096   5.8091   5.8807   5.8826   6.0814   6.1990   6.2562
     6.2636   6.3605   6.3803   6.4315   6.4791   6.5344   6.5545   6.5583
     6.6037   6.6422   6.7032   6.7180   6.8791   6.8994   6.9137   6.9657
     7.0290   7.0375   7.0756   7.1523   7.2097   7.2198   7.3896   7.4753
    12.8329  13.9604  14.5834  15.1498  16.0440  17.6068  17.6445  18.9750
    19.0202  19.0769  19.1652  19.1788  19.2566  19.2616  19.3469  19.3904
    19.4902  19.4976  19.5874  19.7960  19.8809  19.8952  20.1495  20.2368
    20.2762  20.3384  20.6529  20.7693  21.7687  22.1939  23.0534  23.3193
    23.4482  24.6952  25.0922  25.6961  26.1607  26.6865  27.0240  27.1024
    27.7643  28.0493  28.2137  28.2287  29.0211  29.6481  29.9316  30.0978
    30.6723  30.6778  30.8748  31.3416  31.4692  31.9411  32.1297  32.2395
    32.4630  32.4749  32.4966  32.8820  32.9051  33.1541  33.7379  33.8919
    34.0400  34.5387  34.6425  35.0601  35.2643  35.6520

          k =-0.4683 0.0901 0.1457 (  5825 PWs)   bands (ev):

   -83.3261 -83.3197 -83.3096 -83.2955 -83.2798 -83.2716 -83.2167 -83.2010
   -54.2919 -54.2821 -54.2744 -54.2697 -42.6575 -42.6469 -42.5641 -42.5473
   -42.4948 -42.4596 -42.4539 -42.4261 -42.3916 -42.3808 -42.3693 -42.3553
   -42.3548 -42.3496 -42.3257 -42.3222 -42.3078 -42.2865 -42.2814 -42.2767
   -42.2728 -42.2654 -42.2499 -42.2354 -21.2994 -21.2967 -21.2821 -21.2801
   -21.2741 -21.2656 -21.2536 -21.2517 -21.2356 -21.2318 -21.2237 -21.2217
     4.8957   4.9776   5.1836   5.2623   5.3099   5.3898   5.4794   5.5591
     5.6169   5.6616   5.7943   5.8527   5.9753   6.1074   6.1988   6.2259
     6.2900   6.3538   6.3625   6.3937   6.4654   6.5320   6.5636   6.5769
     6.6340   6.6612   6.7122   6.7785   6.8769   6.8961   6.9378   6.9761
     7.0187   7.0357   7.0549   7.1415   7.1526   7.2080   7.4170   7.4719
    12.9478  13.7256  14.6017  14.9726  16.6584  17.5761  17.6045  18.6029
    18.9551  19.0349  19.0771  19.1008  19.1936  19.2730  19.3097  19.4113
    19.5605  19.6423  19.6866  19.8256  19.8702  19.9603  20.1091  20.2325
    20.3079  20.3592  20.6209  20.9627  21.8025  22.2171  22.6126  22.9454
    24.4688  24.5783  24.9606  25.4478  26.0472  26.3351  26.8482  27.5528
    28.0419  28.1848  28.3833  28.6254  29.0633  29.4968  29.8100  30.2549
    30.5091  30.8034  30.8284  31.1569  31.2162  31.4564  32.0930  32.1832
    32.2291  32.4268  32.6444  32.9515  33.1168  33.1498  33.7714  33.9251
    34.2167  34.5726  34.7258  35.0971  35.1886  35.2744

          k =-0.4683 0.0901-0.2914 (  5824 PWs)   bands (ev):

   -83.3088 -83.3088 -83.3001 -83.3001 -83.2838 -83.2837 -83.2144 -83.2144
   -54.2845 -54.2843 -54.2743 -54.2742 -42.6534 -42.6534 -42.5559 -42.5559
   -42.4640 -42.4640 -42.4549 -42.4549 -42.3793 -42.3793 -42.3683 -42.3683
   -42.3509 -42.3509 -42.3233 -42.3233 -42.2916 -42.2916 -42.2845 -42.2845
   -42.2608 -42.2608 -42.2485 -42.2485 -21.2960 -21.2958 -21.2804 -21.2803
   -21.2695 -21.2694 -21.2521 -21.2519 -21.2344 -21.2344 -21.2251 -21.2251
     4.9289   4.9289   5.2323   5.2323   5.3920   5.3920   5.5012   5.5012
     5.5884   5.5884   5.8080   5.8081   6.0808   6.0808   6.2116   6.2116
     6.3046   6.3046   6.3711   6.3711   6.5080   6.5080   6.5545   6.5545
     6.6633   6.6633   6.8119   6.8119   6.8709   6.8709   6.9841   6.9841
     7.0077   7.0077   7.0611   7.0611   7.1687   7.1687   7.4535   7.4535
    13.2740  13.2740  14.7613  14.7613  17.4962  17.4962  17.7769  17.7769
    18.9326  18.9327  19.0883  19.0883  19.1591  19.1591  19.3614  19.3614
    19.6365  19.6365  19.8782  19.8783  19.9836  19.9836  20.1389  20.1389
    20.3805  20.3805  20.5665  20.5665  22.3511  22.3511  22.7453  22.7454
    24.1415  24.1415  25.0022  25.0022  26.8943  26.8944  27.2625  27.2625
    27.6979  27.6979  28.7439  28.7439  29.3228  29.3228  29.8762  29.8762
    30.6493  30.6494  30.8814  30.8814  31.6549  31.6549  31.8035  31.8035
    32.5029  32.5029  32.6354  32.6355  32.9986  32.9987  33.8621  33.8621
    34.5546  34.5547  34.8665  34.8665  35.0945  35.0945

     the Fermi energy is    28.7349 ev

!    total energy              =   -3976.29812080 Ry
     Harris-Foulkes estimate   =   -3976.29812358 Ry
     estimated scf accuracy    <       0.00000403 Ry

     The total energy is the sum of the following terms:

     one-electron contribution =   -1166.66668188 Ry
     hartree contribution      =     732.57497057 Ry
     xc contribution           =    -336.43040599 Ry
     ewald contribution        =   -3205.39430640 Ry
     smearing contrib. (-TS)   =      -0.38169711 Ry

     convergence has been achieved in  65 iterations

     Forces acting on atoms (Ry/au):

     atom    1 type  1   force =     0.00000000    0.00000000    0.01378522
     atom    2 type  1   force =     0.00000000    0.00000000    0.01378522
     atom    3 type  1   force =     0.00000000    0.00000000   -0.01378522
     atom    4 type  1   force =     0.00000000    0.00000000   -0.01378522
     atom    5 type  2   force =     0.00000000    0.00000000    0.00000000
     atom    6 type  2   force =     0.00000000    0.00000000    0.00000000
     atom    7 type  2   force =     0.00000000   -0.04547756    0.00000000
     atom    8 type  2   force =     0.03938472   -0.02273878    0.00000000
     atom    9 type  2   force =    -0.03938472   -0.02273878    0.00000000
     atom   10 type  2   force =     0.03938472    0.02273878    0.00000000
     atom   11 type  2   force =    -0.03938472    0.02273878    0.00000000
     atom   12 type  2   force =     0.00000000    0.04547756    0.00000000

     Total force =     0.114758     Total SCF correction =     0.000000


     entering subroutine stress ...

          total   stress  (Ry/bohr**3)                   (kbar)     P= -282.20
  -0.00175246   0.00000000   0.00000000       -257.80      0.00      0.00
   0.00000000  -0.00175246   0.00000000          0.00   -257.80      0.00
[...]
    23.9021  23.9021  23.9047  24.5046  24.9161  24.9161  24.9355  24.9355
    25.4950  26.5829  27.3005  27.3005  27.3021  27.3022  27.8612  27.8612
    28.9048  28.9049  29.4164  30.0981  30.5962  30.5963  30.6326  30.7191
    31.6843  32.9710  32.9711  33.5437  33.5438  33.6623  35.0015  35.5107
    35.5505  35.5505  36.0679  36.2628  36.2629  37.0647  37.0647  37.0663
    37.0664  37.0848  37.4894  38.2984  38.5058  38.6068  38.7462  38.7462
    39.0121  39.2606  39.2606  39.3617  40.2085  40.2085

          k = 0.0000 0.0000-0.3094 (  6056 PWs)   bands (ev):

   -78.7959 -78.7959 -78.7429 -78.7429 -78.7252 -78.7252 -78.7252 -78.7252
   -49.6745 -49.6743 -49.6644 -49.6642 -38.0528 -38.0528 -37.7705 -37.7705
   -37.6465 -37.6465 -37.6465 -37.6465 -37.5414 -37.5414 -37.5414 -37.5414
   -37.4093 -37.4093 -37.3659 -37.3659 -37.3658 -37.3658 -37.3425 -37.3424
   -37.3424 -37.3424 -37.2860 -37.2859 -16.7050 -16.7047 -16.6610 -16.6610
   -16.6609 -16.6609 -16.6179 -16.6177 -16.6018 -16.6018 -16.6018 -16.6018
     8.2680   8.2680   9.2963   9.2963   9.4148   9.4148   9.4148   9.4148
     9.7945   9.7945   9.7946   9.7946  10.7331  10.7331  10.8369  10.8369
    10.8369  10.8369  11.5135  11.5135  11.6331  11.6331  11.6331  11.6331
    11.8392  11.8392  11.8392  11.8392  11.9308  11.9308  12.0952  12.0952
    12.0952  12.0952  12.7551  12.7551  12.7552  12.7552  13.1959  13.1959
    15.8628  15.8628  20.9347  20.9348  22.4478  22.4478  22.4478  22.4478
    23.0563  23.0564  23.1106  23.1106  23.1107  23.1107  23.7192  23.7192
    23.7193  23.7193  23.7444  23.7445  24.9073  24.9073  24.9074  24.9074
    25.9268  25.9269  27.5002  27.5003  27.5003  27.5003  28.0274  28.0274
    28.0274  28.0275  29.9079  29.9079  31.1344  31.1344  31.9139  31.9139
    31.9140  31.9140  32.9392  32.9392  34.2600  34.2601  34.2708  34.2708
    34.2708  34.2708  36.9154  36.9154  36.9154  36.9154  37.0954  37.0954
    37.6720  37.6720  38.0211  38.0211  38.0211  38.0212  38.2428  38.2429
    39.2076  39.2076  39.4718  39.4718  39.4718  39.4719

          k = 0.0000 0.3780 0.0000 (  6056 PWs)   bands (ev):

   -78.8025 -78.8009 -78.7452 -78.7435 -78.7395 -78.7291 -78.7170 -78.7028
   -49.6759 -49.6715 -49.6672 -49.6632 -38.0123 -37.9041 -37.8748 -37.7601
   -37.6668 -37.6086 -37.6076 -37.5883 -37.5808 -37.5734 -37.4719 -37.4687
   -37.4539 -37.4537 -37.4512 -37.4083 -37.4020 -37.3750 -37.3708 -37.3562
   -37.3239 -37.3135 -37.3081 -37.3034 -16.7133 -16.6989 -16.6658 -16.6634
   -16.6561 -16.6559 -16.6370 -16.6123 -16.6032 -16.6006 -16.5980 -16.5954
     8.6673   9.0162   9.0826   9.4661   9.5328   9.6828   9.6971   9.8305
     9.9721  10.1072  10.2279  10.2981  10.5027  10.6367  10.8531  10.9418
    10.9554  11.1356  11.1653  11.2207  11.2585  11.3164  11.3317  11.4239
    11.5396  11.6639  11.7034  11.8662  11.8800  11.9007  11.9673  12.0176
    12.0341  12.1243  12.2247  12.3432  12.3560  12.5209  12.7006  12.9389
    16.0614  17.5607  19.0754  19.9446  20.0546  22.2105  22.7130  22.8058
    22.9427  23.3012  23.3469  23.3722  23.4258  23.5985  23.7932  23.8642
    23.9531  24.0914  24.2463  24.4025  24.4770  24.9456  25.0639  25.0656
    25.0745  25.0929  25.8133  26.1607  26.8032  27.6487  28.0550  28.2411
    28.8040  29.9145  29.9422  30.8986  31.1791  31.4641  32.2709  32.7717
    32.9491  32.9874  34.1850  34.3091  34.5807  34.8965  35.2095  35.6468
    35.8460  35.8808  35.9438  36.2318  36.2388  36.8026  37.2736  37.4714
    37.6783  37.7554  37.8838  38.2020  38.6203  38.7051  39.1131  39.2501
    39.2844  39.4109  40.2317  40.3119  40.5945  40.7770

          k = 0.0000 0.3780 0.1547 (  6054 PWs)   bands (ev):

   -78.7992 -78.7904 -78.7524 -78.7352 -78.7349 -78.7298 -78.7183 -78.7170
   -49.6740 -49.6716 -49.6680 -49.6637 -38.0076 -37.9445 -37.8423 -37.7690
   -37.6630 -37.6132 -37.6061 -37.6004 -37.5862 -37.5631 -37.5084 -37.4970
   -37.4403 -37.4275 -37.4089 -37.4049 -37.3901 -37.3756 -37.3648 -37.3495
   -37.3355 -37.3198 -37.3089 -37.3031 -16.7068 -16.6990 -16.6658 -16.6636
   -16.6609 -16.6574 -16.6300 -16.6167 -16.6016 -16.6009 -16.5986 -16.5964
     8.6907   8.8810   9.2524   9.4573   9.5513   9.7173   9.7253   9.8111
     9.8706  10.0521  10.1312  10.2662  10.6297  10.6722  10.8688  10.9587
    10.9841  11.0277  11.1082  11.1506  11.3137  11.4063  11.4187  11.4601
    11.5639  11.6120  11.7677  11.8496  11.8568  11.8901  11.9511  12.0293
    12.0382  12.0905  12.2530  12.3056  12.3806  12.4384  12.7638  12.9143
    16.1977  17.1834  19.1515  19.7701  20.7224  22.2872  22.6468  22.6687
    22.8945  23.1781  23.2937  23.3952  23.5432  23.6164  23.6462  23.8182
    23.8688  23.9254  24.2846  24.5336  24.5949  24.8804  24.9351  25.0290
    25.3349  25.3551  25.6777  26.2235  26.6574  26.7428  27.6467  29.1008
    29.5842  30.0919  30.2540  31.0502  31.1110  31.2283  31.3347  32.5580
    33.0071  33.3776  33.9352  34.2176  34.9613  34.9963  35.2138  35.3909
    35.8063  35.8447  36.2066  36.4350  36.6137  36.6174  37.1691  37.2356
    37.2679  37.6670  38.2463  38.2523  38.5677  38.7657  38.9775  39.1088
    39.4699  39.5361  39.6640  40.2149  40.2934  40.4663

          k = 0.0000 0.3780-0.3094 (  6058 PWs)   bands (ev):

   -78.7959 -78.7959 -78.7494 -78.7494 -78.7306 -78.7306 -78.7203 -78.7203
   -49.6715 -49.6714 -49.6688 -49.6688 -37.9843 -37.9843 -37.7966 -37.7965
   -37.6419 -37.6419 -37.6104 -37.6104 -37.5544 -37.5544 -37.5303 -37.5303
   -37.4264 -37.4263 -37.3897 -37.3897 -37.3837 -37.3837 -37.3564 -37.3564
   -37.3428 -37.3428 -37.3083 -37.3083 -16.7031 -16.7029 -16.6675 -16.6675
   -16.6575 -16.6574 -16.6221 -16.6219 -16.6019 -16.6018 -16.6010 -16.6010
     8.7624   8.7624   9.4118   9.4118   9.6553   9.6553   9.7637   9.7637
     9.8569   9.8569  10.1946  10.1946  10.7018  10.7018  10.9214  10.9214
    10.9797  10.9797  11.1256  11.1256  11.3455  11.3455  11.4685  11.4685
    11.7168  11.7168  11.7368  11.7368  11.8921  11.8921  11.9495  11.9495
    12.0522  12.0522  12.3255  12.3255  12.3460  12.3460  12.8509  12.8509
    16.5909  16.5909  19.4422  19.4422  21.8097  21.8097  22.4827  22.4827
    23.0900  23.0900  23.4040  23.4040  23.4818  23.4819  23.7333  23.7333
    23.7663  23.7663  24.5561  24.5562  24.7911  24.7912  24.9175  24.9175
    25.2445  25.2446  25.8904  25.8904  26.5186  26.5186  28.5498  28.5498
    30.2166  30.2166  30.2826  30.2826  31.4910  31.4910  31.8440  31.8441
    33.1076  33.1076  33.9466  33.9466  34.9201  34.9201  35.5111  35.5111
    35.9695  35.9695  36.0839  36.0839  36.6263  36.6263  37.1737  37.1737
    37.7874  37.7875  38.0433  38.0433  38.6695  38.6695  39.0332  39.0332
    39.5148  39.5148  39.8004  39.8006  39.8748  39.8749

          k =-0.4911-0.2835 0.0000 (  6052 PWs)   bands (ev):

   -78.7977 -78.7947 -78.7590 -78.7560 -78.7366 -78.7272 -78.7033 -78.6989
   -49.6724 -49.6715 -49.6684 -49.6651 -37.9715 -37.8767 -37.8724 -37.8029
   -37.6687 -37.5996 -37.5923 -37.5910 -37.5620 -37.5610 -37.4696 -37.4678
   -37.4509 -37.4463 -37.4370 -37.4312 -37.4308 -37.3935 -37.3865 -37.3565
   -37.3298 -37.3113 -37.3094 -37.3093 -16.7048 -16.7035 -16.6677 -16.6664
   -16.6548 -16.6508 -16.6383 -16.6099 -16.6028 -16.6010 -16.6003 -16.5974
     8.8742   9.0947   9.2370   9.4956   9.6599   9.7268   9.8664   9.9049
    10.1167  10.2365  10.3249  10.6941  10.7183  10.7258  10.7662  10.8503
    10.9058  10.9931  11.0586  11.1240  11.2166  11.2454  11.2943  11.3756
    11.4265  11.4324  11.4866  11.8015  11.8192  11.8353  11.8629  11.9034
    11.9356  12.0667  12.1369  12.1462  12.3258  12.3712  12.7161  12.9294
    16.5703  17.7819  18.4610  19.2488  20.2359  22.2541  22.6335  22.9452
    23.0457  23.2199  23.5040  23.6294  23.6551  23.7462  23.8913  23.9302
    23.9477  24.1070  24.1509  24.1548  24.3998  24.6141  24.9043  24.9983
    25.0670  25.1193  25.1837  25.9431  26.4129  27.5352  27.6148  28.5529
    29.0325  29.6906  30.5396  31.7583  32.4397  32.5794  32.6355  33.0366
    33.1472  33.6262  34.0578  34.4173  34.4377  34.4964  34.8540  35.0421
    35.4353  35.6724  36.1385  36.7517  37.0378  37.0897  37.2100  37.2112
    37.6045  37.8842  38.1070  38.2876  38.4954  39.2103  39.3449  39.5702
    39.8842  40.1408  40.3878  40.4508  40.5934  40.6363

          k =-0.4911-0.2835 0.1547 (  6068 PWs)   bands (ev):

   -78.8124 -78.8013 -78.7517 -78.7497 -78.7408 -78.7255 -78.7230 -78.7215
   -49.6750 -49.6731 -49.6698 -49.6685 -37.9714 -37.9187 -37.8422 -37.8095
   -37.6679 -37.5997 -37.5980 -37.5979 -37.5974 -37.5516 -37.5106 -37.4869
   -37.4567 -37.4476 -37.4245 -37.4046 -37.3981 -37.3947 -37.3817 -37.3544
   -37.3376 -37.3243 -37.3125 -37.3109 -16.7067 -16.6998 -16.6679 -16.6648
   -16.6613 -16.6572 -16.6341 -16.6247 -16.6070 -16.6028 -16.5990 -16.5987
     8.8921   9.0245   9.3437   9.5234   9.6383   9.7484   9.7647   9.8472
    10.1335  10.2666  10.3631  10.6324  10.7322  10.7391  10.8213  10.8649
    10.8679  10.9039  11.0617  11.0681  11.1551  11.2995  11.3101  11.3379
    11.4865  11.5146  11.5723  11.7935  11.8068  11.8380  11.8918  11.9196
    11.9594  12.0910  12.1132  12.1346  12.2774  12.2931  12.7615  12.9049
    16.6895  17.5499  18.4101  19.0864  20.8523  22.3279  22.5009  22.6244
    23.1867  23.3394  23.4052  23.4630  23.5330  23.5429  23.8425  23.9445
    24.0100  24.0536  24.2648  24.4088  24.4908  24.6746  24.9183  24.9183
    25.0604  25.1347  25.4705  26.2078  26.4057  26.4384  27.3770  28.9313
    29.3105  30.3271  30.7104  31.4028  31.8860  32.3811  32.8434  33.0175
    33.2252  33.4105  33.8509  33.9945  34.1743  34.3702  35.5932  35.6307
    35.8143  36.2754  36.5336  36.6417  36.8722  36.9230  36.9316  37.1022
    37.3901  37.6828  38.0282  38.3214  38.5183  39.1048  39.1541  39.5719
    39.7288  40.0451  40.0607  40.4550  40.5497  40.7242

          k =-0.4911-0.2835-0.3094 (  6092 PWs)   bands (ev):

   -78.8109 -78.8109 -78.7522 -78.7522 -78.7495 -78.7495 -78.7406 -78.7406
   -49.6780 -49.6778 -49.6725 -49.6724 -37.9558 -37.9558 -37.8214 -37.8214
   -37.6398 -37.6398 -37.6028 -37.6027 -37.5682 -37.5682 -37.5408 -37.5408
   -37.4506 -37.4506 -37.4098 -37.4098 -37.3794 -37.3794 -37.3687 -37.3687
   -37.3474 -37.3473 -37.3191 -37.3191 -16.6992 -16.6991 -16.6714 -16.6714
   -16.6686 -16.6685 -16.6320 -16.6318 -16.6079 -16.6078 -16.6034 -16.6034
     8.9445   8.9445   9.5385   9.5385   9.5845   9.5845   9.7979   9.7979
    10.1854  10.1854  10.5169  10.5169  10.7639  10.7639  10.8210  10.8210
    10.9189  10.9189  10.9549  10.9549  11.2555  11.2555  11.3201  11.3201
    11.5551  11.5551  11.7445  11.7445  11.7736  11.7737  11.9513  11.9513
    12.0415  12.0415  12.1652  12.1652  12.1696  12.1696  12.8404  12.8404
    17.0374  17.0375  18.7016  18.7016  21.8669  21.8669  22.5030  22.5030
    23.1012  23.1013  23.3960  23.3960  23.5127  23.5128  23.9320  23.9320
    23.9857  23.9858  24.3877  24.3878  24.7469  24.7470  24.8047  24.8047
    25.3788  25.3789  25.5013  25.5014  26.4468  26.4468  27.8394  27.8394
    30.4166  30.4166  31.1278  31.1278  31.7741  31.7741  32.7882  32.7882
    33.2271  33.2271  33.9871  33.9871  34.4226  34.4226  35.6581  35.6581
    36.2042  36.2042  36.4949  36.4949  36.6968  36.6968  37.2485  37.2485
    37.8894  37.8895  37.9850  37.9850  38.9707  38.9707  39.0409  39.0410
    39.4530  39.4531  40.3586  40.3588  40.5456  40.5459

          k =-0.4911 0.0945 0.0000 (  6060 PWs)   bands (ev):

   -78.7989 -78.7958 -78.7553 -78.7428 -78.7389 -78.7361 -78.7222 -78.7124
   -49.6721 -49.6708 -49.6699 -49.6693 -37.9755 -37.8841 -37.8613 -37.8037
   -37.6874 -37.6031 -37.5983 -37.5939 -37.5608 -37.5599 -37.4787 -37.4678
   -37.4654 -37.4565 -37.4451 -37.4297 -37.4155 -37.3751 -37.3700 -37.3444
   -37.3332 -37.3210 -37.3201 -37.3165 -16.7104 -16.7047 -16.6757 -16.6644
   -16.6485 -16.6454 -16.6392 -16.6250 -16.6040 -16.6023 -16.5964 -16.5949
     8.9567   9.1212   9.3700   9.4712   9.6105   9.6601   9.7170   9.9068
    10.0802  10.2121  10.3823  10.5052  10.5919  10.6751  10.8062  10.8542
    10.8926  10.9698  11.1349  11.2090  11.2425  11.2720  11.3385  11.3930
    11.4282  11.5388  11.5391  11.6304  11.8312  11.8713  11.9193  11.9902
    12.0243  12.0961  12.1292  12.2333  12.3297  12.3613  12.6407  12.7588
    16.5067  17.8854  18.6024  19.3394  20.2183  21.8123  21.8666  23.1920
    23.3190  23.4191  23.5494  23.5529  23.6664  23.6745  23.7965  23.8583
    23.9374  24.0505  24.1321  24.4325  24.5010  24.5338  24.9101  25.0244
    25.0904  25.1748  25.5140  25.5968  26.5418  27.4331  28.4880  28.5677
    29.0107  29.9677  30.5127  31.0952  31.5525  32.1382  32.6399  32.6614
    33.3130  33.6600  33.7719  33.8291  34.5823  35.1768  35.3457  35.6738
    36.0715  36.1679  36.3022  36.8070  36.9315  37.1840  37.2046  37.6641
    37.7300  37.8470  38.0154  38.0673  38.2588  38.5003  38.8112  39.2489
    39.6162  39.8871  40.2326  40.2794  40.7593  40.9587

          k =-0.4911 0.0945 0.1547 (  6060 PWs)   bands (ev):

   -78.7985 -78.7975 -78.7516 -78.7429 -78.7407 -78.7346 -78.7225 -78.7161
   -49.6728 -49.6719 -49.6708 -49.6672 -37.9680 -37.9171 -37.8402 -37.8056
   -37.6757 -37.6038 -37.5957 -37.5917 -37.5859 -37.5558 -37.5106 -37.4983
   -37.4465 -37.4441 -37.4237 -37.4146 -37.3933 -37.3771 -37.3654 -37.3493
   -37.3399 -37.3246 -37.3228 -37.3166 -16.7063 -16.6998 -16.6774 -16.6661
   -16.6531 -16.6519 -16.6341 -16.6239 -16.6054 -16.6030 -16.5952 -16.5951
     8.9720   9.0794   9.4384   9.4787   9.5876   9.7207   9.7451   9.8469
    10.0240  10.0855  10.4784  10.5127  10.5767  10.6652  10.8008  10.8217
    10.9322  11.0183  11.0844  11.1139  11.2240  11.3052  11.3731  11.4232
    11.4827  11.5345  11.5962  11.6842  11.8415  11.8800  11.9162  12.0097
    12.0358  12.0709  12.1011  12.1895  12.2826  12.3468  12.6710  12.7515
    16.6283  17.5517  18.6673  19.2049  20.8597  21.7624  21.7870  22.9161
    23.2285  23.3654  23.4252  23.4532  23.5754  23.6542  23.7484  23.8631
    24.0660  24.2032  24.2729  24.4503  24.5372  24.6190  24.8652  25.0033
    25.1197  25.1733  25.5517  25.7876  26.7682  27.4653  27.6278  28.3736
    29.7583  29.9924  30.3511  30.9290  31.5660  31.7691  32.3036  33.1595
    33.5430  33.7272  33.9572  34.2510  34.6172  35.1476  35.2789  35.7126
    35.9882  36.2648  36.4511  36.5176  36.6996  36.9833  37.1819  37.3001
    37.6185  37.8182  38.0432  38.2846  38.3801  38.5860  38.8369  39.2502
    39.7699  39.8564  40.1722  40.2593  40.3807  40.7727

          k =-0.4911 0.0945-0.3094 (  6064 PWs)   bands (ev):

   -78.8001 -78.8001 -78.7488 -78.7487 -78.7346 -78.7346 -78.7263 -78.7263
   -49.6748 -49.6746 -49.6680 -49.6678 -37.9501 -37.9501 -37.8191 -37.8190
   -37.6428 -37.6428 -37.6003 -37.6003 -37.5587 -37.5587 -37.5307 -37.5307
   -37.4462 -37.4462 -37.3961 -37.3961 -37.3697 -37.3697 -37.3620 -37.3620
   -37.3455 -37.3455 -37.3216 -37.3216 -16.6979 -16.6977 -16.6726 -16.6726
   -16.6593 -16.6592 -16.6273 -16.6271 -16.6055 -16.6054 -16.5968 -16.5968
     9.0160   9.0160   9.4893   9.4893   9.6737   9.6737   9.7965   9.7965
     9.9704   9.9705  10.5255  10.5255  10.6092  10.6092  10.8018  10.8018
    10.9921  10.9921  11.0741  11.0741  11.2621  11.2621  11.3889  11.3889
    11.5420  11.5420  11.7446  11.7446  11.8272  11.8272  12.0045  12.0045
    12.0309  12.0309  12.0897  12.0897  12.2939  12.2939  12.7205  12.7205
    16.9970  16.9970  18.9352  18.9352  21.6360  21.6360  22.0665  22.0665
    23.2453  23.2453  23.4290  23.4291  23.5240  23.5240  23.7985  23.7985
    24.1932  24.1932  24.5307  24.5308  24.6641  24.6641  24.8686  24.8687
    25.2185  25.2186  25.4491  25.4491  27.4635  27.4635  27.8856  27.8856
    29.5311  29.5312  30.3188  30.3188  32.3791  32.3791  32.8321  32.8321
    33.3105  33.3105  34.3243  34.3243  34.9134  34.9134  35.3822  35.3823
    36.1093  36.1093  36.3145  36.3145  36.9765  36.9765  37.1388  37.1389
    37.8975  37.8976  38.0610  38.0610  38.3496  38.3496  39.3152  39.3152
    39.6774  39.6775  40.0019  40.0020  40.4017  40.4019

     the Fermi energy is    34.2646 ev

!    total energy              =   -3976.39364446 Ry
     Harris-Foulkes estimate   =   -3976.39367047 Ry
     estimated scf accuracy    <       0.00003130 Ry

     The total energy is the sum of the following terms:

     one-electron contribution =    -920.72897046 Ry
     hartree contribution      =     657.71818158 Ry
     xc contribution           =    -339.70521332 Ry
     ewald contribution        =   -3373.28828276 Ry
     smearing contrib. (-TS)   =      -0.38935950 Ry

     convergence has been achieved in  10 iterations

     Forces acting on atoms (Ry/au):

     atom    1 type  1   force =     0.00000000    0.00000000    0.00204161
     atom    2 type  1   force =     0.00000000    0.00000000    0.00204161
     atom    3 type  1   force =     0.00000000    0.00000000   -0.00204161
     atom    4 type  1   force =     0.00000000    0.00000000   -0.00204161
     atom    5 type  2   force =     0.00000000    0.00000000    0.00000000
     atom    6 type  2   force =     0.00000000    0.00000000    0.00000000
     atom    7 type  2   force =     0.00000000    0.12060572    0.00000000
     atom    8 type  2   force =    -0.10444762    0.06030286    0.00000000
     atom    9 type  2   force =     0.10444762    0.06030286    0.00000000
     atom   10 type  2   force =    -0.10444762   -0.06030286    0.00000000
     atom   11 type  2   force =     0.10444762   -0.06030286    0.00000000
     atom   12 type  2   force =     0.00000000   -0.12060572    0.00000000

     Total force =     0.295451     Total SCF correction =     0.000000


     entering subroutine stress ...

          total   stress  (Ry/bohr**3)                   (kbar)     P= 1014.09
   0.00689272   0.00000000   0.00000000       1013.95      0.00      0.00
   0.00000000   0.00689272   0.00000000          0.00   1013.95      0.00
   0.00000000   0.00000000   0.00689539          0.00      0.00   1014.35


     Writing output data file Prototype-La-hP12-MgZn2.save
 
     init_run     :      6.90s CPU      8.52s WALL (       2 calls)
     electrons    :   5296.40s CPU   6073.20s WALL (       5 calls)
     update_pot   :      3.02s CPU      3.52s WALL (       3 calls)
     forces       :      7.28s CPU      7.61s WALL (       5 calls)
     stress       :     24.38s CPU     24.91s WALL (       5 calls)

     Called by init_run:
     wfcinit      :      5.82s CPU      7.41s WALL (       2 calls)
     potinit      :      0.48s CPU      0.49s WALL (       2 calls)

     Called by electrons:
     c_bands      :   5219.46s CPU   5928.61s WALL (      98 calls)
     sum_band     :     75.54s CPU    101.82s WALL (      98 calls)
     v_of_rho     :      0.24s CPU      0.28s WALL (     103 calls)
     mix_rho      :      0.35s CPU      0.43s WALL (      98 calls)

     Called by c_bands:
     init_us_2    :      4.12s CPU      4.89s WALL (    2496 calls)
     ccgdiagg     :   4879.19s CPU   5504.84s WALL (    1583 calls)
     wfcrot       :    341.17s CPU    421.92s WALL (    1595 calls)

     Called by *cgdiagg:
     h_psi        :   3310.19s CPU   3996.57s WALL ( 1537145 calls)
     cdiaghg      :     22.01s CPU     24.00s WALL (    1595 calls)

     Called by h_psi:
     add_vuspsi   :    772.36s CPU    799.14s WALL ( 1537145 calls)

     General routines
     calbec       :   1628.00s CPU   1752.01s WALL ( 3072815 calls)
     fft          :      0.25s CPU      0.33s WALL (     435 calls)
     fftw         :   1483.10s CPU   1940.25s WALL ( 3760928 calls)
     davcio       :      3.67s CPU      9.28s WALL (    3672 calls)
 
     Parallel routines
     fft_scatter  :    574.67s CPU    789.15s WALL ( 3761363 calls)
 
     PWSCF        :     1h28m CPU        1h42m WALL

 
   This run was terminated on:   4: 3:10  23Mar2018            

=------------------------------------------------------------------------------=
   JOB DONE.
=------------------------------------------------------------------------------=
