
     Program PWSCF v.5.0.2 starts on 22Mar2018 at 22:50:25 

     This program is part of the open-source Quantum ESPRESSO suite
     for quantum simulation of materials; please cite
         "P. Giannozzi et al., J. Phys.:Condens. Matter 21 395502 (2009);
          URL http://www.quantum-espresso.org", 
     in publications or presentations arising from this work. More details at
     http://www.quantum-espresso.org/quote.php

     Parallel version (MPI), running on     4 processors
     R & G space division:  proc/nbgrp/npool/nimage =       4

     Current dimensions of program PWSCF are:
     Max number of different atomic species (ntypx) = 10
     Max number of k-points (npk) =  40000
     Max angular momentum in pseudopotentials (lmaxx) =  3
     Waiting for input...
     Reading input from standard input

     Subspace diagonalization in iterative solution of the eigenvalue problem:
     a serial algorithm will be used

 
     Parallelization info
     --------------------
     sticks:   dense  smooth     PW     G-vecs:    dense   smooth      PW
     Min         267     267     77                11587    11587    1762
     Max         268     268     79                11596    11596    1765
     Sum        1069    1069    313                46361    46361    7055
 


     bravais-lattice index     =            0
     lattice parameter (alat)  =       9.9235  a.u.
     unit-cell volume          =    1361.0366 (a.u.)^3
     number of atoms/cell      =           12
     number of atomic types    =            2
     number of electrons       =       256.00
     number of Kohn-Sham states=          154
     kinetic-energy cutoff     =      40.0000  Ry
     charge density cutoff     =     160.0000  Ry
     convergence threshold     =      1.0E-04
     mixing beta               =       0.7000
     number of iterations used =            8  plain     mixing
     Exchange-correlation      = SLA-PZ-NOGX-NOGC ( 1 1 0 0 0)
     EXX-fraction              =        0.00
     nstep                     =           50


     celldm(1)=   9.923489  celldm(2)=   0.000000  celldm(3)=   0.000000
     celldm(4)=   0.000000  celldm(5)=   0.000000  celldm(6)=   0.000000

     crystal axes: (cart. coord. in units of alat)
               a(1) = (   1.000000   0.000000   0.000000 )  
               a(2) = (  -0.500000   0.866025   0.000000 )  
               a(3) = (   0.000000   0.000000   1.608222 )  

     reciprocal axes: (cart. coord. in units 2 pi/alat)
               b(1) = (  1.000000  0.577350  0.000000 )  
               b(2) = (  0.000000  1.154701  0.000000 )  
               b(3) = (  0.000000  0.000000  0.621805 )  


     PseudoPot. # 1 for Gd read from file:
     /home/cwx6513/pp.La/Gd.UPF
     MD5 check sum: 09a8be538722f05520810cb6aac0efd2
     Pseudo is Norm-conserving, Zval = 18.0
     Generated in analytical, separable form
     Using radial grid of 1263 points,  6 beta functions with: 
                l(1) =   0
                l(2) =   0
                l(3) =   1
                l(4) =   1
                l(5) =   2
                l(6) =   3

     PseudoPot. # 2 for Tm read from file:
     /home/cwx6513/pp.La/Tm.UPF
     MD5 check sum: 245516e0878b5372ceeb9443ded2c4e1
     Pseudo is Norm-conserving, Zval = 23.0
     Generated in analytical, separable form
     Using radial grid of 1269 points,  6 beta functions with: 
                l(1) =   0
                l(2) =   0
                l(3) =   1
                l(4) =   1
                l(5) =   2
                l(6) =   3

     atomic species   valence    mass     pseudopotential
        Mg            18.00    24.30500     Gd( 1.00)
        Zn            23.00    65.39000     Tm( 1.00)

     24 Sym. Ops., with inversion, found (12 have fractional translation)



   Cartesian axes

     site n.     atom                  positions (alat units)
         1           Mg  tau(   1) = (  -0.0000005   0.5773506   0.1003820  )
         2           Mg  tau(   2) = (   0.5000005   0.2886748   0.9044931  )
         3           Mg  tau(   3) = (   0.5000005   0.2886748   1.5078402  )
         4           Mg  tau(   4) = (  -0.0000005   0.5773506   0.7037291  )
         5           Zn  tau(   5) = (   0.0000000   0.0000000   0.0000000  )
         6           Zn  tau(   6) = (   0.0000000   0.0000000   0.8041111  )
         7           Zn  tau(   7) = (   0.0000000   0.2950739   1.2061667  )
         8           Zn  tau(   8) = (   0.7444585   0.1475370   0.4020556  )
         9           Zn  tau(   9) = (   0.2555415   0.1475370   0.4020556  )
        10           Zn  tau(  10) = (   0.2444585   0.7184884   1.2061667  )
        11           Zn  tau(  11) = (  -0.2444585   0.7184884   1.2061667  )
        12           Zn  tau(  12) = (   0.5000000   0.5709515   0.4020556  )

     number of k points=    12  gaussian smearing, width (Ry)=  0.1000
                       cart. coord. in units 2pi/alat
        k(    1) = (   0.0000000   0.0000000   0.0000000), wk =   0.0833333
        k(    2) = (   0.0000000   0.0000000   0.1554512), wk =   0.1666667
        k(    3) = (   0.0000000   0.0000000  -0.3109023), wk =   0.0833333
        k(    4) = (   0.0000000   0.3849002   0.0000000), wk =   0.1666667
        k(    5) = (   0.0000000   0.3849002   0.1554512), wk =   0.3333333
        k(    6) = (   0.0000000   0.3849002  -0.3109023), wk =   0.1666667
        k(    7) = (  -0.5000000  -0.2886751   0.0000000), wk =   0.0833333
        k(    8) = (  -0.5000000  -0.2886751   0.1554512), wk =   0.1666667
        k(    9) = (  -0.5000000  -0.2886751  -0.3109023), wk =   0.0833333
        k(   10) = (  -0.5000000   0.0962250   0.0000000), wk =   0.1666667
        k(   11) = (  -0.5000000   0.0962250   0.1554512), wk =   0.3333333
        k(   12) = (  -0.5000000   0.0962250  -0.3109023), wk =   0.1666667

     Dense  grid:    46361 G-vectors     FFT dimensions: (  40,  40,  72)

     Largest allocated arrays     est. size (Mb)     dimensions
        Kohn-Sham Wavefunctions         3.47 Mb     (   1478,  154)
        NL pseudopotentials             5.41 Mb     (   1478,  240)
        Each V/rho on FFT grid          0.44 Mb     (  28800)
        Each G-vector array             0.09 Mb     (  11589)
        G-vector shells                 0.09 Mb     (  11589)
     Largest temporary arrays     est. size (Mb)     dimensions
        Each subspace H/S matrix        0.36 Mb     ( 154, 154)
        Each <psi_i|beta_j> matrix      0.56 Mb     (    240,  154)
        Arrays for rho mixing           3.52 Mb     (  28800,   8)

     Initial potential from superposition of free atoms

     Starting from uniform charge
     Starting wfc are    0 randomized atomic wfcs

     total cpu time spent up to now is        6.3 secs

     Self-consistent Calculation

     iteration #  1     ecut=    40.00 Ry     beta=0.70
     CG style diagonalization
     ethr =  1.00E-02,  avg # of iterations = 20.1

     total cpu time spent up to now is      148.4 secs

     total energy              =   -2395.32470141 Ry
     Harris-Foulkes estimate   =   -4928.05839820 Ry
     estimated scf accuracy    <    3036.57563082 Ry

     iteration #  2     ecut=    40.00 Ry     beta=0.70
     CG style diagonalization
     ethr =  1.00E-02,  avg # of iterations = 19.9

     total cpu time spent up to now is      285.9 secs

     total energy              =   -2467.29405441 Ry
     Harris-Foulkes estimate   =   -5205.36665255 Ry
     estimated scf accuracy    <    5860.56381960 Ry

     iteration #  3     ecut=    40.00 Ry     beta=0.70
     CG style diagonalization
     c_bands:  1 eigenvalues not converged
     c_bands:  2 eigenvalues not converged
     c_bands:  1 eigenvalues not converged
     c_bands:  1 eigenvalues not converged
     c_bands:  2 eigenvalues not converged
     c_bands:  2 eigenvalues not converged
     c_bands:  1 eigenvalues not converged
     ethr =  1.00E-02,  avg # of iterations = 12.8

     total cpu time spent up to now is      379.8 secs

     total energy              =   -3691.08005114 Ry
     Harris-Foulkes estimate   =   -3832.48875873 Ry
     estimated scf accuracy    <     319.66334122 Ry

     iteration #  4     ecut=    40.00 Ry     beta=0.70
     CG style diagonalization
     ethr =  1.00E-02,  avg # of iterations =  6.1

     total cpu time spent up to now is      425.4 secs

     total energy              =   -3734.73941245 Ry
     Harris-Foulkes estimate   =   -3745.50689414 Ry
     estimated scf accuracy    <      19.50881295 Ry

     iteration #  5     ecut=    40.00 Ry     beta=0.70
     CG style diagonalization
     ethr =  7.62E-03,  avg # of iterations =  3.7

     total cpu time spent up to now is      450.2 secs

     total energy              =   -3738.46223913 Ry
     Harris-Foulkes estimate   =   -3740.54069040 Ry
     estimated scf accuracy    <       3.69840719 Ry

     iteration #  6     ecut=    40.00 Ry     beta=0.70
     CG style diagonalization
     ethr =  1.44E-03,  avg # of iterations =  3.9

     total cpu time spent up to now is      476.1 secs

     total energy              =   -3739.37602405 Ry
     Harris-Foulkes estimate   =   -3739.61321804 Ry
     estimated scf accuracy    <       0.45233451 Ry

     iteration #  7     ecut=    40.00 Ry     beta=0.70
     CG style diagonalization
     c_bands:  1 eigenvalues not converged
     c_bands:  2 eigenvalues not converged
     ethr =  1.77E-04,  avg # of iterations =  4.2

     total cpu time spent up to now is      504.1 secs

     total energy              =   -3739.48467791 Ry
     Harris-Foulkes estimate   =   -3739.51670205 Ry
     estimated scf accuracy    <       0.06423995 Ry

     iteration #  8     ecut=    40.00 Ry     beta=0.70
     CG style diagonalization
     c_bands:  1 eigenvalues not converged
     c_bands:  1 eigenvalues not converged
     c_bands:  1 eigenvalues not converged
     ethr =  2.51E-05,  avg # of iterations =  3.8

     total cpu time spent up to now is      530.1 secs

     total energy              =   -3739.49884863 Ry
     Harris-Foulkes estimate   =   -3739.50331427 Ry
     estimated scf accuracy    <       0.00925967 Ry

     iteration #  9     ecut=    40.00 Ry     beta=0.70
     CG style diagonalization
     c_bands:  1 eigenvalues not converged
     c_bands:  1 eigenvalues not converged
     c_bands:  1 eigenvalues not converged
     ethr =  3.62E-06,  avg # of iterations =  4.0

     total cpu time spent up to now is      557.0 secs

     total energy              =   -3739.50132697 Ry
     Harris-Foulkes estimate   =   -3739.50181837 Ry
     estimated scf accuracy    <       0.00093509 Ry

     iteration # 10     ecut=    40.00 Ry     beta=0.70
     CG style diagonalization
     ethr =  3.65E-07,  avg # of iterations =  4.0

     total cpu time spent up to now is      584.0 secs

     End of self-consistent calculation

          k = 0.0000 0.0000 0.0000 (  5769 PWs)   bands (ev):

   -78.1685 -78.1388 -78.1388 -78.1329 -78.1228 -78.1228 -78.1004 -78.0597
   -37.6064 -37.4933 -37.2530 -37.0952 -37.0952 -37.0784 -37.0784 -37.0146
   -36.9689 -36.9688 -36.9087 -36.8516 -36.8515 -36.7811 -36.7811 -36.7547
   -36.7546 -36.7164 -36.7060 -36.7060 -36.6731 -36.6580 -36.6466 -36.6465
   -34.5928 -34.5853 -34.5726 -34.5603  -5.8036  -5.7991  -5.7761  -5.7761
    -5.7550  -5.7550  -5.6395  -5.6230  -5.6010  -5.6010  -5.5916  -5.5916
     8.3782   8.7895   9.1289   9.7169   9.7169   9.8255   9.8256  10.1291
    10.1291  10.2213  10.4667  10.4667  11.0023  11.2955  11.3606  11.3606
    11.5167  11.5168  11.9049  12.1282  12.1282  12.3119  12.3119  12.4700
    12.4897  12.4897  12.5745  12.5919  12.6354  12.6354  12.7011  12.7011
    12.8135  12.8135  13.3650  13.3651  13.6168  13.6169  13.9674  13.9698
    16.0587  17.7236  20.2388  22.9924  23.8105  24.3967  24.3968  25.2620
    25.5221  25.5221  25.6777  25.6778  26.1786  26.1786  26.8539  26.8540
    27.7638  27.7639  28.2161  28.5533  29.8369  30.0098  30.0098  30.2833
    30.2833  30.6608  30.6609  30.9230  30.9230  31.1894  31.3099  31.3100
    31.4700  31.7616  32.9613  33.0725  33.0725  33.8742  33.8742  34.2908
    34.6279  35.4426  35.4426  36.5989  36.7242  36.7242  36.9427  36.9938
    36.9938  37.1713  38.0573  38.0760  38.3039  38.3040  38.3987  38.3988
    38.4263  38.4264  39.2193  39.3580  39.7582  39.7583  39.8647  40.1055
    40.9972  41.1017

          k = 0.0000 0.0000 0.1555 (  5780 PWs)   bands (ev):

   -78.1562 -78.1441 -78.1441 -78.1333 -78.1332 -78.1316 -78.0895 -78.0872
   -37.5942 -37.5096 -37.2345 -37.0990 -37.0990 -37.0836 -37.0836 -37.0557
   -36.9605 -36.9605 -36.8871 -36.8871 -36.8587 -36.7670 -36.7670 -36.7459
   -36.7459 -36.7274 -36.7064 -36.7064 -36.6781 -36.6709 -36.6572 -36.6571
   -34.5919 -34.5887 -34.5684 -34.5634  -5.7997  -5.7975  -5.7704  -5.7704
    -5.7619  -5.7619  -5.6447  -5.6267  -5.6005  -5.6005  -5.5943  -5.5943
     8.4117   8.6670   9.3177   9.7275   9.7275   9.8010   9.8010  10.0181
    10.1813  10.1813  10.4148  10.4148  11.1279  11.2911  11.3837  11.3837
    11.4917  11.4917  11.9797  12.1868  12.1868  12.3176  12.3176  12.3898
    12.4847  12.4847  12.5757  12.5882  12.5883  12.5883  12.7172  12.7172
    12.7955  12.7955  13.4014  13.4015  13.5807  13.5807  13.9674  13.9683
    16.1999  17.2789  20.9263  22.8633  23.9039  24.5062  24.5063  24.7743
    25.2988  25.2989  25.6694  25.6695  26.3450  26.3450  26.8740  26.8741
    27.6132  27.6132  27.9834  28.0669  30.0344  30.0344  30.2451  30.2451
    30.3620  30.7500  30.7500  31.0498  31.2383  31.2383  31.2415  31.2415
    31.8122  32.5373  32.6422  32.6422  33.1467  34.0883  34.0883  34.2210
    34.7291  35.7365  35.7365  35.9291  35.9291  36.0635  36.9393  37.2227
    37.7340  37.7341  37.8192  37.9337  37.9338  38.2599  38.3766  38.3766
    38.7147  38.7147  38.9523  39.0406  39.8299  39.8764  39.8765  40.0585
    40.1347  40.4776

          k = 0.0000 0.0000-0.3109 (  5780 PWs)   bands (ev):

   -78.1752 -78.1752 -78.1177 -78.1177 -78.1177 -78.1177 -78.0963 -78.0963
   -37.5489 -37.5489 -37.1781 -37.1781 -37.0842 -37.0842 -37.0842 -37.0842
   -36.9179 -36.9179 -36.9179 -36.9179 -36.7990 -36.7990 -36.7524 -36.7524
   -36.7524 -36.7524 -36.6856 -36.6856 -36.6856 -36.6856 -36.6647 -36.6647
   -34.5911 -34.5910 -34.5651 -34.5650  -5.7990  -5.7988  -5.7651  -5.7651
    -5.7651  -5.7651  -5.6419  -5.6417  -5.5947  -5.5947  -5.5947  -5.5947
     8.5089   8.5089   9.6571   9.6571   9.7586   9.7586   9.7586   9.7586
    10.2981  10.2981  10.2981  10.2981  11.2511  11.2511  11.4372  11.4372
    11.4372  11.4372  12.1851  12.1851  12.2917  12.2917  12.2918  12.2918
    12.5027  12.5028  12.5028  12.5028  12.5845  12.5846  12.7555  12.7555
    12.7555  12.7555  13.4919  13.4919  13.4919  13.4919  13.9686  13.9686
    16.6232  16.6232  22.1250  22.1250  24.1633  24.1633  24.8265  24.8265
    24.8266  24.8266  26.0414  26.0414  26.0415  26.0415  27.2449  27.2449
    27.2449  27.2450  27.7494  27.7496  30.1544  30.1544  30.1545  30.1545
    30.8028  30.8029  31.0094  31.0094  31.0094  31.0094  31.8873  31.8873
    31.8873  31.8873  32.6719  32.6719  33.8868  33.8869  34.7569  34.7570
    34.7570  34.7570  35.3483  35.3483  36.4341  36.4342  36.8890  36.8890
    36.8890  36.8891  38.1860  38.1861  38.1861  38.1861  38.5286  38.5288
    38.8580  38.8581  39.3387  39.3389  39.8077  39.8078  39.8078  39.8080
    40.2168  40.2167

          k = 0.0000 0.3849 0.0000 (  5787 PWs)   bands (ev):

   -78.1838 -78.1547 -78.1355 -78.1337 -78.1183 -78.1152 -78.1028 -78.0934
   -37.4821 -37.3847 -37.2711 -37.1738 -37.1086 -37.0421 -37.0140 -36.9770
   -36.9645 -36.9634 -36.8798 -36.8615 -36.8512 -36.8429 -36.8253 -36.8153
   -36.7812 -36.7696 -36.7428 -36.7152 -36.7078 -36.7003 -36.6713 -36.6408
   -34.5897 -34.5783 -34.5760 -34.5675  -5.8206  -5.8086  -5.7835  -5.7654
    -5.7487  -5.7285  -5.6701  -5.6287  -5.6145  -5.5976  -5.5864  -5.5774
     8.9666   9.3766   9.3800   9.9141   9.9557  10.0637  10.2222  10.3095
    10.4583  10.5418  10.6893  10.7493  11.0072  11.1991  11.4638  11.5197
    11.5304  11.6869  11.7508  11.8138  11.8881  11.9157  11.9487  12.0478
    12.1806  12.2843  12.3306  12.5074  12.5180  12.5944  12.6067  12.6874
    12.7130  12.8102  12.8717  13.0488  13.0617  13.2065  13.4048  13.6994
    16.8385  18.2927  20.0833  21.0407  21.1158  24.0432  24.6266  25.2107
    25.3477  25.6482  26.0135  26.5202  27.2255  27.4005  27.6165  27.7608
    27.8635  28.0788  28.5891  28.6527  28.9964  29.0082  29.7449  30.0831
    30.1327  30.2341  30.3468  30.4357  30.5553  31.0565  31.2919  31.6962
    31.6997  32.0964  33.1377  33.3781  33.5433  34.0042  34.5675  35.3665
    35.6184  35.6613  36.4904  36.5565  36.6815  37.2405  37.4021  37.5251
    37.9331  38.0513  38.2524  38.5749  38.6118  38.6335  38.6967  38.9389
    39.2363  39.4808  39.7310  39.7733  39.9654  39.9977  40.5906  40.8018
    41.2708  41.4543

          k = 0.0000 0.3849 0.1555 (  5804 PWs)   bands (ev):

   -78.1766 -78.1624 -78.1487 -78.1452 -78.1327 -78.1307 -78.1099 -78.0909
   -37.4796 -37.4162 -37.2425 -37.1783 -37.1017 -37.0369 -37.0252 -37.0139
   -36.9711 -36.9587 -36.9079 -36.8815 -36.8615 -36.8538 -36.8010 -36.8000
   -36.7868 -36.7458 -36.7261 -36.7249 -36.7047 -36.6990 -36.6852 -36.6646
   -34.5893 -34.5818 -34.5750 -34.5687  -5.8214  -5.8087  -5.7835  -5.7689
    -5.7506  -5.7356  -5.6656  -5.6402  -5.6100  -5.5941  -5.5909  -5.5799
     8.9923   9.1963   9.6027   9.8882   9.9590  10.1426  10.2339  10.2956
    10.3281  10.5108  10.5695  10.7160  11.1565  11.2414  11.4773  11.5266
    11.5591  11.6295  11.6875  11.7244  11.8775  12.0015  12.0389  12.0990
    12.2171  12.2343  12.4077  12.5010  12.5102  12.5619  12.5913  12.6939
    12.7234  12.7665  12.9094  12.9977  13.0849  13.1131  13.4842  13.6691
    16.9654  17.9270  20.1699  20.8370  21.8492  24.1361  24.5593  24.6884
    25.1646  25.5502  26.3148  26.5407  27.2063  27.3735  27.4541  27.4680
    27.8983  27.9673  28.3287  28.5547  29.2889  29.3397  29.8158  30.0231
    30.0389  30.2915  30.3361  30.7016  30.8453  30.9978  31.3960  31.7621
    32.0441  32.4300  32.9724  33.1022  33.5578  34.0955  34.3180  35.1985
    35.7061  35.7273  36.1773  36.5837  36.9984  37.1212  37.2344  37.5079
    37.5927  37.7371  38.1353  38.3290  38.5127  38.5985  38.7986  39.2051
    39.2130  39.7623  39.8060  39.8114  40.2841  40.3418  40.4707  40.5741
    40.8109  41.1657

          k = 0.0000 0.3849-0.3109 (  5816 PWs)   bands (ev):

   -78.1700 -78.1700 -78.1496 -78.1496 -78.1439 -78.1439 -78.1073 -78.1073
   -37.4590 -37.4590 -37.2053 -37.2053 -37.0742 -37.0741 -37.0367 -37.0366
   -36.9497 -36.9497 -36.9223 -36.9223 -36.8562 -36.8562 -36.7923 -36.7923
   -36.7579 -36.7579 -36.7119 -36.7119 -36.7103 -36.7102 -36.6870 -36.6870
   -34.5870 -34.5869 -34.5717 -34.5716  -5.8135  -5.8133  -5.7757  -5.7757
    -5.7494  -5.7493  -5.6547  -5.6545  -5.5998  -5.5998  -5.5887  -5.5887
     9.0680   9.0680   9.8016   9.8016  10.0707  10.0707  10.2644  10.2644
    10.3080  10.3080  10.6402  10.6403  11.2599  11.2599  11.5258  11.5258
    11.5543  11.5543  11.6954  11.6954  11.9163  11.9163  12.0933  12.0933
    12.3501  12.3501  12.4141  12.4141  12.5352  12.5352  12.6249  12.6249
    12.7161  12.7161  12.9888  12.9888  13.0409  13.0409  13.5904  13.5905
    17.3496  17.3496  20.4757  20.4758  23.2511  23.2511  24.3585  24.3585
    25.3138  25.3138  26.7781  26.7782  26.8776  26.8776  27.6523  27.6524
    27.6952  27.6952  28.3111  28.3111  29.7140  29.7141  29.8397  29.8397
    30.0318  30.0318  30.5633  30.5634  31.1421  31.1421  31.7843  31.7843
    32.3955  32.3955  32.7058  32.7058  34.3100  34.3101  34.9702  34.9703
    34.9763  34.9763  36.0549  36.0549  36.9603  36.9603  37.3315  37.3315
    37.9324  37.9325  38.1291  38.1292  38.5479  38.5480  39.2327  39.2328
    39.5487  39.5488  39.9090  39.9091  40.1513  40.1514  40.3293  40.3294
    41.0971  41.0973

          k =-0.5000-0.2887 0.0000 (  5800 PWs)   bands (ev):

   -78.1720 -78.1641 -78.1607 -78.1442 -78.1223 -78.1203 -78.1029 -78.0940
   -37.4276 -37.3399 -37.2728 -37.2334 -37.1190 -37.0176 -36.9928 -36.9832
   -36.9621 -36.9547 -36.8940 -36.8749 -36.8649 -36.8563 -36.8538 -36.8303
   -36.8065 -36.7675 -36.7517 -36.7167 -36.7076 -36.7041 -36.6800 -36.6430
   -34.5850 -34.5797 -34.5784 -34.5697  -5.8278  -5.8095  -5.7881  -5.7682
    -5.7439  -5.7115  -5.6863  -5.6409  -5.6116  -5.5881  -5.5877  -5.5802
     9.1911   9.4712   9.5422   9.9856  10.0982  10.2551  10.3710  10.3723
    10.5604  10.7069  10.8455  11.2263  11.2336  11.2495  11.2900  11.3838
    11.5377  11.5871  11.5885  11.6923  11.7813  11.7967  11.8349  11.9442
    12.0167  12.0977  12.1080  12.4248  12.4609  12.4962  12.5137  12.5311
    12.6359  12.7210  12.8222  12.8374  13.0429  13.0559  13.4225  13.6920
    17.3348  18.5591  19.3477  20.3003  21.3446  23.9791  24.4736  25.2204
    25.2537  25.5647  26.3780  27.0055  27.2708  27.6143  27.7452  27.8798
    28.1465  28.2441  28.4037  28.4561  28.4981  29.1633  29.4486  29.7205
    30.1343  30.2892  30.3017  30.3526  30.3984  30.9763  31.1236  31.3003
    31.5108  32.6696  33.3970  33.8587  34.3417  34.9287  35.3301  35.4757
    35.5894  35.7812  36.3129  36.6669  36.7608  36.7981  37.0103  37.3745
    37.5936  38.0181  38.2618  38.2932  38.6738  39.0273  39.1495  39.3053
    39.4439  39.5729  39.9444  40.2678  40.3850  41.0619  41.1203  41.2042
    41.5260  41.6629

          k =-0.5000-0.2887 0.1555 (  5822 PWs)   bands (ev):

   -78.1747 -78.1739 -78.1688 -78.1466 -78.1435 -78.1273 -78.1194 -78.1038
   -37.4247 -37.3660 -37.2606 -37.2333 -37.1168 -37.0184 -37.0077 -37.0000
   -36.9782 -36.9501 -36.9195 -36.8879 -36.8801 -36.8733 -36.8253 -36.8166
   -36.8014 -36.7568 -36.7396 -36.7255 -36.7185 -36.7064 -36.6891 -36.6626
   -34.5864 -34.5815 -34.5765 -34.5728  -5.8230  -5.8136  -5.7885  -5.7740
    -5.7455  -5.7301  -5.6744  -5.6461  -5.6104  -5.5951  -5.5914  -5.5777
     9.2098   9.3640   9.6980  10.0070  10.0801  10.2101  10.2725  10.3564
    10.5834  10.7601  10.8577  11.1431  11.2487  11.2653  11.3649  11.3965
    11.4748  11.4835  11.6341  11.6401  11.6935  11.8478  11.8996  11.9056
    12.0575  12.1199  12.2361  12.4216  12.4476  12.5227  12.5328  12.6063
    12.6083  12.7456  12.7953  12.8248  12.9677  12.9874  13.4821  13.6607
    17.4406  18.2865  19.3759  20.1161  22.0378  24.0667  24.4261  24.5968
    25.4099  25.5018  26.1845  26.9644  27.2227  27.4569  27.7873  27.8292
    27.8747  28.0990  28.3730  28.7292  28.9721  29.3417  29.5286  29.6004
    30.0013  30.0997  30.3147  30.6010  30.6268  30.6835  31.0429  31.8465
    32.3146  32.6305  33.0990  33.8606  34.0591  34.6179  35.4617  35.5997
    35.6213  35.6500  35.9923  36.2456  36.2870  36.3225  37.5065  37.5791
    37.9029  38.2344  38.2360  38.5435  38.5736  38.7536  38.9994  39.1114
    39.7009  39.9837  39.9943  40.1770  40.3632  40.6199  40.8180  41.0391
    41.6665  41.7371

          k =-0.5000-0.2887-0.3109 (  5804 PWs)   bands (ev):

   -78.1651 -78.1651 -78.1497 -78.1497 -78.1381 -78.1381 -78.0960 -78.0960
   -37.4027 -37.4027 -37.2394 -37.2394 -37.0652 -37.0652 -37.0173 -37.0173
   -36.9401 -36.9401 -36.9095 -36.9095 -36.8740 -36.8740 -36.8201 -36.8200
   -36.7473 -36.7473 -36.7197 -36.7197 -36.7114 -36.7114 -36.6897 -36.6897
   -34.5839 -34.5837 -34.5731 -34.5730  -5.8144  -5.8142  -5.7803  -5.7802
    -5.7386  -5.7385  -5.6532  -5.6530  -5.6009  -5.6009  -5.5873  -5.5873
     9.2696   9.2696   9.9297   9.9297  10.0607  10.0607  10.3162  10.3162
    10.6579  10.6579  11.0163  11.0163  11.2819  11.2819  11.4089  11.4089
    11.4571  11.4571  11.5314  11.5314  11.8067  11.8067  11.9076  11.9076
    12.1290  12.1290  12.4164  12.4164  12.4221  12.4221  12.6261  12.6261
    12.7121  12.7122  12.8267  12.8267  12.8598  12.8598  13.5817  13.5817
    17.7816  17.7816  19.7078  19.7079  23.4344  23.4344  24.2703  24.2703
    25.1320  25.1320  27.0255  27.0256  27.1190  27.1190  27.6663  27.6664
    27.8603  27.8604  28.5323  28.5323  29.4622  29.4623  29.7297  29.7297
    29.9383  29.9384  30.2553  30.2553  30.6336  30.6337  31.9472  31.9472
    32.8122  32.8122  33.2914  33.2914  34.1926  34.1926  35.0074  35.0074
    35.7276  35.7276  36.0322  36.0322  36.2676  36.2676  37.5572  37.5573
    38.0624  38.0624  38.4295  38.4295  38.5675  38.5675  39.5664  39.5665
    39.6690  39.6691  40.2166  40.2166  40.3427  40.3429  40.7076  40.7076
    41.4646  41.4646

          k =-0.5000 0.0962 0.0000 (  5827 PWs)   bands (ev):

   -78.1874 -78.1698 -78.1656 -78.1561 -78.1426 -78.1246 -78.1217 -78.1033
   -37.4303 -37.3482 -37.2740 -37.2349 -37.1516 -37.0024 -36.9917 -36.9861
   -36.9754 -36.9610 -36.8858 -36.8811 -36.8683 -36.8664 -36.8543 -36.8149
   -36.8010 -36.7710 -36.7586 -36.7310 -36.7291 -36.7182 -36.6810 -36.6607
   -34.5872 -34.5801 -34.5784 -34.5722  -5.8252  -5.8166  -5.7973  -5.7783
    -5.7383  -5.7070  -5.6892  -5.6471  -5.6103  -5.5932  -5.5932  -5.5784
     9.2910   9.4934   9.7005   9.9641  10.0173  10.1401  10.1768  10.3908
    10.5581  10.6873  10.8531  11.0021  11.0994  11.2420  11.3222  11.3874
    11.5012  11.5158  11.7099  11.7814  11.8364  11.8777  11.9285  12.0001
    12.0254  12.1658  12.1728  12.2673  12.4552  12.4975  12.5931  12.6250
    12.6733  12.7792  12.8489  12.9012  13.0183  13.0631  13.3451  13.4978
    17.2706  18.6196  19.5676  20.3570  21.3254  23.2023  23.5095  25.4753
    26.2734  26.4208  26.6214  26.6890  27.1961  27.6230  27.7033  27.8826
    27.9107  28.0696  28.3325  28.5733  28.7200  28.9764  29.6631  29.7804
    29.9707  30.2414  30.3264  30.3515  30.6497  30.7482  31.0596  31.2746
    31.7945  32.6270  32.8602  33.7195  34.2859  34.3767  34.9933  35.6484
    35.6935  35.9627  36.0968  36.5182  36.6238  37.2659  37.4010  38.0494
    38.0575  38.2807  38.4404  38.4646  38.8785  39.0389  39.1719  39.2922
    39.3398  39.4023  39.8496  39.9547  40.1124  40.3516  40.7034  40.8717
    40.9095  41.5932

          k =-0.5000 0.0962 0.1555 (  5825 PWs)   bands (ev):

   -78.1825 -78.1748 -78.1555 -78.1500 -78.1451 -78.1315 -78.1167 -78.1085
   -37.4219 -37.3650 -37.2631 -37.2377 -37.1315 -37.0110 -37.0062 -36.9972
   -36.9755 -36.9539 -36.9107 -36.8906 -36.8809 -36.8715 -36.8188 -36.8078
   -36.7938 -36.7512 -36.7411 -36.7319 -36.7247 -36.7204 -36.6897 -36.6710
   -34.5871 -34.5816 -34.5761 -34.5729  -5.8220  -5.8136  -5.7938  -5.7817
    -5.7395  -5.7215  -5.6736  -5.6507  -5.6110  -5.5956  -5.5900  -5.5788
     9.3072   9.4336   9.7974   9.9487  10.0168  10.1899  10.2188  10.3286
    10.4921  10.5411  10.9694  11.0132  11.0829  11.2015  11.3410  11.3817
    11.5150  11.5832  11.6838  11.6954  11.7730  11.8586  11.9779  12.0208
    12.1017  12.1766  12.2285  12.3267  12.4703  12.5258  12.5688  12.6675
    12.6857  12.7516  12.8061  12.8497  12.9762  13.0429  13.3802  13.4853
    17.3869  18.2827  19.6557  20.2218  22.0373  23.1261  23.3774  25.1210
    25.7473  26.4502  26.7168  26.9067  27.2276  27.5141  27.7503  27.8493
    27.8758  27.9791  28.3220  28.7241  28.9686  29.1744  29.4950  29.7652
    29.9780  30.0206  30.1907  30.4753  30.6790  31.0384  31.1894  31.3669
    32.2579  32.5811  32.9727  33.2813  34.1054  34.5381  34.8197  35.4784
    35.8480  36.0136  36.1120  36.5570  36.8857  37.0422  37.1806  37.6619
    37.7404  38.1493  38.2799  38.4631  38.6757  39.0872  39.1427  39.2421
    39.4686  39.5271  40.0391  40.1909  40.2867  40.4669  40.6826  41.0363
    41.1630  41.6857

          k =-0.5000 0.0962-0.3109 (  5824 PWs)   bands (ev):

   -78.1729 -78.1729 -78.1493 -78.1493 -78.1450 -78.1450 -78.1135 -78.1135
   -37.3987 -37.3987 -37.2430 -37.2430 -37.0767 -37.0767 -37.0071 -37.0071
   -36.9435 -36.9435 -36.9243 -36.9243 -36.8776 -36.8776 -36.8069 -36.8068
   -36.7570 -36.7570 -36.7353 -36.7353 -36.7138 -36.7138 -36.6974 -36.6974
   -34.5849 -34.5848 -34.5740 -34.5738  -5.8152  -5.8151  -5.7882  -5.7882
    -5.7352  -5.7351  -5.6574  -5.6572  -5.6047  -5.6046  -5.5850  -5.5850
     9.3577   9.3577   9.9138   9.9138  10.1023  10.1023  10.3057  10.3057
    10.4121  10.4121  11.0279  11.0280  11.1179  11.1180  11.3661  11.3661
    11.5779  11.5779  11.6528  11.6529  11.8032  11.8033  11.9925  11.9925
    12.1632  12.1632  12.3868  12.3868  12.4794  12.4794  12.6809  12.6809
    12.6941  12.6941  12.7500  12.7500  12.9852  12.9852  13.4427  13.4427
    17.7418  17.7418  19.9365  19.9366  23.1078  23.1078  23.5487  23.5487
    26.1798  26.1798  26.9274  26.9275  27.3545  27.3545  27.7178  27.7178
    27.9023  27.9024  28.4739  28.4739  29.3074  29.3075  29.6583  29.6583
    29.9955  29.9956  30.0945  30.0945  31.0125  31.0125  31.6549  31.6549
    32.3211  32.3211  33.0883  33.0883  34.4019  34.4019  35.1415  35.1415
    35.6824  35.6824  36.2222  36.2222  36.8495  36.8495  37.4349  37.4349
    37.8780  37.8780  38.2769  38.2769  38.8121  38.8122  39.2073  39.2073
    39.8657  39.8658  40.0025  40.0025  40.3428  40.3430  41.0996  41.0999
    41.3517  41.3514

     the Fermi energy is    35.1847 ev

!    total energy              =   -3739.50167605 Ry
     Harris-Foulkes estimate   =   -3739.50176016 Ry
     estimated scf accuracy    <       0.00009972 Ry

     The total energy is the sum of the following terms:

     one-electron contribution =    -808.91840228 Ry
     hartree contribution      =     608.63841822 Ry
     xc contribution           =    -324.93119731 Ry
     ewald contribution        =   -3213.90757384 Ry
     smearing contrib. (-TS)   =      -0.38292084 Ry

     convergence has been achieved in  10 iterations

     Forces acting on atoms (Ry/au):

     atom    1 type  1   force =     0.00000000    0.00000000    0.00906844
     atom    2 type  1   force =     0.00000000    0.00000000    0.00906844
     atom    3 type  1   force =     0.00000000    0.00000000   -0.00906844
     atom    4 type  1   force =     0.00000000    0.00000000   -0.00906844
     atom    5 type  2   force =     0.00000000    0.00000000    0.00000000
     atom    6 type  2   force =     0.00000000    0.00000000    0.00000000
     atom    7 type  2   force =     0.00000000    0.17758358    0.00000000
     atom    8 type  2   force =    -0.15379190    0.08879179    0.00000000
     atom    9 type  2   force =     0.15379190    0.08879179    0.00000000
     atom   10 type  2   force =    -0.15379190   -0.08879179    0.00000000
     atom   11 type  2   force =     0.15379190   -0.08879179    0.00000000
     atom   12 type  2   force =     0.00000000   -0.17758358    0.00000000

     Total force =     0.435367     Total SCF correction =     0.000000


     entering subroutine stress ...

          total   stress  (Ry/bohr**3)                   (kbar)     P= 1142.87
   0.00786405   0.00000000   0.00000000       1156.84      0.00      0.00
   0.00000000   0.00786405   0.00000000          0.00   1156.84      0.00
   0.00000000   0.00000000   0.00757904          0.00      0.00   1114.92


     BFGS Geometry Optimization

     number of scf cycles    =   1
     number of bfgs steps    =   0

     enthalpy new            =   -3739.5016760450 Ry

     new trust radius        =       0.5000000000 bohr
     new conv_thr            =       0.0001000000 Ry

     new unit-cell volume =   1653.09086 a.u.^3 (   244.96279 Ang^3 )

CELL_PARAMETERS (alat=  9.92348860)
   1.067764947   0.000000000   0.000000000
  -0.533882474   0.924711570   0.000000000
   0.000000000   0.000000000   1.713253581

ATOMIC_POSITIONS (crystal)
Mg       0.333333000   0.666667000   0.062613858
Mg       0.666667000   0.333333000   0.562613858
Mg       0.666667000   0.333333000   0.937386142
Mg       0.333333000   0.666667000   0.437386142
Zn       0.000000000   0.000000000   0.000000000
Zn       0.000000000   0.000000000   0.500000000
Zn       0.173922200   0.347844400   0.750000000
Zn       0.826077800   0.173922200   0.250000000
Zn       0.347844400   0.173922200   0.250000000
Zn       0.652155600   0.826077800   0.750000000
Zn       0.173922200   0.826077800   0.750000000
Zn       0.826077800   0.652155600   0.250000000



     Writing output data file Prototype-La-hP12-MgZn2.save
     NEW-OLD atomic charge density approx. for the potential
     NEW k-points:
        k(    1) = (   0.0000000   0.0000000   0.0000000), wk =   0.0833333
        k(    2) = (   0.0000000   0.0000000   0.1459212), wk =   0.1666667
        k(    3) = (   0.0000000   0.0000000  -0.2918424), wk =   0.0833333
        k(    4) = (   0.0000000   0.3604728   0.0000000), wk =   0.1666667
        k(    5) = (   0.0000000   0.3604728   0.1459212), wk =   0.3333333
        k(    6) = (   0.0000000   0.3604728  -0.2918424), wk =   0.1666667
        k(    7) = (  -0.4682679  -0.2703546   0.0000000), wk =   0.0833333
        k(    8) = (  -0.4682679  -0.2703546   0.1459212), wk =   0.1666667
        k(    9) = (  -0.4682679  -0.2703546  -0.2918424), wk =   0.0833333
        k(   10) = (  -0.4682679   0.0901182   0.0000000), wk =   0.1666667
        k(   11) = (  -0.4682679   0.0901182   0.1459212), wk =   0.3333333
        k(   12) = (  -0.4682679   0.0901182  -0.2918424), wk =   0.1666667

     total cpu time spent up to now is      594.0 secs

     Self-consistent Calculation

     iteration #  1     ecut=    40.00 Ry     beta=0.70
     CG style diagonalization
     c_bands:  1 eigenvalues not converged
     c_bands:  1 eigenvalues not converged
     c_bands:  1 eigenvalues not converged
     c_bands:  2 eigenvalues not converged
     c_bands:  4 eigenvalues not converged
     ethr =  1.00E-06,  avg # of iterations = 21.5

     total cpu time spent up to now is      755.6 secs

     total energy              =   -3714.30749654 Ry
     Harris-Foulkes estimate   =   -3762.10525446 Ry
     estimated scf accuracy    <      58.34559917 Ry

     iteration #  2     ecut=    40.00 Ry     beta=0.70
     CG style diagonalization
     ethr =  1.00E-02,  avg # of iterations =  4.9

     total cpu time spent up to now is      792.3 secs

     total energy              =   -3713.97991000 Ry
     Harris-Foulkes estimate   =   -3759.61754079 Ry
     estimated scf accuracy    <      95.32993384 Ry

     iteration #  3     ecut=    40.00 Ry     beta=0.70
     CG style diagonalization
     ethr =  1.00E-02,  avg # of iterations =  4.2

     total cpu time spent up to now is      822.1 secs

     total energy              =   -3737.96236388 Ry
     Harris-Foulkes estimate   =   -3743.82876342 Ry
     estimated scf accuracy    <      14.22438524 Ry

     iteration #  4     ecut=    40.00 Ry     beta=0.70
     CG style diagonalization
     ethr =  5.56E-03,  avg # of iterations =  3.3

     total cpu time spent up to now is      844.3 secs

     total energy              =   -3739.91721973 Ry
     Harris-Foulkes estimate   =   -3740.16485271 Ry
     estimated scf accuracy    <       0.73841397 Ry

     iteration #  5     ecut=    40.00 Ry     beta=0.70
     CG style diagonalization
     c_bands:  1 eigenvalues not converged
     ethr =  2.88E-04,  avg # of iterations =  4.0

     total cpu time spent up to now is      871.8 secs

     total energy              =   -3740.12289230 Ry
     Harris-Foulkes estimate   =   -3740.16214309 Ry
     estimated scf accuracy    <       0.09475414 Ry

     iteration #  6     ecut=    40.00 Ry     beta=0.70
     CG style diagonalization
     c_bands:  1 eigenvalues not converged
     ethr =  3.70E-05,  avg # of iterations =  3.7

     total cpu time spent up to now is      897.7 secs

     total energy              =   -3740.14175007 Ry
     Harris-Foulkes estimate   =   -3740.14675482 Ry
     estimated scf accuracy    <       0.00728831 Ry

     iteration #  7     ecut=    40.00 Ry     beta=0.70
     CG style diagonalization
     c_bands:  1 eigenvalues not converged
     c_bands:  2 eigenvalues not converged
     ethr =  2.85E-06,  avg # of iterations =  4.4

     total cpu time spent up to now is      928.6 secs

     total energy              =   -3740.14469217 Ry
     Harris-Foulkes estimate   =   -3740.14551963 Ry
     estimated scf accuracy    <       0.00217821 Ry

     iteration #  8     ecut=    40.00 Ry     beta=0.70
     CG style diagonalization
     c_bands:  1 eigenvalues not converged
     c_bands:  1 eigenvalues not converged
     ethr =  8.51E-07,  avg # of iterations =  3.3

     total cpu time spent up to now is      950.3 secs

     total energy              =   -3740.14495192 Ry
     Harris-Foulkes estimate   =   -3740.14505823 Ry
     estimated scf accuracy    <       0.00025534 Ry

     iteration #  9     ecut=    40.00 Ry     beta=0.70
     CG style diagonalization
     ethr =  9.97E-08,  avg # of iterations =  3.8

     total cpu time spent up to now is      975.7 secs

     End of self-consistent calculation

          k = 0.0000 0.0000 0.0000 (  5769 PWs)   bands (ev):

   -84.0743 -84.0261 -84.0261 -84.0148 -84.0148 -83.9742 -83.9052 -83.8744
   -43.4907 -43.4399 -43.2321 -43.2321 -43.2255 -43.2255 -43.2146 -43.1231
   -43.1205 -43.1204 -43.1092 -43.0948 -43.0948 -43.0729 -43.0729 -43.0403
   -43.0403 -43.0103 -42.9969 -42.9964 -42.9512 -42.9512 -42.9156 -42.9155
   -40.5782 -40.5779 -40.5676 -40.5671 -11.6089 -11.5988 -11.5711 -11.5711
   -11.5502 -11.5502 -11.5182 -11.4966 -11.4719 -11.4719 -11.4705 -11.4705
     3.5676   3.7701   4.1615   4.3453   4.3453   4.3867   4.3868   4.7336
     4.7439   4.7439   5.0192   5.0193   5.2783   5.4315   5.4672   5.4673
     5.6110   5.6110   5.8468   6.0131   6.0131   6.0532   6.0532   6.1266
     6.1267   6.1525   6.1966   6.2061   6.2611   6.2611   6.2863   6.2863
     6.3948   6.3948   6.7124   6.7124   6.8190   6.8190   7.0497   7.0574
    11.4202  12.6707  15.1421  17.1610  18.2253  18.5222  18.5223  19.8934
    19.9657  19.9657  20.3535  20.3535  20.5882  20.5883  21.2573  21.2573
    22.2961  22.4048  22.4048  22.8976  23.8474  24.0301  24.0301  24.0750
    24.0750  24.2847  24.2847  24.3216  24.5760  24.5889  24.5889  24.6571
    24.6571  25.1424  26.0854  26.2512  26.2512  26.9086  26.9086  27.4065
    28.2540  28.2540  28.2970  29.7488  29.7488  29.9608  29.9608  30.0410
    30.1742  30.9920  31.3507  31.7213  31.7214  31.8694  31.8694  31.9726
    31.9850  31.9851  33.4596  33.4941  33.7515  33.7686  33.9155  33.9426
    33.9447  34.9775

          k = 0.0000 0.0000 0.1459 (  5780 PWs)   bands (ev):

   -84.0447 -84.0447 -84.0414 -84.0292 -84.0292 -83.9942 -83.8998 -83.8885
   -43.4829 -43.4440 -43.2351 -43.2351 -43.2312 -43.2312 -43.2169 -43.1360
   -43.1231 -43.1231 -43.1082 -43.1081 -43.0817 -43.0605 -43.0605 -43.0511
   -43.0511 -43.0173 -43.0080 -43.0012 -42.9494 -42.9494 -42.9197 -42.9197
   -40.5834 -40.5745 -40.5696 -40.5684 -11.6016 -11.6003 -11.5636 -11.5636
   -11.5596 -11.5596 -11.5263 -11.5011 -11.4739 -11.4739 -11.4725 -11.4725
     3.5882   3.7278   4.2458   4.3492   4.3492   4.3805   4.3805   4.6302
     4.7766   4.7766   4.9685   4.9686   5.3349   5.4281   5.5023   5.5023
     5.5987   5.5987   5.8905   6.0271   6.0271   6.0538   6.0538   6.1102
     6.1380   6.1380   6.1930   6.2004   6.2337   6.2337   6.2967   6.2967
     6.3729   6.3730   6.7260   6.7261   6.8034   6.8034   7.0489   7.0528
    11.5383  12.3686  15.6367  17.0483  18.3035  18.6389  18.6390  19.3369
    19.5202  19.5203  20.4618  20.4618  21.0404  21.0405  21.1344  21.1344
    22.2192  22.2192  22.2354  22.4506  24.0097  24.0097  24.1938  24.1938
    24.2557  24.2557  24.3014  24.4717  24.5093  24.5093  24.9029  24.9029
    24.9340  25.6667  25.9447  25.9447  26.2756  27.0738  27.0739  27.3648
    28.4739  28.4960  28.4960  28.8288  28.8847  28.8847  29.8820  30.6476
    30.8967  30.8967  31.0400  31.0401  31.5538  32.1301  32.1356  32.1356
    32.2763  32.2764  33.1656  33.3113  33.6421  33.8465  34.0886  34.1645
    34.1672  34.3347

          k = 0.0000 0.0000-0.2918 (  5780 PWs)   bands (ev):

   -84.0774 -84.0774 -84.0062 -84.0062 -84.0062 -84.0062 -83.8926 -83.8926
   -43.4563 -43.4563 -43.2262 -43.2262 -43.2262 -43.2262 -43.2197 -43.2197
   -43.1072 -43.1072 -43.1071 -43.1071 -43.0594 -43.0594 -43.0594 -43.0594
   -43.0401 -43.0401 -43.0033 -43.0032 -42.9334 -42.9334 -42.9334 -42.9334
   -40.5794 -40.5792 -40.5681 -40.5679 -11.6018 -11.6016 -11.5599 -11.5599
   -11.5599 -11.5599 -11.5235 -11.5233 -11.4690 -11.4690 -11.4689 -11.4689
     3.6415   3.6415   4.3634   4.3634   4.3634   4.3634   4.4312   4.4312
     4.8673   4.8673   4.8673   4.8673   5.3944   5.3944   5.5636   5.5636
     5.5636   5.5636   6.0002   6.0002   6.0481   6.0481   6.0481   6.0481
     6.1782   6.1782   6.1782   6.1782   6.2062   6.2062   6.3304   6.3305
     6.3305   6.3305   6.7644   6.7644   6.7644   6.7644   7.0528   7.0528
    11.8785  11.8785  16.5148  16.5149  18.6071  18.6071  18.9940  18.9940
    18.9940  18.9941  20.7498  20.7498  20.7498  20.7498  21.7344  21.7344
    21.7344  21.7344  22.1588  22.1589  24.1813  24.1813  24.1814  24.1814
    24.3027  24.3027  24.3028  24.3028  24.4555  24.4556  25.4162  25.4162
    25.4162  25.4162  25.9435  25.9435  27.0026  27.0026  27.6356  27.6356
    27.6356  27.6356  28.2722  28.2722  29.5013  29.5013  29.7825  29.7825
    29.7825  29.7825  31.8696  31.8697  31.8697  31.8697  32.5909  32.5909
    32.7228  32.7228  33.1334  33.1334  33.1335  33.1335  33.6018  33.6018
    34.1517  34.1517

          k = 0.0000 0.3605 0.0000 (  5787 PWs)   bands (ev):

   -84.0873 -84.0564 -84.0436 -84.0247 -84.0025 -83.9920 -83.9090 -83.8883
   -43.4283 -43.4066 -43.2741 -43.2451 -43.2360 -43.2182 -43.2131 -43.1268
   -43.1166 -43.1114 -43.1111 -43.0932 -43.0914 -43.0868 -43.0771 -43.0660
   -43.0618 -43.0321 -43.0253 -42.9967 -42.9621 -42.9502 -42.9363 -42.9128
   -40.5788 -40.5761 -40.5731 -40.5710 -11.6058 -11.6045 -11.5704 -11.5609
   -11.5584 -11.5541 -11.5241 -11.4954 -11.4928 -11.4797 -11.4759 -11.4613
     3.9529   4.1139   4.3516   4.4915   4.5377   4.6002   4.7826   4.8131
     4.8315   4.9709   5.0796   5.1052   5.2424   5.3465   5.5477   5.5574
     5.6225   5.7162   5.7424   5.7575   5.8275   5.8469   5.8503   5.8787
     6.0407   6.0460   6.0627   6.1607   6.2279   6.2326   6.2386   6.2904
     6.3157   6.3626   6.4479   6.5006   6.5269   6.6530   6.7263   6.8841
    12.0528  13.2275  14.7420  15.5529  15.6478  18.1063  18.7664  19.7717
    19.9064  20.0308  20.5422  21.1902  21.8242  21.8288  22.1356  22.1631
    22.3424  22.5098  22.6341  23.0266  23.2124  23.2586  23.8135  23.8508
    24.0431  24.1744  24.1974  24.2995  24.3329  24.3359  24.8447  25.1537
    25.2320  25.2522  26.1673  26.2361  26.3605  26.9360  27.4827  28.3868
    28.4825  28.9085  29.1554  29.1891  29.6040  30.2080  30.2205  30.4152
    31.1254  31.2556  31.4298  31.4701  31.6203  31.8146  32.1097  32.2456
    32.4402  32.4795  33.0875  33.1007  33.8410  33.8505  34.0678  34.2149
    34.3933  34.5131

          k = 0.0000 0.3605 0.1459 (  5804 PWs)   bands (ev):

   -84.0760 -84.0606 -84.0574 -84.0518 -84.0276 -84.0217 -83.9230 -83.8890
   -43.4299 -43.4142 -43.2682 -43.2555 -43.2203 -43.2184 -43.2139 -43.1496
   -43.1268 -43.1220 -43.1204 -43.1050 -43.1047 -43.0989 -43.0750 -43.0679
   -43.0440 -43.0289 -43.0228 -43.0044 -42.9555 -42.9434 -42.9427 -42.9291
   -40.5810 -40.5778 -40.5762 -40.5736 -11.6117 -11.6055 -11.5729 -11.5639
   -11.5614 -11.5561 -11.5255 -11.5104 -11.4907 -11.4810 -11.4730 -11.4628
     3.9691   4.0715   4.4012   4.4956   4.5225   4.6515   4.7781   4.7857
     4.8686   4.8862   4.9833   5.0611   5.3265   5.4138   5.5488   5.5632
     5.6511   5.6664   5.6843   5.7239   5.8297   5.8623   5.9043   5.9286
     6.0093   6.0617   6.1006   6.1557   6.2069   6.2214   6.2301   6.2928
     6.3279   6.3474   6.4613   6.4775   6.5317   6.5892   6.7799   6.8686
    12.1647  12.9544  14.7927  15.2563  16.4116  18.1926  18.6607  19.0676
    19.7510  20.0338  20.7174  21.2237  21.7546  21.7684  21.9418  22.0796
    22.4631  22.5483  22.6703  22.8178  23.5060  23.5162  23.8889  23.9208
    24.0145  24.1859  24.2930  24.3126  24.4618  24.5296  24.9056  25.1240
    25.3228  25.5086  26.0504  26.0737  26.4140  27.0318  27.1674  28.3081
    28.3718  28.6050  29.2693  29.4480  29.8117  29.8764  30.3586  30.3737
    30.4935  30.5014  31.2542  31.4530  31.8045  32.0874  32.1678  32.3343
    32.6155  32.7675  33.1833  33.5393  33.6800  33.6850  34.1330  34.1476
    34.3411  34.6187

          k = 0.0000 0.3605-0.2918 (  5816 PWs)   bands (ev):

   -84.0752 -84.0751 -84.0563 -84.0563 -84.0436 -84.0436 -83.9172 -83.9172
   -43.4275 -43.4275 -43.2675 -43.2674 -43.2211 -43.2211 -43.1924 -43.1924
   -43.1251 -43.1251 -43.1109 -43.1109 -43.1042 -43.1041 -43.0720 -43.0720
   -43.0285 -43.0285 -43.0206 -43.0206 -42.9519 -42.9519 -42.9385 -42.9385
   -40.5800 -40.5800 -40.5780 -40.5780 -11.6072 -11.6070 -11.5675 -11.5675
   -11.5662 -11.5662 -11.5215 -11.5213 -11.4857 -11.4857 -11.4709 -11.4709
     4.0089   4.0089   4.4568   4.4568   4.6224   4.6224   4.7772   4.7772
     4.8415   4.8415   4.9726   4.9726   5.4229   5.4229   5.5808   5.5808
     5.6101   5.6101   5.7024   5.7025   5.8619   5.8619   5.9064   5.9064
     6.0765   6.0765   6.1426   6.1426   6.1875   6.1875   6.2710   6.2710
     6.3134   6.3134   6.5055   6.5055   6.5088   6.5088   6.8324   6.8324
    12.4917  12.4918  14.9911  14.9911  17.6864  17.6864  18.4176  18.4176
    19.8100  19.8100  21.2752  21.2752  21.4271  21.4271  22.1968  22.1969
    22.3062  22.3062  22.7065  22.7065  23.8515  23.8516  23.9196  23.9197
    23.9568  23.9568  24.4137  24.4137  24.7464  24.7465  25.0625  25.0626
    25.4296  25.4296  25.7951  25.7952  27.2870  27.2870  27.6908  27.6908
    27.8769  27.8769  28.9878  28.9878  30.0360  30.0360  30.1704  30.1704
    30.7880  30.7880  31.1870  31.1870  31.8921  31.8921  32.6006  32.6006
    32.7202  32.7203  33.1991  33.1992  33.6820  33.6821  34.0887  34.0888
    34.6172  34.6173

          k =-0.4683-0.2704 0.0000 (  5800 PWs)   bands (ev):

   -84.0795 -84.0696 -84.0684 -84.0358 -84.0186 -84.0068 -83.9089 -83.8913
   -43.4038 -43.3890 -43.2988 -43.2547 -43.2359 -43.2156 -43.2093 -43.1306
   -43.1235 -43.1221 -43.1124 -43.1078 -43.1026 -43.0888 -43.0783 -43.0737
   -43.0637 -43.0384 -43.0331 -42.9942 -42.9642 -42.9551 -42.9380 -42.9130
   -40.5803 -40.5791 -40.5738 -40.5722 -11.6158 -11.6025 -11.5739 -11.5600
   -11.5596 -11.5374 -11.5372 -11.5063 -11.4974 -11.4841 -11.4699 -11.4632
     4.0870   4.2074   4.3997   4.6567   4.6722   4.7623   4.8368   4.8975
     4.9230   5.0192   5.0447   5.1449   5.3183   5.4629   5.4680   5.5060
     5.6379   5.6401   5.6456   5.6995   5.7281   5.7658   5.8795   5.8803
     5.9087   5.9145   5.9910   6.1030   6.1573   6.1900   6.2159   6.2519
     6.2520   6.3400   6.3689   6.3693   6.5222   6.5675   6.7379   6.8773
    12.4728  13.4699  14.3250  14.6129  15.8388  18.0008  18.5903  19.6549
    19.8696  19.9850  20.8946  21.5208  21.8666  21.9753  22.0026  22.3661
    22.6482  22.7380  22.8034  22.8252  22.8458  23.3664  23.5156  23.7501
    23.9344  24.1950  24.2403  24.2501  24.3355  24.4551  24.5077  24.8583
    25.0348  26.1427  26.3569  26.6773  27.4446  27.5313  28.0058  28.2201
    28.4149  28.4352  28.8878  29.2499  29.2958  29.6777  29.8672  30.3321
    30.6643  31.0124  31.5092  31.8728  32.1210  32.1738  32.5044  32.7024
    32.7369  32.8809  32.9307  33.0373  33.6980  33.9881  34.0013  34.1246
    34.7933  35.1288

          k =-0.4683-0.2704 0.1459 (  5822 PWs)   bands (ev):

   -84.0932 -84.0922 -84.0783 -84.0601 -84.0477 -84.0131 -83.9223 -83.9076
   -43.4061 -43.3940 -43.2942 -43.2799 -43.2232 -43.2203 -43.2141 -43.1461
   -43.1343 -43.1271 -43.1169 -43.1131 -43.1101 -43.1070 -43.0806 -43.0748
   -43.0427 -43.0384 -43.0336 -43.0052 -42.9675 -42.9558 -42.9443 -42.9229
   -40.5831 -40.5823 -40.5781 -40.5750 -11.6120 -11.6100 -11.5774 -11.5669
   -11.5606 -11.5562 -11.5300 -11.5148 -11.4955 -11.4913 -11.4721 -11.4629
     4.0969   4.1782   4.4564   4.6536   4.6690   4.7768   4.7948   4.8430
     4.8876   4.9879   5.1597   5.1638   5.2828   5.4171   5.4851   5.5298
     5.6056   5.6191   5.6245   5.7087   5.7340   5.7573   5.8170   5.8570
     5.9579   5.9734   6.0530   6.0970   6.1356   6.2048   6.2360   6.2490
     6.2726   6.3506   6.3591   6.3632   6.4905   6.5050   6.7741   6.8605
    12.5794  13.3045  14.1884  14.5091  16.4953  18.0791  18.5012  19.0859
    19.8503  19.8592  20.6612  21.5280  21.8283  21.8943  22.2852  22.3894
    22.3934  22.6734  22.8299  22.9542  23.2703  23.5238  23.5929  23.6096
    23.9954  24.0579  24.2765  24.4380  24.4711  24.4865  24.5192  25.0177
    25.4881  25.9008  26.3029  26.8369  26.8444  27.3840  28.0836  28.2773
    28.4021  28.4639  28.7864  28.9237  29.0305  29.1563  30.5211  30.5560
    30.5757  31.2923  31.5242  31.7335  31.9852  32.1773  32.3321  32.4662
    32.6370  32.9117  32.9413  33.2763  33.9288  33.9402  33.9695  34.4222
    34.6478  34.9659

          k =-0.4683-0.2704-0.2918 (  5804 PWs)   bands (ev):

   -84.0704 -84.0704 -84.0566 -84.0565 -84.0420 -84.0419 -83.8854 -83.8854
   -43.4028 -43.4028 -43.2864 -43.2864 -43.2187 -43.2187 -43.1844 -43.1844
   -43.1198 -43.1198 -43.1054 -43.1054 -43.1053 -43.1053 -43.0759 -43.0759
   -43.0380 -43.0379 -43.0058 -43.0058 -42.9496 -42.9496 -42.9399 -42.9399
   -40.5783 -40.5781 -40.5760 -40.5758 -11.6065 -11.6063 -11.5703 -11.5703
   -11.5530 -11.5529 -11.5160 -11.5158 -11.4900 -11.4900 -11.4722 -11.4721
     4.1318   4.1318   4.5884   4.5884   4.6749   4.6749   4.8677   4.8677
     4.8847   4.8848   5.2131   5.2132   5.3183   5.3183   5.5291   5.5291
     5.6032   5.6032   5.6280   5.6280   5.7714   5.7714   5.8130   5.8130
     6.0178   6.0178   6.0976   6.0976   6.1461   6.1461   6.2696   6.2696
     6.3259   6.3259   6.4045   6.4045   6.4093   6.4093   6.8243   6.8243
    12.8986  12.8986  14.2955  14.2956  17.7969  17.7970  18.2919  18.2919
    19.6407  19.6407  21.4465  21.4465  21.6541  21.6542  22.2484  22.2485
    22.4612  22.4612  22.8944  22.8944  23.6439  23.6440  23.7447  23.7448
    23.9756  23.9756  24.2403  24.2404  24.4819  24.4820  25.2464  25.2465
    25.8105  25.8106  26.4152  26.4152  27.0480  27.0481  27.8868  27.8869
    28.2472  28.2472  28.8053  28.8054  29.0497  29.0497  30.5466  30.5467
    31.3341  31.3341  31.5027  31.5028  31.9349  31.9350  32.5517  32.5517
    32.6927  32.6927  33.0966  33.0966  34.1110  34.1110  34.1308  34.1308
    34.7408  34.7409

          k =-0.4683 0.0901 0.0000 (  5827 PWs)   bands (ev):

   -84.1082 -84.0889 -84.0734 -84.0656 -84.0413 -84.0078 -83.9423 -83.9107
   -43.4083 -43.4010 -43.3020 -43.2704 -43.2379 -43.2123 -43.2088 -43.1362
   -43.1278 -43.1236 -43.1164 -43.1089 -43.1060 -43.0884 -43.0863 -43.0815
   -43.0687 -43.0444 -43.0394 -43.0055 -42.9671 -42.9573 -42.9443 -42.9307
   -40.5823 -40.5809 -40.5795 -40.5781 -11.6157 -11.6116 -11.5824 -11.5720
   -11.5602 -11.5411 -11.5359 -11.5062 -11.4969 -11.4869 -11.4762 -11.4721
     4.1692   4.2929   4.4378   4.5716   4.5919   4.6102   4.7676   4.8897
     4.9814   5.0132   5.0911   5.1686   5.1758   5.3841   5.5130   5.5521
     5.5756   5.6557   5.6928   5.7219   5.7911   5.8436   5.8508   5.8665
     5.8936   5.9457   6.0210   6.0217   6.1652   6.2182   6.2424   6.2570
     6.3384   6.3462   6.3958   6.4499   6.4985   6.5249   6.6953   6.7575
    12.4160  13.5608  14.2669  14.8075  15.8254  17.5436  17.8749  20.0630
    20.4875  20.8937  20.9062  21.1814  21.6788  22.0281  22.0937  22.3996
    22.4834  22.5190  22.6880  22.8454  23.0650  23.2247  23.6950  23.8994
    23.9618  23.9935  24.1453  24.2085  24.3204  24.4345  24.5700  24.7381
    25.2602  25.7144  25.8819  26.7723  27.1772  27.1903  27.7831  28.2226
    28.4298  28.6943  28.8760  29.4419  29.4989  30.1290  30.2722  30.9707
    31.0597  31.2513  31.4855  31.7844  32.1854  32.2457  32.2970  32.4346
    32.6106  32.7577  32.7582  33.1945  33.2768  33.6735  33.9003  34.0175
    34.1865  34.4873

          k =-0.4683 0.0901 0.1459 (  5825 PWs)   bands (ev):

   -84.0951 -84.0891 -84.0687 -84.0635 -84.0480 -84.0223 -83.9295 -83.9101
   -43.4057 -43.3987 -43.3015 -43.2805 -43.2259 -43.2121 -43.2066 -43.1514
   -43.1341 -43.1265 -43.1156 -43.1119 -43.1078 -43.1043 -43.0828 -43.0789
   -43.0453 -43.0400 -43.0362 -43.0018 -42.9611 -42.9534 -42.9469 -42.9334
   -40.5824 -40.5813 -40.5788 -40.5774 -11.6126 -11.6095 -11.5798 -11.5744
   -11.5598 -11.5492 -11.5265 -11.5149 -11.4959 -11.4871 -11.4742 -11.4695
     4.1782   4.2571   4.4809   4.5492   4.5909   4.6814   4.7817   4.8622
     4.9108   4.9675   5.0657   5.1328   5.2753   5.4180   5.4971   5.5409
     5.5947   5.6501   5.6783   5.7130   5.7594   5.8214   5.8532   5.8728
     5.9351   5.9721   6.0230   6.0916   6.1609   6.2195   6.2589   6.2753
     6.3350   6.3367   6.3732   6.4302   6.4565   6.5141   6.7143   6.7562
    12.5305  13.3119  14.2907  14.6439  16.5018  17.5301  17.7723  19.3750
    20.2170  20.8105  21.2027  21.2765  21.6511  21.9960  22.2460  22.3649
    22.4024  22.5082  22.8007  22.9301  23.2047  23.3642  23.6063  23.8585
    23.9253  24.0027  24.1700  24.3206  24.3899  24.5298  24.6717  24.8047
    25.4320  25.6547  26.0690  26.3686  26.9518  27.3400  27.5895  28.1170
    28.7108  28.7802  28.9190  29.3808  29.7880  29.9424  30.0251  30.5995
    30.7259  31.1322  31.4305  31.6558  31.9974  32.0554  32.3784  32.4927
    32.6405  32.6884  33.2290  33.4040  33.5719  33.6805  33.9519  34.2337
    34.4480  34.6306

          k =-0.4683 0.0901-0.2918 (  5824 PWs)   bands (ev):

   -84.0771 -84.0771 -84.0629 -84.0629 -84.0493 -84.0493 -83.9209 -83.9209
   -43.4034 -43.4034 -43.2912 -43.2912 -43.2126 -43.2126 -43.1877 -43.1877
   -43.1269 -43.1269 -43.1118 -43.1118 -43.1079 -43.1079 -43.0804 -43.0804
   -43.0436 -43.0436 -43.0163 -43.0163 -42.9529 -42.9529 -42.9441 -42.9441
   -40.5803 -40.5802 -40.5796 -40.5795 -11.6091 -11.6089 -11.5774 -11.5774
   -11.5556 -11.5555 -11.5188 -11.5186 -11.4920 -11.4919 -11.4734 -11.4734
     4.2109   4.2109   4.5202   4.5202   4.6823   4.6823   4.7985   4.7985
     4.8949   4.8949   5.0799   5.0799   5.3865   5.3865   5.5203   5.5203
     5.6121   5.6121   5.6860   5.6860   5.7978   5.7978   5.8462   5.8462
     5.9664   5.9664   6.1144   6.1144   6.1852   6.1852   6.2980   6.2980
     6.3204   6.3204   6.3587   6.3587   6.4736   6.4736   6.7427   6.7427
    12.8559  12.8560  14.4421  14.4421  17.5695  17.5695  17.8633  17.8633
    20.5451  20.5451  21.4219  21.4219  21.7232  21.7232  22.2636  22.2636
    22.4341  22.4342  22.8342  22.8343  23.4854  23.4854  23.7399  23.7399
    24.0255  24.0256  24.0953  24.0954  24.7249  24.7249  24.8911  24.8911
    25.4383  25.4383  26.1352  26.1353  27.2426  27.2427  27.8818  27.8818
    28.5784  28.5784  28.9780  28.9781  29.7240  29.7241  30.3825  30.3826
    30.9155  30.9155  31.3266  31.3267  32.0456  32.0457  32.4643  32.4644
    32.8872  32.8873  33.2694  33.2694  33.5610  33.5611  34.3943  34.3944
    34.7401  34.7406

     the Fermi energy is    28.0513 ev

!    total energy              =   -3740.14500920 Ry
     Harris-Foulkes estimate   =   -3740.14503430 Ry
     estimated scf accuracy    <       0.00003038 Ry

     The total energy is the sum of the following terms:

     one-electron contribution =   -1097.25429436 Ry
     hartree contribution      =     693.63218228 Ry
     xc contribution           =    -320.81767938 Ry
     ewald contribution        =   -3015.30919514 Ry
     smearing contrib. (-TS)   =      -0.39602260 Ry

     convergence has been achieved in   9 iterations

     Forces acting on atoms (Ry/au):

     atom    1 type  1   force =     0.00000000    0.00000000    0.03086402
     atom    2 type  1   force =     0.00000000    0.00000000    0.03086402
     atom    3 type  1   force =     0.00000000    0.00000000   -0.03086402
     atom    4 type  1   force =     0.00000000    0.00000000   -0.03086402
     atom    5 type  2   force =     0.00000000    0.00000000    0.00000000
     atom    6 type  2   force =     0.00000000    0.00000000    0.00000000
     atom    7 type  2   force =     0.00000000   -0.02620635    0.00000000
     atom    8 type  2   force =     0.02269536   -0.01310317    0.00000000
     atom    9 type  2   force =    -0.02269536   -0.01310317    0.00000000
     atom   10 type  2   force =     0.02269536    0.01310317    0.00000000
     atom   11 type  2   force =    -0.02269536    0.01310317    0.00000000
     atom   12 type  2   force =     0.00000000    0.02620635    0.00000000

     Total force =     0.089056     Total SCF correction =     0.000000


     entering subroutine stress ...

          total   stress  (Ry/bohr**3)                   (kbar)     P= -347.96
  -0.00217945   0.00000000   0.00000000       -320.61      0.00      0.00
   0.00000000  -0.00217945   0.00000000          0.00   -320.61      0.00
   0.00000000   0.00000000  -0.00273735          0.00      0.00   -402.68


     number of scf cycles    =   2
     number of bfgs steps    =   1

     enthalpy old            =   -3739.5016760450 Ry
     enthalpy new            =   -3740.1450092003 Ry

     CASE: enthalpy_new < enthalpy_old

     small trust_radius: resetting bfgs history

     new trust radius        =       0.5564795141 bohr
     new conv_thr            =       0.0000308640 Ry

     new unit-cell volume =   1376.72155 a.u.^3 (   204.00908 Ang^3 )

CELL_PARAMETERS (alat=  9.92348860)
   1.009586412   0.000000000   0.000000000
  -0.504793206   0.874327480   0.000000000
   0.000000000   0.000000000   1.596009081

ATOMIC_POSITIONS (crystal)
Mg       0.333333000   0.666667000   0.064429234
Mg       0.666667000   0.333333000   0.564429234
Mg       0.666667000   0.333333000   0.935570766
Mg       0.333333000   0.666667000   0.435570766
Zn       0.000000000   0.000000000   0.000000000
Zn       0.000000000   0.000000000   0.500000000
Zn       0.172494274   0.344988547   0.750000000
Zn       0.827505726   0.172494274   0.250000000
Zn       0.344988547   0.172494274   0.250000000
Zn       0.655011453   0.827505726   0.750000000
Zn       0.172494274   0.827505726   0.750000000
Zn       0.827505726   0.655011453   0.250000000



     Writing output data file Prototype-La-hP12-MgZn2.save
     NEW-OLD atomic charge density approx. for the potential
     NEW k-points:
        k(    1) = (   0.0000000   0.0000000   0.0000000), wk =   0.0833333
        k(    2) = (   0.0000000   0.0000000   0.1566407), wk =   0.1666667
        k(    3) = (   0.0000000   0.0000000  -0.3132814), wk =   0.0833333
        k(    4) = (   0.0000000   0.3812454   0.0000000), wk =   0.1666667
        k(    5) = (   0.0000000   0.3812454   0.1566407), wk =   0.3333333
        k(    6) = (   0.0000000   0.3812454  -0.3132814), wk =   0.1666667
        k(    7) = (  -0.4952523  -0.2859341   0.0000000), wk =   0.0833333
        k(    8) = (  -0.4952523  -0.2859341   0.1566407), wk =   0.1666667
        k(    9) = (  -0.4952523  -0.2859341  -0.3132814), wk =   0.0833333
        k(   10) = (  -0.4952523   0.0953114   0.0000000), wk =   0.1666667
        k(   11) = (  -0.4952523   0.0953114   0.1566407), wk =   0.3333333
        k(   12) = (  -0.4952523   0.0953114  -0.3132814), wk =   0.1666667

     total cpu time spent up to now is      987.5 secs

     Self-consistent Calculation

     iteration #  1     ecut=    40.00 Ry     beta=0.70
     CG style diagonalization
     c_bands:  5 eigenvalues not converged
     c_bands:  1 eigenvalues not converged
     c_bands:  1 eigenvalues not converged
     c_bands:  1 eigenvalues not converged
     ethr =  1.00E-06,  avg # of iterations = 21.2

     total cpu time spent up to now is     1129.2 secs

     total energy              =   -3723.57395214 Ry
     Harris-Foulkes estimate   =   -3756.05230174 Ry
     estimated scf accuracy    <      40.00004536 Ry

     iteration #  2     ecut=    40.00 Ry     beta=0.70
     CG style diagonalization
     ethr =  1.00E-02,  avg # of iterations =  4.4

     total cpu time spent up to now is     1157.3 secs

     total energy              =   -3732.15464644 Ry
     Harris-Foulkes estimate   =   -3747.21408221 Ry
     estimated scf accuracy    <      25.78734219 Ry

     iteration #  3     ecut=    40.00 Ry     beta=0.70
     CG style diagonalization
     ethr =  1.00E-02,  avg # of iterations =  3.6

     total cpu time spent up to now is     1181.4 secs

     total energy              =   -3738.53900219 Ry
     Harris-Foulkes estimate   =   -3740.82544358 Ry
     estimated scf accuracy    <       4.91757933 Ry

     iteration #  4     ecut=    40.00 Ry     beta=0.70
     CG style diagonalization
     ethr =  1.92E-03,  avg # of iterations =  3.6

     total cpu time spent up to now is     1205.7 secs

     total energy              =   -3739.61368284 Ry
     Harris-Foulkes estimate   =   -3739.65440841 Ry
     estimated scf accuracy    <       0.06852756 Ry

     iteration #  5     ecut=    40.00 Ry     beta=0.70
     CG style diagonalization
     c_bands:  1 eigenvalues not converged
     c_bands:  1 eigenvalues not converged
     c_bands:  1 eigenvalues not converged
     ethr =  2.68E-05,  avg # of iterations =  4.6

     total cpu time spent up to now is     1239.2 secs

     total energy              =   -3739.64433646 Ry
     Harris-Foulkes estimate   =   -3739.65696826 Ry
     estimated scf accuracy    <       0.02368743 Ry

     iteration #  6     ecut=    40.00 Ry     beta=0.70
     CG style diagonalization
     ethr =  9.25E-06,  avg # of iterations =  3.6

     total cpu time spent up to now is     1264.3 secs

     total energy              =   -3739.64943898 Ry
     Harris-Foulkes estimate   =   -3739.65114040 Ry
     estimated scf accuracy    <       0.00321759 Ry

     iteration #  7     ecut=    40.00 Ry     beta=0.70
     CG style diagonalization
     ethr =  1.26E-06,  avg # of iterations =  3.7

     total cpu time spent up to now is     1290.9 secs

     total energy              =   -3739.65013431 Ry
     Harris-Foulkes estimate   =   -3739.65022427 Ry
     estimated scf accuracy    <       0.00016537 Ry

     iteration #  8     ecut=    40.00 Ry     beta=0.70
     CG style diagonalization
     ethr =  6.46E-08,  avg # of iterations =  4.2

     total cpu time spent up to now is     1320.9 secs

     End of self-consistent calculation

          k = 0.0000 0.0000 0.0000 (  5769 PWs)   bands (ev):

   -78.5604 -78.5149 -78.5128 -78.5127 -78.5030 -78.5030 -78.4597 -78.4303
   -37.9550 -37.8378 -37.6168 -37.4720 -37.4720 -37.4517 -37.4517 -37.3821
   -37.3567 -37.3566 -37.3048 -37.2488 -37.2488 -37.1634 -37.1634 -37.1599
   -37.1598 -37.1173 -37.1039 -37.1039 -37.0739 -37.0596 -37.0352 -37.0351
   -34.9776 -34.9666 -34.9622 -34.9459  -6.2069  -6.2043  -6.1370  -6.1370
    -6.1107  -6.1106  -6.0161  -5.9977  -5.9795  -5.9795  -5.9654  -5.9654
     8.1289   8.5420   8.9134   9.4146   9.4146   9.5310   9.5311   9.7761
     9.7761   9.9201  10.1456  10.1457  10.7238  10.9505  11.0093  11.0093
    11.1251  11.1251  11.5305  11.7512  11.7512  11.9152  11.9152  12.0382
    12.0681  12.0681  12.1638  12.1821  12.2396  12.2396  12.2872  12.2873
    12.3908  12.3908  12.9897  12.9897  13.1497  13.1497  13.4767  13.4797
    15.7719  17.4788  19.9605  22.5251  23.3952  23.9191  23.9192  25.0056
    25.1586  25.1586  25.3787  25.3788  25.7425  25.7426  26.4177  26.4178
    27.4425  27.4425  27.9406  28.1313  29.5167  29.7040  29.7040  29.8869
    29.8869  30.2381  30.2381  30.4273  30.4273  30.8219  30.9138  30.9139
    30.9438  31.4781  32.5026  32.5688  32.5688  33.3584  33.3584  33.7340
    34.2036  34.9979  34.9980  36.2238  36.3245  36.3245  36.6123  36.6292
    36.6292  36.9434  37.5533  37.8244  37.8245  37.8601  38.0210  38.0210
    38.1579  38.1579  38.9093  39.0530  39.3230  39.3230  39.6981  40.0002
    40.6151  40.7204

          k = 0.0000 0.0000 0.1566 (  5780 PWs)   bands (ev):

   -78.5451 -78.5208 -78.5208 -78.5184 -78.5120 -78.5120 -78.4548 -78.4477
   -37.9417 -37.8567 -37.5977 -37.4745 -37.4745 -37.4592 -37.4592 -37.4235
   -37.3484 -37.3484 -37.2799 -37.2798 -37.2549 -37.1594 -37.1594 -37.1492
   -37.1492 -37.1276 -37.0995 -37.0995 -37.0799 -37.0714 -37.0458 -37.0457
   -34.9769 -34.9720 -34.9558 -34.9491  -6.2046  -6.2019  -6.1304  -6.1304
    -6.1181  -6.1181  -6.0201  -6.0020  -5.9789  -5.9789  -5.9688  -5.9688
     8.1642   8.4249   9.0895   9.4255   9.4255   9.5031   9.5031   9.7417
     9.8336   9.8336  10.0870  10.0870  10.8217  10.9480  11.0324  11.0324
    11.1107  11.1107  11.6012  11.8040  11.8040  11.9174  11.9174  11.9684
    12.0679  12.0679  12.1652  12.1780  12.1933  12.1933  12.3033  12.3033
    12.3761  12.3761  13.0094  13.0095  13.1246  13.1246  13.4766  13.4781
    15.9181  17.0253  20.6372  22.4212  23.5084  24.0387  24.0387  24.5094
    24.9117  24.9118  25.3061  25.3061  25.9929  25.9929  26.4439  26.4439
    27.2777  27.2777  27.6542  27.6599  29.6818  29.6818  29.8488  29.8488
    29.9922  30.3294  30.3294  30.6325  30.7887  30.7887  30.8457  30.8457
    31.3467  32.1753  32.1753  32.3129  32.7083  33.5736  33.5736  33.6833
    34.3297  35.3083  35.3083  35.4308  35.4308  35.5833  36.7072  36.9642
    37.3968  37.3969  37.5072  37.5072  37.5849  37.7580  38.0767  38.0767
    38.2784  38.2784  38.6433  38.7664  39.3440  39.5252  39.5252  39.8489
    39.9801  40.9306

          k = 0.0000 0.0000-0.3133 (  5780 PWs)   bands (ev):

   -78.5600 -78.5600 -78.4965 -78.4965 -78.4965 -78.4965 -78.4565 -78.4565
   -37.8970 -37.8970 -37.5443 -37.5443 -37.4608 -37.4608 -37.4608 -37.4608
   -37.3067 -37.3067 -37.3066 -37.3066 -37.1939 -37.1938 -37.1534 -37.1534
   -37.1534 -37.1534 -37.0737 -37.0737 -37.0737 -37.0737 -37.0660 -37.0660
   -34.9755 -34.9754 -34.9510 -34.9509  -6.2033  -6.2031  -6.1240  -6.1240
    -6.1239  -6.1239  -6.0170  -6.0168  -5.9703  -5.9703  -5.9703  -5.9703
     8.2655   8.2655   9.4096   9.4096   9.4578   9.4579   9.4579   9.4579
     9.9592   9.9592   9.9593   9.9593  10.9182  10.9182  11.0761  11.0761
    11.0761  11.0761  11.7880  11.7880  11.8942  11.8942  11.8942  11.8942
    12.1016  12.1016  12.1016  12.1016  12.1745  12.1745  12.3403  12.3403
    12.3404  12.3404  13.0651  13.0651  13.0651  13.0651  13.4779  13.4779
    16.3554  16.3554  21.7756  21.7756  23.8284  23.8284  24.3890  24.3890
    24.3891  24.3891  25.6797  25.6797  25.6797  25.6798  26.8743  26.8743
    26.8743  26.8743  27.3599  27.3600  29.7683  29.7683  29.7684  29.7684
    30.3761  30.3762  30.6032  30.6032  30.6032  30.6032  31.4522  31.4522
    31.4523  31.4523  32.3256  32.3256  33.4490  33.4490  34.2619  34.2619
    34.2619  34.2619  35.0175  35.0175  36.0465  36.0466  36.4119  36.4119
    36.4119  36.4120  37.8575  37.8577  37.8577  37.8577  38.2722  38.2722
    38.3613  38.3613  39.1329  39.1329  39.4754  39.4755  39.4756  39.4757
    39.9855  39.9856

          k = 0.0000 0.3812 0.0000 (  5787 PWs)   bands (ev):

   -78.5686 -78.5390 -78.5182 -78.5156 -78.4978 -78.4950 -78.4642 -78.4582
   -37.8401 -37.7558 -37.6334 -37.5589 -37.4825 -37.4303 -37.4052 -37.3656
   -37.3506 -37.3372 -37.2793 -37.2564 -37.2433 -37.2337 -37.2053 -37.2053
   -37.1718 -37.1452 -37.1233 -37.1126 -37.1047 -37.0984 -37.0612 -37.0300
   -34.9758 -34.9643 -34.9610 -34.9528  -6.2133  -6.2109  -6.1426  -6.1200
    -6.1083  -6.1033  -6.0404  -6.0067  -5.9901  -5.9779  -5.9640  -5.9530
     8.6981   9.0858   9.1664   9.5912   9.6025   9.7386   9.8639   9.9714
    10.1338  10.1847  10.3897  10.4074  10.6544  10.8118  11.0767  11.1354
    11.1647  11.3447  11.3928  11.4223  11.5062  11.5307  11.5700  11.6246
    11.8147  11.8944  11.9343  12.1037  12.1917  12.1941  12.1972  12.2904
    12.3124  12.4218  12.4898  12.6190  12.6618  12.7856  13.0322  13.2340
    16.5520  18.0576  19.6764  20.7090  20.7440  23.5786  24.2088  24.8344
    25.0135  25.2642  25.7840  26.1908  26.8362  27.0308  27.2177  27.4096
    27.4744  27.7493  28.2544  28.3596  28.5754  28.6839  29.2893  29.7322
    29.7466  29.7966  29.9660  29.9750  30.1807  30.5614  30.8924  31.3195
    31.3474  31.6566  32.6009  32.8986  33.0048  33.4968  34.1123  34.9107
    35.1578  35.4054  36.0466  36.1258  36.1321  36.7348  36.9034  37.0135
    37.6599  37.7020  37.8505  38.0751  38.1284  38.2815  38.4139  38.6081
    38.9564  39.0032  39.2468  39.4579  39.5187  39.6761  40.1770  40.3600
    40.7998  40.9614

          k = 0.0000 0.3812 0.1566 (  5804 PWs)   bands (ev):

   -78.5630 -78.5494 -78.5293 -78.5230 -78.5108 -78.5083 -78.4739 -78.4554
   -37.8377 -37.7810 -37.6121 -37.5616 -37.4756 -37.4252 -37.4149 -37.3864
   -37.3596 -37.3467 -37.3036 -37.2756 -37.2504 -37.2390 -37.1932 -37.1869
   -37.1779 -37.1263 -37.1220 -37.1107 -37.1004 -37.0958 -37.0741 -37.0532
   -34.9753 -34.9676 -34.9602 -34.9538  -6.2157  -6.2099  -6.1424  -6.1246
    -6.1120  -6.1072  -6.0366  -6.0158  -5.9877  -5.9733  -5.9686  -5.9556
     8.7260   8.9390   9.3414   9.5599   9.6326   9.8060   9.8790   9.9549
    10.0120  10.2047  10.2121  10.3683  10.7878  10.8730  11.0953  11.1288
    11.2159  11.2624  11.3001  11.3626  11.5213  11.6236  11.6395  11.6846
    11.8344  11.8579  12.0048  12.0918  12.1430  12.1826  12.1881  12.2988
    12.3286  12.3820  12.5227  12.5907  12.6771  12.7124  13.0827  13.2122
    16.6854  17.6828  19.7579  20.4191  21.5809  23.6786  24.1363  24.3916
    24.7922  25.2316  25.9588  26.1919  26.8301  27.0188  27.0655  27.0809
    27.5219  27.6247  27.9627  28.2424  28.9553  28.9681  29.3877  29.5929
    29.6272  29.9250  29.9594  30.2941  30.3910  30.5832  30.9618  31.3078
    31.6596  32.0215  32.5525  32.6306  33.0882  33.6488  33.8138  34.7600
    35.2459  35.2590  35.7697  36.1088  36.5048  36.7139  36.8942  37.0033
    37.1334  37.3574  37.7036  37.9745  38.1838  38.1968  38.3521  38.7387
    38.8162  39.3543  39.3897  39.4399  39.9303  39.9527  40.0947  40.1245
    40.4040  40.9736

          k = 0.0000 0.3812-0.3133 (  5816 PWs)   bands (ev):

   -78.5573 -78.5573 -78.5291 -78.5291 -78.5228 -78.5227 -78.4713 -78.4713
   -37.8190 -37.8190 -37.5837 -37.5837 -37.4454 -37.4454 -37.4255 -37.4255
   -37.3397 -37.3397 -37.3121 -37.3121 -37.2433 -37.2433 -37.1847 -37.1846
   -37.1510 -37.1510 -37.1069 -37.1069 -37.0975 -37.0975 -37.0757 -37.0757
   -34.9728 -34.9726 -34.9572 -34.9570  -6.2112  -6.2110  -6.1333  -6.1332
    -6.1167  -6.1166  -6.0268  -6.0267  -5.9783  -5.9782  -5.9661  -5.9660
     8.8068   8.8068   9.4968   9.4968   9.7669   9.7669   9.9169   9.9169
     9.9778   9.9779  10.2846  10.2846  10.8958  10.8958  11.1538  11.1538
    11.1660  11.1660  11.3318  11.3318  11.5647  11.5647  11.6815  11.6815
    11.9520  11.9520  12.0277  12.0277  12.1290  12.1290  12.2433  12.2434
    12.3271  12.3271  12.5986  12.5986  12.6402  12.6402  13.1563  13.1563
    17.0859  17.0859  20.0588  20.0589  22.9970  22.9971  23.9188  23.9188
    24.9411  24.9411  26.4090  26.4091  26.5140  26.5140  27.2773  27.2774
    27.3298  27.3299  27.9608  27.9609  29.3429  29.3429  29.4514  29.4515
    29.6254  29.6255  30.1801  30.1802  30.7113  30.7113  31.3502  31.3502
    31.9197  31.9197  32.2752  32.2752  33.9319  33.9319  34.4798  34.4798
    34.6251  34.6251  35.5934  35.5934  36.5027  36.5027  36.8176  36.8176
    37.4584  37.4585  37.7037  37.7038  38.1923  38.1923  38.8674  38.8674
    39.1123  39.1124  39.5269  39.5269  39.7945  39.7945  39.9126  39.9127
    40.7519  40.7519

          k =-0.4953-0.2859 0.0000 (  5800 PWs)   bands (ev):

   -78.5589 -78.5537 -78.5376 -78.5189 -78.5043 -78.5013 -78.4633 -78.4601
   -37.7892 -37.7161 -37.6341 -37.6202 -37.4910 -37.4143 -37.3892 -37.3715
   -37.3491 -37.3309 -37.2949 -37.2554 -37.2547 -37.2501 -37.2376 -37.2156
   -37.1878 -37.1419 -37.1278 -37.1157 -37.1054 -37.1050 -37.0683 -37.0321
   -34.9712 -34.9675 -34.9619 -34.9544  -6.2215  -6.2096  -6.1469  -6.1227
    -6.1038  -6.0864  -6.0542  -6.0200  -5.9882  -5.9678  -5.9666  -5.9567
     8.9190   9.2445   9.2459   9.6428   9.7897   9.8945  10.0389  10.0712
    10.1450  10.3653  10.3730  10.7520  10.8766  10.9078  10.9714  11.0190
    11.1453  11.1551  11.2998  11.3023  11.4219  11.4331  11.5398  11.6089
    11.6664  11.6942  11.7250  12.0184  12.0988  12.1115  12.1588  12.2166
    12.2229  12.3241  12.3965  12.4346  12.6357  12.6452  13.0512  13.2265
    17.0635  18.2852  19.0264  19.8538  21.0438  23.5136  24.0522  24.8606
    24.8999  25.1636  26.1771  26.6497  26.9040  27.2527  27.3863  27.5225
    27.7239  27.9190  28.0982  28.1443  28.1508  28.7352  28.9841  29.3692
    29.7505  29.8747  29.8960  29.9213  30.0083  30.6601  30.7842  30.7982
    31.1781  32.2729  32.8321  33.2388  33.8838  34.3514  34.7733  34.8809
    35.2703  35.3966  35.8475  36.2302  36.3020  36.3542  36.5994  36.8978
    37.0950  37.7573  37.8150  37.9708  38.2809  38.6376  38.8391  38.8796
    39.1788  39.2273  39.3863  39.7877  39.9790  40.5166  40.6264  40.7795
    40.9745  41.2974

          k =-0.4953-0.2859 0.1566 (  5822 PWs)   bands (ev):

   -78.5664 -78.5633 -78.5490 -78.5236 -78.5214 -78.5058 -78.4837 -78.4656
   -37.7857 -37.7352 -37.6349 -37.6187 -37.4850 -37.4135 -37.4050 -37.3740
   -37.3679 -37.3392 -37.3141 -37.2825 -37.2622 -37.2547 -37.2118 -37.1983
   -37.1897 -37.1367 -37.1218 -37.1216 -37.1190 -37.1028 -37.0778 -37.0504
   -34.9732 -34.9690 -34.9602 -34.9575  -6.2174  -6.2132  -6.1473  -6.1296
    -6.1076  -6.1015  -6.0457  -6.0224  -5.9883  -5.9737  -5.9710  -5.9539
     8.9398   9.1061   9.4248   9.6695   9.7728   9.9018   9.9152  10.0184
    10.1632  10.3216  10.5147  10.7680  10.8336  10.8672  11.0336  11.0352
    11.0793  11.1203  11.2423  11.2993  11.3795  11.4759  11.5275  11.5685
    11.7233  11.7419  11.8590  12.0124  12.0549  12.1325  12.2014  12.2122
    12.2574  12.3497  12.3930  12.4135  12.5610  12.5951  13.0856  13.2040
    17.1775  18.0507  18.9830  19.6779  21.7645  23.6075  23.9996  24.2554
    25.0127  25.2303  25.8434  26.5985  26.8635  27.0674  27.4251  27.4662
    27.5169  27.7506  28.0400  28.4100  28.6435  28.9363  29.1244  29.1456
    29.6146  29.7027  29.9263  30.2117  30.2175  30.3464  30.6324  31.3473
    32.0494  32.2766  32.5596  33.3922  33.4797  34.0591  34.9175  35.0519
    35.2120  35.2165  35.4722  35.8392  35.8534  35.9740  37.0759  37.0903
    37.5030  37.8035  37.9524  38.1738  38.2009  38.3413  38.5801  38.6627
    39.1622  39.5134  39.6055  39.8500  39.9743  40.1186  40.3863  40.6929
    41.1524  41.4974

          k =-0.4953-0.2859-0.3133 (  5804 PWs)   bands (ev):

   -78.5528 -78.5528 -78.5300 -78.5300 -78.5179 -78.5178 -78.4596 -78.4596
   -37.7669 -37.7669 -37.6217 -37.6217 -37.4343 -37.4343 -37.4141 -37.4141
   -37.3316 -37.3316 -37.3015 -37.3015 -37.2547 -37.2546 -37.2023 -37.2023
   -37.1399 -37.1398 -37.1171 -37.1170 -37.0971 -37.0971 -37.0777 -37.0777
   -34.9703 -34.9701 -34.9582 -34.9580  -6.2125  -6.2123  -6.1374  -6.1374
    -6.1052  -6.1051  -6.0262  -6.0260  -5.9789  -5.9788  -5.9654  -5.9654
     9.0049   9.0050   9.6461   9.6461   9.7323   9.7323   9.9677   9.9677
    10.2261  10.2261  10.7031  10.7031  10.8174  10.8174  11.0657  11.0657
    11.1179  11.1179  11.1495  11.1495  11.4835  11.4835  11.5116  11.5116
    11.7945  11.7945  12.0073  12.0073  12.0362  12.0362  12.2422  12.2422
    12.3459  12.3459  12.4276  12.4276  12.4686  12.4686  13.1497  13.1497
    17.5368  17.5368  19.2849  19.2849  23.1774  23.1774  23.8280  23.8280
    24.7465  24.7465  26.6563  26.6564  26.7673  26.7673  27.3115  27.3116
    27.4790  27.4791  28.1967  28.1968  29.1051  29.1052  29.2918  29.2919
    29.5615  29.5615  29.8966  29.8966  30.2190  30.2190  31.5444  31.5445
    32.3205  32.3205  32.9128  32.9128  33.7047  33.7047  34.6207  34.6207
    35.1571  35.1571  35.6007  35.6007  35.8098  35.8099  37.0917  37.0917
    37.6174  37.6174  38.0102  38.0102  38.2316  38.2316  39.1460  39.1462
    39.1714  39.1715  39.7394  39.7394  40.0247  40.0249  40.3466  40.3466
    41.1317  41.1317

          k =-0.4953 0.0953 0.0000 (  5827 PWs)   bands (ev):

   -78.5761 -78.5542 -78.5501 -78.5338 -78.5235 -78.5035 -78.4844 -78.4692
   -37.7903 -37.7292 -37.6357 -37.6204 -37.5179 -37.4002 -37.3910 -37.3746
   -37.3621 -37.3361 -37.2873 -37.2660 -37.2596 -37.2493 -37.2410 -37.2042
   -37.1879 -37.1488 -37.1367 -37.1252 -37.1218 -37.1163 -37.0707 -37.0498
   -34.9741 -34.9681 -34.9617 -34.9569  -6.2195  -6.2158  -6.1565  -6.1332
    -6.0994  -6.0825  -6.0569  -6.0254  -5.9870  -5.9740  -5.9707  -5.9553
     9.0192   9.2844   9.3818   9.5969   9.6994   9.7960   9.8132  10.0684
    10.2154  10.3147  10.5471  10.5674  10.6565  10.8612  11.0136  11.0574
    11.1047  11.2114  11.3151  11.4084  11.4645  11.5251  11.5656  11.6054
    11.6334  11.7556  11.7956  11.8633  12.0918  12.1668  12.2092  12.2539
    12.2999  12.3926  12.4323  12.4992  12.5868  12.6768  12.9736  13.0437
    16.9932  18.3898  19.1655  19.9284  21.0246  22.8094  23.1296  25.1214
    25.8730  26.2015  26.2087  26.3251  26.8291  27.2434  27.3542  27.5013
    27.5357  27.7587  28.0279  28.1787  28.4134  28.5345  29.2394  29.4002
    29.6030  29.8740  29.8905  29.9909  30.1562  30.3955  30.5802  30.9198
    31.4399  32.1644  32.3123  33.3182  33.7457  33.7563  34.5515  35.0716
    35.4039  35.4950  35.6680  36.1356  36.2000  36.7571  36.9001  37.5819
    37.6492  37.8225  37.9985  38.1387  38.5507  38.6825  38.7882  38.8907
    38.9069  38.9967  39.4520  39.4544  39.7168  39.9125  40.1550  40.4465
    40.5757  41.0524

          k =-0.4953 0.0953 0.1566 (  5825 PWs)   bands (ev):

   -78.5702 -78.5650 -78.5377 -78.5296 -78.5235 -78.5080 -78.4802 -78.4728
   -37.7830 -37.7386 -37.6364 -37.6233 -37.4962 -37.4046 -37.3949 -37.3809
   -37.3652 -37.3443 -37.3052 -37.2820 -37.2610 -37.2551 -37.2105 -37.1994
   -37.1790 -37.1362 -37.1277 -37.1226 -37.1164 -37.1118 -37.0783 -37.0595
   -34.9737 -34.9686 -34.9603 -34.9579  -6.2174  -6.2138  -6.1521  -6.1374
    -6.1025  -6.0928  -6.0442  -6.0260  -5.9883  -5.9733  -5.9699  -5.9563
     9.0386   9.1918   9.4964   9.5921   9.6963   9.8422   9.8699  10.0010
    10.1500  10.1851  10.5693  10.6263  10.6684  10.8629  11.0071  11.0230
    11.1562  11.2435  11.2886  11.3088  11.4391  11.5264  11.5860  11.6214
    11.7032  11.7790  11.8352  11.9400  12.0813  12.1655  12.2315  12.2712
    12.3146  12.3628  12.4040  12.4593  12.5551  12.6466  12.9926  13.0433
    17.1173  18.0528  19.2357  19.7850  21.7647  22.7365  22.9962  24.8605
    25.3859  26.0475  26.3457  26.5189  26.8456  27.1412  27.3789  27.4953
    27.5193  27.6143  27.9837  28.3711  28.6239  28.7990  29.0853  29.3793
    29.5728  29.6178  29.8313  30.1309  30.2691  30.5460  30.7910  30.9005
    31.8223  32.1125  32.5923  32.9325  33.6585  33.9629  34.3040  34.9116
    35.4042  35.5697  35.7130  36.1331  36.4436  36.5858  36.7410  37.2510
    37.3471  37.7494  37.8770  38.0856  38.2463  38.6194  38.7254  38.7891
    39.0200  39.0678  39.5807  39.7663  39.8736  40.0266  40.2510  40.5824
    40.8066  41.2752

          k =-0.4953 0.0953-0.3133 (  5824 PWs)   bands (ev):

   -78.5618 -78.5617 -78.5308 -78.5308 -78.5225 -78.5225 -78.4769 -78.4769
   -37.7646 -37.7646 -37.6256 -37.6256 -37.4446 -37.4446 -37.4030 -37.4029
   -37.3363 -37.3363 -37.3149 -37.3149 -37.2557 -37.2557 -37.1988 -37.1987
   -37.1488 -37.1488 -37.1284 -37.1284 -37.0997 -37.0997 -37.0836 -37.0836
   -34.9716 -34.9714 -34.9589 -34.9586  -6.2132  -6.2130  -6.1452  -6.1452
    -6.1022  -6.1021  -6.0297  -6.0295  -5.9828  -5.9827  -5.9637  -5.9637
     9.0985   9.0985   9.5792   9.5793   9.7956   9.7956   9.9613   9.9613
    10.0531  10.0531  10.5903  10.5903  10.7979  10.7979  11.0131  11.0131
    11.2131  11.2131  11.2651  11.2651  11.4860  11.4860  11.5872  11.5872
    11.7679  11.7679  11.9934  11.9934  12.0988  12.0988  12.2997  12.2997
    12.3150  12.3150  12.3687  12.3687  12.5812  12.5812  13.0264  13.0264
    17.4911  17.4912  19.5058  19.5059  22.7348  22.7348  23.2852  23.2852
    25.7845  25.7845  26.5412  26.5413  26.9763  26.9764  27.3593  27.3593
    27.5363  27.5363  28.1247  28.1247  28.9088  28.9089  29.2661  29.2661
    29.6341  29.6342  29.7285  29.7286  30.5834  30.5834  31.1896  31.1896
[...]
     9.4906   9.4907   9.7384   9.7385  10.4228  10.5483  10.6398  10.6398
    10.7308  10.7308  11.2017  11.4097  11.4097  11.4983  11.4984  11.5608
    11.6440  11.6440  11.7369  11.7488  11.7733  11.7733  11.8746  11.8747
    11.9481  11.9481  12.5575  12.5575  12.6715  12.6716  13.0190  13.0205
    15.5788  16.6615  20.2473  22.0236  23.1195  23.6489  23.6489  24.1092
    24.5284  24.5285  24.9450  24.9450  25.6187  25.6188  26.0451  26.0451
    26.9020  26.9020  27.2519  27.2641  29.2631  29.2631  29.4384  29.4384
    29.5737  29.8587  29.8587  30.1655  30.3534  30.3534  30.3676  30.3677
    30.8588  31.7086  31.7086  31.7912  32.2277  33.0921  33.0921  33.2203
    33.8902  34.8016  34.8017  34.9447  34.9447  35.0773  36.1946  36.4621
    36.9313  36.9314  37.0082  37.0082  37.1281  37.3331  37.6388  37.6388
    37.8075  37.8075  38.2242  38.3508  38.8870  39.1123  39.1124  39.3627
    39.4993  39.7357

          k = 0.0000 0.0000-0.3114 (  6020 PWs)   bands (ev):

   -79.0535 -79.0535 -79.0022 -79.0022 -79.0022 -79.0022 -78.9246 -78.9246
   -38.3252 -38.3252 -37.9567 -37.9566 -37.9145 -37.9145 -37.9145 -37.9145
   -37.7482 -37.7482 -37.7481 -37.7481 -37.6271 -37.6271 -37.6227 -37.6227
   -37.6227 -37.6227 -37.5392 -37.5392 -37.5188 -37.5188 -37.5187 -37.5187
   -35.4010 -35.4008 -35.3777 -35.3776  -6.6177  -6.6175  -6.5460  -6.5459
    -6.5459  -6.5459  -6.4388  -6.4386  -6.4091  -6.4091  -6.4091  -6.4091
     7.9360   7.9360   9.0503   9.0503   9.0922   9.0923   9.0923   9.0923
     9.6093   9.6093   9.6094   9.6094  10.5166  10.5166  10.6883  10.6883
    10.6883  10.6883  11.3825  11.3825  11.4820  11.4820  11.4820  11.4820
    11.6803  11.6804  11.6804  11.6804  11.7409  11.7409  11.9110  11.9110
    11.9110  11.9110  12.6115  12.6115  12.6115  12.6115  13.0182  13.0182
    16.0017  16.0017  21.3710  21.3710  23.4276  23.4276  23.9941  23.9942
    23.9942  23.9942  25.3079  25.3079  25.3080  25.3080  26.4894  26.4894
    26.4895  26.4895  26.9702  26.9704  29.3557  29.3557  29.3557  29.3558
    29.9328  29.9329  30.1088  30.1088  30.1089  30.1089  31.0023  31.0023
    31.0023  31.0023  31.8327  31.8327  32.9656  32.9657  33.7672  33.7672
    33.7672  33.7672  34.4867  34.4867  35.5304  35.5304  35.9063  35.9063
    35.9063  35.9063  37.4054  37.4055  37.4055  37.4056  37.8337  37.8339
    37.9213  37.9214  38.6774  38.6777  38.9792  38.9793  38.9793  38.9796
    39.4990  39.7354

          k = 0.0000 0.3800 0.0000 (  5960 PWs)   bands (ev):

   -79.0222 -79.0078 -79.0008 -78.9911 -78.9742 -78.9699 -78.9046 -78.8966
   -38.2582 -38.1995 -38.0251 -37.9902 -37.9209 -37.8627 -37.8546 -37.7952
   -37.7694 -37.7683 -37.7145 -37.6898 -37.6852 -37.6752 -37.6525 -37.6516
   -37.6185 -37.5656 -37.5627 -37.5511 -37.5460 -37.5371 -37.4870 -37.4714
   -35.3955 -35.3876 -35.3869 -35.3757  -6.6253  -6.6175  -6.5569  -6.5413
    -6.5261  -6.5181  -6.4620  -6.4317  -6.4083  -6.4010  -6.3915  -6.3894
     8.3656   8.7256   8.8296   9.2414   9.2497   9.3641   9.5238   9.6165
     9.7766   9.8037  10.0079  10.0324  10.2692  10.4265  10.6918  10.7372
    10.7778  10.9397  10.9935  11.0119  11.1187  11.1221  11.1693  11.2109
    11.4124  11.4771  11.5134  11.6768  11.7644  11.7705  11.7762  11.8625
    11.8918  11.9916  12.0597  12.1830  12.2227  12.3457  12.5784  12.7777
    16.2092  17.6777  19.3022  20.3109  20.3558  23.1684  23.8077  24.4582
    24.6412  24.8602  25.3853  25.8233  26.4698  26.6522  26.8362  27.0146
    27.0998  27.3688  27.8178  27.9625  28.1650  28.2850  28.8839  29.3106
    29.3368  29.3733  29.4956  29.5560  29.7432  30.0773  30.4340  30.8648
    30.8766  31.1720  32.1174  32.4078  32.4969  33.0146  33.6083  34.4315
    34.6729  34.8875  35.5459  35.6044  35.6477  36.2585  36.4143  36.5336
    37.2259  37.2354  37.3780  37.5917  37.6370  37.8181  37.9078  38.1210
    38.3825  38.5084  38.7814  39.0160  39.0652  39.2501  39.7051  39.8468
    40.3020  40.4929

          k = 0.0000 0.3800 0.1557 (  5950 PWs)   bands (ev):

   -79.0077 -79.0060 -78.9932 -78.9920 -78.9781 -78.9663 -78.8987 -78.8934
   -38.2462 -38.2027 -38.0141 -37.9908 -37.9103 -37.8620 -37.8470 -37.8083
   -37.7819 -37.7630 -37.7291 -37.7085 -37.6817 -37.6722 -37.6348 -37.6271
   -37.6200 -37.5560 -37.5512 -37.5488 -37.5453 -37.5293 -37.4952 -37.4811
   -35.3956 -35.3906 -35.3815 -35.3763  -6.6206  -6.6159  -6.5528  -6.5410
    -6.5287  -6.5223  -6.4569  -6.4342  -6.4086  -6.3978  -6.3922  -6.3875
     8.3919   8.5954   8.9906   9.2086   9.2735   9.4376   9.5374   9.6029
     9.6532   9.8321   9.8343   9.9931  10.3997  10.4892  10.7114  10.7318
    10.8241  10.8740  10.9004  10.9575  11.1147  11.2156  11.2270  11.2798
    11.4164  11.4568  11.5833  11.6663  11.7268  11.7577  11.7656  11.8715
    11.9060  11.9537  12.0913  12.1548  12.2388  12.2740  12.6286  12.7577
    16.3407  17.3161  19.3828  20.0235  21.1874  23.2709  23.7304  23.9949
    24.4151  24.8381  25.5660  25.8283  26.4573  26.6328  26.6954  26.6961
    27.1478  27.2481  27.5735  27.8278  28.5529  28.5625  28.9813  29.1739
    29.2145  29.4976  29.5397  29.8447  29.9430  30.1226  30.5059  30.8388
    31.1821  31.5276  32.0585  32.1370  32.5865  33.1486  33.3229  34.2820
    34.7497  34.7523  35.2853  35.6062  36.0220  36.2185  36.3935  36.5205
    36.6429  36.8532  37.2433  37.4840  37.7188  37.7427  37.8937  38.2480
    38.3458  38.8888  38.8918  38.9858  39.4743  39.4923  39.6283  39.6410
    39.9314  40.4215

          k = 0.0000 0.3800-0.3114 (  5948 PWs)   bands (ev):

   -79.0034 -79.0034 -78.9859 -78.9859 -78.9792 -78.9792 -78.8966 -78.8966
   -38.2278 -38.2277 -37.9976 -37.9976 -37.8713 -37.8713 -37.8576 -37.8575
   -37.7587 -37.7587 -37.7362 -37.7362 -37.6735 -37.6735 -37.6259 -37.6259
   -37.5777 -37.5777 -37.5568 -37.5568 -37.5164 -37.5164 -37.4993 -37.4993
   -35.3937 -35.3935 -35.3784 -35.3783  -6.6167  -6.6165  -6.5458  -6.5457
    -6.5286  -6.5286  -6.4439  -6.4437  -6.3991  -6.3990  -6.3945  -6.3944
     8.4694   8.4694   9.1428   9.1428   9.4036   9.4036   9.5701   9.5701
     9.6178   9.6178   9.9068   9.9068  10.5104  10.5104  10.7693  10.7693
    10.7704  10.7704  10.9305  10.9305  11.1572  11.1572  11.2710  11.2710
    11.5341  11.5341  11.6183  11.6184  11.7036  11.7036  11.8216  11.8216
    11.8991  11.8991  12.1647  12.1647  12.2031  12.2031  12.7030  12.7031
    16.7350  16.7350  19.6748  19.6749  22.5934  22.5934  23.5116  23.5116
    24.5556  24.5556  26.0421  26.0422  26.1241  26.1241  26.9030  26.9031
    26.9585  26.9585  27.5691  27.5692  28.9362  28.9363  29.0439  29.0440
    29.2036  29.2037  29.7509  29.7510  30.2633  30.2633  30.8782  30.8782
    31.4320  31.4320  31.7874  31.7874  33.4318  33.4318  33.9762  33.9763
    34.1088  34.1088  35.1027  35.1027  36.0246  36.0246  36.3356  36.3356
    36.9753  36.9753  37.2239  37.2240  37.7286  37.7287  38.3855  38.3856
    38.6469  38.6470  39.0559  39.0560  39.3472  39.3474  39.4475  39.4475
    40.2713  40.2717

          k =-0.4937-0.2850 0.0000 (  5964 PWs)   bands (ev):

   -79.0453 -79.0138 -78.9964 -78.9926 -78.9750 -78.9588 -78.9033 -78.8983
   -38.2075 -38.1516 -38.0418 -38.0286 -37.9357 -37.8456 -37.8303 -37.8046
   -37.7699 -37.7633 -37.7201 -37.6971 -37.6843 -37.6835 -37.6669 -37.6562
   -37.6394 -37.5706 -37.5650 -37.5593 -37.5495 -37.5472 -37.4989 -37.4615
   -35.3969 -35.3871 -35.3837 -35.3789  -6.6290  -6.6208  -6.5559  -6.5420
    -6.5195  -6.5146  -6.4724  -6.4398  -6.4090  -6.4014  -6.3896  -6.3811
     8.5794   8.8812   8.9075   9.3030   9.4348   9.5546   9.6901   9.7096
     9.7599   9.9822   9.9970  10.3528  10.4890  10.5299  10.5748  10.6201
    10.7625  10.7752  10.8904  10.9017  11.0126  11.0262  11.1295  11.1927
    11.2512  11.2812  11.3305  11.5986  11.6734  11.6959  11.7338  11.7962
    11.8056  11.8970  11.9688  12.0039  12.2030  12.2125  12.5953  12.7716
    16.7092  17.9156  18.6605  19.4504  20.6502  23.1035  23.6500  24.4722
    24.5229  24.7777  25.7772  26.2744  26.5415  26.8466  27.0103  27.1291
    27.3442  27.5392  27.7078  27.7189  27.7590  28.3364  28.5813  28.9477
    29.3445  29.4313  29.4729  29.4987  29.5880  30.1655  30.2998  30.3495
    30.7100  31.7985  32.3516  32.7475  33.4107  33.8507  34.2914  34.3989
    34.7609  34.8635  35.3425  35.7099  35.7915  35.8209  36.1047  36.4139
    36.6260  37.3104  37.3328  37.4956  37.8211  38.1824  38.2967  38.3951
    38.7146  38.7367  38.8953  39.2833  39.5347  40.0136  40.1274  40.3330
    40.4448  40.9014

          k =-0.4937-0.2850 0.1557 (  5958 PWs)   bands (ev):

   -79.0158 -79.0131 -78.9947 -78.9818 -78.9817 -78.9786 -78.9026 -78.8960
   -38.1983 -38.1612 -38.0384 -38.0352 -37.9142 -37.8421 -37.8347 -37.8004
   -37.7852 -37.7623 -37.7400 -37.7095 -37.7071 -37.6955 -37.6435 -37.6431
   -37.6173 -37.5631 -37.5556 -37.5522 -37.5505 -37.5183 -37.5005 -37.4818
   -35.3954 -35.3884 -35.3817 -35.3798  -6.6215  -6.6205  -6.5535  -6.5433
    -6.5216  -6.5208  -6.4656  -6.4411  -6.4073  -6.3988  -6.3952  -6.3795
     8.6005   8.7590   9.0707   9.3293   9.4208   9.5393   9.5757   9.6708
     9.7796   9.9434  10.1342  10.3694  10.4532  10.4755  10.6359  10.6455
    10.7020  10.7426  10.8363  10.9034  10.9722  11.0642  11.1168  11.1553
    11.3102  11.3292  11.4564  11.5924  11.6328  11.7188  11.7823  11.7881
    11.8341  11.9242  11.9661  11.9837  12.1295  12.1622  12.6317  12.7505
    16.8275  17.6853  18.6185  19.2873  21.3634  23.1990  23.5950  23.8750
    24.6268  24.8201  25.4539  26.2285  26.5002  26.6840  27.0523  27.0703
    27.1377  27.3746  27.6543  28.0016  28.2442  28.5350  28.7091  28.7387
    29.2017  29.2845  29.5076  29.7815  29.7859  29.9049  30.1655  30.8642
    31.5408  31.7936  32.0925  32.9077  32.9845  33.5722  34.4290  34.5621
    34.7027  34.7102  34.9706  35.3365  35.3590  35.4465  36.6014  36.6097
    36.9933  37.3249  37.5239  37.6854  37.6950  37.8883  38.1249  38.1774
    38.6831  39.0338  39.1138  39.3487  39.5065  39.6395  39.9061  40.2431
    40.6434  40.8815

          k =-0.4937-0.2850-0.3114 (  5924 PWs)   bands (ev):

   -78.9921 -78.9921 -78.9741 -78.9740 -78.9701 -78.9701 -78.8855 -78.8855
   -38.1749 -38.1749 -38.0325 -38.0324 -37.8522 -37.8522 -37.8369 -37.8369
   -37.7594 -37.7594 -37.7302 -37.7302 -37.6979 -37.6978 -37.6348 -37.6348
   -37.5617 -37.5617 -37.5538 -37.5537 -37.5162 -37.5162 -37.4937 -37.4937
   -35.3909 -35.3907 -35.3787 -35.3785  -6.6164  -6.6162  -6.5442  -6.5441
    -6.5222  -6.5221  -6.4479  -6.4477  -6.3961  -6.3960  -6.3880  -6.3880
     8.6623   8.6623   9.2897   9.2897   9.3840   9.3840   9.6252   9.6252
     9.8459   9.8460  10.3230  10.3230  10.4204  10.4204  10.6918  10.6918
    10.7182  10.7182  10.7585  10.7585  11.0740  11.0740  11.0997  11.0997
    11.3812  11.3812  11.5868  11.5868  11.6259  11.6259  11.8210  11.8210
    11.9198  11.9198  11.9999  11.9999  12.0376  12.0376  12.6971  12.6972
    17.1823  17.1824  18.9079  18.9080  22.7707  22.7708  23.4200  23.4200
    24.3642  24.3642  26.2926  26.2927  26.3689  26.3689  26.9362  26.9363
    27.1085  27.1086  27.8033  27.8034  28.6998  28.6999  28.8834  28.8835
    29.1431  29.1431  29.4751  29.4752  29.7918  29.7918  31.0672  31.0673
    31.8320  31.8320  32.4307  32.4307  33.2068  33.2068  34.1139  34.1139
    34.6590  34.6590  35.0897  35.0897  35.3136  35.3136  36.6069  36.6070
    37.1551  37.1551  37.5349  37.5349  37.7866  37.7866  38.6572  38.6572
    38.7024  38.7025  39.2281  39.2282  39.5697  39.5701  39.8835  39.8836
    40.6493  40.6496

          k =-0.4937 0.0950 0.0000 (  5964 PWs)   bands (ev):

   -79.0260 -79.0173 -79.0004 -78.9886 -78.9787 -78.9694 -78.9080 -78.8985
   -38.2061 -38.1523 -38.0445 -38.0295 -37.9413 -37.8454 -37.8283 -37.7948
   -37.7771 -37.7606 -37.7162 -37.7012 -37.6918 -37.6838 -37.6821 -37.6472
   -37.6253 -37.5764 -37.5719 -37.5592 -37.5414 -37.5413 -37.4896 -37.4737
   -35.3950 -35.3892 -35.3837 -35.3787  -6.6258  -6.6225  -6.5720  -6.5473
    -6.5122  -6.4977  -6.4766  -6.4479  -6.4066  -6.3954  -6.3921  -6.3796
     8.6814   8.9473   9.0151   9.2581   9.3389   9.4276   9.4741   9.7112
     9.8562   9.9393  10.1630  10.1777  10.2666  10.4748  10.6291  10.6626
    10.7209  10.8213  10.9126  11.0038  11.0595  11.1292  11.1576  11.1915
    11.2248  11.3408  11.3920  11.4470  11.6698  11.7425  11.7894  11.8268
    11.8770  11.9639  12.0091  12.0696  12.1532  12.2374  12.5200  12.5953
    16.6483  18.0135  18.7973  19.5331  20.6326  22.4141  22.7379  24.7436
    25.4793  25.8084  25.8106  25.9454  26.4578  26.8619  26.9543  27.1242
    27.1562  27.3714  27.6412  27.7649  28.0173  28.1393  28.8262  28.9976
    29.1806  29.4548  29.4690  29.5687  29.6893  29.9594  30.1083  30.4381
    30.9710  31.6811  31.8279  32.8223  33.2664  33.2723  34.0438  34.5732
    34.8746  34.9998  35.1638  35.6223  35.7170  36.2722  36.4029  37.0900
    37.1880  37.3383  37.5141  37.6995  38.0748  38.2154  38.2508  38.4046
    38.4195  38.5235  38.9558  38.9783  39.2689  39.4537  39.6454  39.9575
    40.0952  40.5489

          k =-0.4937 0.0950 0.1557 (  5967 PWs)   bands (ev):

   -79.0225 -79.0139 -78.9999 -78.9922 -78.9827 -78.9781 -78.9059 -78.9024
   -38.2008 -38.1642 -38.0436 -38.0354 -37.9216 -37.8414 -37.8309 -37.8037
   -37.7872 -37.7685 -37.7313 -37.7201 -37.6961 -37.6944 -37.6467 -37.6429
   -37.6072 -37.5762 -37.5698 -37.5483 -37.5471 -37.5329 -37.4995 -37.4841
   -35.3945 -35.3905 -35.3830 -35.3792  -6.6247  -6.6188  -6.5676  -6.5514
    -6.5164  -6.5101  -6.4641  -6.4461  -6.4075  -6.3963  -6.3926  -6.3831
     8.7007   8.8486   9.1376   9.2473   9.3401   9.4799   9.5212   9.6461
     9.7909   9.8105  10.1780  10.2367  10.2838  10.4812  10.6158  10.6407
    10.7679  10.8510  10.8849  10.9155  11.0330  11.1163  11.1738  11.2117
    11.2926  11.3689  11.4220  11.5276  11.6597  11.7468  11.8078  11.8440
    11.8899  11.9364  11.9791  12.0294  12.1209  12.2088  12.5413  12.5936
    16.7692  17.6867  18.8625  19.3914  21.3643  22.3441  22.6061  24.4490
    24.9987  25.6598  25.9730  26.1251  26.4647  26.7623  26.9961  27.1147
    27.1359  27.2332  27.5982  27.9653  28.2221  28.3945  28.6759  28.9726
    29.1541  29.2009  29.4097  29.6984  29.8411  30.0836  30.3347  30.4245
    31.3373  31.6270  32.0927  32.4294  33.1560  33.4772  33.8007  34.4140
    34.9079  35.0722  35.2029  35.6301  35.9601  36.0948  36.2387  36.7610
    36.8521  37.2586  37.3990  37.6317  37.7756  38.1564  38.2401  38.3250
    38.5285  38.6065  39.0993  39.3006  39.3871  39.5574  39.7486  40.0966
    40.3245  40.7757

          k =-0.4937 0.0950-0.3114 (  5964 PWs)   bands (ev):

   -79.0114 -79.0114 -78.9922 -78.9922 -78.9861 -78.9861 -78.9039 -78.9039
   -38.1846 -38.1846 -38.0392 -38.0392 -37.8674 -37.8674 -37.8386 -37.8385
   -37.7620 -37.7620 -37.7384 -37.7384 -37.6920 -37.6920 -37.6440 -37.6439
   -37.5788 -37.5788 -37.5664 -37.5664 -37.5199 -37.5199 -37.5083 -37.5083
   -35.3931 -35.3928 -35.3805 -35.3803  -6.6173  -6.6171  -6.5607  -6.5607
    -6.5187  -6.5187  -6.4495  -6.4493  -6.4036  -6.4035  -6.3880  -6.3880
     8.7578   8.7578   9.2270   9.2270   9.4365   9.4365   9.6107   9.6107
     9.6866   9.6866  10.1982  10.1982  10.4166  10.4166  10.6284  10.6284
    10.8204  10.8204  10.8686  10.8686  11.0772  11.0772  11.1759  11.1759
    11.3551  11.3551  11.5766  11.5766  11.6843  11.6843  11.8743  11.8743
    11.8893  11.8893  11.9411  11.9411  12.1453  12.1453  12.5758  12.5758
    17.1367  17.1367  19.1214  19.1215  22.3470  22.3470  22.8721  22.8722
    25.3966  25.3966  26.1634  26.1634  26.5892  26.5892  26.9829  26.9829
    27.1539  27.1539  27.7296  27.7296  28.5081  28.5082  28.8575  28.8575
    29.2160  29.2161  29.3075  29.3076  30.1456  30.1456  30.7094  30.7094
    31.3648  31.3648  32.2384  32.2384  33.4518  33.4518  34.1910  34.1910
    34.7158  34.7159  35.2844  35.2844  35.8702  35.8702  36.4703  36.4703
    36.9773  36.9773  37.3986  37.3986  37.9113  37.9114  38.2871  38.2873
    38.9436  38.9437  39.0931  39.0932  39.4306  39.4306  40.2572  40.2574
    40.5114  40.5115

     the Fermi energy is    34.2290 ev

!    total energy              =   -3740.04015658 Ry
     Harris-Foulkes estimate   =   -3740.04015948 Ry
     estimated scf accuracy    <       0.00000354 Ry

     The total energy is the sum of the following terms:

     one-electron contribution =    -841.68131561 Ry
     hartree contribution      =     617.22927469 Ry
     xc contribution           =    -324.40205759 Ry
     ewald contribution        =   -3190.80792723 Ry
     smearing contrib. (-TS)   =      -0.37813084 Ry

     convergence has been achieved in  11 iterations

     Forces acting on atoms (Ry/au):

     atom    1 type  1   force =     0.00000000    0.00000000    0.01849608
     atom    2 type  1   force =     0.00000000    0.00000000    0.01849608
     atom    3 type  1   force =     0.00000000    0.00000000   -0.01849608
     atom    4 type  1   force =     0.00000000    0.00000000   -0.01849608
     atom    5 type  2   force =     0.00000000    0.00000000    0.00000000
     atom    6 type  2   force =     0.00000000    0.00000000    0.00000000
     atom    7 type  2   force =     0.00000000    0.06437383    0.00000000
     atom    8 type  2   force =    -0.05574938    0.03218692    0.00000000
     atom    9 type  2   force =     0.05574938    0.03218692    0.00000000
     atom   10 type  2   force =    -0.05574938   -0.03218692    0.00000000
     atom   11 type  2   force =     0.05574938   -0.03218692    0.00000000
     atom   12 type  2   force =     0.00000000   -0.06437383    0.00000000

     Total force =     0.161964     Total SCF correction =     0.000000


     entering subroutine stress ...

          total   stress  (Ry/bohr**3)                   (kbar)     P=  977.87
   0.00677591   0.00000000   0.00000000        996.77      0.00      0.00
   0.00000000   0.00677591   0.00000000          0.00    996.77      0.00
   0.00000000   0.00000000   0.00639041          0.00      0.00    940.06


     Writing output data file Prototype-La-hP12-MgZn2.save
 
     init_run     :      6.97s CPU      9.56s WALL (       2 calls)
     electrons    :   2168.17s CPU   2453.08s WALL (       5 calls)
     update_pot   :      3.09s CPU      3.13s WALL (       3 calls)
     forces       :      7.56s CPU      7.88s WALL (       5 calls)
     stress       :     35.18s CPU     35.77s WALL (       5 calls)

     Called by init_run:
     wfcinit      :      5.88s CPU      7.45s WALL (       2 calls)
     potinit      :      0.49s CPU      0.51s WALL (       2 calls)

     Called by electrons:
     c_bands      :   2131.65s CPU   2384.75s WALL (      44 calls)
     sum_band     :     35.97s CPU     49.01s WALL (      44 calls)
     v_of_rho     :      0.12s CPU      0.15s WALL (      49 calls)
     mix_rho      :      0.12s CPU      0.15s WALL (      44 calls)

     Called by c_bands:
     init_us_2    :      2.19s CPU      2.54s WALL (    1200 calls)
     ccgdiagg     :   1995.47s CPU   2214.18s WALL (     612 calls)
     wfcrot       :    139.53s CPU    173.60s WALL (     624 calls)

     Called by *cgdiagg:
     h_psi        :   1323.40s CPU   1567.84s WALL (  505758 calls)
     cdiaghg      :      8.02s CPU      8.83s WALL (     624 calls)

     Called by h_psi:
     add_vuspsi   :    329.38s CPU    335.15s WALL (  505758 calls)

     General routines
     calbec       :    705.05s CPU    758.96s WALL ( 1011012 calls)
     fft          :      0.36s CPU      0.39s WALL (     219 calls)
     fftw         :    563.77s CPU    733.73s WALL ( 1283772 calls)
     davcio       :      1.83s CPU      4.28s WALL (    1728 calls)
 
     Parallel routines
     fft_scatter  :    238.24s CPU    319.18s WALL ( 1283991 calls)
 
     PWSCF        : 37m 1.45s CPU    41m54.58s WALL

 
   This run was terminated on:  23:32:20  22Mar2018            

=------------------------------------------------------------------------------=
   JOB DONE.
=------------------------------------------------------------------------------=
