
     Program PWSCF v.5.0.2 starts on 22Mar2018 at 21:13:24 

     This program is part of the open-source Quantum ESPRESSO suite
     for quantum simulation of materials; please cite
         "P. Giannozzi et al., J. Phys.:Condens. Matter 21 395502 (2009);
          URL http://www.quantum-espresso.org", 
     in publications or presentations arising from this work. More details at
     http://www.quantum-espresso.org/quote.php

     Parallel version (MPI), running on     4 processors
     R & G space division:  proc/nbgrp/npool/nimage =       4

     Current dimensions of program PWSCF are:
     Max number of different atomic species (ntypx) = 10
     Max number of k-points (npk) =  40000
     Max angular momentum in pseudopotentials (lmaxx) =  3
     Waiting for input...
     Reading input from standard input

     Subspace diagonalization in iterative solution of the eigenvalue problem:
     a serial algorithm will be used

 
     Parallelization info
     --------------------
     sticks:   dense  smooth     PW     G-vecs:    dense   smooth      PW
     Min         267     267     77                11587    11587    1762
     Max         268     268     79                11596    11596    1765
     Sum        1069    1069    313                46361    46361    7055
 


     bravais-lattice index     =            0
     lattice parameter (alat)  =       9.9235  a.u.
     unit-cell volume          =    1361.0366 (a.u.)^3
     number of atoms/cell      =           12
     number of atomic types    =            2
     number of electrons       =       212.00
     number of Kohn-Sham states=          127
     kinetic-energy cutoff     =      40.0000  Ry
     charge density cutoff     =     160.0000  Ry
     convergence threshold     =      1.0E-04
     mixing beta               =       0.7000
     number of iterations used =            8  plain     mixing
     Exchange-correlation      = SLA-PZ-NOGX-NOGC ( 1 1 0 0 0)
     EXX-fraction              =        0.00
     nstep                     =           50


     celldm(1)=   9.923489  celldm(2)=   0.000000  celldm(3)=   0.000000
     celldm(4)=   0.000000  celldm(5)=   0.000000  celldm(6)=   0.000000

     crystal axes: (cart. coord. in units of alat)
               a(1) = (   1.000000   0.000000   0.000000 )  
               a(2) = (  -0.500000   0.866025   0.000000 )  
               a(3) = (   0.000000   0.000000   1.608222 )  

     reciprocal axes: (cart. coord. in units 2 pi/alat)
               b(1) = (  1.000000  0.577350  0.000000 )  
               b(2) = (  0.000000  1.154701  0.000000 )  
               b(3) = (  0.000000  0.000000  0.621805 )  


     PseudoPot. # 1 for Eu read from file:
     /home/cwx6513/pp.La/Eu.UPF
     MD5 check sum: 5efdbbfc50c6a10138933a6429836ad2
     Pseudo is Norm-conserving, Zval = 17.0
     Generated in analytical, separable form
     Using radial grid of 1261 points,  6 beta functions with: 
                l(1) =   0
                l(2) =   0
                l(3) =   1
                l(4) =   1
                l(5) =   2
                l(6) =   3

     PseudoPot. # 2 for Gd read from file:
     /home/cwx6513/pp.La/Gd.UPF
     MD5 check sum: 09a8be538722f05520810cb6aac0efd2
     Pseudo is Norm-conserving, Zval = 18.0
     Generated in analytical, separable form
     Using radial grid of 1263 points,  6 beta functions with: 
                l(1) =   0
                l(2) =   0
                l(3) =   1
                l(4) =   1
                l(5) =   2
                l(6) =   3

     atomic species   valence    mass     pseudopotential
        Mg            17.00    24.30500     Eu( 1.00)
        Zn            18.00    65.39000     Gd( 1.00)

     24 Sym. Ops., with inversion, found (12 have fractional translation)



   Cartesian axes

     site n.     atom                  positions (alat units)
         1           Mg  tau(   1) = (  -0.0000005   0.5773506   0.1003820  )
         2           Mg  tau(   2) = (   0.5000005   0.2886748   0.9044931  )
         3           Mg  tau(   3) = (   0.5000005   0.2886748   1.5078402  )
         4           Mg  tau(   4) = (  -0.0000005   0.5773506   0.7037291  )
         5           Zn  tau(   5) = (   0.0000000   0.0000000   0.0000000  )
         6           Zn  tau(   6) = (   0.0000000   0.0000000   0.8041111  )
         7           Zn  tau(   7) = (   0.0000000   0.2950739   1.2061667  )
         8           Zn  tau(   8) = (   0.7444585   0.1475370   0.4020556  )
         9           Zn  tau(   9) = (   0.2555415   0.1475370   0.4020556  )
        10           Zn  tau(  10) = (   0.2444585   0.7184884   1.2061667  )
        11           Zn  tau(  11) = (  -0.2444585   0.7184884   1.2061667  )
        12           Zn  tau(  12) = (   0.5000000   0.5709515   0.4020556  )

     number of k points=    12  gaussian smearing, width (Ry)=  0.1000
                       cart. coord. in units 2pi/alat
        k(    1) = (   0.0000000   0.0000000   0.0000000), wk =   0.0833333
        k(    2) = (   0.0000000   0.0000000   0.1554512), wk =   0.1666667
        k(    3) = (   0.0000000   0.0000000  -0.3109023), wk =   0.0833333
        k(    4) = (   0.0000000   0.3849002   0.0000000), wk =   0.1666667
        k(    5) = (   0.0000000   0.3849002   0.1554512), wk =   0.3333333
        k(    6) = (   0.0000000   0.3849002  -0.3109023), wk =   0.1666667
        k(    7) = (  -0.5000000  -0.2886751   0.0000000), wk =   0.0833333
        k(    8) = (  -0.5000000  -0.2886751   0.1554512), wk =   0.1666667
        k(    9) = (  -0.5000000  -0.2886751  -0.3109023), wk =   0.0833333
        k(   10) = (  -0.5000000   0.0962250   0.0000000), wk =   0.1666667
        k(   11) = (  -0.5000000   0.0962250   0.1554512), wk =   0.3333333
        k(   12) = (  -0.5000000   0.0962250  -0.3109023), wk =   0.1666667

     Dense  grid:    46361 G-vectors     FFT dimensions: (  40,  40,  72)

     Largest allocated arrays     est. size (Mb)     dimensions
        Kohn-Sham Wavefunctions         2.86 Mb     (   1478,  127)
        NL pseudopotentials             5.41 Mb     (   1478,  240)
        Each V/rho on FFT grid          0.44 Mb     (  28800)
        Each G-vector array             0.09 Mb     (  11589)
        G-vector shells                 0.09 Mb     (  11589)
     Largest temporary arrays     est. size (Mb)     dimensions
        Each subspace H/S matrix        0.25 Mb     ( 127, 127)
        Each <psi_i|beta_j> matrix      0.47 Mb     (    240,  127)
        Arrays for rho mixing           3.52 Mb     (  28800,   8)

     Initial potential from superposition of free atoms

     Starting from uniform charge
     Starting wfc are    0 randomized atomic wfcs

     total cpu time spent up to now is        4.0 secs

     Self-consistent Calculation

     iteration #  1     ecut=    40.00 Ry     beta=0.70
     CG style diagonalization
     ethr =  1.00E-02,  avg # of iterations = 18.1

     total cpu time spent up to now is       82.4 secs

     total energy              =   -1914.35442284 Ry
     Harris-Foulkes estimate   =   -2742.36655916 Ry
     estimated scf accuracy    <    1031.05372308 Ry

     iteration #  2     ecut=    40.00 Ry     beta=0.70
     CG style diagonalization
     ethr =  1.00E-02,  avg # of iterations = 17.5

     total cpu time spent up to now is      154.8 secs

     total energy              =   -1844.87694048 Ry
     Harris-Foulkes estimate   =   -2738.50399748 Ry
     estimated scf accuracy    <    1919.28614129 Ry

     iteration #  3     ecut=    40.00 Ry     beta=0.70
     CG style diagonalization
     c_bands:  1 eigenvalues not converged
     c_bands:  1 eigenvalues not converged
     c_bands:  2 eigenvalues not converged
     c_bands:  1 eigenvalues not converged
     c_bands:  1 eigenvalues not converged
     c_bands:  1 eigenvalues not converged
     c_bands:  1 eigenvalues not converged
     c_bands:  1 eigenvalues not converged
     ethr =  1.00E-02,  avg # of iterations = 11.4

     total cpu time spent up to now is      203.7 secs

     total energy              =   -2291.49973645 Ry
     Harris-Foulkes estimate   =   -2359.27591798 Ry
     estimated scf accuracy    <     167.70513474 Ry

     iteration #  4     ecut=    40.00 Ry     beta=0.70
     CG style diagonalization
     ethr =  1.00E-02,  avg # of iterations =  4.9

     total cpu time spent up to now is      225.1 secs

     total energy              =   -2308.13554197 Ry
     Harris-Foulkes estimate   =   -2311.31778130 Ry
     estimated scf accuracy    <       7.09593526 Ry

     iteration #  5     ecut=    40.00 Ry     beta=0.70
     CG style diagonalization
     ethr =  3.35E-03,  avg # of iterations =  3.9

     total cpu time spent up to now is      241.9 secs

     total energy              =   -2309.94985364 Ry
     Harris-Foulkes estimate   =   -2310.54377201 Ry
     estimated scf accuracy    <       1.32371506 Ry

     iteration #  6     ecut=    40.00 Ry     beta=0.70
     CG style diagonalization
     c_bands:  1 eigenvalues not converged
     c_bands:  1 eigenvalues not converged
     ethr =  6.24E-04,  avg # of iterations =  3.9

     total cpu time spent up to now is      258.7 secs

     total energy              =   -2310.04666445 Ry
     Harris-Foulkes estimate   =   -2310.33607204 Ry
     estimated scf accuracy    <       0.71531800 Ry

     iteration #  7     ecut=    40.00 Ry     beta=0.70
     CG style diagonalization
     ethr =  3.37E-04,  avg # of iterations =  3.5

     total cpu time spent up to now is      273.3 secs

     total energy              =   -2310.17962095 Ry
     Harris-Foulkes estimate   =   -2310.27045277 Ry
     estimated scf accuracy    <       0.23003777 Ry

     iteration #  8     ecut=    40.00 Ry     beta=0.70
     CG style diagonalization
     c_bands:  1 eigenvalues not converged
     ethr =  1.09E-04,  avg # of iterations =  3.4

     total cpu time spent up to now is      286.6 secs

     total energy              =   -2310.21112600 Ry
     Harris-Foulkes estimate   =   -2310.22130722 Ry
     estimated scf accuracy    <       0.02678583 Ry

     iteration #  9     ecut=    40.00 Ry     beta=0.70
     CG style diagonalization
     c_bands:  1 eigenvalues not converged
     c_bands:  1 eigenvalues not converged
     c_bands:  2 eigenvalues not converged
     ethr =  1.26E-05,  avg # of iterations =  3.9

     total cpu time spent up to now is      303.0 secs

     total energy              =   -2310.21581493 Ry
     Harris-Foulkes estimate   =   -2310.21621560 Ry
     estimated scf accuracy    <       0.00083786 Ry

     iteration # 10     ecut=    40.00 Ry     beta=0.70
     CG style diagonalization
     c_bands:  1 eigenvalues not converged
     c_bands:  1 eigenvalues not converged
     c_bands:  1 eigenvalues not converged
     ethr =  3.95E-07,  avg # of iterations =  4.6

     total cpu time spent up to now is      321.9 secs

     total energy              =   -2310.21623815 Ry
     Harris-Foulkes estimate   =   -2310.21630894 Ry
     estimated scf accuracy    <       0.00014418 Ry

     iteration # 11     ecut=    40.00 Ry     beta=0.70
     CG style diagonalization
     ethr =  6.80E-08,  avg # of iterations =  3.6

     total cpu time spent up to now is      336.0 secs

     End of self-consistent calculation

          k = 0.0000 0.0000 0.0000 (  5769 PWs)   bands (ev):

   -40.5764 -40.4899 -40.1865 -40.1521 -40.1520 -40.1502 -40.1501 -40.0879
   -33.8843 -33.8729 -33.8502 -33.8338 -13.4331 -13.0783 -12.5175 -11.9893
   -11.9893 -11.9071 -11.9070 -11.7528 -11.7527 -11.4952 -11.2745 -11.1940
   -11.1939 -11.1103 -11.1103 -10.6024 -10.5792 -10.5720 -10.5671 -10.5671
   -10.5512 -10.5511 -10.4933 -10.4933  -6.7493  -6.7474  -6.7144  -6.7144
    -6.7094  -6.7094  -6.5403  -6.4909  -6.4834  -6.4834  -6.4809  -6.4809
    17.8025  18.5811  18.8516  19.9204  19.9204  20.1335  20.4435  20.4435
    20.5267  20.6503  20.6503  21.0563  21.2007  21.2008  21.6325  21.7735
    21.7736  22.4406  22.8080  22.8080  22.8765  22.8766  23.3789  24.0615
    24.0615  24.4371  24.8369  24.8369  24.9065  24.9065  24.9083  24.9083
    25.2656  25.2656  25.2934  25.3496  25.3496  25.5396  25.8507  25.8508
    25.9016  25.9017  25.9698  26.2193  26.4118  26.4118  26.4164  27.1895
    27.7810  27.7811  28.0072  28.0072  28.7341  28.7341  28.8463  28.8909
    28.8909  29.1027  29.1027  29.4232  29.4232  30.5071  30.5147  31.6757
    31.7689  33.3229  33.3334  33.3335  34.1254  34.5404  34.5404  35.5525
    36.0357  36.4238  36.4239  36.5237  37.6353  37.7402  37.7396

          k = 0.0000 0.0000 0.1555 (  5780 PWs)   bands (ev):

   -40.5654 -40.5048 -40.1679 -40.1526 -40.1526 -40.1512 -40.1511 -40.1021
   -33.8831 -33.8762 -33.8461 -33.8365 -13.3994 -13.1623 -12.3829 -11.9861
   -11.9860 -11.9340 -11.9340 -11.7427 -11.6884 -11.6884 -11.3651 -11.3651
   -11.0554 -10.9485 -10.9484 -10.6533 -10.6340 -10.6340 -10.5817 -10.5782
   -10.5228 -10.5228 -10.4981 -10.4980  -6.7457  -6.7366  -6.7146  -6.7146
    -6.7105  -6.7105  -6.5463  -6.5028  -6.4852  -6.4852  -6.4820  -6.4820
    17.8523  18.2672  19.2597  19.9561  19.9561  20.2271  20.2560  20.2560
    20.3477  20.8588  20.8588  21.1291  21.1992  21.1993  21.6958  21.7872
    21.7872  21.8757  22.3589  22.3589  23.3979  23.3979  23.9682  24.1460
    24.1460  24.3897  24.6817  24.6817  24.7242  24.7242  24.9170  24.9170
    25.0810  25.2330  25.2330  25.5503  25.6560  25.6560  25.7034  25.7034
    25.7299  25.7299  26.0036  26.1800  26.2012  26.6104  26.6104  27.4261
    27.4262  27.7003  28.2179  28.2179  28.7548  28.7548  28.7813  28.7813
    28.7913  29.3249  29.3249  29.5161  29.5161  30.5081  30.5130  31.4106
    31.7784  32.9688  33.1456  33.1457  34.1508  34.1508  34.1911  35.4017
    36.1296  36.6023  36.9166  36.9168  37.9173  38.0438  38.0445

          k = 0.0000 0.0000-0.3109 (  5780 PWs)   bands (ev):

   -40.5401 -40.5401 -40.1496 -40.1496 -40.1496 -40.1496 -40.1341 -40.1341
   -33.8804 -33.8804 -33.8404 -33.8403 -13.2980 -13.2980 -12.1006 -12.1006
   -11.9635 -11.9634 -11.9634 -11.9634 -11.5421 -11.5421 -11.5421 -11.5421
   -10.8170 -10.8170 -10.7689 -10.7689 -10.7688 -10.7688 -10.5747 -10.5747
   -10.5078 -10.5077 -10.5077 -10.5077  -6.7363  -6.7362  -6.7108  -6.7108
    -6.7108  -6.7108  -6.5367  -6.5366  -6.4810  -6.4810  -6.4810  -6.4810
    18.0009  18.0009  19.7470  19.7470  20.0668  20.0668  20.0668  20.0668
    20.9094  20.9094  21.0890  21.0891  21.0891  21.0891  21.5547  21.5547
    21.9793  21.9793  21.9793  21.9793  23.9199  23.9199  23.9199  23.9199
    24.3820  24.3820  24.6525  24.6526  24.6526  24.6526  25.0676  25.0676
    25.0677  25.0677  25.1755  25.1755  25.4856  25.4857  25.4857  25.4857
    26.0917  26.0917  26.2898  26.2898  26.2899  26.2899  26.8164  26.8165
    27.7353  27.7353  27.7353  27.7353  28.9581  28.9581  28.9581  28.9581
    29.4309  29.4309  29.4309  29.4309  30.2385  30.2385  30.5109  30.5109
    32.0740  32.0741  33.3988  33.3988  33.3988  33.3988  34.9739  34.9740
    36.3887  36.3888  37.7654  37.7655  37.7656  37.7656  38.3802

          k = 0.0000 0.3849 0.0000 (  5787 PWs)   bands (ev):

   -40.5096 -40.4232 -40.2727 -40.2175 -40.1867 -40.1518 -40.1498 -40.0448
   -33.8789 -33.8640 -33.8577 -33.8429 -13.0561 -12.7193 -12.4823 -12.0150
   -11.8742 -11.8186 -11.7575 -11.7170 -11.6071 -11.4251 -11.4017 -11.3010
   -11.1886 -11.1835 -11.1763 -10.9807 -10.9107 -10.8105 -10.7664 -10.6250
   -10.5696 -10.5465 -10.5204 -10.5078  -6.7722  -6.7488  -6.7159  -6.7061
    -6.6775  -6.6506  -6.5776  -6.5399  -6.4926  -6.4875  -6.4808  -6.4759
    18.8665  19.3469  19.6807  20.2250  20.3140  20.6555  20.8680  20.9057
    21.0397  21.1623  21.1685  21.4545  21.4762  21.6210  21.8341  22.2697
    22.3548  22.4451  22.6577  22.8091  22.9757  22.9825  23.0212  23.2562
    23.2672  23.5632  23.5837  23.8562  23.8658  24.0898  24.4691  24.6422
    24.8324  24.8972  25.1145  25.3742  25.4637  25.5500  25.7633  25.7801
    25.9983  26.0744  26.3424  26.3720  26.8151  26.8633  26.9061  27.1324
    27.2091  27.3639  27.3730  27.4727  27.9584  28.2011  28.3402  28.4836
    28.6894  28.7155  28.8494  28.8684  29.1094  29.3683  29.3993  29.7576
    31.3148  31.9297  32.4027  32.5358  33.4885  33.7043  35.2265  35.9568
    35.9958  37.2475  37.3281  37.8922  38.1156  38.1197  38.7367

          k = 0.0000 0.3849 0.1555 (  5804 PWs)   bands (ev):

   -40.4991 -40.4386 -40.2706 -40.2429 -40.1532 -40.1514 -40.1486 -40.0580
   -33.8779 -33.8685 -33.8543 -33.8445 -13.0315 -12.8242 -12.3477 -12.0438
   -11.8820 -11.7517 -11.7509 -11.7187 -11.6334 -11.5854 -11.4631 -11.3601
   -11.2117 -11.1296 -11.0299 -10.9158 -10.9157 -10.7875 -10.7276 -10.6658
   -10.6243 -10.5447 -10.5332 -10.5205  -6.7667  -6.7435  -6.7172  -6.7083
    -6.6828  -6.6604  -6.5752  -6.5507  -6.4948  -6.4857  -6.4855  -6.4772
    18.9030  19.1697  19.9072  20.1876  20.4058  20.7146  20.8760  20.9499
    20.9785  21.1140  21.2332  21.3633  21.5352  21.6995  21.8433  22.0013
    22.2264  22.2415  22.3664  22.5139  22.9209  23.1199  23.2258  23.4577
    23.4758  23.5815  23.7941  23.8186  23.8450  24.3263  24.5185  24.8598
    24.9499  24.9802  25.1036  25.2044  25.4273  25.4777  25.6874  25.7738
    25.8796  26.1843  26.3254  26.5633  26.6163  26.8640  26.9758  27.1482
    27.1729  27.1996  27.3821  27.4434  27.5918  28.0125  28.1835  28.4613
    28.6737  28.7294  28.8522  28.8890  29.1598  29.2299  29.7706  30.3156
    30.6488  32.5234  32.5608  32.6280  33.3293  33.6016  35.0149  35.6233
    36.4896  37.1434  37.5096  37.7473  37.8821  38.2505  38.6461

          k = 0.0000 0.3849-0.3109 (  5816 PWs)   bands (ev):

   -40.4706 -40.4706 -40.2635 -40.2635 -40.1533 -40.1533 -40.0963 -40.0963
   -33.8746 -33.8745 -33.8486 -33.8486 -12.9527 -12.9527 -12.1584 -12.1584
   -11.8167 -11.8167 -11.7309 -11.7309 -11.6238 -11.6237 -11.5034 -11.5034
   -11.1356 -11.1356 -10.9439 -10.9439 -10.7758 -10.7758 -10.7158 -10.7158
   -10.6335 -10.6335 -10.5229 -10.5229  -6.7477  -6.7476  -6.7119  -6.7119
    -6.6813  -6.6813  -6.5661  -6.5660  -6.4916  -6.4916  -6.4837  -6.4837
    19.0008  19.0009  20.1089  20.1089  20.5963  20.5963  20.9346  20.9346
    21.0550  21.0550  21.3025  21.3025  21.7512  21.7512  21.8894  21.8894
    21.9948  21.9948  22.1288  22.1288  23.1539  23.1539  23.2057  23.2057
    23.6128  23.6128  24.0065  24.0065  24.3219  24.3219  24.8307  24.8307
    24.9566  24.9566  25.1613  25.1613  25.4488  25.4488  25.6019  25.6019
    26.0780  26.0780  26.2634  26.2634  26.6105  26.6105  27.0519  27.0519
    27.2874  27.2874  27.4575  27.4575  27.7056  27.7056  28.3048  28.3048
    28.3916  28.3916  28.9029  28.9029  29.5110  29.5110  29.7771  29.7772
    31.8154  31.8154  32.8102  32.8102  33.2597  33.2597  35.6140  35.6140
    36.4101  36.4102  37.4711  37.4712  38.5895  38.5900  38.7150

          k =-0.5000-0.2887 0.0000 (  5800 PWs)   bands (ev):

   -40.4684 -40.3903 -40.3209 -40.2541 -40.1867 -40.1545 -40.1501 -40.0377
   -33.8739 -33.8629 -33.8610 -33.8471 -12.8809 -12.5456 -12.4660 -12.1301
   -11.8365 -11.7584 -11.7581 -11.5399 -11.5001 -11.4257 -11.3915 -11.3511
   -11.2946 -11.2865 -11.1948 -11.1391 -11.0875 -10.8965 -10.8159 -10.6508
   -10.5704 -10.5474 -10.5182 -10.4815  -6.7771  -6.7485  -6.7192  -6.7046
    -6.6667  -6.6399  -6.5941  -6.5543  -6.4941  -6.4828  -6.4819  -6.4788
    19.2574  19.4445  20.0524  20.4676  20.6448  20.9101  21.0268  21.0287
    21.1178  21.1880  21.3151  21.3687  22.0454  22.0676  22.0750  22.2580
    22.6149  22.7147  22.7813  22.8738  22.9584  23.0036  23.0496  23.0596
    23.0754  23.1060  23.2868  23.4113  23.6365  24.0360  24.3697  24.4176
    24.4707  24.7887  24.8263  25.1693  25.4598  25.4892  25.6314  25.7725
    25.8064  25.9023  26.0855  26.2477  26.3392  26.4639  26.6511  26.8625
    26.9775  27.3516  27.7163  27.7462  27.7816  27.9639  28.1226  28.3136
    28.3668  28.5815  28.9972  29.0936  29.3122  29.5387  29.7594  30.0032
    30.1430  30.7511  32.2670  32.3992  32.9435  33.4138  36.0764  36.2756
    36.4757  37.5996  37.8787  38.1847  38.5169  38.7009  38.7242

          k =-0.5000-0.2887 0.1555 (  5822 PWs)   bands (ev):

   -40.4583 -40.4002 -40.3197 -40.2844 -40.1553 -40.1526 -40.1473 -40.0532
   -33.8741 -33.8668 -33.8568 -33.8495 -12.8590 -12.6688 -12.3328 -12.1434
   -11.8284 -11.7313 -11.7145 -11.5833 -11.5755 -11.5069 -11.3938 -11.3498
   -11.3429 -11.3175 -11.1674 -11.1434 -10.9747 -10.8433 -10.7478 -10.6921
   -10.6240 -10.5341 -10.5222 -10.5212  -6.7648  -6.7468  -6.7205  -6.7097
    -6.6752  -6.6607  -6.5863  -6.5586  -6.4967  -6.4897  -6.4852  -6.4776
    19.2853  19.3994  20.1608  20.5442  20.6782  20.8873  20.9240  21.0851
    21.1080  21.1207  21.2755  21.4339  21.9474  21.9627  22.1521  22.2649
    22.3321  22.6116  22.7150  22.7605  22.8507  22.8840  23.0312  23.0808
    23.2480  23.3364  23.4143  23.6533  23.7545  23.9810  24.1514  24.2764
    24.8827  24.9459  25.0356  25.3463  25.3602  25.3942  25.5323  25.6722
    25.7513  26.0126  26.1258  26.2744  26.4775  26.6626  26.7421  26.7679
    27.0411  27.4372  27.4582  27.4813  27.6223  27.9104  28.0902  28.5017
    28.5558  28.5779  28.5991  28.8497  28.9287  28.9984  29.1767  29.7475
    31.5944  31.8118  32.4579  32.5816  32.7621  33.3232  35.5582  35.8070
    36.9562  37.4211  37.7168  38.0951  38.2005  38.3075  38.6412

          k =-0.5000-0.2887-0.3109 (  5804 PWs)   bands (ev):

   -40.4279 -40.4279 -40.3084 -40.3084 -40.1534 -40.1534 -40.0928 -40.0928
   -33.8712 -33.8711 -33.8517 -33.8516 -12.7872 -12.7871 -12.2035 -12.2035
   -11.7432 -11.7432 -11.6574 -11.6574 -11.6075 -11.6075 -11.3775 -11.3775
   -11.3397 -11.3397 -11.1464 -11.1464 -10.8075 -10.8075 -10.7280 -10.7280
   -10.6165 -10.6165 -10.5241 -10.5241  -6.7429  -6.7428  -6.7139  -6.7139
    -6.6748  -6.6747  -6.5640  -6.5639  -6.4933  -6.4932  -6.4850  -6.4850
    19.3407  19.3407  20.4067  20.4067  20.6914  20.6914  21.0373  21.0373
    21.1804  21.1804  21.4732  21.4732  21.9405  21.9405  21.9800  21.9800
    22.1995  22.1995  22.6274  22.6275  22.9670  22.9670  23.0575  23.0575
    23.6344  23.6344  23.6450  23.6450  23.7846  23.7846  24.2189  24.2189
    25.0572  25.0572  25.2247  25.2247  25.3256  25.3256  25.6888  25.6888
    25.9091  25.9091  26.0017  26.0017  26.6439  26.6439  27.0472  27.0472
    27.1119  27.1119  27.4645  27.4646  27.6344  27.6344  28.1582  28.1582
    28.4503  28.4503  28.5353  28.5353  28.7691  28.7691  29.4491  29.4491
    32.5587  32.5587  32.6763  32.6764  33.0024  33.0024  35.3986  35.3986
    36.4311  36.4312  38.0316  38.0318  38.6499  38.6500  38.9859

          k =-0.5000 0.0962 0.0000 (  5827 PWs)   bands (ev):

   -40.4705 -40.3894 -40.3231 -40.2545 -40.1887 -40.1554 -40.1528 -40.0377
   -33.8749 -33.8630 -33.8609 -33.8486 -12.8579 -12.5357 -12.4660 -12.1535
   -11.9159 -11.8301 -11.7811 -11.5198 -11.4990 -11.4628 -11.3769 -11.3070
   -11.2928 -11.2226 -11.2111 -11.1285 -10.9519 -10.8680 -10.7833 -10.6440
   -10.6302 -10.6299 -10.5685 -10.4889  -6.7718  -6.7563  -6.7414  -6.7195
    -6.6582  -6.6244  -6.5989  -6.5604  -6.4937  -6.4883  -6.4869  -6.4785
    19.4457  19.5910  20.2189  20.3236  20.5788  20.7610  20.8971  20.9707
    21.1358  21.3290  21.3917  21.4520  21.6105  21.9024  22.0980  22.3356
    22.3408  22.4162  22.6459  22.7165  22.8983  22.9463  23.0277  23.2022
    23.2294  23.2548  23.4293  23.6157  23.9621  24.0354  24.2555  24.3811
    24.3995  24.7251  24.8640  24.8820  25.1687  25.4586  25.5725  25.6585
    26.1531  26.1842  26.3343  26.3978  26.6502  26.8413  26.8553  27.0104
    27.2897  27.3345  27.7343  27.8684  27.8912  27.8919  28.1578  28.3869
    28.4866  28.5325  28.6685  28.8670  28.9715  29.0835  29.5610  29.9480
    30.3688  31.0811  31.1737  32.0352  32.4268  35.3166  35.7286  36.2976
    36.5785  36.9014  37.4847  38.0543  38.5667  38.6427  39.0146

          k =-0.5000 0.0962 0.1555 (  5825 PWs)   bands (ev):

   -40.4591 -40.4011 -40.3198 -40.2842 -40.1541 -40.1528 -40.1483 -40.0522
   -33.8743 -33.8670 -33.8564 -33.8496 -12.8342 -12.6522 -12.3429 -12.1722
   -11.8884 -11.7825 -11.7504 -11.5972 -11.5353 -11.4820 -11.4582 -11.4155
   -11.2713 -11.2561 -11.0892 -11.0361 -10.9250 -10.8357 -10.7432 -10.6770
   -10.6550 -10.6172 -10.5831 -10.5209  -6.7624  -6.7465  -6.7375  -6.7240
    -6.6636  -6.6415  -6.5855  -6.5646  -6.4970  -6.4889  -6.4859  -6.4779
    19.4699  19.5577  20.2329  20.3949  20.6633  20.8291  20.9526  20.9960
    21.1159  21.1946  21.2454  21.5255  21.6778  21.8143  22.0915  22.2006
    22.2307  22.3502  22.4113  22.5953  22.6863  22.9994  23.1705  23.2041
    23.3177  23.5126  23.5383  23.8305  23.8935  24.0556  24.1096  24.4651
    24.5688  24.6256  24.9897  25.1489  25.2998  25.3620  25.7330  25.7706
    25.9431  26.1395  26.4175  26.5046  26.6806  26.7609  26.8574  26.9825
    27.1969  27.2446  27.4255  27.6010  27.8501  28.0529  28.1958  28.2576
    28.4336  28.5246  28.6296  28.7700  28.8593  29.1066  29.1853  29.8485
    30.4962  31.1424  31.4068  32.5813  33.3272  35.1494  35.5172  36.1101
    36.6540  36.6928  37.2036  37.4970  38.3962  38.7146  38.8584

          k =-0.5000 0.0962-0.3109 (  5824 PWs)   bands (ev):

   -40.4300 -40.4299 -40.3103 -40.3103 -40.1533 -40.1533 -40.0922 -40.0921
   -33.8716 -33.8714 -33.8522 -33.8520 -12.7645 -12.7645 -12.2292 -12.2292
   -11.7720 -11.7720 -11.7065 -11.7065 -11.5839 -11.5839 -11.4571 -11.4571
   -11.2649 -11.2649 -11.0148 -11.0148 -10.8223 -10.8223 -10.7242 -10.7242
   -10.6291 -10.6291 -10.5913 -10.5913  -6.7442  -6.7442  -6.7314  -6.7314
    -6.6624  -6.6624  -6.5706  -6.5705  -6.4958  -6.4957  -6.4828  -6.4828
    19.5132  19.5132  20.3299  20.3299  20.8377  20.8377  20.9557  20.9557
    21.1999  21.1999  21.3559  21.3559  21.7708  21.7708  21.9406  21.9406
    22.1044  22.1044  22.4900  22.4900  22.7970  22.7970  23.2894  23.2894
    23.4197  23.4197  23.7730  23.7730  23.9774  23.9774  24.4518  24.4518
    24.8306  24.8306  25.0370  25.0370  25.4340  25.4340  25.6046  25.6046
    26.0656  26.0657  26.4867  26.4867  26.6620  26.6620  26.8840  26.8840
    27.2644  27.2644  27.5579  27.5579  27.7623  27.7623  28.0121  28.0121
    28.3786  28.3787  28.6544  28.6545  29.0421  29.0421  29.3799  29.3799
    30.7091  30.7091  32.6870  32.6871  34.5052  34.5053  35.6149  35.6150
    36.4332  36.4332  36.9752  36.9752  38.6804  38.6807  38.8855

     the Fermi energy is    28.8941 ev

!    total energy              =   -2310.21623948 Ry
     Harris-Foulkes estimate   =   -2310.21627659 Ry
     estimated scf accuracy    <       0.00004290 Ry

     The total energy is the sum of the following terms:

     one-electron contribution =    -127.00319620 Ry
     hartree contribution      =     261.93218887 Ry
     xc contribution           =    -236.27250196 Ry
     ewald contribution        =   -2208.21035218 Ry
     smearing contrib. (-TS)   =      -0.66237802 Ry

     convergence has been achieved in  11 iterations

     Forces acting on atoms (Ry/au):

     atom    1 type  1   force =     0.00000000    0.00000000    0.00077451
     atom    2 type  1   force =     0.00000000    0.00000000    0.00077451
     atom    3 type  1   force =     0.00000000    0.00000000   -0.00077451
     atom    4 type  1   force =     0.00000000    0.00000000   -0.00077451
     atom    5 type  2   force =     0.00000000    0.00000000    0.00000000
     atom    6 type  2   force =     0.00000000    0.00000000    0.00000000
     atom    7 type  2   force =     0.00000000    0.03707296    0.00000000
     atom    8 type  2   force =    -0.03210613    0.01853648    0.00000000
     atom    9 type  2   force =     0.03210613    0.01853648    0.00000000
     atom   10 type  2   force =    -0.03210613   -0.01853648    0.00000000
     atom   11 type  2   force =     0.03210613   -0.01853648    0.00000000
     atom   12 type  2   force =     0.00000000   -0.03707296    0.00000000

     Total force =     0.090823     Total SCF correction =     0.000000


     entering subroutine stress ...

          total   stress  (Ry/bohr**3)                   (kbar)     P=  541.65
   0.00362617   0.00000000   0.00000000        533.43      0.00      0.00
   0.00000000   0.00362617   0.00000000          0.00    533.43      0.00
   0.00000000   0.00000000   0.00379376          0.00      0.00    558.08


     BFGS Geometry Optimization

     number of scf cycles    =   1
     number of bfgs steps    =   0

     enthalpy new            =   -2310.2162394828 Ry

     new trust radius        =       0.5000000000 bohr
     new conv_thr            =       0.0001000000 Ry

     new unit-cell volume =   1647.62438 a.u.^3 (   244.15274 Ang^3 )

CELL_PARAMETERS (alat=  9.92348860)
   1.064771374   0.000000000   0.000000000
  -0.532385687   0.922119059   0.000000000
   0.000000000   0.000000000   1.717203317

ATOMIC_POSITIONS (crystal)
Mg       0.333333000   0.666667000   0.062452675
Mg       0.666667000   0.333333000   0.562452675
Mg       0.666667000   0.333333000   0.937547325
Mg       0.333333000   0.666667000   0.437547325
Zn       0.000000000   0.000000000   0.000000000
Zn       0.000000000   0.000000000   0.500000000
Zn       0.171902087   0.343804174   0.750000000
Zn       0.828097913   0.171902087   0.250000000
Zn       0.343804174   0.171902087   0.250000000
Zn       0.656195826   0.828097913   0.750000000
Zn       0.171902087   0.828097913   0.750000000
Zn       0.828097913   0.656195826   0.250000000



     Writing output data file Prototype-La-hP12-MgZn2.save
     NEW-OLD atomic charge density approx. for the potential
     NEW k-points:
        k(    1) = (   0.0000000   0.0000000   0.0000000), wk =   0.0833333
        k(    2) = (   0.0000000   0.0000000   0.1455856), wk =   0.1666667
        k(    3) = (   0.0000000   0.0000000  -0.2911711), wk =   0.0833333
        k(    4) = (   0.0000000   0.3614862   0.0000000), wk =   0.1666667
        k(    5) = (   0.0000000   0.3614862   0.1455856), wk =   0.3333333
        k(    6) = (   0.0000000   0.3614862  -0.2911711), wk =   0.1666667
        k(    7) = (  -0.4695844  -0.2711147   0.0000000), wk =   0.0833333
        k(    8) = (  -0.4695844  -0.2711147   0.1455856), wk =   0.1666667
        k(    9) = (  -0.4695844  -0.2711147  -0.2911711), wk =   0.0833333
        k(   10) = (  -0.4695844   0.0903716   0.0000000), wk =   0.1666667
        k(   11) = (  -0.4695844   0.0903716   0.1455856), wk =   0.3333333
        k(   12) = (  -0.4695844   0.0903716  -0.2911711), wk =   0.1666667

     total cpu time spent up to now is      343.2 secs

     Self-consistent Calculation

     iteration #  1     ecut=    40.00 Ry     beta=0.70
     CG style diagonalization
     c_bands:  1 eigenvalues not converged
     c_bands:  1 eigenvalues not converged
     c_bands:  1 eigenvalues not converged
     ethr =  1.00E-06,  avg # of iterations = 21.0

     total cpu time spent up to now is      429.8 secs

     total energy              =   -2298.60741498 Ry
     Harris-Foulkes estimate   =   -2321.04753877 Ry
     estimated scf accuracy    <      28.66019726 Ry

     iteration #  2     ecut=    40.00 Ry     beta=0.70
     CG style diagonalization
     ethr =  1.00E-02,  avg # of iterations =  3.9

     total cpu time spent up to now is      446.0 secs

     total energy              =   -2303.14741468 Ry
     Harris-Foulkes estimate   =   -2315.43824717 Ry
     estimated scf accuracy    <      22.14469578 Ry

     iteration #  3     ecut=    40.00 Ry     beta=0.70
     CG style diagonalization
     ethr =  1.00E-02,  avg # of iterations =  3.5

     total cpu time spent up to now is      460.6 secs

     total energy              =   -2307.98300196 Ry
     Harris-Foulkes estimate   =   -2313.99306999 Ry
     estimated scf accuracy    <      18.77501097 Ry

     iteration #  4     ecut=    40.00 Ry     beta=0.70
     CG style diagonalization
     ethr =  8.86E-03,  avg # of iterations =  3.1

     total cpu time spent up to now is      485.7 secs

     total energy              =   -2309.78889051 Ry
     Harris-Foulkes estimate   =   -2310.43452709 Ry
     estimated scf accuracy    <       2.31717907 Ry

     iteration #  5     ecut=    40.00 Ry     beta=0.70
     CG style diagonalization
     ethr =  1.09E-03,  avg # of iterations =  3.2

     total cpu time spent up to now is      514.6 secs

     total energy              =   -2310.16413342 Ry
     Harris-Foulkes estimate   =   -2310.21217108 Ry
     estimated scf accuracy    <       0.14539352 Ry

     iteration #  6     ecut=    40.00 Ry     beta=0.70
     CG style diagonalization
     ethr =  6.86E-05,  avg # of iterations =  3.9

     total cpu time spent up to now is      546.4 secs

     total energy              =   -2310.20519598 Ry
     Harris-Foulkes estimate   =   -2310.21480249 Ry
     estimated scf accuracy    <       0.02400430 Ry

     iteration #  7     ecut=    40.00 Ry     beta=0.70
     CG style diagonalization
     c_bands:  1 eigenvalues not converged
     ethr =  1.13E-05,  avg # of iterations =  3.7

     total cpu time spent up to now is      576.6 secs

     total energy              =   -2310.20650137 Ry
     Harris-Foulkes estimate   =   -2310.21052890 Ry
     estimated scf accuracy    <       0.01105681 Ry

     iteration #  8     ecut=    40.00 Ry     beta=0.70
     CG style diagonalization
     ethr =  5.22E-06,  avg # of iterations =  3.3

     total cpu time spent up to now is      605.7 secs

     total energy              =   -2310.20864462 Ry
     Harris-Foulkes estimate   =   -2310.20881240 Ry
     estimated scf accuracy    <       0.00078625 Ry

     iteration #  9     ecut=    40.00 Ry     beta=0.70
     CG style diagonalization
     c_bands:  1 eigenvalues not converged
     ethr =  3.71E-07,  avg # of iterations =  3.3

     total cpu time spent up to now is      636.1 secs

     total energy              =   -2310.20872057 Ry
     Harris-Foulkes estimate   =   -2310.20873914 Ry
     estimated scf accuracy    <       0.00011772 Ry

     iteration # 10     ecut=    40.00 Ry     beta=0.70
     CG style diagonalization
     ethr =  5.55E-08,  avg # of iterations =  3.1

     total cpu time spent up to now is      659.5 secs

     End of self-consistent calculation

          k = 0.0000 0.0000 0.0000 (  5769 PWs)   bands (ev):

   -45.7963 -45.7832 -45.6207 -45.6207 -45.6168 -45.6168 -45.5752 -45.5372
   -39.7495 -39.7450 -39.7432 -39.7335 -17.8151 -17.6248 -17.1822 -16.9493
   -16.9493 -16.9113 -16.9113 -16.7607 -16.7606 -16.6452 -16.5416 -16.4804
   -16.4804 -16.3963 -16.3963 -16.1586 -16.1586 -16.1481 -16.1416 -16.1300
   -16.1022 -16.1022 -16.0985 -16.0985 -12.3513 -12.3410 -12.3347 -12.3347
   -12.3153 -12.3153 -12.2358 -12.2035 -12.2035 -12.2000 -12.1974 -12.1974
    13.8985  14.5180  14.9218  15.5152  15.6916  15.6916  16.0811  16.0812
    16.1196  16.3613  16.3613  16.5299  16.7664  16.7664  17.0059  17.2417
    17.2417  17.5572  17.9780  17.9780  17.9955  17.9955  18.2598  18.9463
    18.9463  19.1081  19.6173  19.6174  19.6278  19.6278  19.6847  19.6847
    19.8963  19.9407  19.9408  19.9539  19.9539  20.0195  20.2799  20.2799
    20.3842  20.3843  20.4005  20.5346  20.6613  20.6614  20.7125  21.2445
    21.7440  21.7440  21.8639  21.8639  22.4141  22.4141  22.4939  22.5079
    22.5079  22.5868  22.5868  22.8565  22.8565  23.5983  23.6022  24.9333
    25.0930  26.4030  26.4030  26.5512  27.3674  27.3675  27.5349  28.5158
    28.9864  29.0252  29.0253  29.3628  30.5895  30.5896  30.9039

          k = 0.0000 0.0000 0.1456 (  5780 PWs)   bands (ev):

   -45.7936 -45.7824 -45.6233 -45.6233 -45.6197 -45.6196 -45.5668 -45.5485
   -39.7527 -39.7454 -39.7382 -39.7380 -17.7946 -17.6610 -17.1249 -16.9489
   -16.9489 -16.9209 -16.9209 -16.7749 -16.7334 -16.7333 -16.5643 -16.5643
   -16.4168 -16.3278 -16.3277 -16.1757 -16.1680 -16.1680 -16.1461 -16.1395
   -16.1096 -16.1095 -16.1037 -16.1037 -12.3436 -12.3388 -12.3265 -12.3265
   -12.3261 -12.3261 -12.2459 -12.2070 -12.2058 -12.2058 -12.1999 -12.1999
    13.9510  14.3212  15.1772  15.6763  15.7234  15.7234  15.9056  15.9632
    15.9632  16.5025  16.5025  16.5326  16.7771  16.7771  17.0498  17.0594
    17.2201  17.2202  17.6071  17.6071  18.4309  18.4310  18.8168  19.0147
    19.0147  19.1157  19.4574  19.4574  19.5120  19.5120  19.6723  19.6770
    19.6770  19.8840  19.8840  20.0684  20.1614  20.1614  20.1744  20.1745
    20.2437  20.2437  20.4190  20.5138  20.5501  20.9264  20.9264  21.4823
    21.4823  21.6838  22.0236  22.0236  22.3951  22.3951  22.4375  22.4375
    22.4472  22.7806  22.7806  22.8796  22.8796  23.5988  23.6012  24.8551
    25.0387  25.9048  26.3107  26.3107  27.0570  27.0571  27.6996  28.4399
    29.2554  29.3559  29.3560  29.4906  30.2671  30.2671  31.4079

          k = 0.0000 0.0000-0.2912 (  5780 PWs)   bands (ev):

   -45.7970 -45.7970 -45.6149 -45.6149 -45.6149 -45.6149 -45.5609 -45.5609
   -39.7501 -39.7500 -39.7367 -39.7366 -17.7307 -17.7307 -16.9927 -16.9927
   -16.9313 -16.9313 -16.9313 -16.9313 -16.6526 -16.6526 -16.6525 -16.6525
   -16.2792 -16.2792 -16.2339 -16.2339 -16.2339 -16.2339 -16.1348 -16.1348
   -16.1101 -16.1101 -16.1101 -16.1101 -12.3402 -12.3400 -12.3237 -12.3237
   -12.3237 -12.3237 -12.2404 -12.2402 -12.1982 -12.1982 -12.1982 -12.1982
    14.0969  14.0969  15.5406  15.5406  15.8171  15.8171  15.8171  15.8171
    16.1316  16.1316  16.6950  16.6950  16.6950  16.6950  16.9540  16.9540
    17.3234  17.3234  17.3234  17.3234  18.8623  18.8623  18.8624  18.8624
    19.1707  19.1707  19.3981  19.3982  19.3982  19.3982  19.7516  19.7516
    19.7975  19.7975  19.7975  19.7975  19.9917  19.9917  19.9917  19.9917
    20.4667  20.4667  20.7134  20.7135  20.7135  20.7135  21.0047  21.0048
    21.7174  21.7174  21.7174  21.7174  22.5305  22.5305  22.5305  22.5305
    22.8334  22.8334  22.8334  22.8334  23.6002  23.6002  23.7304  23.7304
    25.2595  25.2595  26.5048  26.5048  26.5048  26.5049  28.1628  28.1629
    29.5412  29.5412  29.8958  29.8959  29.8959  29.8959  31.9924

          k = 0.0000 0.3615 0.0000 (  5787 PWs)   bands (ev):

   -45.7784 -45.7489 -45.6664 -45.6415 -45.6212 -45.6145 -45.5760 -45.5366
   -39.7499 -39.7438 -39.7431 -39.7398 -17.5797 -17.4221 -17.1739 -16.9851
   -16.8992 -16.7985 -16.7982 -16.7586 -16.7484 -16.6253 -16.5843 -16.5336
   -16.4750 -16.4610 -16.4571 -16.3517 -16.3226 -16.2563 -16.2453 -16.1528
   -16.1505 -16.1198 -16.1014 -16.0968 -12.3563 -12.3479 -12.3318 -12.3210
   -12.3177 -12.3010 -12.2536 -12.2318 -12.2077 -12.2068 -12.2005 -12.1928
    14.7397  15.3196  15.3876  15.9766  16.0115  16.2792  16.3827  16.4403
    16.5899  16.5964  16.7063  16.9624  16.9657  17.0252  17.1433  17.4942
    17.5833  17.6263  17.8361  17.9754  18.0877  18.0997  18.1587  18.2478
    18.4074  18.4959  18.5108  18.7293  18.7687  19.0059  19.2853  19.3388
    19.4858  19.5107  19.8230  19.9801  20.0864  20.1261  20.1522  20.2464
    20.4073  20.4525  20.6597  20.7023  20.9964  21.0592  21.0734  21.2722
    21.3132  21.3872  21.4376  21.5348  21.8452  21.9856  22.1573  22.2355
    22.3934  22.4143  22.4837  22.4904  22.7673  22.7991  22.8669  23.0693
    24.5039  25.1528  25.5249  25.7069  26.2535  26.7916  28.2449  28.6583
    29.1135  29.5347  30.2236  30.9351  31.1933  31.3552  31.7223

          k = 0.0000 0.3615 0.1456 (  5804 PWs)   bands (ev):

   -45.7750 -45.7565 -45.6655 -45.6473 -45.6252 -45.6195 -45.5739 -45.5405
   -39.7503 -39.7461 -39.7453 -39.7412 -17.5692 -17.4644 -17.1223 -16.9943
   -16.8930 -16.7951 -16.7829 -16.7769 -16.7291 -16.7173 -16.6259 -16.5655
   -16.4947 -16.4533 -16.3843 -16.3256 -16.3097 -16.2400 -16.2218 -16.1759
   -16.1648 -16.1221 -16.1195 -16.1130 -12.3598 -12.3462 -12.3352 -12.3240
   -12.3207 -12.3075 -12.2555 -12.2451 -12.2088 -12.2075 -12.2043 -12.1942
    14.7824  15.0828  15.6499  15.9352  16.0600  16.3389  16.4710  16.4806
    16.5744  16.5866  16.6436  16.8430  17.0146  17.1133  17.1805  17.2118
    17.4682  17.5658  17.6592  17.7042  17.9833  18.2054  18.2613  18.4540
    18.4698  18.5380  18.7353  18.7836  18.7954  19.1378  19.3486  19.5126
    19.5559  19.5880  19.7795  19.7994  19.9950  20.0418  20.1034  20.2551
    20.3358  20.5021  20.6808  20.8515  20.8647  21.0557  21.1486  21.2575
    21.2627  21.3041  21.4587  21.4840  21.6240  21.8638  22.0259  22.2125
    22.3444  22.4053  22.4962  22.5009  22.6699  22.8690  23.0757  23.6604
    24.0034  25.6103  25.6404  25.7376  26.3914  26.4210  27.7362  28.5875
    29.5388  30.0604  30.2491  30.2750  30.6874  31.3106  31.4984

          k = 0.0000 0.3615-0.2912 (  5816 PWs)   bands (ev):

   -45.7656 -45.7656 -45.6617 -45.6616 -45.6251 -45.6251 -45.5567 -45.5567
   -39.7502 -39.7501 -39.7436 -39.7436 -17.5296 -17.5296 -17.0440 -17.0440
   -16.8452 -16.8452 -16.7938 -16.7938 -16.7108 -16.7108 -16.6523 -16.6523
   -16.4599 -16.4599 -16.3425 -16.3425 -16.2344 -16.2344 -16.2044 -16.2044
   -16.1690 -16.1689 -16.1173 -16.1173 -12.3511 -12.3510 -12.3283 -12.3283
   -12.3216 -12.3216 -12.2556 -12.2556 -12.2089 -12.2088 -12.2031 -12.2031
    14.8977  14.8977  15.8365  15.8365  16.2306  16.2306  16.5376  16.5376
    16.6244  16.6244  16.6879  16.6879  17.1111  17.1111  17.1657  17.1657
    17.3293  17.3293  17.4723  17.4723  18.1748  18.1748  18.3085  18.3085
    18.5811  18.5811  18.8948  18.8948  19.1817  19.1817  19.5598  19.5598
    19.6363  19.6363  19.7240  19.7240  19.8981  19.8981  20.0450  20.0450
    20.4921  20.4921  20.6329  20.6330  20.8969  20.8969  21.1912  21.1912
    21.3555  21.3555  21.5146  21.5146  21.6892  21.6892  22.0918  22.0919
    22.1638  22.1638  22.5169  22.5169  22.9119  22.9119  23.2920  23.2921
    25.0156  25.0157  25.8923  25.8923  26.0848  26.0848  28.3703  28.3703
    29.3620  29.3620  30.4975  30.4975  31.0607  31.0609  31.5834

          k =-0.4696-0.2711 0.0000 (  5800 PWs)   bands (ev):

   -45.7547 -45.7423 -45.6878 -45.6566 -45.6280 -45.6163 -45.5761 -45.5360
   -39.7479 -39.7473 -39.7458 -39.7400 -17.4714 -17.3279 -17.1648 -17.0613
   -16.8537 -16.8102 -16.7575 -16.7078 -16.6724 -16.6553 -16.6092 -16.5536
   -16.5218 -16.5190 -16.4849 -16.4247 -16.3970 -16.2936 -16.2645 -16.1662
   -16.1516 -16.1185 -16.0988 -16.0889 -12.3655 -12.3453 -12.3358 -12.3218
   -12.3125 -12.2868 -12.2728 -12.2469 -12.2095 -12.2063 -12.2039 -12.1918
    15.0637  15.4094  15.6860  16.2400  16.2423  16.4951  16.6043  16.6575
    16.6836  16.7102  16.8190  16.8925  17.2480  17.2737  17.3593  17.4271
    17.8739  17.9196  17.9282  17.9836  18.0564  18.0575  18.1152  18.1257
    18.1650  18.2018  18.2888  18.3849  18.6616  18.8586  18.9222  19.0252
    19.0714  19.3389  19.5121  19.8586  20.0991  20.1440  20.1974  20.2510
    20.3227  20.3702  20.5132  20.6296  20.6533  20.8170  20.9029  21.0944
    21.2160  21.4220  21.6843  21.6855  21.7029  21.8559  21.9164  22.1554
    22.1657  22.2621  22.5906  22.6412  22.7568  23.0681  23.1635  23.3982
    23.5929  24.0165  25.4708  25.5182  26.1605  26.2199  28.8475  29.2172
    29.2421  29.8704  30.6113  30.9707  31.5186  31.7488  31.7897

          k =-0.4696-0.2711 0.1456 (  5822 PWs)   bands (ev):

   -45.7556 -45.7440 -45.6871 -45.6665 -45.6314 -45.6231 -45.5696 -45.5461
   -39.7499 -39.7489 -39.7453 -39.7452 -17.4617 -17.3661 -17.1338 -17.0637
   -16.8531 -16.7841 -16.7501 -16.7171 -16.7131 -16.6569 -16.6567 -16.5771
   -16.5553 -16.5388 -16.4576 -16.4326 -16.3393 -16.2699 -16.2290 -16.1894
   -16.1656 -16.1206 -16.1131 -16.1123 -12.3591 -12.3517 -12.3399 -12.3293
   -12.3147 -12.3070 -12.2714 -12.2544 -12.2127 -12.2118 -12.2036 -12.1951
    15.0969  15.3017  15.8412  16.2655  16.2755  16.4406  16.5249  16.6636
    16.6758  16.7360  16.7524  16.9065  17.1849  17.3609  17.3961  17.5150
    17.6519  17.8380  17.8999  17.9433  17.9711  17.9712  18.0500  18.0556
    18.2894  18.3212  18.4054  18.5376  18.6594  18.6684  18.9001  18.9895
    19.4796  19.5493  19.5775  19.9366  19.9586  19.9970  20.1263  20.2279
    20.2485  20.4573  20.5334  20.6861  20.8307  20.8788  20.9911  21.0313
    21.2238  21.4783  21.4886  21.5150  21.6156  21.8365  21.9214  22.2784
    22.2934  22.3067  22.3176  22.5453  22.5567  22.6166  22.6684  23.0607
    24.8164  24.8814  25.5178  25.7127  25.9921  26.1105  28.3884  28.5123
    29.3156  30.2608  30.6148  30.6428  31.1096  31.5700  32.1701

          k =-0.4696-0.2711-0.2912 (  5804 PWs)   bands (ev):

   -45.7452 -45.7452 -45.6745 -45.6745 -45.6250 -45.6250 -45.5572 -45.5572
   -39.7483 -39.7482 -39.7431 -39.7431 -17.4247 -17.4247 -17.0849 -17.0849
   -16.8001 -16.8001 -16.7331 -16.7331 -16.7131 -16.7131 -16.6207 -16.6207
   -16.5481 -16.5481 -16.4356 -16.4356 -16.2491 -16.2491 -16.2126 -16.2126
   -16.1539 -16.1539 -16.1184 -16.1183 -12.3481 -12.3480 -12.3325 -12.3325
   -12.3061 -12.3061 -12.2529 -12.2528 -12.2096 -12.2096 -12.2053 -12.2053
    15.1815  15.1815  16.0915  16.0915  16.3117  16.3117  16.5841  16.5841
    16.7510  16.7510  16.9140  16.9141  17.2604  17.2604  17.4203  17.4203
    17.4644  17.4645  17.8980  17.8980  18.0388  18.0388  18.0577  18.0577
    18.4347  18.4348  18.5145  18.5145  18.6291  18.6291  19.0251  19.0251
    19.6965  19.6965  19.8279  19.8279  19.8348  19.8348  20.0918  20.0918
    20.4214  20.4214  20.4964  20.4964  20.9320  20.9320  21.1900  21.1900
    21.2171  21.2171  21.5344  21.5345  21.6781  21.6782  22.0543  22.0543
    22.2142  22.2142  22.2347  22.2347  22.4453  22.4453  22.8692  22.8692
    25.6733  25.6733  25.6793  25.6793  25.9764  25.9764  27.8252  27.8252
    29.4939  29.4939  31.0925  31.0925  31.1669  31.1669  32.1878

          k =-0.4696 0.0904 0.0000 (  5827 PWs)   bands (ev):

   -45.7613 -45.7405 -45.6942 -45.6582 -45.6312 -45.6231 -45.5821 -45.5363
   -39.7500 -39.7478 -39.7475 -39.7452 -17.4596 -17.3310 -17.1658 -17.0810
   -16.9266 -16.8085 -16.7773 -16.7009 -16.6883 -16.6527 -16.5794 -16.5342
   -16.5331 -16.4991 -16.4791 -16.4235 -16.3439 -16.2874 -16.2531 -16.1893
   -16.1814 -16.1582 -16.1198 -16.0969 -12.3645 -12.3572 -12.3490 -12.3371
   -12.3127 -12.2876 -12.2716 -12.2475 -12.2137 -12.2087 -12.2058 -12.2055
    15.2038  15.5192  15.8907  16.0259  16.1773  16.4729  16.4812  16.5466
    16.6386  16.7623  16.8467  16.9493  17.0396  17.1575  17.2919  17.5343
    17.5856  17.7045  17.8444  17.9155  17.9945  18.1208  18.1230  18.2201
    18.2382  18.2806  18.4637  18.5712  18.7375  18.8669  18.9805  19.0509
    19.1033  19.3852  19.5839  19.6369  19.8301  20.0627  20.1065  20.1477
    20.5874  20.6005  20.6889  20.7175  20.9065  21.0319  21.0872  21.1740
    21.3572  21.4218  21.7011  21.7621  21.7922  21.8228  22.0096  22.1602
    22.2528  22.2560  22.3579  22.4853  22.5336  22.6303  23.0953  23.3495
    23.7365  24.2818  24.4785  25.1642  25.5964  27.9307  28.9420  29.0727
    29.6549  29.7273  30.1747  31.1367  31.2365  31.3871  31.7371

          k =-0.4696 0.0904 0.1456 (  5825 PWs)   bands (ev):

   -45.7583 -45.7456 -45.6881 -45.6667 -45.6272 -45.6229 -45.5739 -45.5425
   -39.7509 -39.7475 -39.7460 -39.7456 -17.4461 -17.3590 -17.1437 -17.0880
   -16.8997 -16.7887 -16.7632 -16.7169 -16.7031 -16.6778 -16.6324 -16.6003
   -16.5172 -16.5103 -16.4211 -16.3883 -16.3227 -16.2705 -16.2290 -16.1892
   -16.1854 -16.1656 -16.1327 -16.1115 -12.3600 -12.3510 -12.3460 -12.3402
   -12.3127 -12.2955 -12.2644 -12.2549 -12.2139 -12.2088 -12.2066 -12.2023
    15.2372  15.4319  15.9686  16.0404  16.2496  16.4907  16.5452  16.5610
    16.6706  16.6920  16.7209  16.8941  17.0812  17.1991  17.3186  17.4747
    17.5442  17.5884  17.7073  17.7838  17.8664  18.0713  18.1970  18.2669
    18.3256  18.4149  18.4762  18.7024  18.7543  18.8931  18.9192  19.2055
    19.2553  19.3043  19.6494  19.7826  19.8615  19.9459  20.2514  20.2812
    20.3583  20.5331  20.7476  20.7967  20.9291  20.9888  21.0688  21.1763
    21.3070  21.3534  21.4867  21.6131  21.7687  21.9297  22.0360  22.0717
    22.2100  22.2688  22.3489  22.4423  22.4845  22.6359  22.6786  23.3402
    23.8305  24.3856  24.6079  25.6248  26.3941  27.8566  28.2226  28.9740
    29.3199  29.6997  29.9105  30.4387  30.9902  31.8125  32.0106

          k =-0.4696 0.0904-0.2912 (  5824 PWs)   bands (ev):

   -45.7500 -45.7500 -45.6809 -45.6809 -45.6249 -45.6249 -45.5563 -45.5563
   -39.7498 -39.7497 -39.7451 -39.7450 -17.4105 -17.4105 -17.1056 -17.1055
   -16.8196 -16.8196 -16.7512 -16.7511 -16.6941 -16.6941 -16.6582 -16.6582
   -16.5125 -16.5125 -16.3836 -16.3836 -16.2692 -16.2692 -16.2061 -16.2061
   -16.1680 -16.1680 -16.1513 -16.1513 -12.3518 -12.3517 -12.3426 -12.3426
   -12.3064 -12.3063 -12.2572 -12.2571 -12.2130 -12.2129 -12.2065 -12.2065
    15.3189  15.3189  16.0275  16.0275  16.4205  16.4205  16.5496  16.5496
    16.7105  16.7105  16.7857  16.7857  17.2032  17.2032  17.3122  17.3122
    17.3531  17.3531  17.7298  17.7298  17.9592  17.9592  18.2431  18.2431
    18.4066  18.4066  18.6184  18.6184  18.8422  18.8422  19.2532  19.2532
    19.4647  19.4647  19.6008  19.6008  20.0063  20.0063  20.0730  20.0730
    20.5062  20.5062  20.8036  20.8037  20.9120  20.9120  21.0830  21.0831
    21.3689  21.3689  21.5840  21.5840  21.7212  21.7212  21.9049  21.9049
    22.1849  22.1849  22.3473  22.3474  22.6590  22.6590  22.8466  22.8466
    24.0152  24.0152  25.7393  25.7393  27.3944  27.3944  28.1063  28.1064
    29.1631  29.1632  30.0007  30.0007  31.5174  31.5176  32.2733

     the Fermi energy is    22.6276 ev

!    total energy              =   -2310.20866894 Ry
     Harris-Foulkes estimate   =   -2310.20872790 Ry
     estimated scf accuracy    <       0.00006246 Ry

     The total energy is the sum of the following terms:

     one-electron contribution =    -317.73660118 Ry
     hartree contribution      =     313.80517283 Ry
     xc contribution           =    -232.73839947 Ry
     ewald contribution        =   -2072.72098764 Ry
     smearing contrib. (-TS)   =      -0.81785349 Ry

     convergence has been achieved in  10 iterations

     Forces acting on atoms (Ry/au):

     atom    1 type  1   force =     0.00000000    0.00000000    0.00178953
     atom    2 type  1   force =     0.00000000    0.00000000    0.00178953
     atom    3 type  1   force =     0.00000000    0.00000000   -0.00178953
     atom    4 type  1   force =     0.00000000    0.00000000   -0.00178953
     atom    5 type  2   force =     0.00000000    0.00000000    0.00000000
     atom    6 type  2   force =     0.00000000    0.00000000    0.00000000
     atom    7 type  2   force =     0.00000000   -0.00928359    0.00000000
     atom    8 type  2   force =     0.00803983   -0.00464180    0.00000000
     atom    9 type  2   force =    -0.00803983   -0.00464180    0.00000000
     atom   10 type  2   force =     0.00803983    0.00464180    0.00000000
     atom   11 type  2   force =    -0.00803983    0.00464180    0.00000000
     atom   12 type  2   force =     0.00000000    0.00928359    0.00000000

     Total force =     0.023020     Total SCF correction =     0.000000


     entering subroutine stress ...

          total   stress  (Ry/bohr**3)                   (kbar)     P= -415.73
  -0.00279994   0.00000000   0.00000000       -411.89      0.00      0.00
   0.00000000  -0.00279994   0.00000000          0.00   -411.89      0.00
   0.00000000   0.00000000  -0.00287834          0.00      0.00   -423.42


     number of scf cycles    =   2
     number of bfgs steps    =   1

     enthalpy old            =   -2310.2162394828 Ry
     enthalpy new            =   -2310.2086689450 Ry

     CASE: enthalpy_new > enthalpy_old

     new trust radius        =       0.2556625570 bohr

     trust_radius < trust_radius_min

     resetting bfgs history

     new conv_thr            =       0.0001000000 Ry

     new unit-cell volume =   1637.54803 a.u.^3 (   242.65958 Ang^3 )

CELL_PARAMETERS (alat=  9.92348860)
   1.062506616   0.000000000   0.000000000
  -0.531253308   0.920157721   0.000000000
   0.000000000   0.000000000   1.713984947

ATOMIC_POSITIONS (crystal)
Mg       0.333333000   0.666667000   0.062449339
Mg       0.666667000   0.333333000   0.562449339
Mg       0.666667000   0.333333000   0.937550661
Mg       0.333333000   0.666667000   0.437550661
Zn       0.000000000   0.000000000   0.000000000
Zn       0.000000000   0.000000000   0.500000000
Zn       0.171761661   0.343523322   0.750000000
Zn       0.828238339   0.171761661   0.250000000
Zn       0.343523322   0.171761661   0.250000000
Zn       0.656476678   0.828238339   0.750000000
Zn       0.171761661   0.828238339   0.750000000
Zn       0.828238339   0.656476678   0.250000000



     Writing output data file Prototype-La-hP12-MgZn2.save
     NEW-OLD atomic charge density approx. for the potential
     NEW k-points:
        k(    1) = (   0.0000000   0.0000000   0.0000000), wk =   0.0833333
        k(    2) = (   0.0000000   0.0000000   0.1458589), wk =   0.1666667
        k(    3) = (   0.0000000   0.0000000  -0.2917178), wk =   0.0833333
        k(    4) = (   0.0000000   0.3622567   0.0000000), wk =   0.1666667
        k(    5) = (   0.0000000   0.3622567   0.1458589), wk =   0.3333333
        k(    6) = (   0.0000000   0.3622567  -0.2917178), wk =   0.1666667
        k(    7) = (  -0.4705853  -0.2716926   0.0000000), wk =   0.0833333
        k(    8) = (  -0.4705853  -0.2716926   0.1458589), wk =   0.1666667
        k(    9) = (  -0.4705853  -0.2716926  -0.2917178), wk =   0.0833333
        k(   10) = (  -0.4705853   0.0905642   0.0000000), wk =   0.1666667
        k(   11) = (  -0.4705853   0.0905642   0.1458589), wk =   0.3333333
        k(   12) = (  -0.4705853   0.0905642  -0.2917178), wk =   0.1666667

     total cpu time spent up to now is      670.4 secs

     Self-consistent Calculation

     iteration #  1     ecut=    40.00 Ry     beta=0.70
     CG style diagonalization
     ethr =  1.00E-06,  avg # of iterations =  5.6

     total cpu time spent up to now is      718.6 secs

     total energy              =   -2310.20985728 Ry
     Harris-Foulkes estimate   =   -2310.25399182 Ry
     estimated scf accuracy    <       0.05408923 Ry

     iteration #  2     ecut=    40.00 Ry     beta=0.70
     CG style diagonalization
     ethr =  2.55E-05,  avg # of iterations =  4.0

     total cpu time spent up to now is      755.6 secs

     total energy              =   -2310.20504160 Ry
     Harris-Foulkes estimate   =   -2310.26493830 Ry
     estimated scf accuracy    <       0.14142242 Ry

     iteration #  3     ecut=    40.00 Ry     beta=0.70
     CG style diagonalization
     ethr =  2.55E-05,  avg # of iterations =  3.6

     total cpu time spent up to now is      783.6 secs

     total energy              =   -2310.23188139 Ry
     Harris-Foulkes estimate   =   -2310.24157725 Ry
     estimated scf accuracy    <       0.02773281 Ry

     iteration #  4     ecut=    40.00 Ry     beta=0.70
     CG style diagonalization
     ethr =  1.31E-05,  avg # of iterations =  3.1

     total cpu time spent up to now is      814.0 secs

     total energy              =   -2310.23601687 Ry
     Harris-Foulkes estimate   =   -2310.23705745 Ry
     estimated scf accuracy    <       0.00271886 Ry

     iteration #  5     ecut=    40.00 Ry     beta=0.70
     CG style diagonalization
     ethr =  1.28E-06,  avg # of iterations =  3.5

     total cpu time spent up to now is      846.7 secs

     total energy              =   -2310.23656617 Ry
     Harris-Foulkes estimate   =   -2310.23703954 Ry
     estimated scf accuracy    <       0.00176491 Ry

     iteration #  6     ecut=    40.00 Ry     beta=0.70
     CG style diagonalization
     ethr =  8.33E-07,  avg # of iterations =  3.0

     total cpu time spent up to now is      871.6 secs

     End of self-consistent calculation

          k = 0.0000 0.0000 0.0000 (  5769 PWs)   bands (ev):

   -45.6378 -45.6207 -45.4549 -45.4548 -45.4510 -45.4509 -45.4265 -45.3851
   -39.5753 -39.5713 -39.5685 -39.5588 -17.6783 -17.4818 -17.0457 -16.7970
   -16.7970 -16.7569 -16.7569 -16.6140 -16.6139 -16.4886 -16.3934 -16.3207
   -16.3206 -16.2473 -16.2473 -15.9893 -15.9892 -15.9871 -15.9737 -15.9622
   -15.9434 -15.9433 -15.9305 -15.9305 -12.1840 -12.1741 -12.1691 -12.1691
   -12.1501 -12.1501 -12.0668 -12.0356 -12.0356 -12.0308 -12.0297 -12.0297
    14.0156  14.6410  15.0353  15.6464  15.8185  15.8185  16.2138  16.2138
    16.2522  16.4855  16.4856  16.6663  16.8938  16.8938  17.1430  17.3782
    17.3783  17.6960  18.1189  18.1189  18.1384  18.1385  18.4091  19.0912
    19.0912  19.2579  19.7694  19.7695  19.7855  19.7855  19.8390  19.8390
    20.0597  20.0987  20.0988  20.1122  20.1122  20.1800  20.4495  20.4495
    20.5478  20.5479  20.5687  20.7054  20.8344  20.8344  20.8774  21.4189
    21.9224  21.9224  22.0439  22.0439  22.6009  22.6009  22.6801  22.6970
    22.6970  22.7809  22.7810  23.0473  23.0473  23.8064  23.8103  25.1290
    25.2886  26.6048  26.6048  26.7492  27.5768  27.5768  27.7266  28.7330
    29.1997  29.2398  29.2399  29.5775  30.8304  30.8304  31.1328

          k = 0.0000 0.0000 0.1459 (  5780 PWs)   bands (ev):

   -45.6345 -45.6209 -45.4573 -45.4573 -45.4538 -45.4537 -45.4175 -45.3968
   -39.5783 -39.5717 -39.5635 -39.5633 -17.6575 -17.5200 -16.9857 -16.7966
   -16.7966 -16.7675 -16.7674 -16.6259 -16.5851 -16.5851 -16.4104 -16.4104
   -16.2618 -16.1723 -16.1723 -16.0153 -16.0027 -16.0026 -15.9781 -15.9717
   -15.9474 -15.9473 -15.9361 -15.9361 -12.1765 -12.1716 -12.1610 -12.1610
   -12.1607 -12.1606 -12.0768 -12.0379 -12.0379 -12.0379 -12.0321 -12.0321
    14.0679  14.4398  15.2967  15.8091  15.8504  15.8504  16.0349  16.0925
    16.0925  16.6303  16.6303  16.6704  16.9054  16.9054  17.1879  17.1964
    17.3556  17.3557  17.7446  17.7446  18.5777  18.5777  18.9670  19.1620
    19.1620  19.2655  19.6100  19.6101  19.6648  19.6648  19.8302  19.8325
    19.8325  20.0424  20.0424  20.2321  20.3286  20.3286  20.3414  20.3414
    20.4039  20.4039  20.5875  20.6842  20.7151  21.0951  21.0951  21.6584
    21.6584  21.8624  22.2056  22.2057  22.5845  22.5845  22.6242  22.6242
    22.6295  22.9728  22.9728  23.0750  23.0750  23.8069  23.8093  25.0461
    25.2355  26.1084  26.5099  26.5099  27.2635  27.2635  27.8935  28.6544
    29.4655  29.5766  29.5766  29.7029  30.5056  30.5056  31.6243

          k = 0.0000 0.0000-0.2917 (  5780 PWs)   bands (ev):

   -45.6363 -45.6363 -45.4491 -45.4491 -45.4491 -45.4491 -45.4106 -45.4106
   -39.5760 -39.5759 -39.5621 -39.5620 -17.5923 -17.5923 -16.8482 -16.8482
   -16.7787 -16.7787 -16.7787 -16.7787 -16.5020 -16.5020 -16.5020 -16.5020
   -16.1210 -16.1210 -16.0739 -16.0739 -16.0739 -16.0739 -15.9669 -15.9669
   -15.9441 -15.9441 -15.9441 -15.9441 -12.1730 -12.1729 -12.1583 -12.1583
   -12.1583 -12.1582 -12.0711 -12.0710 -12.0304 -12.0304 -12.0304 -12.0304
    14.2138  14.2138  15.6655  15.6656  15.9447  15.9447  15.9447  15.9447
    16.2679  16.2679  16.8244  16.8245  16.8245  16.8245  17.0905  17.0905
    17.4582  17.4582  17.4582  17.4582  19.0121  19.0121  19.0121  19.0121
    19.3218  19.3218  19.5498  19.5498  19.5498  19.5499  19.9098  19.9098
    19.9529  19.9529  19.9529  19.9529  20.1582  20.1582  20.1582  20.1582
    20.6361  20.6362  20.8785  20.8785  20.8785  20.8785  21.1774  21.1775
    21.8951  21.8951  21.8951  21.8951  22.7205  22.7206  22.7206  22.7206
    23.0277  23.0277  23.0277  23.0277  23.8083  23.8083  23.9169  23.9169
    25.4595  25.4595  26.7054  26.7054  26.7054  26.7054  28.3688  28.3688
    29.7487  29.7487  30.1283  30.1283  30.1283  30.1283  32.1986

          k = 0.0000 0.3623 0.0000 (  5787 PWs)   bands (ev):

   -45.6179 -45.5858 -45.5040 -45.4768 -45.4552 -45.4488 -45.4273 -45.3822
   -39.5757 -39.5694 -39.5686 -39.5651 -17.4394 -17.2742 -17.0372 -16.8332
   -16.7446 -16.6514 -16.6429 -16.6122 -16.5897 -16.4709 -16.4269 -16.3755
   -16.3151 -16.3044 -16.3038 -16.1977 -16.1588 -16.0954 -16.0858 -15.9946
   -15.9818 -15.9523 -15.9395 -15.9379 -12.1904 -12.1810 -12.1664 -12.1556
   -12.1515 -12.1338 -12.0860 -12.0643 -12.0389 -12.0387 -12.0315 -12.0250
    14.8623  15.4353  15.5182  16.1049  16.1362  16.4125  16.5187  16.5676
    16.7202  16.7211  16.8391  17.0962  17.1010  17.1623  17.2855  17.6381
    17.7247  17.7665  17.9812  18.1157  18.2325  18.2433  18.3035  18.3940
    18.5538  18.6464  18.6544  18.8810  18.9194  19.1566  19.4395  19.4926
    19.6438  19.6684  19.9810  20.1418  20.2451  20.2928  20.3136  20.4075
    20.5711  20.6194  20.8292  20.8667  21.1685  21.2274  21.2470  21.4492
    21.4857  21.5638  21.6141  21.7097  22.0261  22.1668  22.3402  22.4186
    22.5782  22.5995  22.6713  22.6768  22.9517  22.9906  23.0570  23.2685
    24.7023  25.3493  25.7291  25.9089  26.4650  26.9910  28.4501  28.8730
    29.3167  29.7634  30.4387  31.1421  31.4171  31.5585  31.9388

          k = 0.0000 0.3623 0.1459 (  5804 PWs)   bands (ev):

   -45.6143 -45.5936 -45.5031 -45.4837 -45.4591 -45.4536 -45.4234 -45.3866
   -39.5761 -39.5716 -39.5709 -39.5664 -17.4285 -17.3194 -16.9818 -16.8439
   -16.7391 -16.6400 -16.6307 -16.6275 -16.5772 -16.5637 -16.4714 -16.4111
   -16.3353 -16.2928 -16.2246 -16.1618 -16.1556 -16.0797 -16.0622 -16.0181
   -15.9998 -15.9606 -15.9523 -15.9506 -12.1934 -12.1792 -12.1697 -12.1585
   -12.1545 -12.1406 -12.0877 -12.0774 -12.0398 -12.0387 -12.0364 -12.0264
    14.9046  15.2038  15.7767  16.0620  16.1888  16.4720  16.5985  16.6172
    16.7038  16.7120  16.7745  16.9772  17.1481  17.2512  17.3216  17.3526
    17.6078  17.7048  17.7968  17.8437  18.1309  18.3550  18.4080  18.6029
    18.6183  18.6850  18.8851  18.9329  18.9417  19.2922  19.5025  19.6689
    19.7147  19.7472  19.9390  19.9571  20.1551  20.2029  20.2658  20.4193
    20.5004  20.6685  20.8456  21.0204  21.0364  21.2275  21.3192  21.4313
    21.4381  21.4791  21.6348  21.6579  21.8003  22.0466  22.2060  22.3961
    22.5301  22.5913  22.6829  22.6883  22.8599  23.0546  23.2738  23.8536
    24.1968  25.8149  25.8420  25.9400  26.6010  26.6220  27.9498  28.7940
    29.7471  30.2874  30.4679  30.4816  30.8996  31.5352  31.7138

          k = 0.0000 0.3623-0.2917 (  5816 PWs)   bands (ev):

   -45.6039 -45.6039 -45.4992 -45.4992 -45.4590 -45.4590 -45.4037 -45.4037
   -39.5759 -39.5758 -39.5689 -39.5688 -17.3874 -17.3874 -16.8977 -16.8977
   -16.6924 -16.6924 -16.6393 -16.6393 -16.5600 -16.5600 -16.4997 -16.4997
   -16.2988 -16.2988 -16.1796 -16.1796 -16.0782 -16.0782 -16.0435 -16.0435
   -16.0085 -16.0085 -15.9513 -15.9513 -12.1845 -12.1845 -12.1628 -12.1628
   -12.1548 -12.1547 -12.0878 -12.0877 -12.0400 -12.0400 -12.0351 -12.0351
    15.0192  15.0192  15.9647  15.9647  16.3608  16.3608  16.6650  16.6650
    16.7558  16.7559  16.8224  16.8224  17.2506  17.2506  17.3017  17.3017
    17.4655  17.4655  17.6098  17.6099  18.3235  18.3235  18.4558  18.4558
    18.7310  18.7310  19.0435  19.0435  19.3353  19.3353  19.7178  19.7178
    19.7927  19.7927  19.8838  19.8838  20.0592  20.0592  20.2077  20.2077
    20.6575  20.6575  20.8006  20.8006  21.0649  21.0649  21.3657  21.3657
    21.5301  21.5301  21.6874  21.6874  21.8677  21.8678  22.2758  22.2758
    22.3473  22.3473  22.7050  22.7050  23.1052  23.1053  23.4814  23.4814
    25.2118  25.2118  26.0958  26.0958  26.2947  26.2947  28.5853  28.5854
    29.5676  29.5676  30.7122  30.7122  31.2862  31.2863  31.8048

          k =-0.4706-0.2717 0.0000 (  5800 PWs)   bands (ev):

   -45.5938 -45.5783 -45.5265 -45.4925 -45.4619 -45.4504 -45.4274 -45.3812
   -39.5733 -39.5728 -39.5717 -39.5654 -17.3296 -17.1777 -17.0282 -16.9117
   -16.6963 -16.6631 -16.6110 -16.5505 -16.5156 -16.4928 -16.4513 -16.3956
   -16.3665 -16.3608 -16.3250 -16.2649 -16.2486 -16.1369 -16.1080 -16.0088
   -15.9828 -15.9509 -15.9399 -15.9264 -12.1992 -12.1786 -12.1703 -12.1564
   -12.1462 -12.1200 -12.1052 -12.0793 -12.0403 -12.0372 -12.0358 -12.0241
    15.1878  15.5261  15.8187  16.3593  16.3690  16.6263  16.7295  16.7954
    16.8214  16.8333  16.9502  17.0293  17.3909  17.4236  17.5009  17.5605
    18.0147  18.0628  18.0681  18.1378  18.2081  18.2126  18.2571  18.2717
    18.3044  18.3454  18.4380  18.5300  18.8082  19.0096  19.0844  19.1833
    19.2225  19.4996  19.6727  20.0165  20.2617  20.2990  20.3601  20.4207
    20.4858  20.5291  20.6752  20.7893  20.8210  20.9835  21.0720  21.2643
    21.3844  21.5943  21.8646  21.8655  21.8796  22.0365  22.0967  22.3370
    22.3480  22.4485  22.7787  22.8300  22.9478  23.2673  23.3503  23.5900
    23.7853  24.2093  25.6767  25.7180  26.3730  26.4138  29.0669  29.4258
    29.4426  30.1069  30.8225  31.1966  31.7233  31.9712  31.9963

          k =-0.4706-0.2717 0.1459 (  5822 PWs)   bands (ev):

   -45.5941 -45.5801 -45.5263 -45.5039 -45.4652 -45.4571 -45.4190 -45.3913
   -39.5756 -39.5743 -39.5708 -39.5706 -17.3195 -17.2196 -16.9923 -16.9149
   -16.6985 -16.6340 -16.6023 -16.5614 -16.5575 -16.5024 -16.4949 -16.4205
   -16.3971 -16.3808 -16.2979 -16.2726 -16.1876 -16.1122 -16.0709 -16.0325
   -16.0003 -15.9533 -15.9512 -15.9504 -12.1927 -12.1847 -12.1744 -12.1638
   -12.1484 -12.1401 -12.1038 -12.0866 -12.0435 -12.0427 -12.0357 -12.0272
    15.2206  15.4221  15.9711  16.3871  16.4032  16.5748  16.6546  16.7894
    16.8108  16.8600  16.8902  17.0405  17.3284  17.5036  17.5280  17.6569
    17.7875  17.9807  18.0436  18.0872  18.1175  18.1181  18.2047  18.2078
    18.4425  18.4655  18.5519  18.6895  18.8070  18.8201  19.0581  19.1388
    19.6402  19.7108  19.7366  20.0963  20.1218  20.1560  20.2829  20.3929
    20.4086  20.6217  20.6981  20.8490  20.9959  21.0501  21.1597  21.1988
    21.3950  21.6557  21.6635  21.6887  21.7915  22.0150  22.1041  22.4634
    22.4777  22.4893  22.5023  22.7325  22.7395  22.8037  22.8583  23.2583
    25.0143  25.0801  25.7236  25.9157  26.1891  26.3217  28.6018  28.7206
    29.5387  30.4948  30.8261  30.8479  31.3170  31.7784  32.3773

          k =-0.4706-0.2717-0.2917 (  5804 PWs)   bands (ev):

   -45.5825 -45.5825 -45.5132 -45.5132 -45.4590 -45.4590 -45.4042 -45.4042
   -39.5740 -39.5739 -39.5685 -39.5685 -17.2811 -17.2811 -16.9386 -16.9386
   -16.6464 -16.6464 -16.5810 -16.5810 -16.5609 -16.5609 -16.4620 -16.4620
   -16.3901 -16.3901 -16.2757 -16.2757 -16.0941 -16.0941 -16.0522 -16.0522
   -15.9937 -15.9937 -15.9525 -15.9525 -12.1815 -12.1814 -12.1670 -12.1670
   -12.1398 -12.1397 -12.0852 -12.0851 -12.0406 -12.0405 -12.0374 -12.0374
    15.3041  15.3041  16.2220  16.2220  16.4379  16.4379  16.7150  16.7150
    16.8768  16.8768  17.0538  17.0538  17.3967  17.3967  17.5516  17.5516
    17.6059  17.6059  18.0421  18.0421  18.1937  18.1937  18.2034  18.2034
    18.5949  18.5950  18.6630  18.6630  18.7777  18.7777  19.1745  19.1745
    19.8595  19.8595  19.9896  19.9896  19.9909  19.9909  20.2556  20.2556
    20.5833  20.5833  20.6605  20.6605  21.1015  21.1015  21.3589  21.3589
    21.3897  21.3897  21.7107  21.7108  21.8517  21.8517  22.2339  22.2340
    22.3973  22.3974  22.4208  22.4208  22.6315  22.6315  23.0612  23.0612
    25.8761  25.8761  25.8811  25.8811  26.1827  26.1827  28.0442  28.0443
    29.7006  29.7006  31.3205  31.3205  31.3765  31.3765  32.3980

          k =-0.4706 0.0906 0.0000 (  5827 PWs)   bands (ev):

   -45.6001 -45.5765 -45.5329 -45.4941 -45.4650 -45.4571 -45.4332 -45.3814
   -39.5757 -39.5733 -39.5730 -39.5704 -17.3176 -17.1803 -17.0291 -16.9305
   -16.7724 -16.6614 -16.6305 -16.5412 -16.5278 -16.4975 -16.4214 -16.3766
   -16.3763 -16.3397 -16.3232 -16.2720 -16.1827 -16.1288 -16.0938 -16.0231
   -16.0158 -16.0002 -15.9607 -15.9347 -12.1980 -12.1906 -12.1834 -12.1716
   -12.1461 -12.1204 -12.1043 -12.0800 -12.0446 -12.0407 -12.0372 -12.0366
    15.3286  15.6360  16.0259  16.1486  16.3060  16.5963  16.6084  16.6789
    16.7740  16.8966  16.9816  17.0864  17.1749  17.3026  17.4326  17.6781
    17.7264  17.8466  17.9897  18.0549  18.1416  18.2638  18.2677  18.3686
    18.3870  18.4259  18.6072  18.7184  18.8926  19.0183  19.1339  19.2091
    19.2564  19.5432  19.7407  19.7930  19.9884  20.2214  20.2692  20.3125
    20.7500  20.7644  20.8545  20.8826  21.0754  21.2044  21.2569  21.3453
    21.5316  21.5958  21.8805  21.9415  21.9715  22.0008  22.1915  22.3431
    22.4376  22.4394  22.5433  22.6718  22.7251  22.8191  23.2848  23.5409
    23.9320  24.4797  24.6720  25.3665  25.7935  28.1493  29.1439  29.2822
    29.8683  29.9357  30.3924  31.3592  31.4444  31.6022  31.9578

          k =-0.4706 0.0906 0.1459 (  5825 PWs)   bands (ev):

   -45.5966 -45.5817 -45.5270 -45.5042 -45.4611 -45.4569 -45.4231 -45.3880
   -39.5765 -39.5731 -39.5714 -39.5709 -17.3038 -17.2120 -17.0019 -16.9384
   -16.7464 -16.6405 -16.6152 -16.5624 -16.5448 -16.5174 -16.4787 -16.4464
   -16.3584 -16.3512 -16.2615 -16.2299 -16.1642 -16.1104 -16.0698 -16.0283
   -16.0214 -16.0040 -15.9733 -15.9495 -12.1937 -12.1841 -12.1803 -12.1747
   -12.1462 -12.1286 -12.0969 -12.0873 -12.0448 -12.0399 -12.0385 -12.0342
    15.3614  15.5518  16.0989  16.1676  16.3789  16.6166  16.6758  16.6890
    16.8045  16.8272  16.8519  17.0306  17.2215  17.3367  17.4603  17.6134
    17.6840  17.7261  17.8487  17.9270  18.0109  18.2214  18.3461  18.4141
    18.4739  18.5658  18.6228  18.8524  18.9040  19.0440  19.0708  19.3600
    19.4141  19.4616  19.8089  19.9416  20.0198  20.1055  20.4124  20.4433
    20.5240  20.6980  20.9151  20.9620  21.0987  21.1580  21.2390  21.3483
    21.4806  21.5263  21.6616  21.7898  21.9472  22.1105  22.2174  22.2536
    22.3932  22.4530  22.5334  22.6277  22.6712  22.8254  22.8703  23.5304
    24.0267  24.5820  24.8056  25.8266  26.5958  28.0712  28.4370  29.1823
    29.5400  29.9099  30.1251  30.6505  31.2112  32.0261  32.2211

          k =-0.4706 0.0906-0.2917 (  5824 PWs)   bands (ev):

   -45.5873 -45.5872 -45.5197 -45.5197 -45.4588 -45.4588 -45.4030 -45.4030
   -39.5755 -39.5754 -39.5704 -39.5703 -17.2666 -17.2666 -16.9586 -16.9586
   -16.6668 -16.6668 -16.6009 -16.6009 -16.5393 -16.5393 -16.5028 -16.5028
   -16.3536 -16.3536 -16.2219 -16.2219 -16.1091 -16.1091 -16.0476 -16.0476
   -16.0074 -16.0074 -15.9890 -15.9890 -12.1853 -12.1852 -12.1769 -12.1769
   -12.1397 -12.1397 -12.0896 -12.0895 -12.0440 -12.0439 -12.0383 -12.0383
    15.4416  15.4416  16.1566  16.1566  16.5512  16.5512  16.6780  16.6780
    16.8404  16.8404  16.9230  16.9230  17.3402  17.3402  17.4493  17.4493
    17.4907  17.4907  17.8725  17.8725  18.1039  18.1039  18.3972  18.3972
    18.5548  18.5548  18.7682  18.7682  18.9934  18.9934  19.4054  19.4054
    19.6252  19.6252  19.7602  19.7602  20.1666  20.1666  20.2345  20.2345
    20.6699  20.6699  20.9721  20.9722  21.0803  21.0803  21.2538  21.2538
    21.5421  21.5421  21.7600  21.7600  21.8992  21.8992  22.0843  22.0843
    22.3676  22.3676  22.5331  22.5331  22.8463  22.8463  23.0373  23.0373
    24.2116  24.2116  25.9400  25.9400  27.6018  27.6018  28.3251  28.3252
    29.3793  29.3793  30.2124  30.2124  31.7321  31.7322  32.4766

     the Fermi energy is    22.8112 ev

!    total energy              =   -2310.23677529 Ry
     Harris-Foulkes estimate   =   -2310.23680368 Ry
     estimated scf accuracy    <       0.00003216 Ry

     The total energy is the sum of the following terms:

     one-electron contribution =    -311.75854089 Ry
     hartree contribution      =     312.07204744 Ry
     xc contribution           =    -232.83307207 Ry
     ewald contribution        =   -2076.90469492 Ry
     smearing contrib. (-TS)   =      -0.81251484 Ry

     convergence has been achieved in   6 iterations

     Forces acting on atoms (Ry/au):

     atom    1 type  1   force =     0.00000000    0.00000000    0.00348914
     atom    2 type  1   force =     0.00000000    0.00000000    0.00348914
     atom    3 type  1   force =     0.00000000    0.00000000   -0.00348914
     atom    4 type  1   force =     0.00000000    0.00000000   -0.00348914
     atom    5 type  2   force =     0.00000000    0.00000000    0.00000000
     atom    6 type  2   force =     0.00000000    0.00000000    0.00000000
     atom    7 type  2   force =     0.00000000   -0.03957031    0.00000000
     atom    8 type  2   force =     0.03426889   -0.01978515    0.00000000
     atom    9 type  2   force =    -0.03426889   -0.01978515    0.00000000
     atom   10 type  2   force =     0.03426889    0.01978515    0.00000000
     atom   11 type  2   force =    -0.03426889    0.01978515    0.00000000
     atom   12 type  2   force =     0.00000000    0.03957031    0.00000000

     Total force =     0.097178     Total SCF correction =     0.000000


     entering subroutine stress ...

          total   stress  (Ry/bohr**3)                   (kbar)     P= -396.76
  -0.00266548   0.00000000   0.00000000       -392.11      0.00      0.00
   0.00000000  -0.00266548   0.00000000          0.00   -392.11      0.00
   0.00000000   0.00000000  -0.00276045          0.00      0.00   -406.08


     number of scf cycles    =   3
     number of bfgs steps    =   1

     enthalpy old            =   -2310.2162394828 Ry
     enthalpy new            =   -2310.2367752858 Ry

     CASE: enthalpy_new < enthalpy_old

     Message from routine bfgs:
     history already reset at previous step: stopping
     small trust_radius: resetting bfgs history

     new trust radius        =       0.5585297782 bohr
     new conv_thr            =       0.0000395703 Ry

     new unit-cell volume =   1328.12689 a.u.^3 (   196.80810 Ang^3 )

CELL_PARAMETERS (alat=  9.92348860)
   0.991704232   0.000000000   0.000000000
  -0.495852116   0.858841058   0.000000000
   0.000000000   0.000000000   1.595700860

ATOMIC_POSITIONS (crystal)
Mg       0.333333000   0.666667000   0.062654477
Mg       0.666667000   0.333333000   0.562654477
Mg       0.666667000   0.333333000   0.937345523
Mg       0.333333000   0.666667000   0.437345523
Zn       0.000000000   0.000000000   0.000000000
Zn       0.000000000   0.000000000   0.500000000
Zn       0.169594891   0.339189782   0.750000000
Zn       0.830405109   0.169594891   0.250000000
Zn       0.339189782   0.169594891   0.250000000
Zn       0.660810218   0.830405109   0.750000000
Zn       0.169594891   0.830405109   0.750000000
Zn       0.830405109   0.660810218   0.250000000



     Writing output data file Prototype-La-hP12-MgZn2.save
     NEW-OLD atomic charge density approx. for the potential
     NEW k-points:
        k(    1) = (   0.0000000   0.0000000   0.0000000), wk =   0.0833333
        k(    2) = (   0.0000000   0.0000000   0.1566710), wk =   0.1666667
        k(    3) = (   0.0000000   0.0000000  -0.3133419), wk =   0.0833333
        k(    4) = (   0.0000000   0.3881199   0.0000000), wk =   0.1666667
        k(    5) = (   0.0000000   0.3881199   0.1566710), wk =   0.3333333
        k(    6) = (   0.0000000   0.3881199  -0.3133419), wk =   0.1666667
        k(    7) = (  -0.5041826  -0.2910899   0.0000000), wk =   0.0833333
        k(    8) = (  -0.5041826  -0.2910899   0.1566710), wk =   0.1666667
        k(    9) = (  -0.5041826  -0.2910899  -0.3133419), wk =   0.0833333
        k(   10) = (  -0.5041826   0.0970300   0.0000000), wk =   0.1666667
        k(   11) = (  -0.5041826   0.0970300   0.1566710), wk =   0.3333333
        k(   12) = (  -0.5041826   0.0970300  -0.3133419), wk =   0.1666667

     total cpu time spent up to now is      882.2 secs

     Self-consistent Calculation

     iteration #  1     ecut=    40.00 Ry     beta=0.70
     CG style diagonalization
     c_bands:  3 eigenvalues not converged
     c_bands:  1 eigenvalues not converged
     c_bands:  1 eigenvalues not converged
     c_bands:  3 eigenvalues not converged
     c_bands:  1 eigenvalues not converged
     c_bands:  1 eigenvalues not converged
     c_bands:  1 eigenvalues not converged
     c_bands:  2 eigenvalues not converged
     ethr =  1.00E-06,  avg # of iterations = 20.9

     total cpu time spent up to now is     1056.3 secs

     total energy              =   -2299.35310816 Ry
     Harris-Foulkes estimate   =   -2322.72061573 Ry
     estimated scf accuracy    <      29.55413343 Ry

     iteration #  2     ecut=    40.00 Ry     beta=0.70
     CG style diagonalization
     ethr =  1.00E-02,  avg # of iterations =  4.2

     total cpu time spent up to now is     1090.7 secs

     total energy              =   -2304.57968239 Ry
     Harris-Foulkes estimate   =   -2314.55583951 Ry
     estimated scf accuracy    <      16.80160155 Ry

     iteration #  3     ecut=    40.00 Ry     beta=0.70
     CG style diagonalization
     ethr =  7.93E-03,  avg # of iterations =  3.5

     total cpu time spent up to now is     1122.5 secs

     total energy              =   -2308.81381937 Ry
     Harris-Foulkes estimate   =   -2311.37246787 Ry
     estimated scf accuracy    <       6.10380497 Ry

     iteration #  4     ecut=    40.00 Ry     beta=0.70
     CG style diagonalization
     ethr =  2.88E-03,  avg # of iterations =  3.5

     total cpu time spent up to now is     1151.1 secs

     total energy              =   -2309.96187513 Ry
     Harris-Foulkes estimate   =   -2310.14100582 Ry
     estimated scf accuracy    <       0.37913730 Ry

     iteration #  5     ecut=    40.00 Ry     beta=0.70
     CG style diagonalization
     ethr =  1.79E-04,  avg # of iterations =  3.7

     total cpu time spent up to now is     1185.6 secs

     total energy              =   -2310.02845186 Ry
     Harris-Foulkes estimate   =   -2310.09878229 Ry
     estimated scf accuracy    <       0.17828082 Ry

     iteration #  6     ecut=    40.00 Ry     beta=0.70
     CG style diagonalization
     c_bands:  1 eigenvalues not converged
     ethr =  8.41E-05,  avg # of iterations =  3.3

     total cpu time spent up to now is     1215.3 secs

     total energy              =   -2310.06198201 Ry
     Harris-Foulkes estimate   =   -2310.07893248 Ry
     estimated scf accuracy    <       0.04353713 Ry

     iteration #  7     ecut=    40.00 Ry     beta=0.70
     CG style diagonalization
     c_bands:  1 eigenvalues not converged
     ethr =  2.05E-05,  avg # of iterations =  3.4

     total cpu time spent up to now is     1245.3 secs

     total energy              =   -2310.07041132 Ry
     Harris-Foulkes estimate   =   -2310.07103037 Ry
     estimated scf accuracy    <       0.00186851 Ry

     iteration #  8     ecut=    40.00 Ry     beta=0.70
     CG style diagonalization
     c_bands:  1 eigenvalues not converged
     c_bands:  1 eigenvalues not converged
     ethr =  8.81E-07,  avg # of iterations =  4.1

     total cpu time spent up to now is     1278.8 secs

     total energy              =   -2310.07084444 Ry
     Harris-Foulkes estimate   =   -2310.07093080 Ry
     estimated scf accuracy    <       0.00022057 Ry

     iteration #  9     ecut=    40.00 Ry     beta=0.70
     CG style diagonalization
     c_bands:  1 eigenvalues not converged
     c_bands:  1 eigenvalues not converged
     ethr =  1.04E-07,  avg # of iterations =  3.5

     total cpu time spent up to now is     1307.3 secs

     End of self-consistent calculation

          k = 0.0000 0.0000 0.0000 (  5769 PWs)   bands (ev):

   -39.8433 -39.7388 -39.4312 -39.3704 -39.3703 -39.3685 -39.3685 -39.3147
   -33.0636 -33.0499 -33.0245 -33.0063 -12.8366 -12.4456 -11.8931 -11.2955
   -11.2954 -11.2037 -11.2036 -11.0606 -11.0606 -10.7678 -10.5314 -10.4452
   -10.4451 -10.3673 -10.3673  -9.8004  -9.7833  -9.7766  -9.7644  -9.7643
    -9.7553  -9.7553  -9.6890  -9.6889  -5.9669  -5.9625  -5.9256  -5.9256
    -5.9237  -5.9236  -5.7370  -5.6834  -5.6774  -5.6774  -5.6745  -5.6745
    18.3515  19.1514  19.3802  20.5159  20.5159  20.8137  21.0547  21.0547
    21.1639  21.2374  21.2374  21.6993  21.8096  21.8096  22.2799  22.4106
    22.4106  23.1443  23.4975  23.4976  23.5769  23.5769  24.1155  24.7716
    24.7716  25.1693  25.5681  25.5681  25.6414  25.6414  25.6423  25.6423
    26.0032  26.0032  26.0732  26.1017  26.1018  26.3468  26.6175  26.6176
    26.7064  26.7065  26.7500  27.0190  27.2159  27.2330  27.2330  28.0267
    28.6305  28.6305  28.8874  28.8874  29.6263  29.6263  29.7483  29.7919
    29.7919  30.0563  30.0563  30.3417  30.3418  31.5014  31.5092  32.6540
    32.7258  34.2350  34.3332  34.3333  35.0750  35.5544  35.5544  36.5308
    36.9275  37.4832  37.4832  37.5330  38.3618  38.4978  38.4978

[...]
     c_bands:  1 eigenvalues not converged
     c_bands:  1 eigenvalues not converged
     ethr =  3.96E-06,  avg # of iterations =  3.9

     total cpu time spent up to now is     1780.7 secs

     total energy              =   -2309.97386619 Ry
     Harris-Foulkes estimate   =   -2309.97411120 Ry
     estimated scf accuracy    <       0.00055473 Ry

     iteration # 10     ecut=    40.00 Ry     beta=0.70
     CG style diagonalization
     ethr =  2.62E-07,  avg # of iterations =  4.0

     total cpu time spent up to now is     1796.2 secs

     total energy              =   -2309.97403218 Ry
     Harris-Foulkes estimate   =   -2309.97408877 Ry
     estimated scf accuracy    <       0.00013900 Ry

     iteration # 11     ecut=    40.00 Ry     beta=0.70
     CG style diagonalization
     ethr =  6.56E-08,  avg # of iterations =  3.5

     total cpu time spent up to now is     1809.0 secs

     End of self-consistent calculation

          k = 0.0000 0.0000 0.0000 (  5659 PWs)   bands (ev):

   -39.8505 -39.7445 -39.4335 -39.3751 -39.3751 -39.3739 -39.3739 -39.3206
   -33.0616 -33.0480 -33.0212 -33.0061 -12.8330 -12.4389 -11.9007 -11.2906
   -11.2906 -11.1948 -11.1948 -11.0656 -11.0655 -10.7713 -10.5156 -10.4378
   -10.4378 -10.3660 -10.3659  -9.8027  -9.7819  -9.7795  -9.7615  -9.7615
    -9.7496  -9.7496  -9.6923  -9.6923  -5.9629  -5.9448  -5.9184  -5.9184
    -5.9070  -5.9070  -5.7146  -5.6685  -5.6657  -5.6657  -5.6611  -5.6611
    18.3487  19.1496  19.3794  20.5147  20.5147  20.8145  21.0545  21.0546
    21.1628  21.2342  21.2342  21.7016  21.8066  21.8066  22.2798  22.4095
    22.4096  23.1445  23.4974  23.4974  23.5739  23.5740  24.1221  24.7698
    24.7698  25.1681  25.5700  25.5701  25.6437  25.6437  25.6451  25.6451
    26.0062  26.0063  26.0767  26.1019  26.1019  26.3510  26.6232  26.6232
    26.7103  26.7103  26.7457  27.0141  27.2180  27.2292  27.2292  28.0297
    28.6306  28.6307  28.8870  28.8870  29.6313  29.6313  29.7515  29.7921
    29.7922  30.0533  30.0533  30.3405  30.3405  31.4999  31.5059  32.6669
    32.7457  34.2415  34.3493  34.3494  35.0762  35.5638  35.5638  36.5651
    36.9542  37.4867  37.4868  37.5559  38.3664  38.5397  38.5401

          k = 0.0000 0.0000 0.1567 (  5636 PWs)   bands (ev):

   -39.8360 -39.7658 -39.4109 -39.3745 -39.3744 -39.3712 -39.3712 -39.3328
   -33.0594 -33.0511 -33.0185 -33.0052 -12.7884 -12.5395 -11.7406 -11.2799
   -11.2799 -11.2296 -11.2296 -11.0384 -10.9776 -10.9775 -10.6270 -10.6270
   -10.2864 -10.1793 -10.1793  -9.8534  -9.8376  -9.8376  -9.7743  -9.7713
    -9.7208  -9.7208  -9.6894  -9.6894  -5.9353  -5.9332  -5.9122  -5.9121
    -5.9092  -5.9092  -5.7260  -5.6793  -5.6638  -5.6638  -5.6581  -5.6581
    18.3978  18.8112  19.8199  20.5502  20.5502  20.8417  20.8529  20.8529
    21.0355  21.4583  21.4583  21.7802  21.8041  21.8042  22.3518  22.4286
    22.4286  22.5783  23.0320  23.0320  24.1125  24.1125  24.7095  24.8654
    24.8654  25.1158  25.4152  25.4153  25.4560  25.4560  25.6448  25.6448
    25.8548  25.9775  25.9775  26.3456  26.4189  26.4190  26.4994  26.4995
    26.5261  26.5261  26.7847  26.9749  26.9963  27.4025  27.4025  28.2675
    28.2675  28.5587  29.0975  29.0975  29.6687  29.6687  29.6740  29.6740
    29.7029  30.2522  30.2522  30.4718  30.4718  31.5011  31.5063  32.3604
    32.7571  33.9855  34.1372  34.1373  35.0914  35.1748  35.1748  36.3976
    37.0381  37.6276  38.0029  38.0031  38.6620  38.8461  38.8468

          k = 0.0000 0.0000-0.3133 (  5648 PWs)   bands (ev):

   -39.8042 -39.8042 -39.3729 -39.3729 -39.3729 -39.3729 -39.3698 -39.3698
   -33.0570 -33.0569 -33.0105 -33.0104 -12.6900 -12.6900 -11.4188 -11.4188
   -11.2638 -11.2637 -11.2637 -11.2637 -10.8260 -10.8260 -10.8260 -10.8260
   -10.0202 -10.0202  -9.9837  -9.9837  -9.9837  -9.9837  -9.7712  -9.7712
    -9.7016  -9.7016  -9.7016  -9.7016  -5.9280  -5.9279  -5.9101  -5.9101
    -5.9101  -5.9101  -5.7103  -5.7102  -5.6635  -5.6635  -5.6635  -5.6635
    18.5427  18.5428  20.3338  20.3338  20.6599  20.6599  20.6599  20.6599
    21.6083  21.6083  21.6929  21.6929  21.6929  21.6929  22.2094  22.2094
    22.6341  22.6341  22.6341  22.6341  24.6438  24.6438  24.6438  24.6438
    25.1173  25.1174  25.3873  25.3873  25.3874  25.3874  25.7955  25.7955
    25.7955  25.7955  25.9510  25.9510  26.2793  26.2793  26.2793  26.2793
    26.8776  26.8776  27.0691  27.0692  27.0692  27.0692  27.6479  27.6480
    28.5759  28.5759  28.5760  28.5760  29.8785  29.8785  29.8785  29.8785
    30.3734  30.3734  30.3734  30.3734  31.1825  31.1825  31.5043  31.5043
    33.0562  33.0562  34.3972  34.3972  34.3972  34.3972  35.9298  35.9298
    37.3228  37.3230  38.8823  38.8824  38.8826  38.8827  39.2451

          k = 0.0000 0.3881 0.0000 (  5673 PWs)   bands (ev):

   -39.7747 -39.6707 -39.5065 -39.4512 -39.4356 -39.3764 -39.3742 -39.2679
   -33.0546 -33.0384 -33.0314 -33.0143 -12.4406 -12.0548 -11.8556 -11.3064
   -11.1601 -11.1247 -11.0673 -10.9995 -10.8751 -10.6796 -10.6702 -10.5580
   -10.4439 -10.4291 -10.4275 -10.2194 -10.1375 -10.0369  -9.9928  -9.8286
    -9.7662  -9.7513  -9.7114  -9.6900  -5.9765  -5.9485  -5.9173  -5.9076
    -5.8716  -5.8413  -5.7642  -5.7250  -5.6683  -5.6683  -5.6589  -5.6588
    19.4449  19.8818  20.2847  20.8035  20.9224  21.2672  21.4822  21.4844
    21.6606  21.8039  21.8501  22.0963  22.1048  22.2861  22.4954  22.9243
    23.0421  23.1385  23.3345  23.4943  23.6668  23.6794  23.7113  23.9490
    23.9774  24.2788  24.3068  24.5908  24.5983  24.7952  25.1918  25.3934
    25.5874  25.6533  25.8627  26.1377  26.2176  26.3039  26.5594  26.5684
    26.7888  26.8623  27.1476  27.1996  27.6432  27.6645  27.7278  27.9579
    28.0473  28.1991  28.2200  28.3112  28.8251  29.0794  29.2035  29.3974
    29.5837  29.6052  29.7525  29.7717  30.0063  30.2972  30.3322  30.7178
    32.2945  32.8983  33.3809  33.5248  34.5284  34.6988  36.1841  36.9118
    37.0262  38.2848  38.3283  38.8301  39.0494  39.0820  39.4916

          k = 0.0000 0.3881 0.1567 (  5676 PWs)   bands (ev):

   -39.7639 -39.6892 -39.5049 -39.4811 -39.3849 -39.3762 -39.3743 -39.2834
   -33.0532 -33.0434 -33.0262 -33.0159 -12.4082 -12.1800 -11.6902 -11.3397
   -11.1770 -11.0480 -11.0413 -11.0054 -10.9140 -10.8506 -10.7300 -10.6213
   -10.4579 -10.3707 -10.2677 -10.1489 -10.1427 -10.0153  -9.9468  -9.8696
    -9.8258  -9.7384  -9.7278  -9.7147  -5.9659  -5.9448  -5.9160  -5.9093
    -5.8768  -5.8496  -5.7614  -5.7310  -5.6693  -5.6653  -5.6619  -5.6582
    19.4781  19.7239  20.5027  20.7774  21.0138  21.3273  21.4743  21.5514
    21.5900  21.7346  21.9002  22.0278  22.1629  22.3532  22.4981  22.6878
    22.8834  22.9094  23.0302  23.2085  23.6348  23.8166  23.9346  24.1687
    24.1828  24.3041  24.5038  24.5287  24.5599  25.0607  25.2390  25.6253
    25.7047  25.7458  25.8590  25.9799  26.2016  26.2337  26.4863  26.5456
    26.6681  27.0003  27.1348  27.3712  27.4235  27.6849  27.7939  27.9863
    28.0004  28.0317  28.2180  28.2857  28.4350  28.8918  29.0448  29.3487
    29.5709  29.6267  29.7469  29.7957  30.0756  30.1377  30.7285  31.2784
    31.5936  33.5164  33.5524  33.6274  34.3277  34.6400  35.9974  36.6425
    37.4494  38.0838  38.4645  38.8266  38.9339  39.2021  39.5639

          k = 0.0000 0.3881-0.3133 (  5684 PWs)   bands (ev):

   -39.7300 -39.7300 -39.4982 -39.4982 -39.3753 -39.3753 -39.3270 -39.3270
   -33.0497 -33.0497 -33.0201 -33.0200 -12.3197 -12.3196 -11.4708 -11.4708
   -11.1108 -11.1108 -11.0221 -11.0221 -10.9024 -10.9024 -10.7672 -10.7672
   -10.3777 -10.3776 -10.1717 -10.1717  -9.9945  -9.9945  -9.9309  -9.9309
    -9.8398  -9.8398  -9.7185  -9.7185  -5.9472  -5.9471  -5.9135  -5.9135
    -5.8716  -5.8715  -5.7473  -5.7473  -5.6701  -5.6701  -5.6604  -5.6604
    19.5679  19.5679  20.7099  20.7099  21.1993  21.1993  21.5364  21.5365
    21.6751  21.6751  21.9471  21.9471  22.3890  22.3890  22.5500  22.5500
    22.6952  22.6952  22.7849  22.7849  23.8610  23.8610  23.9065  23.9065
    24.3221  24.3221  24.7330  24.7330  25.0468  25.0468  25.5725  25.5725
    25.7018  25.7018  25.9440  25.9440  26.2458  26.2458  26.4067  26.4067
    26.8752  26.8752  27.0474  27.0474  27.4212  27.4212  27.8771  27.8771
    28.1210  28.1210  28.2781  28.2781  28.5652  28.5652  29.1900  29.1900
    29.2755  29.2755  29.8075  29.8075  30.4427  30.4427  30.7033  30.7033
    32.7927  32.7928  33.8136  33.8136  34.2936  34.2936  36.5922  36.5922
    37.4459  37.4459  38.4206  38.4207  39.5320  39.5320  39.7682

          k =-0.5042-0.2911 0.0000 (  5696 PWs)   bands (ev):

   -39.7342 -39.6305 -39.5575 -39.4939 -39.4363 -39.3779 -39.3773 -39.2598
   -33.0508 -33.0370 -33.0335 -33.0198 -12.2606 -11.8589 -11.8395 -11.4248
   -11.1444 -11.0702 -11.0254 -10.8154 -10.7577 -10.6848 -10.6295 -10.6212
   -10.5487 -10.5396 -10.4475 -10.4131 -10.3351 -10.1368 -10.0539  -9.8556
    -9.7671  -9.7541  -9.7109  -9.6697  -5.9786  -5.9538  -5.9207  -5.9040
    -5.8616  -5.8347  -5.7824  -5.7406  -5.6737  -5.6701  -5.6621  -5.6536
    19.8437  19.9858  20.6663  21.0174  21.2507  21.5244  21.6015  21.6369
    21.7415  21.8390  21.9556  22.0259  22.6851  22.7597  22.7687  22.9886
    23.2797  23.3964  23.4701  23.5310  23.6543  23.7342  23.7568  23.7590
    23.7610  23.8379  24.0006  24.0928  24.3187  24.7579  25.1785  25.1894
    25.2602  25.5850  25.5855  25.9135  26.1763  26.2460  26.4056  26.5207
    26.6121  26.7024  26.8424  26.9985  27.1302  27.2735  27.4648  27.6727
    27.7847  28.1911  28.5744  28.6113  28.6508  28.8151  28.9960  29.1814
    29.2450  29.4924  29.9068  30.0095  30.2401  30.4633  30.7201  30.9432
    31.0729  31.7036  33.2396  33.3832  33.9043  34.4567  37.0225  37.3091
    37.4767  38.5546  39.0119  39.1114  39.3099  39.6830  39.8196

          k =-0.5042-0.2911 0.1567 (  5682 PWs)   bands (ev):

   -39.7213 -39.6470 -39.5552 -39.5256 -39.3863 -39.3758 -39.3746 -39.2762
   -33.0485 -33.0411 -33.0286 -33.0213 -12.2312 -12.0201 -11.6540 -11.4378
   -11.1251 -11.0351 -10.9797 -10.8560 -10.8543 -10.7616 -10.6273 -10.6148
   -10.5850 -10.5742 -10.4248 -10.4105 -10.2067 -10.0710  -9.9709  -9.9038
    -9.8280  -9.7319  -9.7167  -9.7138  -5.9655  -5.9466  -5.9162  -5.9117
    -5.8693  -5.8464  -5.7686  -5.7353  -5.6696  -5.6652  -5.6607  -5.6596
    19.8702  19.9550  20.7664  21.1082  21.2861  21.5177  21.5380  21.6655
    21.7185  21.7474  21.9284  22.0859  22.5895  22.6172  22.8518  22.9537
    22.9870  23.2827  23.4033  23.4458  23.5424  23.5915  23.7421  23.8088
    23.9359  24.0448  24.1574  24.3450  24.4930  24.7307  24.8849  25.0673
    25.6541  25.7432  25.8280  26.1074  26.1352  26.1584  26.2768  26.4216
    26.5191  26.7888  26.9203  27.0495  27.2584  27.4781  27.5598  27.5728
    27.8713  28.2763  28.2880  28.3361  28.4728  28.7785  28.9700  29.3838
    29.4435  29.4677  29.4888  29.7401  29.8338  29.9069  30.0953  30.7020
    32.5716  32.7983  33.4545  33.5765  33.7429  34.3624  36.5237  36.8413
    38.0386  38.3422  38.7529  39.0762  39.2413  39.3275  39.4798

          k =-0.5042-0.2911-0.3133 (  5692 PWs)   bands (ev):

   -39.6861 -39.6861 -39.5496 -39.5496 -39.3764 -39.3763 -39.3212 -39.3212
   -33.0460 -33.0459 -33.0245 -33.0244 -12.1505 -12.1505 -11.5071 -11.5071
   -11.0337 -11.0337 -10.9491 -10.9491 -10.8765 -10.8765 -10.6169 -10.6169
   -10.6079 -10.6079 -10.4136 -10.4136 -10.0295 -10.0295  -9.9428  -9.9428
    -9.8319  -9.8319  -9.7209  -9.7209  -5.9443  -5.9442  -5.9167  -5.9167
    -5.8716  -5.8716  -5.7508  -5.7507  -5.6698  -5.6697  -5.6610  -5.6610
    19.9148  19.9148  21.0126  21.0126  21.2816  21.2816  21.6695  21.6695
    21.7805  21.7805  22.1201  22.1201  22.6019  22.6019  22.6089  22.6089
    22.8768  22.8768  23.3045  23.3045  23.6702  23.6702  23.7799  23.7799
    24.3377  24.3377  24.3646  24.3647  24.5672  24.5672  24.9574  24.9574
    25.8366  25.8366  25.9802  25.9802  26.1186  26.1186  26.5087  26.5087
    26.6509  26.6509  26.7762  26.7763  27.4401  27.4401  27.8647  27.8647
    27.9441  27.9441  28.3102  28.3102  28.4650  28.4651  29.0221  29.0221
    29.3388  29.3388  29.4318  29.4318  29.6640  29.6640  30.3741  30.3741
    33.5568  33.5569  33.6756  33.6756  34.0146  34.0147  36.4587  36.4587
    37.3992  37.3992  38.9923  38.9925  39.6255  39.6258  39.8970

          k =-0.5042 0.0970 0.0000 (  5679 PWs)   bands (ev):

   -39.7353 -39.6293 -39.5584 -39.4910 -39.4348 -39.3759 -39.3745 -39.2603
   -33.0497 -33.0362 -33.0333 -33.0198 -12.2275 -11.8420 -11.8398 -11.4411
   -11.2065 -11.1326 -11.0829 -10.7963 -10.7386 -10.7049 -10.6387 -10.5664
   -10.5612 -10.4683 -10.4592 -10.3744 -10.1873 -10.0988 -10.0108  -9.8481
    -9.8302  -9.8288  -9.7661  -9.6703  -5.9712  -5.9544  -5.9384  -5.9171
    -5.8459  -5.8105  -5.7844  -5.7440  -5.6692  -5.6635  -5.6597  -5.6527
    20.0375  20.1314  20.7873  20.9490  21.1933  21.3349  21.5085  21.5870
    21.7680  21.9752  22.0413  22.1045  22.2524  22.5801  22.8052  23.0039
    23.0166  23.0960  23.3278  23.4022  23.5690  23.6626  23.7202  23.9013
    23.9336  23.9788  24.1016  24.3290  24.7200  24.7697  24.9965  25.1405
    25.1686  25.4919  25.6082  25.6207  25.9251  26.2101  26.3468  26.4472
    26.9358  26.9464  27.1290  27.1983  27.4589  27.6632  27.6724  27.8283
    28.1367  28.1737  28.5855  28.7356  28.7536  28.7578  29.0295  29.2699
    29.3695  29.4284  29.5660  29.7711  29.8983  30.0014  30.4828  30.8924
    31.3139  32.0600  32.1319  33.0281  33.4037  36.3883  36.6807  37.3001
    37.5211  37.9181  38.5199  39.0144  39.5313  39.6649  39.9709

          k =-0.5042 0.0970 0.1567 (  5682 PWs)   bands (ev):

   -39.7217 -39.6449 -39.5557 -39.5237 -39.3858 -39.3775 -39.3769 -39.2751
   -33.0488 -33.0411 -33.0288 -33.0207 -12.2038 -12.0040 -11.6630 -11.4646
   -11.1832 -11.0777 -11.0531 -10.8732 -10.8036 -10.7454 -10.6969 -10.6689
   -10.5408 -10.5136 -10.3273 -10.2687 -10.1570 -10.0618  -9.9628  -9.8838
    -9.8636  -9.8163  -9.7845  -9.7124  -5.9606  -5.9474  -5.9361  -5.9192
    -5.8528  -5.8299  -5.7687  -5.7439  -5.6716  -5.6662  -5.6641  -5.6549
    20.0583  20.1117  20.8165  21.0114  21.2740  21.4157  21.5687  21.6096
    21.7444  21.8183  21.8898  22.1783  22.3331  22.4707  22.7673  22.8645
    22.9078  23.0286  23.0775  23.2729  23.3904  23.6807  23.8672  23.9191
    24.0320  24.2357  24.2515  24.5550  24.6272  24.7910  24.8596  25.2159
    25.3191  25.4027  25.7427  25.9136  26.0768  26.1314  26.4985  26.5503
    26.7378  26.9109  27.2268  27.3018  27.5001  27.5727  27.6716  27.7939
    28.0348  28.0734  28.2613  28.4533  28.7078  28.9201  29.0662  29.1395
    29.3143  29.4161  29.5201  29.6642  29.7633  30.0241  30.1165  30.7820
    31.4541  32.1197  32.3804  33.5804  34.3269  36.1949  36.5105  37.1278
    37.6336  37.6986  38.2597  38.4738  39.4282  39.6591  39.7881

          k =-0.5042 0.0970-0.3133 (  5672 PWs)   bands (ev):

   -39.6854 -39.6854 -39.5468 -39.5468 -39.3763 -39.3763 -39.3206 -39.3206
   -33.0455 -33.0455 -33.0238 -33.0237 -12.1270 -12.1270 -11.5305 -11.5305
   -11.0634 -11.0634 -10.9964 -10.9963 -10.8646 -10.8646 -10.6930 -10.6929
   -10.5307 -10.5307 -10.2461 -10.2461 -10.0397 -10.0397  -9.9395  -9.9395
    -9.8307  -9.8307  -9.7917  -9.7917  -5.9413  -5.9412  -5.9282  -5.9282
    -5.8508  -5.8507  -5.7517  -5.7516  -5.6682  -5.6681  -5.6603  -5.6602
    20.0886  20.0886  20.9334  20.9334  21.4451  21.4451  21.5651  21.5651
    21.8241  21.8241  22.0007  22.0007  22.4161  22.4161  22.5875  22.5875
    22.7860  22.7860  23.1706  23.1706  23.4812  23.4812  23.9975  23.9975
    24.1400  24.1401  24.5064  24.5064  24.7151  24.7151  25.1944  25.1944
    25.6078  25.6078  25.8175  25.8175  26.1988  26.1988  26.3991  26.3991
    26.8449  26.8449  27.2786  27.2786  27.4774  27.4774  27.6962  27.6962
    28.0938  28.0938  28.3993  28.3993  28.6202  28.6202  28.8738  28.8738
    29.2532  29.2532  29.5526  29.5526  29.9452  29.9452  30.3133  30.3133
    31.6803  31.6803  33.6861  33.6861  35.5265  35.5265  36.6630  36.6631
    37.4568  37.4568  37.9527  37.9528  39.6786  39.6789  39.8092

     the Fermi energy is    29.7870 ev

!    total energy              =   -2309.97403633 Ry
     Harris-Foulkes estimate   =   -2309.97405971 Ry
     estimated scf accuracy    <       0.00002555 Ry

     The total energy is the sum of the following terms:

     one-electron contribution =    -102.74611583 Ry
     hartree contribution      =     256.00386995 Ry
     xc contribution           =    -236.80163919 Ry
     ewald contribution        =   -2225.78697950 Ry
     smearing contrib. (-TS)   =      -0.64317177 Ry

     convergence has been achieved in  11 iterations

     Forces acting on atoms (Ry/au):

     atom    1 type  1   force =     0.00000000    0.00000000   -0.00616872
     atom    2 type  1   force =     0.00000000    0.00000000   -0.00616872
     atom    3 type  1   force =     0.00000000    0.00000000    0.00616872
     atom    4 type  1   force =     0.00000000    0.00000000    0.00616872
     atom    5 type  2   force =     0.00000000    0.00000000    0.00000000
     atom    6 type  2   force =     0.00000000    0.00000000    0.00000000
     atom    7 type  2   force =     0.00000000    0.07997841    0.00000000
     atom    8 type  2   force =    -0.06926334    0.03998921    0.00000000
     atom    9 type  2   force =     0.06926334    0.03998921    0.00000000
     atom   10 type  2   force =    -0.06926334   -0.03998921    0.00000000
     atom   11 type  2   force =     0.06926334   -0.03998921    0.00000000
     atom   12 type  2   force =     0.00000000   -0.07997841    0.00000000

     Total force =     0.196294     Total SCF correction =     0.000000


     entering subroutine stress ...

          total   stress  (Ry/bohr**3)                   (kbar)     P=  690.12
   0.00461582   0.00000000   0.00000000        679.01      0.00      0.00
   0.00000000   0.00461582   0.00000000          0.00    679.01      0.00
   0.00000000   0.00000000   0.00484229          0.00      0.00    712.33


     Writing output data file Prototype-La-hP12-MgZn2.save
 
     init_run     :      7.66s CPU     10.16s WALL (       2 calls)
     electrons    :   1405.56s CPU   1761.17s WALL (       5 calls)
     update_pot   :      3.79s CPU      4.33s WALL (       3 calls)
     forces       :      8.47s CPU      9.52s WALL (       5 calls)
     stress       :     20.10s CPU     23.31s WALL (       5 calls)

     Called by init_run:
     wfcinit      :      6.26s CPU      7.82s WALL (       2 calls)
     potinit      :      0.68s CPU      0.74s WALL (       2 calls)

     Called by electrons:
     c_bands      :   1360.72s CPU   1677.91s WALL (      47 calls)
     sum_band     :     43.10s CPU     59.53s WALL (      47 calls)
     v_of_rho     :      0.25s CPU      0.31s WALL (      52 calls)
     mix_rho      :      0.21s CPU      0.29s WALL (      47 calls)

     Called by c_bands:
     init_us_2    :      1.83s CPU      2.38s WALL (    1272 calls)
     ccgdiagg     :   1206.72s CPU   1473.08s WALL (     673 calls)
     wfcrot       :    158.50s CPU    208.95s WALL (     685 calls)

     Called by *cgdiagg:
     h_psi        :    864.08s CPU   1112.72s WALL (  397719 calls)
     cdiaghg      :      7.20s CPU      8.88s WALL (     685 calls)

     Called by h_psi:
     add_vuspsi   :    116.73s CPU    136.59s WALL (  397719 calls)

     General routines
     calbec       :    364.82s CPU    422.09s WALL (  794873 calls)
     fft          :      1.52s CPU      1.74s WALL (     231 calls)
     fftw         :    541.05s CPU    714.95s WALL ( 1039686 calls)
     davcio       :      0.90s CPU      3.05s WALL (    1836 calls)
 
     Parallel routines
     fft_scatter  :    319.99s CPU    424.42s WALL ( 1039917 calls)
 
     PWSCF        : 24m 6.27s CPU    30m13.96s WALL

 
   This run was terminated on:  21:43:38  22Mar2018            

=------------------------------------------------------------------------------=
   JOB DONE.
=------------------------------------------------------------------------------=
