
     Program PWSCF v.5.0.2 starts on 22Mar2018 at 17:34:49 

     This program is part of the open-source Quantum ESPRESSO suite
     for quantum simulation of materials; please cite
         "P. Giannozzi et al., J. Phys.:Condens. Matter 21 395502 (2009);
          URL http://www.quantum-espresso.org", 
     in publications or presentations arising from this work. More details at
     http://www.quantum-espresso.org/quote.php

     Parallel version (MPI), running on     4 processors
     R & G space division:  proc/nbgrp/npool/nimage =       4

     Current dimensions of program PWSCF are:
     Max number of different atomic species (ntypx) = 10
     Max number of k-points (npk) =  40000
     Max angular momentum in pseudopotentials (lmaxx) =  3
     Waiting for input...
     Reading input from standard input

     Subspace diagonalization in iterative solution of the eigenvalue problem:
     a serial algorithm will be used

 
     Parallelization info
     --------------------
     sticks:   dense  smooth     PW     G-vecs:    dense   smooth      PW
     Min         207     207     61                 7381     7381    1191
     Max         208     208     62                 7386     7386    1192
     Sum         829     829    247                29529    29529    4767
 


     bravais-lattice index     =            0
     lattice parameter (alat)  =       7.0151  a.u.
     unit-cell volume          =     862.2778 (a.u.)^3
     number of atoms/cell      =           12
     number of atomic types    =            2
     number of electrons       =       236.00
     number of Kohn-Sham states=          142
     kinetic-energy cutoff     =      40.0000  Ry
     charge density cutoff     =     160.0000  Ry
     convergence threshold     =      1.0E-04
     mixing beta               =       0.7000
     number of iterations used =            8  plain     mixing
     Exchange-correlation      = SLA-PZ-NOGX-NOGC ( 1 1 0 0 0)
     EXX-fraction              =        0.00
     nstep                     =           50


     celldm(1)=   7.015105  celldm(2)=   0.000000  celldm(3)=   0.000000
     celldm(4)=   0.000000  celldm(5)=   0.000000  celldm(6)=   0.000000

     crystal axes: (cart. coord. in units of alat)
               a(1) = (   1.000000   0.000000   0.000000 )  
               a(2) = (   0.000000   1.315963   0.000000 )  
               a(3) = (   0.000000   0.000000   1.898020 )  

     reciprocal axes: (cart. coord. in units 2 pi/alat)
               b(1) = (  1.000000  0.000000  0.000000 )  
               b(2) = (  0.000000  0.759900  0.000000 )  
               b(3) = (  0.000000  0.000000  0.526865 )  


     PseudoPot. # 1 for Tb read from file:
     /home/cwx6513/pp.La/Tb.UPF
     MD5 check sum: 3d6088a3f0cf7fd2e110c43f7f8e95c2
     Pseudo is Norm-conserving, Zval = 19.0
     Generated in analytical, separable form
     Using radial grid of 1263 points,  6 beta functions with: 
                l(1) =   0
                l(2) =   0
                l(3) =   1
                l(4) =   1
                l(5) =   2
                l(6) =   3

     PseudoPot. # 2 for Ho read from file:
     /home/cwx6513/pp.La/Ho.UPF
     MD5 check sum: f307ee11bce99f5b724fa279e3790763
     Pseudo is Norm-conserving, Zval = 21.0
     Generated in analytical, separable form
     Using radial grid of 1265 points,  6 beta functions with: 
                l(1) =   0
                l(2) =   0
                l(3) =   1
                l(4) =   1
                l(5) =   2
                l(6) =   3

     atomic species   valence    mass     pseudopotential
        Co            19.00    58.93320     Tb( 1.00)
        Si            21.00    28.08550     Ho( 1.00)

      8 Sym. Ops., with inversion, found ( 6 have fractional translation)



   Cartesian axes

     site n.     atom                  positions (alat units)
         1           Co  tau(   1) = (   0.7500000   1.0875135   0.8270358  )
         2           Co  tau(   2) = (   0.2500000   0.2284499   1.0709846  )
         3           Co  tau(   3) = (   0.7500000   0.4295318   0.1219744  )
         4           Co  tau(   4) = (   0.2500000   0.8864316   1.7760460  )
         5           Co  tau(   5) = (   0.2500000   0.7067855   0.5358966  )
         6           Co  tau(   6) = (   0.7500000   0.6091779   1.3621238  )
         7           Co  tau(   7) = (   0.2500000   0.0488038   0.4131136  )
         8           Co  tau(   8) = (   0.7500000   1.2671596   1.4849068  )
         9           Si  tau(   9) = (   0.2500000   0.2669484   1.6960710  )
        10           Si  tau(  10) = (   0.7500000   1.0490149   0.2019494  )
        11           Si  tau(  11) = (   0.2500000   0.9249301   1.1509596  )
        12           Si  tau(  12) = (   0.7500000   0.3910333   0.7470608  )

     number of k points=    12  gaussian smearing, width (Ry)=  0.1000
                       cart. coord. in units 2pi/alat
        k(    1) = (   0.0000000   0.0000000   0.0000000), wk =   0.0833333
        k(    2) = (   0.0000000   0.0000000   0.1317162), wk =   0.1666667
        k(    3) = (   0.0000000   0.0000000  -0.2634324), wk =   0.0833333
        k(    4) = (   0.0000000   0.2532999   0.0000000), wk =   0.1666667
        k(    5) = (   0.0000000   0.2532999   0.1317162), wk =   0.3333333
        k(    6) = (   0.0000000   0.2532999  -0.2634324), wk =   0.1666667
        k(    7) = (  -0.5000000   0.0000000   0.0000000), wk =   0.0833333
        k(    8) = (  -0.5000000   0.0000000   0.1317162), wk =   0.1666667
        k(    9) = (  -0.5000000   0.0000000  -0.2634324), wk =   0.0833333
        k(   10) = (  -0.5000000   0.2532999   0.0000000), wk =   0.1666667
        k(   11) = (  -0.5000000   0.2532999   0.1317162), wk =   0.3333333
        k(   12) = (  -0.5000000   0.2532999  -0.2634324), wk =   0.1666667

     Dense  grid:    29529 G-vectors     FFT dimensions: (  30,  40,  54)

     Largest allocated arrays     est. size (Mb)     dimensions
        Kohn-Sham Wavefunctions         2.00 Mb     (    922,  142)
        NL pseudopotentials             3.38 Mb     (    922,  240)
        Each V/rho on FFT grid          0.26 Mb     (  16800)
        Each G-vector array             0.06 Mb     (   7386)
        G-vector shells                 0.06 Mb     (   7386)
     Largest temporary arrays     est. size (Mb)     dimensions
        Each subspace H/S matrix        0.31 Mb     ( 142, 142)
        Each <psi_i|beta_j> matrix      0.52 Mb     (    240,  142)
        Arrays for rho mixing           2.05 Mb     (  16800,   8)

     Initial potential from superposition of free atoms

     Starting from uniform charge
     Starting wfc are    0 randomized atomic wfcs

     total cpu time spent up to now is        2.8 secs

     Self-consistent Calculation

     iteration #  1     ecut=    40.00 Ry     beta=0.70
     CG style diagonalization
     c_bands:  2 eigenvalues not converged
     c_bands:  1 eigenvalues not converged
     c_bands:  2 eigenvalues not converged
     c_bands:  4 eigenvalues not converged
     c_bands:  5 eigenvalues not converged
     c_bands:  4 eigenvalues not converged
     c_bands:  2 eigenvalues not converged
     c_bands:  3 eigenvalues not converged
     ethr =  1.00E-02,  avg # of iterations = 14.0

     total cpu time spent up to now is       49.8 secs

     total energy              =   -2773.16391507 Ry
     Harris-Foulkes estimate   =   -3325.16344337 Ry
     estimated scf accuracy    <     718.89306316 Ry

     iteration #  2     ecut=    40.00 Ry     beta=0.70
     CG style diagonalization
     c_bands:  1 eigenvalues not converged
     c_bands:  1 eigenvalues not converged
     ethr =  1.00E-02,  avg # of iterations =  8.5

     total cpu time spent up to now is       78.9 secs

     total energy              =   -2938.85236567 Ry
     Harris-Foulkes estimate   =   -3043.76723074 Ry
     estimated scf accuracy    <     149.86952033 Ry

     iteration #  3     ecut=    40.00 Ry     beta=0.70
     CG style diagonalization
     ethr =  1.00E-02,  avg # of iterations =  5.5

     total cpu time spent up to now is       97.6 secs

     total energy              =   -2985.81066071 Ry
     Harris-Foulkes estimate   =   -3004.86122637 Ry
     estimated scf accuracy    <      36.55117790 Ry

     iteration #  4     ecut=    40.00 Ry     beta=0.70
     CG style diagonalization
     ethr =  1.00E-02,  avg # of iterations =  3.7

     total cpu time spent up to now is      109.6 secs

     total energy              =   -2993.61888605 Ry
     Harris-Foulkes estimate   =   -2994.70998878 Ry
     estimated scf accuracy    <       2.15171681 Ry

     iteration #  5     ecut=    40.00 Ry     beta=0.70
     CG style diagonalization
     ethr =  9.12E-04,  avg # of iterations =  4.1

     total cpu time spent up to now is      123.3 secs

     total energy              =   -2994.18820235 Ry
     Harris-Foulkes estimate   =   -2994.33972898 Ry
     estimated scf accuracy    <       0.25797444 Ry

     iteration #  6     ecut=    40.00 Ry     beta=0.70
     CG style diagonalization
     c_bands:  1 eigenvalues not converged
     c_bands:  1 eigenvalues not converged
     c_bands:  1 eigenvalues not converged
     ethr =  1.09E-04,  avg # of iterations =  4.1

     total cpu time spent up to now is      137.0 secs

     total energy              =   -2994.25276978 Ry
     Harris-Foulkes estimate   =   -2994.28987983 Ry
     estimated scf accuracy    <       0.07118592 Ry

     iteration #  7     ecut=    40.00 Ry     beta=0.70
     CG style diagonalization
     c_bands:  1 eigenvalues not converged
     ethr =  3.02E-05,  avg # of iterations =  3.8

     total cpu time spent up to now is      149.3 secs

     total energy              =   -2994.26744489 Ry
     Harris-Foulkes estimate   =   -2994.27078160 Ry
     estimated scf accuracy    <       0.00558352 Ry

     iteration #  8     ecut=    40.00 Ry     beta=0.70
     CG style diagonalization
     c_bands:  1 eigenvalues not converged
     c_bands:  2 eigenvalues not converged
     c_bands:  1 eigenvalues not converged
     c_bands:  1 eigenvalues not converged
     ethr =  2.37E-06,  avg # of iterations =  4.4

     total cpu time spent up to now is      162.4 secs

     total energy              =   -2994.26889546 Ry
     Harris-Foulkes estimate   =   -2994.26907259 Ry
     estimated scf accuracy    <       0.00034360 Ry

     iteration #  9     ecut=    40.00 Ry     beta=0.70
     CG style diagonalization
     c_bands:  1 eigenvalues not converged
     ethr =  1.46E-07,  avg # of iterations =  4.1

     total cpu time spent up to now is      174.2 secs

     End of self-consistent calculation

          k = 0.0000 0.0000 0.0000 (  3675 PWs)   bands (ev):

   -42.6422 -42.6284 -42.6234 -42.6171 -27.0253 -26.8367 -26.8124 -26.6992
   -26.6202 -26.4822 -26.4073 -26.3993  -7.6933  -7.5985  -7.5571  -7.4980
    -7.4955  -7.4927  -7.3853  -7.3528  -7.2420  -7.2278  -7.1219  -7.0460
     2.8209   3.1706   3.3171   3.5574   3.5825   3.6634   3.8059   3.9278
     4.2055   4.2225   4.2931   4.3094   4.4911   4.5441   4.7421   4.7659
     4.7692   4.8777   4.9439   5.1313   5.3041   5.4828   5.7145   5.8311
    31.6301  31.6524  31.6998  32.2543  32.3384  32.4863  32.5574  32.6218
    32.9594  33.2730  33.3319  33.6770  33.7421  34.1634  34.3143  34.5345
    34.6510  35.3982  35.4389  35.6427  35.6590  36.6602  37.4439  37.8884
    38.0383  38.0553  38.0796  38.4661  39.1234  39.2516  39.3365  39.7075
    39.7436  39.8907  39.9516  40.2450  40.9815  41.4493  41.6908  41.7946
    41.8023  41.8135  41.9972  42.6509  43.3644  43.4452  43.6593  43.8225
    44.8128  44.8678  45.2662  45.3288  45.5188  45.6574  46.0081  46.3785
    46.4305  46.5366  46.5489  47.0137  47.0989  47.8018  48.0407  49.6805
    50.7722  51.5436  51.8034  52.6027  55.0003  55.1385  55.8862  56.0366
    56.2748  57.0803  57.1341  57.4895  57.6643  57.7786  57.9499  58.0692
    58.1284  58.1505  58.5334  58.7251  59.3300  59.3613  59.8469  60.0135
    60.5308  60.5643  60.7272  60.9988  61.1871  61.6642

          k = 0.0000 0.0000 0.1317 (  3675 PWs)   bands (ev):

   -42.6416 -42.6304 -42.6253 -42.6152 -27.0122 -26.9037 -26.7554 -26.7071
   -26.6011 -26.5051 -26.4024 -26.3974  -7.6681  -7.6155  -7.5401  -7.5130
    -7.4883  -7.4701  -7.4087  -7.3649  -7.2461  -7.2457  -7.1015  -7.0559
     2.8570   3.1087   3.3875   3.5456   3.5729   3.7403   3.7448   4.0019
     4.1429   4.2558   4.3118   4.3292   4.4817   4.5824   4.5990   4.7227
     4.7363   5.0405   5.0513   5.0632   5.2818   5.3798   5.7234   5.8045
    31.5485  31.6208  31.9782  32.0513  32.0586  32.4967  32.6729  32.7448
    33.0471  33.2840  33.8296  33.8407  33.9416  34.0739  34.1274  34.8177
    34.9498  35.0683  35.2373  35.2423  35.4481  36.5889  37.3893  37.8745
    38.0241  38.0413  38.3888  38.4727  39.1198  39.4584  39.5175  39.5569
    39.5980  39.7922  40.2232  40.4396  40.7938  41.1250  41.1565  41.6028
    41.7505  42.1366  42.6246  42.6819  42.7712  43.5238  43.6197  43.8747
    43.9103  44.4617  44.7848  45.0049  45.2068  46.0155  46.0528  46.2671
    46.5765  46.9497  47.0225  47.0555  47.1254  47.9683  48.8200  50.7818
    51.4796  51.6244  51.7865  52.3030  54.7557  55.2458  55.5139  55.9390
    56.6612  56.7735  57.1176  57.1184  57.4132  57.6536  57.7490  57.7803
    58.1089  58.1717  58.6347  58.8772  59.0151  59.4611  59.5689  59.6262
    59.6501  60.8383  61.0527  61.1501  61.2415  61.4191

          k = 0.0000 0.0000-0.2634 (  3690 PWs)   bands (ev):

   -42.6344 -42.6344 -42.6312 -42.6312 -26.9755 -26.9755 -26.7202 -26.7202
   -26.5535 -26.5535 -26.4010 -26.4010  -7.6423  -7.6423  -7.5214  -7.5214
    -7.4585  -7.4585  -7.4181  -7.4181  -7.2689  -7.2689  -7.0815  -7.0815
     2.9505   2.9505   3.5518   3.5518   3.5905   3.5905   3.9246   3.9246
     4.1936   4.1936   4.3427   4.3427   4.4849   4.4849   4.6655   4.6655
     4.8578   4.8578   5.1678   5.1678   5.1942   5.1942   5.7525   5.7525
    31.6400  31.6400  31.7211  31.7211  32.3193  32.3193  33.1206  33.1206
    33.4259  33.4259  33.6804  33.6804  34.1745  34.1745  34.2106  34.2106
    34.9722  34.9722  35.0258  35.0258  36.0195  36.0195  37.4199  37.4199
    38.3606  38.3606  38.6827  38.6827  39.2178  39.2178  39.4898  39.4898
    40.0805  40.0805  40.1880  40.1880  40.3106  40.3106  41.2455  41.2455
    42.2188  42.2188  42.7733  42.7733  42.8718  42.8718  43.7381  43.7381
    43.7773  43.7773  44.9208  44.9208  45.3722  45.3722  45.8862  45.8862
    46.8187  46.8187  47.5371  47.5371  47.5667  47.5667  50.7853  50.7853
    51.5055  51.5055  52.6651  52.6651  54.6054  54.6054  55.4135  55.4135
    56.7211  56.7211  56.8844  56.8844  57.0685  57.0685  57.2002  57.2002
    58.4559  58.4560  59.0674  59.0674  59.2061  59.2062  59.6480  59.6481
    60.5616  60.5617  60.8013  60.8014  61.2479  61.2480

          k = 0.0000 0.2533 0.0000 (  3664 PWs)   bands (ev):

   -42.6436 -42.6333 -42.6132 -42.6029 -26.9667 -26.8669 -26.7787 -26.7429
   -26.5932 -26.4807 -26.4524 -26.4056  -7.6465  -7.5892  -7.5628  -7.5296
    -7.4952  -7.4773  -7.3489  -7.3314  -7.1872  -7.1853  -7.0879  -7.0531
     3.0965   3.4593   3.5155   3.5229   3.6255   3.6430   3.6659   3.8379
     4.0295   4.0753   4.1955   4.3141   4.3769   4.7426   4.7474   4.8755
     4.9082   4.9830   5.0410   5.0857   5.1764   5.2323   5.3931   5.4271
    32.1624  32.2161  32.2360  32.3390  32.7369  32.9963  33.0951  33.1706
    33.3426  33.5692  33.6790  33.7545  33.8449  34.2588  34.3642  34.9873
    35.0491  35.0518  35.0787  35.1022  35.6173  36.4423  37.3820  37.4818
    37.7688  37.9668  38.4772  38.6349  38.9780  39.0103  39.4152  39.4630
    39.7295  40.3301  40.4812  40.7408  40.8860  40.9224  41.2834  41.7181
    41.7638  41.7918  42.4040  42.6189  42.8291  43.0673  43.4398  43.5021
    43.9818  44.0978  44.2680  44.8065  44.9003  44.9280  45.5443  45.8351
    46.2145  46.2797  46.4708  47.1800  47.2284  47.2405  47.5105  48.0192
    48.5827  48.7091  54.3166  55.1812  55.3760  56.2479  56.8313  57.0129
    57.0299  57.3476  57.5263  57.6738  57.8937  57.9029  58.0930  58.3098
    58.7027  58.9560  59.1378  59.2099  59.3492  59.3597  59.7035  59.7457
    59.8602  60.1327  60.3441  60.7031  60.8987  60.9959

          k = 0.0000 0.2533 0.1317 (  3669 PWs)   bands (ev):

   -42.6402 -42.6296 -42.6191 -42.6141 -26.9585 -26.8901 -26.7787 -26.7481
   -26.5664 -26.4711 -26.4663 -26.4168  -7.6291  -7.6013  -7.5561  -7.5344
    -7.4752  -7.4685  -7.3728  -7.3525  -7.1921  -7.1906  -7.0929  -7.0590
     3.1379   3.3943   3.4679   3.5814   3.5901   3.6278   3.7845   3.9195
     4.0250   4.1387   4.1578   4.2488   4.4073   4.7095   4.7628   4.8171
     4.8690   4.9173   4.9870   5.1492   5.1616   5.2562   5.3748   5.4307
    32.0551  32.1225  32.3859  32.5438  32.6034  33.0254  33.0758  33.3377
    33.3446  33.4342  33.6571  33.7403  34.0813  34.3756  34.4580  34.5554
    34.8386  34.9907  35.0860  35.2142  36.1370  36.6193  37.6690  37.6882
    37.9349  38.0466  38.2791  38.4164  38.7538  38.8343  39.2668  39.6548
    40.0458  40.1002  40.2826  40.3819  40.6805  40.9136  41.0172  41.3590
    41.5900  41.7948  42.4311  42.5465  43.2330  43.3829  43.4084  43.4283
    43.5955  43.9942  44.4118  44.4667  44.8376  45.0955  45.1943  45.8254
    45.8911  46.1458  46.3895  46.7495  47.1860  47.5424  47.7592  48.0736
    49.6042  50.7448  54.7338  54.9764  55.1189  55.6525  56.4106  56.6423
    56.9575  57.2542  57.3852  57.6327  57.8528  58.0832  58.0905  58.5576
    58.6694  58.7613  58.8899  59.1299  59.5861  59.6880  59.8532  59.9324
    60.0139  60.2246  60.2579  60.6270  60.8600  60.8983

          k = 0.0000 0.2533-0.2634 (  3666 PWs)   bands (ev):

   -42.6307 -42.6307 -42.6193 -42.6193 -26.9302 -26.9302 -26.7654 -26.7654
   -26.5114 -26.5114 -26.4399 -26.4399  -7.6152  -7.6152  -7.5451  -7.5451
    -7.4444  -7.4444  -7.3892  -7.3892  -7.1920  -7.1920  -7.0736  -7.0736
     3.2618   3.2618   3.5185   3.5185   3.6358   3.6358   3.9361   3.9361
     4.0441   4.0441   4.2303   4.2303   4.5632   4.5632   4.7746   4.7746
     4.7887   4.7887   5.0842   5.0842   5.2199   5.2199   5.4048   5.4048
    32.0866  32.0866  32.2785  32.2785  33.1055  33.1055  33.3540  33.3540
    33.3970  33.3970  33.7493  33.7493  33.8414  33.8414  34.7042  34.7042
    34.9667  34.9667  34.9696  34.9696  36.9501  36.9501  37.5201  37.5201
    37.9962  37.9962  38.0825  38.0825  39.1809  39.1809  39.4936  39.4936
    39.8716  39.8716  40.2446  40.2446  40.3005  40.3005  41.1856  41.1856
    42.0640  42.0640  42.1202  42.1202  42.9673  42.9673  43.1924  43.1924
    43.6246  43.6246  44.7823  44.7823  45.2438  45.2438  45.2913  45.2913
    45.9631  45.9631  46.8302  46.8302  46.9922  46.9922  48.0062  48.0062
    52.1155  52.1155  53.9953  53.9953  55.3967  55.3967  55.8991  55.8991
    57.0376  57.0376  57.2148  57.2148  58.1090  58.1090  58.4737  58.4738
    58.5281  58.5281  59.7065  59.7067  59.7133  59.7134  59.9584  59.9585
    60.1969  60.1969  60.4702  60.4702  61.3248  61.3251

          k =-0.5000 0.0000 0.0000 (  3722 PWs)   bands (ev):

   -42.6436 -42.6436 -42.6362 -42.6362 -26.8589 -26.8589 -26.7816 -26.7816
   -26.6527 -26.6527 -26.4142 -26.4142  -7.6268  -7.6268  -7.5734  -7.5734
    -7.4976  -7.4976  -7.4657  -7.4657  -7.2096  -7.2096  -7.1139  -7.1139
     2.9805   2.9805   3.4216   3.4216   3.5447   3.5447   3.8882   3.8882
     3.9755   3.9755   4.4807   4.4807   4.6441   4.6441   4.7076   4.7076
     5.0359   5.0359   5.1764   5.1764   5.2813   5.2813   5.6700   5.6700
    32.0145  32.0145  32.6556  32.6556  32.9506  32.9506  33.0709  33.0709
    33.3031  33.3031  33.3536  33.3536  33.5044  33.5044  34.5565  34.5565
    34.9226  34.9226  35.8453  35.8453  36.1866  36.1866  36.3827  36.3827
    37.7050  37.7050  38.5027  38.5027  38.5168  38.5168  39.6913  39.6913
    40.5741  40.5741  40.7273  40.7273  41.1078  41.1078  41.7857  41.7857
    42.2419  42.2419  42.2455  42.2455  42.8167  42.8167  43.2780  43.2780
    44.0105  44.0105  44.9107  44.9107  45.1511  45.1511  45.7941  45.7941
    46.4078  46.4078  46.9641  46.9641  47.4340  47.4340  48.4466  48.4466
    48.4789  48.4789  49.7277  49.7277  54.5863  54.5863  55.4633  55.4633
    55.9812  55.9812  56.3255  56.3255  56.3573  56.3573  58.1697  58.1697
    58.2504  58.2504  59.8440  59.8440  60.7326  60.7327  61.0366  61.0367
    61.1694  61.1695  61.4584  61.4586  62.1110  62.1109

          k =-0.5000 0.0000 0.1317 (  3710 PWs)   bands (ev):

   -42.6411 -42.6411 -42.6305 -42.6305 -26.8629 -26.8629 -26.7748 -26.7748
   -26.6489 -26.6489 -26.4135 -26.4135  -7.6205  -7.6205  -7.5779  -7.5779
    -7.5070  -7.5070  -7.4377  -7.4377  -7.2068  -7.2068  -7.1165  -7.1165
     2.9799   2.9799   3.4185   3.4185   3.6814   3.6814   3.8554   3.8554
     4.0504   4.0504   4.4172   4.4172   4.5147   4.5147   4.7346   4.7346
     5.0735   5.0735   5.1711   5.1711   5.2836   5.2836   5.6654   5.6654
    32.1190  32.1190  32.4747  32.4747  32.8857  32.8857  33.1796  33.1796
    33.2519  33.2519  33.5888  33.5888  33.6911  33.6911  34.3992  34.3992
    34.5547  34.5547  35.8706  35.8706  36.4623  36.4623  36.8291  36.8291
    37.6335  37.6335  38.4016  38.4016  39.0900  39.0900  39.3025  39.3025
    40.0487  40.0487  40.3782  40.3782  41.1326  41.1326  41.3533  41.3533
    41.7721  41.7721  42.0955  42.0955  42.8604  42.8604  44.0669  44.0669
    44.2933  44.2933  45.0594  45.0594  45.5914  45.5914  45.6612  45.6612
    46.1104  46.1104  46.9971  46.9971  47.4191  47.4191  47.6614  47.6614
    48.8510  48.8510  50.8096  50.8096  53.7519  53.7519  55.0094  55.0094
    56.0571  56.0571  56.7447  56.7447  57.5548  57.5549  58.4161  58.4161
    58.6953  58.6953  58.9976  58.9976  59.8967  59.8968  60.5834  60.5835
    60.7429  60.7430  61.3556  61.3557  61.9990  61.9991

          k =-0.5000 0.0000-0.2634 (  3680 PWs)   bands (ev):

   -42.6274 -42.6274 -42.6248 -42.6248 -26.8589 -26.8589 -26.7704 -26.7704
   -26.6425 -26.6425 -26.4126 -26.4126  -7.6097  -7.6097  -7.5661  -7.5661
    -7.5206  -7.5206  -7.4065  -7.4065  -7.1961  -7.1961  -7.1136  -7.1136
     2.9664   2.9664   3.4698   3.4698   3.7432   3.7432   4.0047   4.0047
     4.0205   4.0205   4.3686   4.3686   4.4019   4.4019   4.7069   4.7069
     5.0857   5.0857   5.2256   5.2256   5.2756   5.2756   5.6741   5.6741
    32.1534  32.1534  32.4511  32.4511  32.8745  32.8745  33.0540  33.0540
    33.5048  33.5048  33.6604  33.6604  33.9908  33.9908  34.1126  34.1126
    34.2794  34.2794  35.9226  35.9226  36.4951  36.4951  37.4299  37.4299
    37.8273  37.8273  38.2209  38.2209  39.1231  39.1231  39.4156  39.4156
    39.7824  39.7824  40.0893  40.0893  40.3733  40.3733  41.3004  41.3004
    41.3592  41.3592  41.9637  41.9637  43.6145  43.6145  43.8386  43.8386
    44.4644  44.4644  45.4097  45.4097  45.6830  45.6830  45.8360  45.8360
    46.3992  46.3992  46.4342  46.4342  47.1230  47.1230  47.5238  47.5238
    49.6721  49.6721  51.3978  51.3978  52.5103  52.5103  55.4510  55.4510
    56.5917  56.5917  56.7957  56.7957  58.2353  58.2354  58.3330  58.3331
    58.3922  58.3923  59.1304  59.1305  59.5569  59.5570  60.0291  60.0292
    60.6919  60.6919  60.7729  60.7729  61.7566  61.7567

          k =-0.5000 0.2533 0.0000 (  3686 PWs)   bands (ev):

   -42.6337 -42.6337 -42.6242 -42.6242 -26.8216 -26.8216 -26.7901 -26.7901
   -26.6057 -26.6057 -26.4832 -26.4832  -7.5817  -7.5817  -7.5585  -7.5585
    -7.4701  -7.4701  -7.4574  -7.4574  -7.1579  -7.1579  -7.1040  -7.1040
     3.1769   3.1769   3.2991   3.2991   3.6074   3.6074   4.0425   4.0425
     4.0976   4.0976   4.3354   4.3354   4.5732   4.5732   4.6384   4.6384
     5.0755   5.0755   5.1226   5.1226   5.2787   5.2787   5.3795   5.3795
    32.6097  32.6097  32.8736  32.8736  32.9807  32.9807  33.3435  33.3435
    33.4856  33.4856  33.8808  33.8808  34.3620  34.3620  34.3902  34.3902
    34.9645  34.9645  35.3810  35.3810  36.7182  36.7182  36.8674  36.8674
    38.0762  38.0762  38.2744  38.2744  38.7301  38.7301  39.7075  39.7075
    39.9797  39.9797  40.3050  40.3050  40.6887  40.6887  41.1885  41.1885
    41.4228  41.4228  42.3636  42.3636  42.7886  42.7886  43.4252  43.4252
    43.9504  43.9504  44.2192  44.2192  44.4811  44.4811  44.9892  44.9892
    45.7520  45.7520  45.9300  45.9300  46.2283  46.2283  48.4413  48.4413
    50.5015  50.5015  50.9886  50.9886  53.0916  53.0916  53.8867  53.8867
    55.7652  55.7652  57.4099  57.4099  57.8036  57.8036  57.9828  57.9828
    59.3898  59.3899  59.5244  59.5244  60.3921  60.3921  60.6368  60.6368
    61.2767  61.2768  61.8867  61.8868  62.4773  62.4774

          k =-0.5000 0.2533 0.1317 (  3692 PWs)   bands (ev):

   -42.6354 -42.6354 -42.6265 -42.6265 -26.8277 -26.8277 -26.7894 -26.7894
   -26.6041 -26.6041 -26.4820 -26.4820  -7.5886  -7.5886  -7.5584  -7.5584
    -7.4803  -7.4803  -7.4441  -7.4441  -7.1677  -7.1677  -7.1037  -7.1037
     3.2097   3.2097   3.3609   3.3609   3.6674   3.6674   3.8711   3.8711
     4.0669   4.0669   4.3439   4.3439   4.5855   4.5855   4.7498   4.7498
     5.0530   5.0530   5.0934   5.0934   5.2408   5.2408   5.3595   5.3595
    32.6206  32.6206  32.8436  32.8436  33.0160  33.0160  33.3161  33.3161
    33.6045  33.6045  33.8402  33.8402  34.2094  34.2094  34.3822  34.3822
    35.1186  35.1186  35.4055  35.4055  36.9789  36.9789  37.1624  37.1624
    38.0919  38.0919  38.3894  38.3894  38.7459  38.7459  39.1406  39.1406
    39.9323  39.9323  40.1085  40.1085  40.6817  40.6817  40.9277  40.9277
    41.6685  41.6685  42.1327  42.1327  42.5644  42.5644  43.2852  43.2852
    43.4551  43.4551  43.9626  43.9626  44.7163  44.7163  45.1372  45.1372
    45.9199  45.9199  46.3385  46.3385  46.7015  46.7015  48.5332  48.5332
    50.0419  50.0419  51.2577  51.2577  52.7312  52.7312  55.0772  55.0772
    56.1579  56.1579  56.9974  56.9974  57.8681  57.8682  58.1722  58.1722
    59.4769  59.4769  59.8603  59.8604  60.1040  60.1040  60.7413  60.7413
    60.9450  60.9450  61.5588  61.5589  61.8770  61.8772

          k =-0.5000 0.2533-0.2634 (  3704 PWs)   bands (ev):

   -42.6410 -42.6410 -42.6293 -42.6293 -26.8309 -26.8309 -26.7897 -26.7897
   -26.6065 -26.6065 -26.4827 -26.4827  -7.5949  -7.5949  -7.5571  -7.5571
    -7.4933  -7.4933  -7.4396  -7.4396  -7.1713  -7.1713  -7.1124  -7.1124
     3.2229   3.2229   3.4905   3.4905   3.6871   3.6871   3.8260   3.8260
     3.8801   3.8801   4.3443   4.3443   4.6498   4.6498   4.8449   4.8449
     5.0069   5.0069   5.0225   5.0225   5.2410   5.2410   5.3400   5.3400
    32.5692  32.5692  32.9151  32.9151  32.9817  32.9817  33.3757  33.3757
    33.6760  33.6760  33.8155  33.8155  34.1370  34.1370  34.3159  34.3159
    35.1914  35.1914  35.4775  35.4775  37.3750  37.3750  37.6673  37.6673
    37.9065  37.9065  38.4312  38.4312  38.4746  38.4746  39.0444  39.0444
    39.3048  39.3048  40.1882  40.1882  40.6050  40.6050  41.1888  41.1888
    41.4669  41.4669  42.3043  42.3043  42.3469  42.3469  42.8563  42.8563
    43.0455  43.0455  43.7633  43.7633  44.5317  44.5317  45.3283  45.3283
    46.3389  46.3389  46.6499  46.6499  47.7725  47.7725  47.9200  47.9200
    50.1660  50.1660  50.8254  50.8254  52.8283  52.8283  56.3749  56.3749
    56.4755  56.4755  57.3061  57.3061  57.4919  57.4919  58.5540  58.5541
    58.6157  58.6157  59.8681  59.8682  59.8871  59.8871  60.5254  60.5254
    60.7468  60.7468  61.1831  61.1833  61.8460  61.8467

     the Fermi energy is    55.0794 ev

!    total energy              =   -2994.26899440 Ry
     Harris-Foulkes estimate   =   -2994.26903608 Ry
     estimated scf accuracy    <       0.00005009 Ry

     The total energy is the sum of the following terms:

     one-electron contribution =     288.38254409 Ry
     hartree contribution      =     231.81099968 Ry
     xc contribution           =    -295.66496021 Ry
     ewald contribution        =   -3218.57197517 Ry
     smearing contrib. (-TS)   =      -0.22560279 Ry

     convergence has been achieved in   9 iterations

     Forces acting on atoms (Ry/au):

     atom    1 type  1   force =     0.00000000   -0.09031689   -0.07490375
     atom    2 type  1   force =     0.00000000    0.09031689    0.07490375
     atom    3 type  1   force =     0.00000000   -0.09031689    0.07490375
     atom    4 type  1   force =     0.00000000    0.09031689   -0.07490375
     atom    5 type  1   force =     0.00000000    0.14265368   -0.24091003
     atom    6 type  1   force =     0.00000000   -0.14265368    0.24091003
     atom    7 type  1   force =     0.00000000    0.14265368    0.24091003
     atom    8 type  1   force =     0.00000000   -0.14265368   -0.24091003
     atom    9 type  2   force =     0.00000000   -0.17303654   -0.00729276
     atom   10 type  2   force =     0.00000000    0.17303654    0.00729276
     atom   11 type  2   force =     0.00000000   -0.17303654    0.00729276
     atom   12 type  2   force =     0.00000000    0.17303654   -0.00729276

     Total force =     0.699000     Total SCF correction =     0.000000


     entering subroutine stress ...

          total   stress  (Ry/bohr**3)                   (kbar)     P= 7246.01
   0.05170100   0.00000000   0.00000000       7605.48      0.00      0.00
   0.00000000   0.04675566   0.00000000          0.00   6877.99      0.00
   0.00000000   0.00000000   0.04931548          0.00      0.00   7254.56


     BFGS Geometry Optimization

     number of scf cycles    =   1
     number of bfgs steps    =   0

     enthalpy new            =   -2994.2689943995 Ry

     new trust radius        =       0.5000000000 bohr
     new conv_thr            =       0.0001000000 Ry

     new unit-cell volume =   1089.56702 a.u.^3 (   161.45717 Ang^3 )

CELL_PARAMETERS (alat=  7.01510508)
   1.085136619   0.000000000   0.000000000
   0.000000000   1.417283450   0.000000000
   0.000000000   0.000000000   2.052155521

ATOMIC_POSITIONS (crystal)
Co       0.750000000   0.825756581   0.435365451
Co       0.250000000   0.174243419   0.564634549
Co       0.750000000   0.325756581   0.064634549
Co       0.250000000   0.674243419   0.935365451
Co       0.250000000   0.538103847   0.281153217
Co       0.750000000   0.461896153   0.718846783
Co       0.250000000   0.038103847   0.218846783
Co       0.750000000   0.961896153   0.781153217
Si       0.250000000   0.201619369   0.893563923
Si       0.750000000   0.798380631   0.106436077
Si       0.250000000   0.701619369   0.606436077
Si       0.750000000   0.298380631   0.393563923



     Writing output data file Prototype-La-oP12-Co2Si.save
     NEW-OLD atomic charge density approx. for the potential
     NEW k-points:
        k(    1) = (   0.0000000   0.0000000   0.0000000), wk =   0.0833333
        k(    2) = (   0.0000000   0.0000000   0.1218231), wk =   0.1666667
        k(    3) = (   0.0000000   0.0000000  -0.2436463), wk =   0.0833333
        k(    4) = (   0.0000000   0.2351917   0.0000000), wk =   0.1666667
        k(    5) = (   0.0000000   0.2351917   0.1218231), wk =   0.3333333
        k(    6) = (   0.0000000   0.2351917  -0.2436463), wk =   0.1666667
        k(    7) = (  -0.4607715   0.0000000   0.0000000), wk =   0.0833333
        k(    8) = (  -0.4607715   0.0000000   0.1218231), wk =   0.1666667
        k(    9) = (  -0.4607715   0.0000000  -0.2436463), wk =   0.0833333
        k(   10) = (  -0.4607715   0.2351917   0.0000000), wk =   0.1666667
        k(   11) = (  -0.4607715   0.2351917   0.1218231), wk =   0.3333333
        k(   12) = (  -0.4607715   0.2351917  -0.2436463), wk =   0.1666667

     total cpu time spent up to now is      180.0 secs

     Self-consistent Calculation

     iteration #  1     ecut=    40.00 Ry     beta=0.70
     CG style diagonalization
     c_bands:  2 eigenvalues not converged
     c_bands:  4 eigenvalues not converged
     c_bands:  4 eigenvalues not converged
     c_bands:  2 eigenvalues not converged
     ethr =  1.00E-06,  avg # of iterations = 22.2

     total cpu time spent up to now is      248.2 secs

     total energy              =   -2989.40985782 Ry
     Harris-Foulkes estimate   =   -3017.18447732 Ry
     estimated scf accuracy    <      35.75014065 Ry

     iteration #  2     ecut=    40.00 Ry     beta=0.70
     CG style diagonalization
     ethr =  1.00E-02,  avg # of iterations =  3.8

     total cpu time spent up to now is      259.4 secs

     total energy              =   -2999.95372699 Ry
     Harris-Foulkes estimate   =   -3002.38393637 Ry
     estimated scf accuracy    <       3.65423755 Ry

     iteration #  3     ecut=    40.00 Ry     beta=0.70
     CG style diagonalization
     ethr =  1.55E-03,  avg # of iterations =  3.6

     total cpu time spent up to now is      271.9 secs

     total energy              =   -3000.76900239 Ry
     Harris-Foulkes estimate   =   -3000.80047789 Ry
     estimated scf accuracy    <       0.04656512 Ry

     iteration #  4     ecut=    40.00 Ry     beta=0.70
     CG style diagonalization
     c_bands:  1 eigenvalues not converged
     c_bands:  4 eigenvalues not converged
     c_bands:  2 eigenvalues not converged
     ethr =  1.97E-05,  avg # of iterations =  4.5

     total cpu time spent up to now is      287.7 secs

     total energy              =   -3000.79343833 Ry
     Harris-Foulkes estimate   =   -3000.79859004 Ry
     estimated scf accuracy    <       0.00944912 Ry

     iteration #  5     ecut=    40.00 Ry     beta=0.70
     CG style diagonalization
     c_bands:  2 eigenvalues not converged
     c_bands:  2 eigenvalues not converged
     ethr =  4.00E-06,  avg # of iterations =  3.9

     total cpu time spent up to now is      300.2 secs

     total energy              =   -3000.79545445 Ry
     Harris-Foulkes estimate   =   -3000.79574978 Ry
     estimated scf accuracy    <       0.00051034 Ry

     iteration #  6     ecut=    40.00 Ry     beta=0.70
     CG style diagonalization
     c_bands:  1 eigenvalues not converged
     ethr =  2.16E-07,  avg # of iterations =  3.7

     total cpu time spent up to now is      311.0 secs

     End of self-consistent calculation

          k = 0.0000 0.0000 0.0000 (  3675 PWs)   bands (ev):

   -52.5604 -52.5411 -52.5398 -52.5175 -36.7752 -36.7122 -36.7013 -36.6963
   -36.6335 -36.5600 -36.4821 -36.4819 -17.2220 -17.2045 -17.1819 -17.1629
   -17.1617 -17.1435 -17.1239 -17.1221 -17.0499 -17.0377 -17.0122 -16.9683
    -5.9285  -5.7222  -5.6563  -5.6540  -5.5450  -5.5320  -5.4592  -5.3861
    -5.2849  -5.2747  -5.1531  -5.1515  -5.0620  -5.0557  -4.9979  -4.9761
    -4.9595  -4.8509  -4.8349  -4.7629  -4.7221  -4.5891  -4.4361  -4.3669
    23.6638  23.8208  23.8473  24.1011  24.1490  24.3025  24.3115  24.3194
    24.6239  24.6698  24.7426  24.7748  24.7980  25.0938  25.2420  25.3979
    25.6615  25.8154  25.9173  25.9571  26.1504  27.2490  28.1670  28.3210
    28.7422  28.7888  28.9256  29.4520  29.8554  29.8751  30.1064  30.1649
    30.2366  30.2948  30.3871  30.7488  31.0697  31.3931  31.4190  31.6891
    31.7514  32.0694  32.0858  32.5459  32.7090  32.7887  33.1284  33.4798
    33.8493  33.8806  34.0709  34.1413  34.4699  34.5482  34.8942  35.0871
    35.1165  35.1447  35.2204  35.3833  35.4159  36.0240  36.2841  37.7941
    38.5200  38.7464  39.4380  39.5973  42.1918  42.4186  43.5298  44.0122
    45.0444  45.5858  45.8580  46.0444  46.1634  46.5710  46.7616  46.8268
    46.8310  47.3844  47.4897  47.6402  47.6589  47.7838  48.2472  48.4093
    48.5050  48.6945  48.7582  48.8708  49.0264  50.1374

          k = 0.0000 0.0000 0.1218 (  3675 PWs)   bands (ev):

   -52.5687 -52.5385 -52.5373 -52.5159 -36.7648 -36.7240 -36.7074 -36.6957
   -36.6219 -36.5847 -36.4890 -36.4575 -17.2010 -17.2009 -17.1748 -17.1685
   -17.1616 -17.1541 -17.1353 -17.1190 -17.0554 -17.0491 -16.9976 -16.9749
    -5.9062  -5.7532  -5.6458  -5.6418  -5.5728  -5.5101  -5.5024  -5.3399
    -5.3179  -5.2656  -5.1708  -5.1516  -5.0607  -5.0397  -5.0243  -5.0003
    -4.9256  -4.7911  -4.7896  -4.7769  -4.7192  -4.6363  -4.4330  -4.3894
    23.6904  23.7788  23.9573  23.9870  24.0749  24.2675  24.3318  24.3872
    24.6319  24.6946  24.8577  24.9536  24.9839  25.0236  25.2069  25.4121
    25.6773  25.8351  25.8510  25.8537  26.0559  27.1530  27.8236  28.3996
    28.8583  28.9593  29.0300  29.4746  29.7196  29.9106  30.1907  30.2960
    30.2977  30.3070  30.5798  30.7233  30.9314  31.0924  31.3894  31.4347
    31.6444  31.6571  32.2367  32.5640  32.7532  32.9541  33.0467  33.3768
    33.4754  33.7372  34.0111  34.0619  34.0667  34.8196  34.8203  34.9298
    35.1805  35.3012  35.4122  35.4932  35.6608  36.2207  36.7424  38.5544
    38.8332  39.1450  39.3371  39.4641  41.9252  42.5222  42.5933  44.0112
    44.6292  45.0966  45.5068  45.9680  46.0710  46.3099  46.7043  46.8710
    47.0558  47.4355  47.4740  47.6172  47.8230  48.1035  48.1990  48.3475
    48.4757  49.0254  49.0941  49.1360  49.2800  49.3994

          k = 0.0000 0.0000-0.2436 (  3690 PWs)   bands (ev):

   -52.5656 -52.5656 -52.5360 -52.5360 -36.7625 -36.7625 -36.7065 -36.7065
   -36.5964 -36.5964 -36.4804 -36.4804 -17.1978 -17.1978 -17.1644 -17.1644
   -17.1606 -17.1606 -17.1449 -17.1449 -17.0711 -17.0711 -16.9936 -16.9936
    -5.8598  -5.8598  -5.6112  -5.6112  -5.5738  -5.5738  -5.4185  -5.4185
    -5.2181  -5.2181  -5.2176  -5.2176  -5.0453  -5.0453  -5.0337  -5.0337
    -4.8666  -4.8666  -4.7533  -4.7533  -4.7428  -4.7428  -4.4246  -4.4246
    23.7757  23.7757  23.8350  23.8350  24.1555  24.1555  24.6504  24.6504
    24.6978  24.6978  24.9010  24.9010  25.0454  25.0454  25.1497  25.1497
    25.7591  25.7591  25.8427  25.8427  26.4461  26.4461  28.0176  28.0176
    29.2007  29.2007  29.3799  29.3799  29.8834  29.8834  29.9747  29.9747
    30.5624  30.5624  30.5963  30.5963  30.7341  30.7341  31.2404  31.2404
    31.6454  31.6454  32.4652  32.4652  32.8208  32.8208  33.2302  33.2302
    33.2561  33.2561  33.9393  33.9393  34.4839  34.4839  34.7094  34.7094
    35.2038  35.2038  35.7854  35.7854  35.9611  35.9611  38.6209  38.6209
    38.8492  38.8492  39.7222  39.7222  41.6615  41.6615  42.7244  42.7244
    45.2867  45.2867  45.3965  45.3965  46.0870  46.0870  46.6779  46.6779
    47.3035  47.3035  47.3194  47.3194  47.5529  47.5529  48.9533  48.9533
    49.1135  49.1135  49.3119  49.3120  49.6043  49.6043

          k = 0.0000 0.2352 0.0000 (  3664 PWs)   bands (ev):

   -52.5591 -52.5586 -52.5130 -52.4884 -36.7478 -36.7262 -36.6972 -36.6839
   -36.5855 -36.5538 -36.5168 -36.4945 -17.2105 -17.1924 -17.1786 -17.1673
   -17.1511 -17.1509 -17.1166 -17.1124 -17.0313 -17.0309 -16.9814 -16.9746
    -5.7637  -5.6236  -5.5773  -5.5761  -5.5100  -5.4923  -5.4792  -5.4658
    -5.3384  -5.2862  -5.2735  -5.1936  -5.1587  -4.9618  -4.9538  -4.8543
    -4.8479  -4.8312  -4.8077  -4.7859  -4.7311  -4.6550  -4.6374  -4.5874
    24.0004  24.1279  24.1530  24.2625  24.3906  24.4984  24.5854  24.6486
    24.8063  24.8255  24.9641  24.9843  25.0025  25.2126  25.2991  25.4520
    25.6670  25.6771  25.6887  25.7766  26.3417  27.4001  28.1277  28.6150
    28.7229  29.0786  29.1110  29.1577  29.4926  29.5485  29.8326  30.2143
    30.2148  30.4344  30.6903  30.6973  31.0557  31.2479  31.2569  31.4761
    31.6973  31.7475  32.1967  32.3267  32.5857  32.7319  32.9278  32.9595
    33.2700  33.4477  33.5163  34.0356  34.0712  34.0860  34.5567  34.6195
    34.8118  35.0279  35.1700  35.4236  35.4668  35.7801  35.8755  36.1502
    36.6729  36.7621  41.3967  42.8131  43.2469  43.9528  44.4893  45.0444
    45.1151  45.5028  45.6879  45.8202  46.0231  46.2942  46.5377  46.6008
    46.8839  46.9509  47.0233  47.3360  47.4515  47.7310  48.4483  48.5062
    48.6036  48.6490  49.0428  49.2691  49.3255  49.5946

          k = 0.0000 0.2352 0.1218 (  3669 PWs)   bands (ev):

   -52.5536 -52.5493 -52.5285 -52.5085 -36.7477 -36.7253 -36.7073 -36.6929
   -36.5818 -36.5610 -36.5103 -36.5023 -17.2001 -17.1929 -17.1716 -17.1588
   -17.1574 -17.1502 -17.1364 -17.1162 -17.0385 -17.0332 -16.9958 -16.9760
    -5.7684  -5.6467  -5.6239  -5.5575  -5.5514  -5.5211  -5.4306  -5.3901
    -5.3358  -5.2794  -5.2620  -5.2249  -5.1512  -4.9700  -4.9327  -4.8880
    -4.8827  -4.8580  -4.8218  -4.7527  -4.7271  -4.6718  -4.6189  -4.5943
    23.9915  24.1018  24.2263  24.3291  24.3611  24.5339  24.5861  24.6705
    24.7341  24.8298  24.9177  24.9402  25.1385  25.1823  25.3453  25.4550
    25.5607  25.5730  25.6383  25.8553  26.6200  27.5407  28.2043  28.5507
    28.8945  28.9198  29.2002  29.2302  29.5013  29.5091  29.6336  30.1995
    30.2951  30.3481  30.4323  30.5843  30.9845  31.1280  31.1648  31.3663
    31.5214  31.8628  32.1376  32.3004  32.7004  32.8024  32.8268  33.0239
    33.1360  33.2938  33.6379  33.7650  33.9249  34.1470  34.2672  34.5927
    34.7542  34.9739  35.1220  35.3786  35.4234  35.9689  36.0433  36.1823
    37.3821  38.4083  41.8463  42.3103  42.9102  43.0840  44.0154  44.5393
    44.6572  45.3706  45.6896  45.7578  46.1328  46.1922  46.4436  46.7672
    47.2465  47.3241  47.4582  47.5329  47.9227  47.9864  48.2177  48.2269
    48.5893  48.9562  49.0196  49.4062  49.4685  49.6176

          k = 0.0000 0.2352-0.2436 (  3666 PWs)   bands (ev):

   -52.5430 -52.5430 -52.5231 -52.5231 -36.7362 -36.7362 -36.7035 -36.7035
   -36.5624 -36.5624 -36.5085 -36.5085 -17.1918 -17.1918 -17.1689 -17.1689
   -17.1450 -17.1450 -17.1320 -17.1320 -17.0336 -17.0336 -16.9854 -16.9854
    -5.7151  -5.7151  -5.5924  -5.5924  -5.5280  -5.5280  -5.3741  -5.3741
    -5.3286  -5.3286  -5.2167  -5.2167  -5.0542  -5.0542  -4.9158  -4.9158
    -4.9027  -4.9027  -4.7832  -4.7832  -4.7088  -4.7088  -4.5967  -4.5967
    24.0460  24.0460  24.1993  24.1993  24.5968  24.5968  24.7404  24.7404
    24.7574  24.7574  24.8862  24.8862  25.0429  25.0429  25.4183  25.4183
    25.5122  25.5122  25.7635  25.7635  27.2768  27.2768  28.3436  28.3436
    28.9480  28.9480  29.2301  29.2301  29.6849  29.6849  29.7176  29.7176
    30.1966  30.1966  30.5193  30.5193  30.7176  30.7176  31.4212  31.4212
    31.8780  31.8780  31.9434  31.9434  32.6125  32.6125  32.6927  32.6927
    33.1130  33.1130  33.8941  33.8941  34.2555  34.2555  34.3013  34.3013
    34.7965  34.7965  35.2845  35.2845  35.5907  35.5907  36.1799  36.1799
    39.4877  39.4877  41.2254  41.2254  43.0605  43.0605  43.2761  43.2761
    45.2304  45.2304  45.7954  45.7954  46.0063  46.0063  46.6702  46.6702
    47.5333  47.5333  47.5957  47.5957  47.8736  47.8736  48.3304  48.3304
    49.1109  49.1109  49.5220  49.5225  49.7009  49.7017

          k =-0.4608 0.0000 0.0000 (  3722 PWs)   bands (ev):

   -52.5795 -52.5795 -52.5762 -52.5762 -36.7377 -36.7377 -36.7251 -36.7251
   -36.6362 -36.6362 -36.5126 -36.5126 -17.2123 -17.2123 -17.2053 -17.2053
   -17.1799 -17.1799 -17.1657 -17.1657 -17.0430 -17.0430 -17.0097 -17.0097
    -5.8696  -5.8696  -5.7069  -5.7069  -5.6160  -5.6160  -5.4292  -5.4292
    -5.4132  -5.4132  -5.1591  -5.1591  -5.0177  -5.0177  -5.0118  -5.0118
    -4.8200  -4.8200  -4.7563  -4.7563  -4.6824  -4.6824  -4.4374  -4.4374
    23.9433  23.9433  24.2095  24.2095  24.4084  24.4084  24.5537  24.5537
    24.6869  24.6869  24.7185  24.7185  24.7747  24.7747  25.3642  25.3642
    25.5781  25.5781  26.2887  26.2887  27.2796  27.2796  27.8090  27.8090
    28.8514  28.8514  29.2007  29.2007  29.6022  29.6022  30.4094  30.4094
    31.0788  31.0788  31.0818  31.0818  31.4639  31.4639  31.5030  31.5030
    32.0152  32.0152  32.2614  32.2614  32.5692  32.5692  32.7517  32.7517
    33.1490  33.1490  33.9007  33.9007  34.0666  34.0666  34.4795  34.4795
    35.0206  35.0206  35.4853  35.4853  35.8798  35.8798  36.4383  36.4383
    36.5219  36.5219  37.6746  37.6746  42.2731  42.2731  43.4353  43.4353
    44.2253  44.2253  44.8194  44.8194  45.1917  45.1917  46.3275  46.3275
    46.9758  46.9758  47.3088  47.3088  48.2742  48.2742  48.6973  48.6973
    49.3980  49.3981  50.5342  50.5344  50.5420  50.5420

          k =-0.4608 0.0000 0.1218 (  3710 PWs)   bands (ev):

   -52.5701 -52.5701 -52.5659 -52.5659 -36.7387 -36.7387 -36.7142 -36.7142
   -36.6279 -36.6279 -36.5089 -36.5089 -17.2091 -17.2091 -17.2012 -17.2012
   -17.1686 -17.1686 -17.1562 -17.1562 -17.0392 -17.0392 -17.0128 -17.0128
    -5.8669  -5.8669  -5.7122  -5.7122  -5.5275  -5.5275  -5.4807  -5.4807
    -5.3434  -5.3434  -5.1723  -5.1723  -5.1140  -5.1140  -4.9568  -4.9568
    -4.8112  -4.8112  -4.7420  -4.7420  -4.6804  -4.6804  -4.4443  -4.4443
    24.0147  24.0147  24.1003  24.1003  24.4418  24.4418  24.5969  24.5969
    24.6211  24.6211  24.7980  24.7980  24.9035  24.9035  25.2645  25.2645
    25.4917  25.4917  26.2891  26.2891  27.3691  27.3691  27.9918  27.9918
    28.7970  28.7970  29.3042  29.3042  29.8123  29.8123  30.2889  30.2889
    30.6524  30.6524  30.8635  30.8635  31.1318  31.1318  31.3635  31.3635
    31.8038  31.8038  32.0782  32.0782  32.5015  32.5015  33.4373  33.4373
    33.5469  33.5469  34.0466  34.0466  34.2910  34.2910  34.5332  34.5332
    34.7102  34.7102  35.4560  35.4560  35.7757  35.7757  35.9272  35.9272
    36.9339  36.9339  38.4984  38.4984  41.0870  41.0870  44.1502  44.1502
    44.3381  44.3381  45.0807  45.0807  45.5755  45.5755  46.2061  46.2061
    46.8151  46.8151  46.9910  46.9910  47.9861  47.9861  48.9062  48.9062
    49.3373  49.3373  49.7779  49.7779  50.5338  50.5339

          k =-0.4608 0.0000-0.2436 (  3680 PWs)   bands (ev):

   -52.5519 -52.5519 -52.5376 -52.5376 -36.7193 -36.7193 -36.7068 -36.7068
   -36.6063 -36.6063 -36.5078 -36.5078 -17.1994 -17.1994 -17.1857 -17.1857
   -17.1590 -17.1590 -17.1379 -17.1379 -17.0237 -17.0237 -17.0103 -17.0103
    -5.8781  -5.8781  -5.6838  -5.6838  -5.5104  -5.5104  -5.3674  -5.3674
    -5.3135  -5.3135  -5.1974  -5.1974  -5.1805  -5.1805  -4.9502  -4.9502
    -4.8084  -4.8084  -4.7206  -4.7206  -4.6467  -4.6467  -4.4290  -4.4290
    23.9815  23.9815  24.1698  24.1698  24.4515  24.4515  24.4864  24.4864
    24.7448  24.7448  24.8451  24.8451  25.0407  25.0407  25.1108  25.1108
    25.4171  25.4171  26.2894  26.2894  27.4235  27.4235  28.3254  28.3254
    28.6385  28.6385  29.4518  29.4518  29.9681  29.9681  30.2268  30.2268
    30.3664  30.3664  30.4958  30.4958  30.9011  30.9011  31.2208  31.2208
    31.7320  31.7320  31.8535  31.8535  33.0093  33.0093  33.1685  33.1685
    33.9389  33.9389  34.1933  34.1933  34.3631  34.3631  34.7427  34.7427
    34.9218  34.9218  34.9855  34.9855  35.4054  35.4054  35.9081  35.9081
    37.6653  37.6653  39.2431  39.2431  39.8702  39.8702  44.4648  44.4648
    44.6096  44.6096  45.2242  45.2242  45.3719  45.3719  46.7458  46.7458
    46.8004  46.8004  47.3787  47.3787  47.5289  47.5289  47.9506  47.9506
    49.1895  49.1895  49.3479  49.3479  50.2205  50.2205

          k =-0.4608 0.2352 0.0000 (  3686 PWs)   bands (ev):

   -52.5584 -52.5584 -52.5460 -52.5460 -36.7195 -36.7195 -36.7166 -36.7166
   -36.5911 -36.5911 -36.5328 -36.5328 -17.2045 -17.2045 -17.1957 -17.1957
   -17.1535 -17.1535 -17.1521 -17.1521 -17.0137 -17.0137 -16.9949 -16.9949
    -5.7618  -5.7618  -5.6922  -5.6922  -5.5910  -5.5910  -5.3811  -5.3811
    -5.2945  -5.2945  -5.1804  -5.1804  -5.0732  -5.0732  -5.0072  -5.0072
    -4.8085  -4.8085  -4.7457  -4.7457  -4.6687  -4.6687  -4.6053  -4.6053
    24.3347  24.3347  24.3375  24.3375  24.4200  24.4200  24.7076  24.7076
    24.7846  24.7846  25.0461  25.0461  25.2556  25.2556  25.3171  25.3171
    25.6890  25.6890  25.9987  25.9987  27.8227  27.8227  27.9627  27.9627
    28.9277  28.9277  29.5103  29.5103  29.6378  29.6378  30.3076  30.3076
    30.4809  30.4809  30.6311  30.6311  30.9048  30.9048  31.5250  31.5250
    31.5615  31.5615  32.0859  32.0859  32.4410  32.4410  32.7845  32.7845
    33.1654  33.1654  33.4760  33.4760  33.6005  33.6005  34.1866  34.1866
    34.6432  34.6432  34.8912  34.8912  34.8971  34.8971  36.4072  36.4072
    38.0669  38.0669  38.3740  38.3740  40.5720  40.5720  41.0249  41.0249
    45.7028  45.7028  46.5650  46.5650  46.6865  46.6865  47.6767  47.6767
    47.7088  47.7088  48.2333  48.2333  48.3304  48.3304  48.9717  48.9717
    49.0829  49.0829  49.9728  49.9728  50.5486  50.5486

          k =-0.4608 0.2352 0.1218 (  3692 PWs)   bands (ev):

   -52.5707 -52.5707 -52.5423 -52.5423 -36.7253 -36.7253 -36.7183 -36.7183
   -36.5922 -36.5922 -36.5322 -36.5322 -17.2031 -17.2031 -17.1926 -17.1926
   -17.1590 -17.1590 -17.1528 -17.1528 -17.0256 -17.0256 -16.9947 -16.9947
    -5.7511  -5.7511  -5.6674  -5.6674  -5.5575  -5.5575  -5.4554  -5.4554
    -5.3128  -5.3128  -5.1945  -5.1945  -5.0541  -5.0541  -4.9526  -4.9526
    -4.8085  -4.8085  -4.7788  -4.7788  -4.6876  -4.6876  -4.6207  -4.6207
    24.2883  24.2883  24.3814  24.3814  24.4704  24.4704  24.7151  24.7151
    24.8427  24.8427  25.0084  25.0084  25.1716  25.1716  25.2654  25.2654
    25.7677  25.7677  26.0189  26.0189  27.9246  27.9246  28.1244  28.1244
    29.0154  29.0154  29.5500  29.5500  29.6774  29.6774  29.9677  29.9677
    30.3303  30.3303  30.5100  30.5100  30.9687  30.9687  31.1371  31.1371
    31.8073  31.8073  32.0004  32.0004  32.2913  32.2913  32.7919  32.7919
    32.9564  32.9564  33.3051  33.3051  33.8479  33.8479  34.2318  34.2318
    34.7713  34.7713  34.9909  34.9909  35.2685  35.2685  36.4314  36.4314
    37.6720  37.6720  38.7415  38.7415  40.0109  40.0109  42.3670  42.3670
    45.7820  45.7820  45.9229  45.9229  46.5939  46.5939  46.9884  46.9884
    47.6738  47.6738  48.1452  48.1452  48.3425  48.3425  49.0516  49.0516
    49.2303  49.2303  49.9221  49.9221  50.4647  50.4647

          k =-0.4608 0.2352-0.2436 (  3704 PWs)   bands (ev):

   -52.5845 -52.5845 -52.5476 -52.5476 -36.7298 -36.7298 -36.7215 -36.7215
   -36.6006 -36.6006 -36.5357 -36.5357 -17.2057 -17.2057 -17.1930 -17.1930
   -17.1677 -17.1677 -17.1564 -17.1564 -17.0271 -17.0271 -17.0076 -17.0076
    -5.7559  -5.7559  -5.6101  -5.6101  -5.5631  -5.5631  -5.4598  -5.4598
    -5.4213  -5.4213  -5.2035  -5.2035  -5.0221  -5.0221  -4.8965  -4.8965
    -4.8474  -4.8474  -4.8155  -4.8155  -4.6813  -4.6813  -4.6312  -4.6312
    24.2489  24.2489  24.4315  24.4315  24.5069  24.5069  24.7495  24.7495
    24.8974  24.8974  24.9382  24.9382  25.1376  25.1376  25.2019  25.2019
    25.8005  25.8005  26.0591  26.0591  28.0622  28.0622  28.3315  28.3315
    29.0807  29.0807  29.5344  29.5344  29.6257  29.6257  29.6939  29.6939
    30.0152  30.0152  30.6158  30.6158  30.8914  30.8914  31.3507  31.3507
    31.5657  31.5657  32.0677  32.0677  32.0842  32.0842  32.6746  32.6746
    32.7874  32.7874  33.2472  33.2472  33.7524  33.7524  34.3739  34.3739
    34.9484  34.9484  35.3344  35.3344  35.7971  35.7971  36.0101  36.0101
    37.8411  37.8411  38.3369  38.3369  40.2431  40.2431  43.7765  43.7765
    44.9461  44.9461  45.6459  45.6459  46.3921  46.3921  46.5786  46.5786
    47.6555  47.6555  47.6930  47.6930  48.1565  48.1565  49.5583  49.5583
    49.6719  49.6719  49.8038  49.8038  49.9998  49.9998

     the Fermi energy is    42.7946 ev

!    total energy              =   -3000.79556713 Ry
     Harris-Foulkes estimate   =   -3000.79562988 Ry
     estimated scf accuracy    <       0.00007175 Ry

     The total energy is the sum of the following terms:

     one-electron contribution =     -40.52001118 Ry
     hartree contribution      =     305.66471632 Ry
     xc contribution           =    -288.09846199 Ry
     ewald contribution        =   -2977.68854608 Ry
     smearing contrib. (-TS)   =      -0.15326421 Ry

     convergence has been achieved in   6 iterations

     Forces acting on atoms (Ry/au):

     atom    1 type  1   force =     0.00000000   -0.01515851   -0.02269933
     atom    2 type  1   force =     0.00000000    0.01515851    0.02269933
     atom    3 type  1   force =     0.00000000   -0.01515851    0.02269933
     atom    4 type  1   force =     0.00000000    0.01515851   -0.02269933
     atom    5 type  1   force =     0.00000000    0.08654257   -0.16572180
     atom    6 type  1   force =     0.00000000   -0.08654257    0.16572180
     atom    7 type  1   force =     0.00000000    0.08654257    0.16572180
     atom    8 type  1   force =     0.00000000   -0.08654257   -0.16572180
     atom    9 type  2   force =     0.00000000   -0.07920057    0.00286118
     atom   10 type  2   force =     0.00000000    0.07920057   -0.00286118
     atom   11 type  2   force =     0.00000000   -0.07920057   -0.00286118
     atom   12 type  2   force =     0.00000000    0.07920057    0.00286118

     Total force =     0.409777     Total SCF correction =     0.000000


     entering subroutine stress ...

          total   stress  (Ry/bohr**3)                   (kbar)     P= 1903.98
   0.01354808   0.00000000   0.00000000       1992.99      0.00      0.00
   0.00000000   0.01207407   0.00000000          0.00   1776.16      0.00
   0.00000000   0.00000000   0.01320680          0.00      0.00   1942.79


     number of scf cycles    =   2
     number of bfgs steps    =   1

     enthalpy old            =   -2994.2689943995 Ry
     enthalpy new            =   -3000.7955671338 Ry

     CASE: enthalpy_new < enthalpy_old

     small trust_radius: resetting bfgs history

     new trust radius        =       2.2360150493 bohr
     new conv_thr            =       0.0001000000 Ry

     new unit-cell volume =   2525.84382 a.u.^3 (   374.29143 Ang^3 )

CELL_PARAMETERS (alat=  7.01510508)
   1.452674560   0.000000000   0.000000000
   0.000000000   1.845092838   0.000000000
   0.000000000   0.000000000   2.729715573

ATOMIC_POSITIONS (crystal)
Co       0.750000000   0.824231947   0.433788680
Co       0.250000000   0.175768053   0.566211320
Co       0.750000000   0.324231947   0.066211320
Co       0.250000000   0.675768053   0.933788680
Co       0.250000000   0.546808248   0.269641630
Co       0.750000000   0.453191752   0.730358370
Co       0.250000000   0.046808248   0.230358370
Co       0.750000000   0.953191752   0.769641630
Si       0.250000000   0.193653421   0.893762670
Si       0.750000000   0.806346579   0.106237330
Si       0.250000000   0.693653421   0.606237330
Si       0.750000000   0.306346579   0.393762670



     Writing output data file Prototype-La-oP12-Co2Si.save
     NEW-OLD atomic charge density approx. for the potential
     NEW k-points:
        k(    1) = (   0.0000000   0.0000000   0.0000000), wk =   0.0833333
        k(    2) = (   0.0000000   0.0000000   0.0915846), wk =   0.1666667
        k(    3) = (   0.0000000   0.0000000  -0.1831693), wk =   0.0833333
        k(    4) = (   0.0000000   0.1806594   0.0000000), wk =   0.1666667
        k(    5) = (   0.0000000   0.1806594   0.0915846), wk =   0.3333333
        k(    6) = (   0.0000000   0.1806594  -0.1831693), wk =   0.1666667
        k(    7) = (  -0.3441927   0.0000000   0.0000000), wk =   0.0833333
        k(    8) = (  -0.3441927   0.0000000   0.0915846), wk =   0.1666667
        k(    9) = (  -0.3441927   0.0000000  -0.1831693), wk =   0.0833333
        k(   10) = (  -0.3441927   0.1806594   0.0000000), wk =   0.1666667
        k(   11) = (  -0.3441927   0.1806594   0.0915846), wk =   0.3333333
        k(   12) = (  -0.3441927   0.1806594  -0.1831693), wk =   0.1666667

     total cpu time spent up to now is      314.5 secs

     Self-consistent Calculation

     iteration #  1     ecut=    40.00 Ry     beta=0.70
     CG style diagonalization
     c_bands:  1 eigenvalues not converged
     c_bands:  1 eigenvalues not converged
     c_bands:  1 eigenvalues not converged
     c_bands:  3 eigenvalues not converged
     c_bands:  2 eigenvalues not converged
     ethr =  1.00E-06,  avg # of iterations = 27.6

     total cpu time spent up to now is      397.4 secs

     total energy              =   -2881.01250815 Ry
     Harris-Foulkes estimate   =   -3198.02619233 Ry
     estimated scf accuracy    <     404.18212098 Ry

     iteration #  2     ecut=    40.00 Ry     beta=0.70
     CG style diagonalization
     ethr =  1.00E-02,  avg # of iterations =  5.4

     total cpu time spent up to now is      414.6 secs

     total energy              =   -2960.33410158 Ry
     Harris-Foulkes estimate   =   -3004.56902895 Ry
     estimated scf accuracy    <      64.51233825 Ry

     iteration #  3     ecut=    40.00 Ry     beta=0.70
     CG style diagonalization
     ethr =  1.00E-02,  avg # of iterations =  4.3

     total cpu time spent up to now is      427.5 secs

     total energy              =   -2986.26542482 Ry
     Harris-Foulkes estimate   =   -2996.23083828 Ry
     estimated scf accuracy    <      22.83145394 Ry

     iteration #  4     ecut=    40.00 Ry     beta=0.70
     CG style diagonalization
     ethr =  9.67E-03,  avg # of iterations =  3.2

     total cpu time spent up to now is      438.1 secs

     total energy              =   -2987.97647530 Ry
     Harris-Foulkes estimate   =   -2988.82283770 Ry
     estimated scf accuracy    <       3.10781163 Ry

     iteration #  5     ecut=    40.00 Ry     beta=0.70
     CG style diagonalization
     ethr =  1.32E-03,  avg # of iterations =  3.1

     total cpu time spent up to now is      447.6 secs

     total energy              =   -2987.73932709 Ry
     Harris-Foulkes estimate   =   -2988.16945620 Ry
     estimated scf accuracy    <       1.15752405 Ry

     iteration #  6     ecut=    40.00 Ry     beta=0.70
     CG style diagonalization
     ethr =  4.90E-04,  avg # of iterations =  3.3

     total cpu time spent up to now is      459.0 secs

     total energy              =   -2987.78152082 Ry
     Harris-Foulkes estimate   =   -2987.85418886 Ry
     estimated scf accuracy    <       0.16940289 Ry

     iteration #  7     ecut=    40.00 Ry     beta=0.70
     CG style diagonalization
     ethr =  7.18E-05,  avg # of iterations =  3.6

     total cpu time spent up to now is      470.7 secs

     total energy              =   -2987.80131399 Ry
     Harris-Foulkes estimate   =   -2987.80713002 Ry
     estimated scf accuracy    <       0.01457433 Ry

     iteration #  8     ecut=    40.00 Ry     beta=0.70
     CG style diagonalization
     ethr =  6.18E-06,  avg # of iterations =  3.6

     total cpu time spent up to now is      483.3 secs

     total energy              =   -2987.80312427 Ry
     Harris-Foulkes estimate   =   -2987.80376231 Ry
     estimated scf accuracy    <       0.00131771 Ry

     iteration #  9     ecut=    40.00 Ry     beta=0.70
     CG style diagonalization
     ethr =  5.58E-07,  avg # of iterations =  3.7

     total cpu time spent up to now is      495.2 secs

     total energy              =   -2987.80340398 Ry
     Harris-Foulkes estimate   =   -2987.80349492 Ry
     estimated scf accuracy    <       0.00016720 Ry

     iteration # 10     ecut=    40.00 Ry     beta=0.70
     CG style diagonalization
     ethr =  7.08E-08,  avg # of iterations =  3.5

     total cpu time spent up to now is      506.1 secs

     End of self-consistent calculation

          k = 0.0000 0.0000 0.0000 (  3675 PWs)   bands (ev):

   -72.8416 -72.8348 -72.8088 -72.7980 -56.3652 -56.3101 -56.2893 -56.2204
   -56.1662 -56.1116 -56.0316 -55.9683 -42.0271 -42.0270 -42.0263 -42.0261
   -42.0048 -42.0040 -42.0033 -42.0024 -42.0024 -42.0019 -42.0006 -42.0000
   -27.3233 -27.3224 -27.3181 -27.3162 -27.3111 -27.3033 -27.3019 -27.3014
   -27.3013 -27.2939 -27.2927 -27.2927 -27.2557 -27.2552 -27.2261 -27.2255
   -27.2236 -27.2222 -27.2056 -27.2048 -27.2023 -27.1965 -27.1659 -27.1603
     2.9837   2.9840   3.0067   3.0164   3.0415   3.0566   3.0681   3.0758
     3.0777   3.0779   3.0788   3.0907   3.1522   3.1637   3.1939   3.2010
     3.2026   3.2140   3.2305   3.2350   7.4542   8.1727   8.5113   8.6176
     8.9203   8.9971   9.0155   9.0607   9.1676   9.2006   9.2386   9.3228
     9.3365   9.3460   9.3632   9.4632   9.5862   9.5893   9.6727   9.6905
     9.7688   9.8186   9.8340   9.8915   9.9168  10.0050  10.0792  10.0852
    10.0881  10.0886  10.1725  10.2788  10.2882  10.3377  10.3426  10.3474
    10.3889  10.5617  10.6037  10.6366  10.6677  10.7283  10.7442  12.1210
    12.8414  13.4458  13.6598  13.6851  13.9603  14.6231  15.3206  15.7878
    15.9098  16.4110  16.5354  16.5862  16.8613  17.4303  17.9464  18.0564
    18.2386  18.5950  18.9253  19.0887  19.2616  19.7327  19.9366  19.9582
    19.9795  20.9414  21.0602  21.2479  21.3762  21.4620

          k = 0.0000 0.0000 0.0916 (  3675 PWs)   bands (ev):

   -72.8649 -72.8426 -72.8148 -72.7619 -56.3786 -56.3414 -56.3002 -56.2146
   -56.1186 -56.1023 -56.0723 -55.9312 -42.0272 -42.0269 -42.0262 -42.0260
   -42.0044 -42.0038 -42.0037 -42.0030 -42.0023 -42.0016 -42.0005 -41.9996
   -27.3239 -27.3215 -27.3196 -27.3193 -27.3089 -27.3058 -27.3050 -27.3044
   -27.3004 -27.2942 -27.2938 -27.2928 -27.2571 -27.2543 -27.2269 -27.2249
   -27.2225 -27.2184 -27.2100 -27.2056 -27.1973 -27.1928 -27.1699 -27.1633
     2.9757   2.9863   2.9919   3.0123   3.0432   3.0449   3.0620   3.0784
     3.0799   3.0844   3.0958   3.0985   3.1146   3.1647   3.1952   3.2002
     3.2020   3.2377   3.2384   3.2563   7.5579   8.0910   8.4549   8.5766
     8.9657   9.0111   9.0187   9.1069   9.1700   9.2061   9.2622   9.3102
     9.3212   9.3285   9.3979   9.4399   9.5260   9.5393   9.6524   9.6870
     9.6890   9.7041   9.7218   9.9221   9.9925  10.0119  10.0139  10.0507
    10.1607  10.1756  10.1806  10.2684  10.2951  10.3107  10.3406  10.4027
    10.4402  10.5185  10.5821  10.5843  10.6337  10.6990  11.3818  12.1351
    12.8720  13.1896  13.4539  13.9182  14.1923  14.4542  15.0259  15.4850
    15.8040  15.9120  16.9508  17.2457  17.4068  17.4667  17.7283  17.9433
    18.2137  18.5798  19.0607  19.0611  19.1395  19.7359  19.7976  19.8309
    19.9201  20.3051  20.9046  21.1853  21.3127  21.8184

          k = 0.0000 0.0000-0.1832 (  3690 PWs)   bands (ev):

   -72.8833 -72.8833 -72.8309 -72.8309 -56.4322 -56.4322 -56.2515 -56.2515
   -56.1566 -56.1566 -56.0173 -56.0173 -42.0269 -42.0269 -42.0260 -42.0260
   -42.0039 -42.0039 -42.0034 -42.0034 -42.0019 -42.0019 -41.9994 -41.9994
   -27.3273 -27.3273 -27.3240 -27.3240 -27.3086 -27.3086 -27.3074 -27.3074
   -27.2990 -27.2990 -27.2946 -27.2946 -27.2606 -27.2606 -27.2263 -27.2263
   -27.2199 -27.2199 -27.2117 -27.2117 -27.1988 -27.1988 -27.1724 -27.1724
     2.9668   2.9668   2.9852   2.9852   3.0318   3.0318   3.0465   3.0465
     3.0492   3.0492   3.0977   3.0977   3.1605   3.1605   3.1945   3.1945
     3.2177   3.2177   3.2273   3.2273   7.8126   7.8126   8.4813   8.4813
     9.0152   9.0152   9.0697   9.0697   9.1971   9.1971   9.2819   9.2819
     9.3592   9.3592   9.4172   9.4172   9.4825   9.4825   9.5588   9.5588
     9.6309   9.6309   9.8480   9.8480   9.9970   9.9970  10.0512  10.0512
    10.1779  10.1779  10.2488  10.2488  10.3015  10.3015  10.3313  10.3313
    10.4923  10.4923  10.6132  10.6132  10.6243  10.6243  12.1042  12.1042
    13.0825  13.0825  13.2002  13.2002  14.5861  14.5861  15.0762  15.0762
    15.7912  15.7912  17.0100  17.0100  17.7340  17.7340  17.8636  17.8636
    18.5211  18.5211  19.0861  19.0861  19.3887  19.3887  19.6196  19.6196
    20.0294  20.0294  20.6259  20.6260  21.2487  21.2487

          k = 0.0000 0.1807 0.0000 (  3664 PWs)   bands (ev):

   -72.8934 -72.8571 -72.7248 -72.6971 -56.3203 -56.3110 -56.2605 -56.2571
   -56.0918 -56.0381 -55.9931 -55.9863 -42.0269 -42.0265 -42.0265 -42.0255
   -42.0043 -42.0038 -42.0030 -42.0024 -42.0016 -42.0013 -42.0002 -41.9999
   -27.3216 -27.3207 -27.3159 -27.3156 -27.3086 -27.3069 -27.3028 -27.3012
   -27.2997 -27.2951 -27.2949 -27.2914 -27.2376 -27.2323 -27.2270 -27.2258
   -27.2233 -27.2195 -27.2165 -27.2084 -27.1956 -27.1895 -27.1789 -27.1728
     2.9815   3.0003   3.0411   3.0443   3.0569   3.0740   3.0773   3.0780
     3.0853   3.1033   3.1203   3.1204   3.1220   3.1534   3.1893   3.2131
     3.2364   3.2432   3.2467   3.2672   7.8404   8.3936   8.4872   8.7298
     9.0114   9.0276   9.1813   9.1857   9.2142   9.2416   9.2774   9.3023
     9.3413   9.3503   9.4320   9.4374   9.4631   9.5346   9.5678   9.5885
     9.5958   9.7771   9.7925   9.8289   9.9642   9.9702   9.9822  10.0138
    10.0828  10.1784  10.1812  10.2088  10.2092  10.2763  10.3714  10.3877
    10.4159  10.4326  10.5631  10.6095  10.6238  10.6990  10.7451  10.7782
    11.9112  12.0036  14.5369  14.5781  15.2605  15.9527  16.0413  16.3265
    16.3415  16.3623  16.7270  16.8306  16.9223  16.9888  17.2540  17.4277
    17.7890  18.1393  18.2956  18.5990  18.8974  19.3538  20.1177  20.6951
    21.0177  21.3050  21.4540  21.5617  21.8988  21.9848

          k = 0.0000 0.1807 0.0916 (  3669 PWs)   bands (ev):

   -72.8803 -72.8446 -72.7771 -72.7254 -56.3881 -56.3296 -56.2422 -56.2050
   -56.1317 -56.0570 -56.0139 -55.9915 -42.0270 -42.0267 -42.0263 -42.0258
   -42.0043 -42.0037 -42.0035 -42.0029 -42.0017 -42.0009 -42.0003 -41.9996
   -27.3246 -27.3225 -27.3182 -27.3173 -27.3095 -27.3082 -27.3059 -27.3030
   -27.2968 -27.2950 -27.2923 -27.2910 -27.2389 -27.2351 -27.2274 -27.2244
   -27.2213 -27.2207 -27.2140 -27.2100 -27.1965 -27.1907 -27.1809 -27.1743
     2.9823   3.0047   3.0300   3.0386   3.0487   3.0594   3.0750   3.0804
     3.0822   3.0848   3.0926   3.1028   3.1136   3.1621   3.1977   3.2151
     3.2303   3.2376   3.2549   3.2610   7.9290   8.3411   8.5266   8.6800
     9.0388   9.0523   9.1179   9.1910   9.1977   9.2488   9.2504   9.2957
     9.3183   9.3668   9.3921   9.3998   9.5157   9.5222   9.5343   9.6144
     9.6459   9.7172   9.7846   9.8023   9.9323   9.9455  10.0166  10.0234
    10.1292  10.1461  10.1651  10.1858  10.2073  10.2359  10.3390  10.3651
    10.4215  10.4413  10.4562  10.5576  10.6148  10.6302  10.7053  10.9783
    11.9838  12.8102  14.1124  14.7311  14.8999  15.4941  15.6840  16.0121
    16.2727  16.5006  16.5040  16.7250  16.9591  17.1584  17.4664  17.9110
    18.1985  18.5088  18.5528  19.0917  19.3371  19.4896  19.6277  20.2739
    20.7556  20.8606  20.9551  21.2327  21.3915  21.5457

          k = 0.0000 0.1807-0.1832 (  3666 PWs)   bands (ev):

   -72.8260 -72.8260 -72.7723 -72.7723 -56.3259 -56.3259 -56.1838 -56.1838
   -56.1036 -56.1036 -56.0388 -56.0388 -42.0269 -42.0269 -42.0261 -42.0261
   -42.0040 -42.0040 -42.0037 -42.0037 -42.0015 -42.0015 -42.0000 -42.0000
   -27.3218 -27.3218 -27.3184 -27.3184 -27.3082 -27.3082 -27.3028 -27.3028
   -27.2923 -27.2923 -27.2918 -27.2918 -27.2369 -27.2369 -27.2255 -27.2255
   -27.2221 -27.2221 -27.2128 -27.2128 -27.1912 -27.1912 -27.1785 -27.1785
     3.0056   3.0056   3.0387   3.0387   3.0543   3.0543   3.0677   3.0677
     3.0908   3.0908   3.1086   3.1086   3.1382   3.1382   3.2141   3.2141
     3.2332   3.2332   3.2468   3.2468   8.1544   8.1544   8.5948   8.5948
     9.0770   9.0770   9.1252   9.1252   9.1730   9.1730   9.2717   9.2717
     9.3687   9.3687   9.4310   9.4310   9.4315   9.4315   9.5972   9.5972
     9.6866   9.6866   9.7752   9.7752   9.9455   9.9455   9.9664   9.9664
    10.1382  10.1382  10.1617  10.1617  10.2368  10.2368  10.3970  10.3970
    10.4299  10.4299  10.4663  10.4663  10.6450  10.6450  10.7811  10.7811
    12.9878  12.9878  13.9083  13.9083  15.2607  15.2607  15.4421  15.4421
    16.2976  16.2976  16.7981  16.7981  16.8953  16.8953  18.0745  18.0745
    18.6255  18.6255  19.2906  19.2906  19.4880  19.4880  20.0299  20.0299
    20.4353  20.4353  20.4574  20.4575  21.4414  21.4414

          k =-0.3442 0.0000 0.0000 (  3722 PWs)   bands (ev):

   -72.9560 -72.9560 -72.9277 -72.9277 -56.3715 -56.3715 -56.3357 -56.3357
   -56.2697 -56.2697 -56.2150 -56.2150 -42.0273 -42.0273 -42.0259 -42.0259
   -42.0045 -42.0045 -42.0036 -42.0036 -42.0026 -42.0026 -42.0014 -42.0014
   -27.3278 -27.3278 -27.3275 -27.3275 -27.3171 -27.3171 -27.3077 -27.3077
   -27.2994 -27.2994 -27.2989 -27.2989 -27.2640 -27.2640 -27.2321 -27.2321
   -27.2313 -27.2313 -27.2106 -27.2106 -27.1963 -27.1963 -27.1657 -27.1657
     2.9418   2.9418   2.9586   2.9586   3.0420   3.0420   3.0544   3.0544
     3.0601   3.0601   3.0946   3.0946   3.0967   3.0967   3.1172   3.1172
     3.1432   3.1432   3.1504   3.1504   8.1735   8.1735   8.4249   8.4249
     8.9384   8.9384   9.1651   9.1651   9.2463   9.2463   9.4666   9.4666
     9.4719   9.4719   9.5967   9.5967   9.6379   9.6379   9.7460   9.7460
     9.7608   9.7608   9.8854   9.8854   9.9124   9.9124  10.0124  10.0124
    10.0470  10.0470  10.0909  10.0909  10.1440  10.1440  10.2694  10.2694
    10.4687  10.4687  10.5449  10.5449  10.7700  10.7700  11.6855  11.6855
    11.7669  11.7669  13.2260  13.2260  14.1650  14.1650  15.2192  15.2192
    15.5322  15.5322  15.7186  15.7186  16.5244  16.5244  17.5344  17.5344
    17.6033  17.6033  19.8618  19.8618  20.4905  20.4905  20.7189  20.7189
    21.6308  21.6308  22.3719  22.3719  22.4533  22.4533

          k =-0.3442 0.0000 0.0916 (  3710 PWs)   bands (ev):

   -72.9140 -72.9140 -72.9072 -72.9072 -56.3549 -56.3549 -56.3132 -56.3132
   -56.2086 -56.2086 -56.1981 -56.1981 -42.0272 -42.0272 -42.0259 -42.0259
   -42.0045 -42.0045 -42.0031 -42.0031 -42.0024 -42.0024 -42.0010 -42.0010
   -27.3275 -27.3275 -27.3266 -27.3266 -27.3134 -27.3134 -27.3062 -27.3062
   -27.3007 -27.3007 -27.2964 -27.2964 -27.2609 -27.2609 -27.2316 -27.2316
   -27.2287 -27.2287 -27.2059 -27.2059 -27.1987 -27.1987 -27.1681 -27.1681
     2.9614   2.9614   2.9800   2.9800   3.0309   3.0309   3.0485   3.0485
     3.0613   3.0613   3.0907   3.0907   3.1052   3.1052   3.1445   3.1445
     3.1700   3.1700   3.1905   3.1905   8.1871   8.1871   8.4600   8.4600
     8.9590   8.9590   9.1523   9.1523   9.2847   9.2847   9.4110   9.4110
     9.5118   9.5118   9.5524   9.5524   9.6156   9.6156   9.6428   9.6428
     9.7342   9.7342   9.8697   9.8697   9.8965   9.8965   9.9966   9.9966
    10.0998  10.0998  10.1789  10.1789  10.2344  10.2344  10.3534  10.3534
    10.4319  10.4319  10.5253  10.5253  10.7865  10.7865  11.1342  11.1342
    12.5429  12.5429  13.3909  13.3909  14.0562  14.0562  14.6122  14.6122
    15.5877  15.5877  16.0296  16.0296  16.3648  16.3648  17.0231  17.0231
    18.7550  18.7550  19.1772  19.1772  19.8778  19.8778  21.6189  21.6189
    22.2589  22.2589  22.4932  22.4932  22.5192  22.5192

          k =-0.3442 0.0000-0.1832 (  3680 PWs)   bands (ev):

   -72.8641 -72.8641 -72.8061 -72.8061 -56.2624 -56.2624 -56.2513 -56.2513
   -56.1638 -56.1638 -56.1131 -56.1131 -42.0272 -42.0272 -42.0259 -42.0259
   -42.0039 -42.0039 -42.0033 -42.0033 -42.0017 -42.0017 -42.0007 -42.0007
   -27.3236 -27.3236 -27.3230 -27.3230 -27.3047 -27.3047 -27.3007 -27.3007
   -27.3005 -27.3005 -27.2944 -27.2944 -27.2608 -27.2608 -27.2285 -27.2285
   -27.2248 -27.2248 -27.2028 -27.2028 -27.1916 -27.1916 -27.1656 -27.1656
     2.9708   2.9708   2.9854   2.9854   3.0569   3.0569   3.0690   3.0690
     3.0926   3.0926   3.1110   3.1110   3.1477   3.1477   3.1777   3.1777
     3.2103   3.2103   3.2420   3.2420   8.2062   8.2062   8.5120   8.5120
     8.9882   8.9882   9.1586   9.1586   9.3177   9.3177   9.3315   9.3315
     9.4839   9.4839   9.5427   9.5427   9.5884   9.5884   9.6725   9.6725
     9.6905   9.6905   9.7893   9.7893   9.9997   9.9997  10.0248  10.0248
    10.0279  10.0279  10.2184  10.2184  10.4042  10.4042  10.4275  10.4275
    10.4571  10.4571  10.5358  10.5358  10.7943  10.7943  10.8703  10.8703
    13.1708  13.1708  13.8090  13.8090  13.8188  13.8188  13.9869  13.9869
    15.4526  15.4526  15.5429  15.5429  17.2891  17.2891  17.3964  17.3965
    17.5906  17.5906  19.3659  19.3659  20.6762  20.6762  21.0312  21.0312
    22.5096  22.5096  22.5435  22.5435  22.8150  22.8151

          k =-0.3442 0.1807 0.0000 (  3686 PWs)   bands (ev):

   -72.8701 -72.8701 -72.8400 -72.8400 -56.2774 -56.2774 -56.2618 -56.2618
   -56.1799 -56.1799 -56.1591 -56.1591 -42.0270 -42.0270 -42.0260 -42.0260
   -42.0040 -42.0040 -42.0034 -42.0034 -42.0022 -42.0022 -42.0014 -42.0014
   -27.3205 -27.3205 -27.3192 -27.3192 -27.3104 -27.3104 -27.3053 -27.3053
   -27.2954 -27.2954 -27.2904 -27.2904 -27.2327 -27.2327 -27.2307 -27.2307
   -27.2282 -27.2282 -27.2111 -27.2111 -27.1875 -27.1875 -27.1771 -27.1771
     2.9946   2.9946   3.0242   3.0242   3.0624   3.0624   3.0673   3.0673
     3.0842   3.0842   3.1019   3.1019   3.1261   3.1261   3.1499   3.1499
     3.1752   3.1752   3.1912   3.1912   8.3697   8.3697   8.5385   8.5385
     9.1416   9.1416   9.2970   9.2970   9.3397   9.3397   9.4623   9.4623
     9.4689   9.4689   9.5432   9.5432   9.5592   9.5592   9.6724   9.6724
     9.7254   9.7254   9.8377   9.8377   9.8461   9.8461   9.9094   9.9094
     9.9490   9.9490  10.0565  10.0565  10.1440  10.1440  10.3511  10.3511
    10.4254  10.4254  10.5316  10.5316  10.6311  10.6311  11.4571  11.4571
    12.3011  12.3011  12.4013  12.4013  13.5520  13.5520  13.7396  13.7396
    16.5690  16.5690  17.6871  17.6871  17.9732  17.9732  18.3274  18.3274
    18.3856  18.3856  18.7642  18.7642  19.6256  19.6256  20.7239  20.7239
    21.7480  21.7480  22.1504  22.1504  22.7526  22.7526

          k =-0.3442 0.1807 0.0916 (  3692 PWs)   bands (ev):

   -72.9173 -72.9173 -72.8207 -72.8207 -56.2955 -56.2955 -56.2718 -56.2718
   -56.1879 -56.1879 -56.1681 -56.1681 -42.0269 -42.0269 -42.0261 -42.0261
   -42.0039 -42.0039 -42.0034 -42.0034 -42.0016 -42.0016 -42.0010 -42.0010
   -27.3229 -27.3229 -27.3199 -27.3199 -27.3100 -27.3100 -27.3066 -27.3066
   -27.2965 -27.2965 -27.2927 -27.2927 -27.2378 -27.2378 -27.2297 -27.2297
   -27.2273 -27.2273 -27.2129 -27.2129 -27.1898 -27.1898 -27.1783 -27.1783
     2.9870   2.9870   3.0257   3.0257   3.0369   3.0369   3.0639   3.0639
     3.0733   3.0733   3.0994   3.0994   3.1149   3.1149   3.1451   3.1451
     3.1925   3.1925   3.2082   3.2082   8.3785   8.3785   8.5694   8.5694
     9.1484   9.1484   9.3120   9.3120   9.3300   9.3300   9.4061   9.4061
     9.4277   9.4277   9.4801   9.4801   9.5979   9.5979   9.6483   9.6483
     9.7249   9.7249   9.8065   9.8065   9.8833   9.8833   9.9027   9.9027
    10.0087  10.0087  10.0506  10.0506  10.1734  10.1734  10.3160  10.3160
    10.3967  10.3967  10.5303  10.5303  10.7275  10.7275  11.3092  11.3092
    12.0551  12.0551  12.7149  12.7149  13.3855  13.3855  14.5441  14.5441
    15.9366  15.9366  17.0710  17.0710  17.2491  17.2491  18.0407  18.0407
    19.2703  19.2703  19.7750  19.7750  20.1011  20.1011  21.0118  21.0118
    21.4670  21.4670  21.9964  21.9964  22.3856  22.3856

          k =-0.3442 0.1807-0.1832 (  3704 PWs)   bands (ev):

   -72.9599 -72.9599 -72.8388 -72.8388 -56.3207 -56.3207 -56.3113 -56.3113
   -56.2139 -56.2139 -56.1843 -56.1843 -42.0270 -42.0270 -42.0260 -42.0260
   -42.0034 -42.0034 -42.0034 -42.0034 -42.0016 -42.0016 -42.0011 -42.0011
   -27.3263 -27.3263 -27.3233 -27.3233 -27.3105 -27.3105 -27.3076 -27.3076
   -27.2990 -27.2990 -27.2954 -27.2954 -27.2418 -27.2418 -27.2293 -27.2293
   -27.2283 -27.2283 -27.2156 -27.2156 -27.1920 -27.1920 -27.1822 -27.1822
     2.9845   2.9845   3.0146   3.0146   3.0236   3.0236   3.0480   3.0480
     3.0485   3.0485   3.0799   3.0799   3.1123   3.1123   3.1286   3.1286
     3.1892   3.1892   3.2316   3.2316   8.3867   8.3867   8.5993   8.5993
     9.1653   9.1653   9.2630   9.2630   9.3029   9.3029   9.3772   9.3772
     9.4023   9.4023   9.5010   9.5010   9.5818   9.5818   9.6349   9.6349
     9.6585   9.6585   9.8101   9.8101   9.9155   9.9155   9.9710   9.9710
     9.9944   9.9944  10.0806  10.0806  10.1118  10.1118  10.3095  10.3095
    10.3803  10.3803  10.5361  10.5361  10.9287  10.9287  11.0375  11.0375
    12.1534  12.1534  12.4429  12.4429  14.0555  14.0555  14.8669  14.8669
    15.7579  15.7579  15.8888  15.8888  17.2367  17.2367  17.7947  17.7948
    20.0287  20.0287  20.3994  20.3995  20.7417  20.7417  21.1389  21.1390
    21.2772  21.2774  21.7688  21.7688  22.3591  22.3592

     the Fermi energy is    14.7418 ev

!    total energy              =   -2987.80343399 Ry
     Harris-Foulkes estimate   =   -2987.80344128 Ry
     estimated scf accuracy    <       0.00000990 Ry

     The total energy is the sum of the following terms:

     one-electron contribution =   -1088.09091279 Ry
     hartree contribution      =     625.57082918 Ry
     xc contribution           =    -273.09248601 Ry
     ewald contribution        =   -2251.88254881 Ry
     smearing contrib. (-TS)   =      -0.30831557 Ry

     convergence has been achieved in  10 iterations

     Forces acting on atoms (Ry/au):

     atom    1 type  1   force =     0.00000000   -0.00221414   -0.00578567
     atom    2 type  1   force =     0.00000000    0.00221414    0.00578567
     atom    3 type  1   force =     0.00000000   -0.00221414    0.00578567
     atom    4 type  1   force =     0.00000000    0.00221414   -0.00578567
     atom    5 type  1   force =     0.00000000    0.00093791    0.00026501
     atom    6 type  1   force =     0.00000000   -0.00093791   -0.00026501
     atom    7 type  1   force =     0.00000000    0.00093791   -0.00026501
     atom    8 type  1   force =     0.00000000   -0.00093791    0.00026501
     atom    9 type  2   force =     0.00000000   -0.00762345   -0.00268417
     atom   10 type  2   force =     0.00000000    0.00762345    0.00268417
     atom   11 type  2   force =     0.00000000   -0.00762345    0.00268417
     atom   12 type  2   force =     0.00000000    0.00762345   -0.00268417

     Total force =     0.020460     Total SCF correction =     0.000000


     entering subroutine stress ...

          total   stress  (Ry/bohr**3)                   (kbar)     P=-2155.30
  -0.01537847   0.00000000   0.00000000      -2262.25      0.00      0.00
   0.00000000  -0.01386132   0.00000000          0.00  -2039.07      0.00
   0.00000000   0.00000000  -0.01471456          0.00      0.00  -2164.59


     number of scf cycles    =   3
     number of bfgs steps    =   2

     enthalpy old            =   -3000.7955671338 Ry
     enthalpy new            =   -2987.8034339914 Ry

     CASE: enthalpy_new > enthalpy_old

     new trust radius        =       0.6570094254 bohr

     trust_radius < trust_radius_min

     resetting bfgs history

     Message from routine bfgs:
     history already reset at previous step: stopping
     new conv_thr            =       0.0001000000 Ry

     new unit-cell volume =   1306.00674 a.u.^3 (   193.53023 Ang^3 )

CELL_PARAMETERS (alat=  7.01510508)
   1.157397808   0.000000000   0.000000000
   0.000000000   1.496827632   0.000000000
   0.000000000   0.000000000   2.183677139

ATOMIC_POSITIONS (crystal)
Co       0.750000000   0.825527794   0.435138808
Co       0.250000000   0.174472206   0.564861192
Co       0.750000000   0.325527794   0.064861192
Co       0.250000000   0.674472206   0.935138808
Co       0.250000000   0.539410028   0.279498557
Co       0.750000000   0.460589972   0.720501443
Co       0.250000000   0.039410028   0.220501443
Co       0.750000000   0.960589972   0.779498557
Si       0.250000000   0.200423999   0.893592490
Si       0.750000000   0.799576001   0.106407510
Si       0.250000000   0.700423999   0.606407510
Si       0.750000000   0.299576001   0.393592490



     Writing output data file Prototype-La-oP12-Co2Si.save
     NEW-OLD atomic charge density approx. for the potential
     NEW k-points:
        k(    1) = (   0.0000000   0.0000000   0.0000000), wk =   0.0833333
        k(    2) = (   0.0000000   0.0000000   0.1144858), wk =   0.1666667
        k(    3) = (   0.0000000   0.0000000  -0.2289716), wk =   0.0833333
        k(    4) = (   0.0000000   0.2226932   0.0000000), wk =   0.1666667
        k(    5) = (   0.0000000   0.2226932   0.1144858), wk =   0.3333333
        k(    6) = (   0.0000000   0.2226932  -0.2289716), wk =   0.1666667
        k(    7) = (  -0.4320036   0.0000000   0.0000000), wk =   0.0833333
        k(    8) = (  -0.4320036   0.0000000   0.1144858), wk =   0.1666667
        k(    9) = (  -0.4320036   0.0000000  -0.2289716), wk =   0.0833333
        k(   10) = (  -0.4320036   0.2226932   0.0000000), wk =   0.1666667
        k(   11) = (  -0.4320036   0.2226932   0.1144858), wk =   0.3333333
        k(   12) = (  -0.4320036   0.2226932  -0.2289716), wk =   0.1666667

     total cpu time spent up to now is      510.6 secs

     Self-consistent Calculation

[...]
    22.9265  22.9846  23.1507  23.6731  23.7972  24.0410  24.0721  24.0894
    24.2230  24.2597  24.2691  24.7754  24.8010  24.8533  24.9380  25.2637
    25.2722  25.7739  25.8008  26.0111  26.1316  26.1413  26.4911  26.8581
    26.9135  27.0076  27.0327  27.1476  27.3332  27.3394  27.8318  27.8505
    27.9870  27.9935  28.0066  28.0075  28.3113  28.6312  28.8381  30.2944
    30.7217  30.8599  31.4272  31.6008  33.6964  34.1082  35.0164  35.6488
    36.8345  36.9023  37.2691  37.4040  37.4622  38.0798  38.1701  38.6275
    38.7330  38.9201  38.9771  39.5585  39.9007  40.2231  40.3945  40.5822
    40.7202  40.7455  40.9442  41.0996  41.1758  41.4109

          k = 0.0000 0.0000 0.1145 (  5597 PWs)   bands (ev):

   -59.6670 -59.6633 -59.6573 -59.6558 -43.4869 -43.4740 -43.4557 -43.4536
   -43.3684 -43.3558 -43.3129 -43.3082 -23.9650 -23.9600 -23.9458 -23.9354
   -23.9283 -23.9277 -23.9223 -23.9154 -23.8772 -23.8744 -23.8610 -23.8590
   -12.2997 -12.2273 -12.1612 -12.1270 -12.1081 -12.0911 -12.0762 -12.0139
   -12.0002 -11.9745 -11.9262 -11.9126 -11.8726 -11.8634 -11.8542 -11.8386
   -11.7506 -11.7490 -11.7110 -11.6983 -11.6969 -11.6218 -11.4597 -11.4503
    18.3490  18.4916  18.5615  18.5716  18.6679  18.7326  18.7596  18.7966
    18.9711  18.9798  19.0285  19.0744  19.1218  19.1324  19.2804  19.3485
    19.7050  19.7455  19.8204  19.8760  19.9331  21.2099  21.9137  22.4307
    23.0807  23.1398  23.2638  23.6572  23.6909  23.9562  24.1624  24.1895
    24.2760  24.3056  24.4173  24.6916  24.7174  24.7318  24.9387  25.0378
    25.2480  25.2507  25.6566  26.1352  26.2198  26.3431  26.4037  26.7415
    26.7442  26.8406  27.0868  27.1546  27.2126  27.6661  27.7452  27.7459
    27.9007  27.9478  28.1472  28.3025  28.4018  28.7913  29.1325  30.7319
    30.9603  31.1825  31.4593  31.5076  33.5004  34.0484  34.2464  35.3233
    36.2490  36.8244  37.2258  37.7092  37.7550  37.9264  38.5804  38.6035
    38.6430  38.9146  39.3124  39.4468  39.8927  40.1157  40.3244  40.5398
    40.8029  40.9045  40.9083  40.9933  41.4363  41.5689

          k = 0.0000 0.0000-0.2290 (  5586 PWs)   bands (ev):

   -59.6623 -59.6623 -59.6539 -59.6539 -43.4795 -43.4795 -43.4541 -43.4541
   -43.3618 -43.3618 -43.3081 -43.3081 -23.9621 -23.9621 -23.9403 -23.9403
   -23.9238 -23.9238 -23.9159 -23.9159 -23.8741 -23.8740 -23.8551 -23.8550
   -12.2582 -12.2582 -12.1502 -12.1502 -12.1007 -12.1007 -12.0456 -12.0456
   -11.9480 -11.9480 -11.9391 -11.9391 -11.8699 -11.8699 -11.8408 -11.8408
   -11.7269 -11.7268 -11.7068 -11.7068 -11.6687 -11.6687 -11.4583 -11.4583
    18.4184  18.4184  18.5272  18.5272  18.6734  18.6734  18.9452  18.9452
    18.9880  18.9880  19.0775  19.0775  19.1227  19.1227  19.2249  19.2249
    19.7204  19.7204  19.7819  19.7819  20.5293  20.5293  22.1386  22.1386
    23.3610  23.3610  23.4381  23.4381  23.8527  23.8527  24.0828  24.0828
    24.4505  24.4505  24.5102  24.5102  24.5912  24.5912  24.9129  24.9130
    25.0692  25.0692  25.8844  25.8844  26.3222  26.3222  26.5325  26.5325
    26.6500  26.6500  27.0761  27.0761  27.4918  27.4918  27.6779  27.6779
    27.8705  27.8705  28.3910  28.3910  28.6150  28.6150  30.8071  30.8071
    30.9379  30.9379  31.5830  31.5830  33.3350  33.3350  34.3784  34.3784
    36.7771  36.7771  37.2849  37.2849  38.1692  38.1693  38.1852  38.1854
    38.7205  38.7205  39.2260  39.2262  40.4242  40.4243  40.4749  40.4749
    40.6912  40.6913  41.3358  41.3360  41.6858  41.6860

          k = 0.0000 0.2227 0.0000 (  5541 PWs)   bands (ev):

   -59.6580 -59.6505 -59.6462 -59.6325 -43.4789 -43.4695 -43.4480 -43.4472
   -43.3541 -43.3388 -43.3229 -43.3115 -23.9540 -23.9485 -23.9437 -23.9236
   -23.9223 -23.9146 -23.9068 -23.9013 -23.8555 -23.8539 -23.8518 -23.8391
   -12.2059 -12.1407 -12.1244 -12.1114 -12.0682 -12.0508 -12.0451 -12.0363
   -12.0043 -11.9453 -11.9440 -11.9149 -11.8920 -11.8133 -11.8020 -11.7777
   -11.7685 -11.7237 -11.7217 -11.7104 -11.6917 -11.6129 -11.5877 -11.5505
    18.5540  18.6679  18.7030  18.7912  18.8291  18.8482  18.8996  18.9647
    19.0472  19.0520  19.1232  19.1328  19.1814  19.2379  19.3585  19.4115
    19.5689  19.6296  19.6390  19.7215  20.4982  21.7533  22.0872  22.5972
    23.1032  23.1072  23.3336  23.5571  23.6206  23.6907  23.7241  24.1488
    24.1701  24.2818  24.3135  24.5129  24.8020  24.9148  25.0460  25.0553
    25.3327  25.3703  25.7414  25.7857  26.0597  26.1755  26.2218  26.2740
    26.5106  26.6343  26.8015  27.1248  27.1696  27.1953  27.5669  27.5788
    27.6079  27.9009  28.0126  28.0401  28.0791  28.5105  28.5780  28.6921
    29.1651  29.2279  33.1601  34.4525  34.9836  35.5869  36.1195  36.5202
    36.6758  36.8214  37.1856  37.4293  37.5265  37.5679  37.6155  37.8964
    38.2571  38.3270  38.7443  38.8105  39.2412  39.9827  40.9268  40.9982
    41.0024  41.0816  41.2720  41.5509  41.6304  42.0371

          k = 0.0000 0.2227 0.1145 (  5579 PWs)   bands (ev):

   -59.6636 -59.6584 -59.6560 -59.6489 -43.4816 -43.4712 -43.4563 -43.4532
   -43.3538 -43.3429 -43.3257 -43.3187 -23.9541 -23.9507 -23.9445 -23.9387
   -23.9277 -23.9236 -23.9221 -23.9167 -23.8681 -23.8660 -23.8587 -23.8441
   -12.2114 -12.1496 -12.1355 -12.1005 -12.0991 -12.0845 -12.0347 -12.0223
   -12.0140 -11.9631 -11.9457 -11.9315 -11.8971 -11.8320 -11.8087 -11.7879
   -11.7573 -11.7431 -11.7305 -11.7271 -11.6900 -11.6277 -11.5928 -11.5648
    18.5662  18.6695  18.7395  18.7920  18.8415  18.8724  18.9140  18.9515
    18.9877  19.0831  19.0893  19.1651  19.1761  19.2786  19.3192  19.4249
    19.5022  19.5867  19.6380  19.7413  20.7074  21.7136  22.2211  22.4720
    23.0766  23.2335  23.3399  23.5365  23.6072  23.6868  23.7271  24.0598
    24.0760  24.1884  24.3228  24.4214  24.7922  24.8749  24.8888  25.0533
    25.1638  25.4925  25.6854  25.7293  26.0989  26.1099  26.1831  26.3937
    26.5036  26.5581  26.8028  26.9672  27.0058  27.2040  27.3860  27.4518
    27.6827  27.8738  27.9314  28.0552  28.1686  28.6294  28.6517  28.7211
    29.6768  30.5955  33.5591  33.8240  34.6372  34.7467  35.6795  36.0772
    36.1752  36.8380  36.9976  37.3472  37.5438  37.7084  37.7168  38.2484
    38.8861  38.9682  39.2079  39.3468  39.4722  39.9620  40.4034  40.8339
    40.9839  41.1787  41.1827  41.3708  41.7129  42.1553

          k = 0.0000 0.2227-0.2290 (  5562 PWs)   bands (ev):

   -59.6559 -59.6559 -59.6499 -59.6499 -43.4769 -43.4769 -43.4531 -43.4531
   -43.3454 -43.3454 -43.3202 -43.3202 -23.9492 -23.9492 -23.9390 -23.9390
   -23.9181 -23.9181 -23.9132 -23.9132 -23.8684 -23.8684 -23.8496 -23.8496
   -12.1802 -12.1802 -12.1162 -12.1162 -12.0803 -12.0803 -12.0181 -12.0180
   -11.9841 -11.9841 -11.9270 -11.9270 -11.8641 -11.8641 -11.7955 -11.7955
   -11.7425 -11.7425 -11.7416 -11.7416 -11.6512 -11.6512 -11.5824 -11.5824
    18.6220  18.6220  18.7353  18.7353  18.9064  18.9065  19.0033  19.0033
    19.0544  19.0544  19.0558  19.0558  19.2003  19.2003  19.3938  19.3938
    19.4820  19.4820  19.7066  19.7066  21.2459  21.2459  22.4387  22.4387
    23.0958  23.0958  23.5145  23.5145  23.6400  23.6400  23.7950  23.7950
    24.1009  24.1009  24.3994  24.3994  24.5638  24.5638  25.1397  25.1397
    25.4124  25.4124  25.4750  25.4750  26.0690  26.0690  26.1170  26.1170
    26.4638  26.4638  27.0145  27.0145  27.2634  27.2634  27.3164  27.3164
    27.7337  27.7337  27.9888  27.9888  28.3512  28.3512  28.7418  28.7418
    31.4556  31.4556  32.9257  32.9257  34.6288  34.6288  35.0319  35.0319
    36.7403  36.7404  37.2400  37.2400  37.3730  37.3731  38.2860  38.2861
    39.2304  39.2305  39.7115  39.7116  39.7193  39.7194  40.9307  40.9308
    40.9833  40.9834  41.3926  41.3928  41.5491  41.5492

          k =-0.4320 0.0000 0.0000 (  5588 PWs)   bands (ev):

   -59.6614 -59.6614 -59.6600 -59.6600 -43.4643 -43.4643 -43.4625 -43.4625
   -43.3714 -43.3714 -43.3109 -43.3109 -23.9551 -23.9551 -23.9521 -23.9521
   -23.9298 -23.9298 -23.9189 -23.9189 -23.8633 -23.8633 -23.8631 -23.8631
   -12.2529 -12.2529 -12.1552 -12.1552 -12.1275 -12.1275 -12.0355 -12.0355
   -12.0328 -12.0328 -11.9246 -11.9246 -11.8486 -11.8486 -11.8150 -11.8150
   -11.7361 -11.7361 -11.6806 -11.6806 -11.6537 -11.6537 -11.4670 -11.4670
    18.5159  18.5159  18.6437  18.6437  18.7722  18.7722  18.8829  18.8829
    18.9992  18.9992  19.0021  19.0021  19.0408  19.0408  19.3713  19.3713
    19.5215  19.5215  20.0226  20.0226  21.5742  21.5742  21.9731  21.9731
    23.0377  23.0377  23.4667  23.4667  23.7903  23.7903  24.4322  24.4322
    24.8709  24.8709  24.9603  24.9603  25.1044  25.1044  25.2665  25.2665
    25.5326  25.5326  25.8558  25.8558  26.0594  26.0594  26.1336  26.1336
    26.3564  26.3564  26.9651  26.9651  27.0799  27.0799  27.3092  27.3092
    27.8529  27.8529  28.2265  28.2265  28.6060  28.6060  28.9217  28.9217
    29.0206  29.0206  30.1336  30.1336  33.8477  33.8477  35.0823  35.0823
    35.7161  35.7161  35.9440  35.9440  37.1714  37.1714  38.4274  38.4275
    38.5181  38.5181  39.8393  39.8394  40.5461  40.5463  40.5603  40.5604
    41.6544  41.6545  42.1406  42.1408  42.3221  42.3223

          k =-0.4320 0.0000 0.1145 (  5604 PWs)   bands (ev):

   -59.6696 -59.6696 -59.6592 -59.6592 -43.4660 -43.4660 -43.4633 -43.4633
   -43.3729 -43.3729 -43.3128 -43.3128 -23.9657 -23.9657 -23.9558 -23.9558
   -23.9310 -23.9310 -23.9232 -23.9232 -23.8672 -23.8672 -23.8594 -23.8594
   -12.2629 -12.2629 -12.1794 -12.1794 -12.0892 -12.0892 -12.0710 -12.0710
   -12.0006 -12.0006 -11.9359 -11.9359 -11.8906 -11.8906 -11.7980 -11.7980
   -11.7432 -11.7432 -11.6844 -11.6844 -11.6489 -11.6489 -11.4649 -11.4649
    18.5631  18.5631  18.5758  18.5758  18.8089  18.8089  18.9167  18.9167
    18.9324  18.9324  19.0360  19.0360  19.1149  19.1149  19.3065  19.3065
    19.5202  19.5202  20.0158  20.0158  21.6058  21.6058  22.0732  22.0732
    22.9927  22.9927  23.5562  23.5562  23.8720  23.8720  24.4320  24.4320
    24.5577  24.5577  24.7569  24.7569  24.8652  24.8652  25.1304  25.1304
    25.3980  25.3980  25.7187  25.7187  25.9433  25.9433  26.6310  26.6310
    26.7601  26.7601  27.0997  27.0997  27.2145  27.2145  27.4253  27.4253
    27.6049  27.6049  28.1866  28.1866  28.4027  28.4027  28.6233  28.6233
    29.4293  29.4293  30.7796  30.7796  32.9629  32.9629  35.2640  35.2640
    35.7094  35.7094  36.5563  36.5563  37.0721  37.0722  37.5452  37.5453
    39.1657  39.1657  40.0062  40.0063  40.5766  40.5768  40.7891  40.7893
    41.1478  41.1478  41.3877  41.3878  42.2864  42.2871

          k =-0.4320 0.0000-0.2290 (  5608 PWs)   bands (ev):

   -59.6736 -59.6736 -59.6565 -59.6565 -43.4680 -43.4680 -43.4619 -43.4619
   -43.3745 -43.3745 -43.3117 -43.3117 -23.9570 -23.9570 -23.9439 -23.9439
   -23.9395 -23.9395 -23.9306 -23.9306 -23.8717 -23.8717 -23.8655 -23.8655
   -12.2685 -12.2685 -12.1753 -12.1753 -12.0842 -12.0842 -12.0422 -12.0422
   -12.0076 -12.0076 -11.9413 -11.9413 -11.9169 -11.9169 -11.7804 -11.7804
   -11.7480 -11.7480 -11.6863 -11.6863 -11.6508 -11.6508 -11.4794 -11.4794
    18.5178  18.5178  18.6471  18.6471  18.8203  18.8203  18.8532  18.8532
    18.9813  18.9813  19.0637  19.0637  19.1717  19.1717  19.2342  19.2342
    19.5129  19.5129  20.0085  20.0085  21.6277  21.6277  22.2417  22.2417
    22.8612  22.8612  23.7215  23.7215  23.9225  23.9225  24.2601  24.2601
    24.4529  24.4529  24.4560  24.4560  24.8798  24.8798  24.9159  24.9159
    25.4416  25.4416  25.4997  25.4997  26.3124  26.3124  26.4236  26.4236
    27.0587  27.0587  27.2301  27.2301  27.2857  27.2857  27.5407  27.5407
    27.8142  27.8142  27.8573  27.8573  28.0436  28.0436  28.6078  28.6078
    30.0544  30.0544  31.5133  31.5133  31.8926  31.8926  35.2213  35.2213
    35.9034  35.9034  36.1189  36.1189  37.5122  37.5122  38.2877  38.2878
    38.5677  38.5678  39.9227  39.9228  40.1497  40.1499  40.6811  40.6812
    41.0540  41.0541  41.6737  41.6737  42.2087  42.2096

          k =-0.4320 0.2227 0.0000 (  5596 PWs)   bands (ev):

   -59.6639 -59.6639 -59.6596 -59.6596 -43.4640 -43.4640 -43.4637 -43.4637
   -43.3563 -43.3563 -43.3271 -43.3271 -23.9542 -23.9542 -23.9509 -23.9509
   -23.9280 -23.9280 -23.9254 -23.9254 -23.8656 -23.8656 -23.8608 -23.8608
   -12.1874 -12.1874 -12.1664 -12.1664 -12.1355 -12.1355 -12.0282 -12.0282
   -11.9647 -11.9647 -11.9232 -11.9232 -11.8692 -11.8692 -11.8260 -11.8260
   -11.7390 -11.7390 -11.6980 -11.6980 -11.6499 -11.6499 -11.5852 -11.5852
    18.7172  18.7172  18.7495  18.7495  18.7938  18.7938  18.9982  18.9982
    19.0623  19.0623  19.1849  19.1849  19.3053  19.3053  19.3760  19.3760
    19.6162  19.6162  19.8293  19.8293  22.0089  22.0089  22.1481  22.1481
    23.1744  23.1744  23.7686  23.7686  23.8076  23.8076  24.2091  24.2091
    24.4352  24.4352  24.6216  24.6216  24.7301  24.7301  25.2514  25.2514
    25.3075  25.3075  25.6138  25.6138  25.8837  25.8837  26.0830  26.0830
    26.3679  26.3679  26.6494  26.6494  26.7182  26.7182  27.3077  27.3077
    27.5651  27.5651  27.7840  27.7840  27.8651  27.8651  28.8595  28.8595
    30.2303  30.2303  30.4417  30.4417  32.4241  32.4241  32.6756  32.6756
    37.5842  37.5843  38.4969  38.4970  38.5263  38.5264  39.2900  39.2900
    39.5178  39.5179  40.0694  40.0694  40.3533  40.3533  41.0648  41.0649
    41.2712  41.2712  41.5563  41.5564  41.8225  41.8226

          k =-0.4320 0.2227 0.1145 (  5584 PWs)   bands (ev):

   -59.6616 -59.6616 -59.6563 -59.6563 -43.4645 -43.4645 -43.4611 -43.4611
   -43.3554 -43.3554 -43.3258 -43.3258 -23.9532 -23.9532 -23.9505 -23.9505
   -23.9269 -23.9269 -23.9210 -23.9210 -23.8609 -23.8609 -23.8588 -23.8588
   -12.1937 -12.1937 -12.1525 -12.1525 -12.1039 -12.1039 -12.0563 -12.0563
   -11.9834 -11.9834 -11.9187 -11.9187 -11.8643 -11.8643 -11.7971 -11.7971
   -11.7399 -11.7399 -11.7016 -11.7016 -11.6472 -11.6472 -11.5823 -11.5823
    18.6893  18.6893  18.7686  18.7686  18.8411  18.8411  19.0187  19.0187
    19.0810  19.0810  19.1740  19.1740  19.2559  19.2559  19.3267  19.3267
    19.6610  19.6610  19.8453  19.8453  22.0632  22.0632  22.2221  22.2221
    23.2459  23.2459  23.7113  23.7113  23.8741  23.8741  24.0874  24.0874
    24.3433  24.3433  24.4189  24.4189  24.8069  24.8069  24.9316  24.9316
    25.4480  25.4480  25.5953  25.5953  25.7768  25.7768  26.1723  26.1723
    26.2692  26.2692  26.5407  26.5407  26.9522  26.9522  27.2814  27.2814
    27.6871  27.6871  27.8001  27.8001  28.0894  28.0894  28.8292  28.8292
    29.9276  29.9276  30.8206  30.8206  31.8814  31.8814  33.9388  33.9388
    36.9711  36.9711  37.7264  37.7264  38.0229  38.0229  39.1388  39.1388
    39.5813  39.5814  40.2909  40.2909  40.7725  40.7726  41.0957  41.0958
    41.3627  41.3628  41.8048  41.8049  42.3813  42.3814

          k =-0.4320 0.2227-0.2290 (  5568 PWs)   bands (ev):

   -59.6575 -59.6575 -59.6534 -59.6534 -43.4627 -43.4627 -43.4603 -43.4603
   -43.3528 -43.3528 -43.3254 -43.3254 -23.9497 -23.9497 -23.9480 -23.9480
   -23.9233 -23.9233 -23.9200 -23.9200 -23.8583 -23.8583 -23.8539 -23.8539
   -12.1934 -12.1934 -12.1182 -12.1182 -12.0894 -12.0894 -12.0661 -12.0661
   -12.0185 -12.0185 -11.9206 -11.9206 -11.8480 -11.8480 -11.7644 -11.7644
   -11.7469 -11.7469 -11.7160 -11.7160 -11.6437 -11.6437 -11.5779 -11.5779
    18.6732  18.6732  18.7787  18.7787  18.8916  18.8916  19.0555  19.0555
    19.1095  19.1095  19.1145  19.1145  19.2525  19.2525  19.2644  19.2644
    19.6833  19.6833  19.8685  19.8685  22.1260  22.1260  22.3196  22.3196
    23.2703  23.2703  23.6727  23.6727  23.8998  23.8998  23.9519  23.9519
    24.0638  24.0638  24.5721  24.5721  24.7203  24.7203  25.0719  25.0719
    25.2112  25.2112  25.5985  25.5985  25.6852  25.6852  26.1590  26.1590
    26.1984  26.1984  26.5388  26.5388  26.9004  26.9004  27.3901  27.3901
    27.7528  27.7528  28.1187  28.1187  28.3085  28.3085  28.5500  28.5500
    30.1006  30.1006  30.4685  30.4685  32.2064  32.2064  35.1473  35.1473
    36.2469  36.2469  36.5635  36.5635  37.9143  37.9144  38.8141  38.8142
    39.5685  39.5686  40.4636  40.4637  40.8975  40.8975  41.6618  41.6618
    41.7796  41.7797  42.1114  42.1116  42.1775  42.1777

     the Fermi energy is    34.3715 ev

!    total energy              =   -3007.37057691 Ry
     Harris-Foulkes estimate   =   -3007.37061056 Ry
     estimated scf accuracy    <       0.00004263 Ry

     The total energy is the sum of the following terms:

     one-electron contribution =    -290.14061037 Ry
     hartree contribution      =     370.75403812 Ry
     xc contribution           =    -284.02782922 Ry
     ewald contribution        =   -2803.78834791 Ry
     smearing contrib. (-TS)   =      -0.16782753 Ry

     convergence has been achieved in  10 iterations

     Forces acting on atoms (Ry/au):

     atom    1 type  1   force =     0.00000000   -0.03631642    0.00171586
     atom    2 type  1   force =     0.00000000    0.03631642   -0.00171586
     atom    3 type  1   force =     0.00000000   -0.03631642   -0.00171586
     atom    4 type  1   force =     0.00000000    0.03631642    0.00171586
     atom    5 type  1   force =     0.00000000    0.04379890   -0.06721907
     atom    6 type  1   force =     0.00000000   -0.04379890    0.06721907
     atom    7 type  1   force =     0.00000000    0.04379890    0.06721907
     atom    8 type  1   force =     0.00000000   -0.04379890   -0.06721907
     atom    9 type  2   force =     0.00000000   -0.07810372    0.01912714
     atom   10 type  2   force =     0.00000000    0.07810372   -0.01912714
     atom   11 type  2   force =     0.00000000   -0.07810372   -0.01912714
     atom   12 type  2   force =     0.00000000    0.07810372    0.01912714

     Total force =     0.238534     Total SCF correction =     0.000000


     entering subroutine stress ...

          total   stress  (Ry/bohr**3)                   (kbar)     P=  725.60
   0.00504922   0.00000000   0.00000000        742.77      0.00      0.00
   0.00000000   0.00466147   0.00000000          0.00    685.73      0.00
   0.00000000   0.00000000   0.00508683          0.00      0.00    748.30


     Writing output data file Prototype-La-oP12-Co2Si.save
 
     init_run     :      4.76s CPU      5.87s WALL (       2 calls)
     electrons    :   1113.97s CPU   1264.60s WALL (       5 calls)
     update_pot   :      1.76s CPU      1.79s WALL (       3 calls)
     forces       :      4.43s CPU      4.69s WALL (       5 calls)
     stress       :     12.74s CPU     13.02s WALL (       5 calls)

     Called by init_run:
     wfcinit      :      3.86s CPU      4.91s WALL (       2 calls)
     potinit      :      0.41s CPU      0.42s WALL (       2 calls)

     Called by electrons:
     c_bands      :   1093.50s CPU   1210.14s WALL (      43 calls)
     sum_band     :     20.11s CPU     26.91s WALL (      43 calls)
     v_of_rho     :      0.07s CPU      0.08s WALL (      48 calls)
     mix_rho      :      0.06s CPU      0.09s WALL (      43 calls)

     Called by c_bands:
     init_us_2    :      1.40s CPU      1.65s WALL (    1176 calls)
     ccgdiagg     :   1018.39s CPU   1113.79s WALL (     584 calls)
     wfcrot       :     77.36s CPU     98.25s WALL (     596 calls)

     Called by *cgdiagg:
     h_psi        :    676.65s CPU    782.04s WALL (  445120 calls)
     cdiaghg      :      5.20s CPU      5.90s WALL (     596 calls)

     Called by h_psi:
     add_vuspsi   :    123.69s CPU    130.96s WALL (  445120 calls)

     General routines
     calbec       :    335.66s CPU    353.40s WALL (  889764 calls)
     fft          :      0.14s CPU      0.16s WALL (     215 calls)
     fftw         :    321.95s CPU    386.40s WALL ( 1131584 calls)
     davcio       :      1.00s CPU      2.75s WALL (    1692 calls)
 
     Parallel routines
     fft_scatter  :    156.04s CPU    186.24s WALL ( 1131799 calls)
 
     PWSCF        : 18m58.00s CPU    21m35.21s WALL

 
   This run was terminated on:  17:56:24  22Mar2018            

=------------------------------------------------------------------------------=
   JOB DONE.
=------------------------------------------------------------------------------=
