
     Program PWSCF v.5.0.2 starts on 22Mar2018 at 17:31:11 

     This program is part of the open-source Quantum ESPRESSO suite
     for quantum simulation of materials; please cite
         "P. Giannozzi et al., J. Phys.:Condens. Matter 21 395502 (2009);
          URL http://www.quantum-espresso.org", 
     in publications or presentations arising from this work. More details at
     http://www.quantum-espresso.org/quote.php

     Parallel version (MPI), running on     4 processors
     R & G space division:  proc/nbgrp/npool/nimage =       4

     Current dimensions of program PWSCF are:
     Max number of different atomic species (ntypx) = 10
     Max number of k-points (npk) =  40000
     Max angular momentum in pseudopotentials (lmaxx) =  3
     Waiting for input...
     Reading input from standard input

     Subspace diagonalization in iterative solution of the eigenvalue problem:
     a serial algorithm will be used

 
     Parallelization info
     --------------------
     sticks:   dense  smooth     PW     G-vecs:    dense   smooth      PW
     Min         233     233     69                 5311     5311     851
     Max         234     234     70                 5314     5314     854
     Sum         933     933    277                21247    21247    3407
 


     bravais-lattice index     =            0
     lattice parameter (alat)  =       8.5346  a.u.
     unit-cell volume          =     621.6493 (a.u.)^3
     number of atoms/cell      =            8
     number of atomic types    =            2
     number of electrons       =       158.00
     number of Kohn-Sham states=           95
     kinetic-energy cutoff     =      40.0000  Ry
     charge density cutoff     =     160.0000  Ry
     convergence threshold     =      1.0E-04
     mixing beta               =       0.7000
     number of iterations used =            8  plain     mixing
     Exchange-correlation      = SLA-PZ-NOGX-NOGC ( 1 1 0 0 0)
     EXX-fraction              =        0.00
     nstep                     =           50


     celldm(1)=   8.534573  celldm(2)=   0.000000  celldm(3)=   0.000000
     celldm(4)=   0.000000  celldm(5)=   0.000000  celldm(6)=   0.000000

     crystal axes: (cart. coord. in units of alat)
               a(1) = (   1.000000   0.000000   0.000000 )  
               a(2) = (   0.000000   1.000000   0.000000 )  
               a(3) = (   0.000000   0.000000   1.000000 )  

     reciprocal axes: (cart. coord. in units 2 pi/alat)
               b(1) = (  1.000000  0.000000  0.000000 )  
               b(2) = (  0.000000  1.000000  0.000000 )  
               b(3) = (  0.000000  0.000000  1.000000 )  


     PseudoPot. # 1 for Tb read from file:
     /home/cwx6513/pp.La/Tb.UPF
     MD5 check sum: 3d6088a3f0cf7fd2e110c43f7f8e95c2
     Pseudo is Norm-conserving, Zval = 19.0
     Generated in analytical, separable form
     Using radial grid of 1263 points,  6 beta functions with: 
                l(1) =   0
                l(2) =   0
                l(3) =   1
                l(4) =   1
                l(5) =   2
                l(6) =   3

     PseudoPot. # 2 for Er read from file:
     /home/cwx6513/pp.La/Er.UPF
     MD5 check sum: e152ae21b84514339d8526f066caf99b
     Pseudo is Norm-conserving, Zval = 22.0
     Generated in analytical, separable form
     Using radial grid of 1267 points,  6 beta functions with: 
                l(1) =   0
                l(2) =   0
                l(3) =   1
                l(4) =   1
                l(5) =   2
                l(6) =   3

     atomic species   valence    mass     pseudopotential
        Cr            19.00    51.99610     Tb( 1.00)
        Si            22.00    28.08550     Er( 1.00)

     48 Sym. Ops., with inversion, found (24 have fractional translation)



   Cartesian axes

     site n.     atom                  positions (alat units)
         1           Cr  tau(   1) = (   0.0000000   0.5000000   0.2500000  )
         2           Cr  tau(   2) = (   0.0000000   0.5000000   0.7500000  )
         3           Cr  tau(   3) = (   0.5000000   0.7500000   0.0000000  )
         4           Cr  tau(   4) = (   0.5000000   0.2500000   0.0000000  )
         5           Cr  tau(   5) = (   0.7500000   0.0000000   0.5000000  )
         6           Cr  tau(   6) = (   0.2500000   0.0000000   0.5000000  )
         7           Si  tau(   7) = (   0.5000000   0.5000000   0.5000000  )
         8           Si  tau(   8) = (   0.0000000   0.0000000   0.0000000  )

     number of k points=    48  gaussian smearing, width (Ry)=  0.1000
                       cart. coord. in units 2pi/alat
        k(    1) = (   0.0000000   0.0000000   0.0000000), wk =   0.0095238
        k(    2) = (   0.0000000   0.0000000   0.1428571), wk =   0.0190476
        k(    3) = (   0.0000000   0.0000000   0.2857143), wk =   0.0190476
        k(    4) = (   0.0000000   0.0000000   0.4285714), wk =   0.0190476
        k(    5) = (   0.0000000   0.1666667   0.0000000), wk =   0.0190476
        k(    6) = (   0.0000000   0.1666667   0.1428571), wk =   0.0380952
        k(    7) = (   0.0000000   0.1666667   0.2857143), wk =   0.0380952
        k(    8) = (   0.0000000   0.1666667   0.4285714), wk =   0.0380952
        k(    9) = (   0.0000000   0.3333333   0.0000000), wk =   0.0190476
        k(   10) = (   0.0000000   0.3333333   0.1428571), wk =   0.0380952
        k(   11) = (   0.0000000   0.3333333   0.2857143), wk =   0.0380952
        k(   12) = (   0.0000000   0.3333333   0.4285714), wk =   0.0380952
        k(   13) = (   0.0000000  -0.5000000   0.0000000), wk =   0.0095238
        k(   14) = (   0.0000000  -0.5000000   0.1428571), wk =   0.0190476
        k(   15) = (   0.0000000  -0.5000000   0.2857143), wk =   0.0190476
        k(   16) = (   0.0000000  -0.5000000   0.4285714), wk =   0.0190476
        k(   17) = (   0.2000000   0.0000000   0.0000000), wk =   0.0190476
        k(   18) = (   0.2000000   0.0000000   0.1428571), wk =   0.0380952
        k(   19) = (   0.2000000   0.0000000   0.2857143), wk =   0.0380952
        k(   20) = (   0.2000000   0.0000000   0.4285714), wk =   0.0380952
        k(   21) = (   0.2000000   0.1666667   0.0000000), wk =   0.0380952
        k(   22) = (   0.2000000   0.1666667   0.1428571), wk =   0.0761905
        k(   23) = (   0.2000000   0.1666667   0.2857143), wk =   0.0761905
        k(   24) = (   0.2000000   0.1666667   0.4285714), wk =   0.0761905
        k(   25) = (   0.2000000   0.3333333   0.0000000), wk =   0.0380952
        k(   26) = (   0.2000000   0.3333333   0.1428571), wk =   0.0761905
        k(   27) = (   0.2000000   0.3333333   0.2857143), wk =   0.0761905
        k(   28) = (   0.2000000   0.3333333   0.4285714), wk =   0.0761905
        k(   29) = (   0.2000000  -0.5000000   0.0000000), wk =   0.0190476
        k(   30) = (   0.2000000  -0.5000000   0.1428571), wk =   0.0380952
        k(   31) = (   0.2000000  -0.5000000   0.2857143), wk =   0.0380952
        k(   32) = (   0.2000000  -0.5000000   0.4285714), wk =   0.0380952
        k(   33) = (   0.4000000   0.0000000   0.0000000), wk =   0.0190476
        k(   34) = (   0.4000000   0.0000000   0.1428571), wk =   0.0380952
        k(   35) = (   0.4000000   0.0000000   0.2857143), wk =   0.0380952
        k(   36) = (   0.4000000   0.0000000   0.4285714), wk =   0.0380952
        k(   37) = (   0.4000000   0.1666667   0.0000000), wk =   0.0380952
        k(   38) = (   0.4000000   0.1666667   0.1428571), wk =   0.0761905
        k(   39) = (   0.4000000   0.1666667   0.2857143), wk =   0.0761905
        k(   40) = (   0.4000000   0.1666667   0.4285714), wk =   0.0761905
        k(   41) = (   0.4000000   0.3333333   0.0000000), wk =   0.0380952
        k(   42) = (   0.4000000   0.3333333   0.1428571), wk =   0.0761905
        k(   43) = (   0.4000000   0.3333333   0.2857143), wk =   0.0761905
        k(   44) = (   0.4000000   0.3333333   0.4285714), wk =   0.0761905
        k(   45) = (   0.4000000  -0.5000000   0.0000000), wk =   0.0190476
        k(   46) = (   0.4000000  -0.5000000   0.1428571), wk =   0.0380952
        k(   47) = (   0.4000000  -0.5000000   0.2857143), wk =   0.0380952
        k(   48) = (   0.4000000  -0.5000000   0.4285714), wk =   0.0380952

     Dense  grid:    21247 G-vectors     FFT dimensions: (  36,  36,  36)

     Largest allocated arrays     est. size (Mb)     dimensions
        Kohn-Sham Wavefunctions         0.99 Mb     (    683,   95)
        NL pseudopotentials             1.67 Mb     (    683,  160)
        Each V/rho on FFT grid          0.18 Mb     (  11664)
        Each G-vector array             0.04 Mb     (   5314)
        G-vector shells                 0.04 Mb     (   5314)
     Largest temporary arrays     est. size (Mb)     dimensions
        Each subspace H/S matrix        0.14 Mb     (  95,  95)
        Each <psi_i|beta_j> matrix      0.23 Mb     (    160,   95)
        Arrays for rho mixing           1.42 Mb     (  11664,   8)

     Initial potential from superposition of free atoms

     Starting from uniform charge
     Starting wfc are    0 randomized atomic wfcs

     total cpu time spent up to now is        4.0 secs

     Self-consistent Calculation

     iteration #  1     ecut=    40.00 Ry     beta=0.70
     CG style diagonalization
     c_bands:  2 eigenvalues not converged
     c_bands:  4 eigenvalues not converged
     ethr =  1.00E-02,  avg # of iterations = 15.0

     total cpu time spent up to now is       76.3 secs

     total energy              =   -1686.80637403 Ry
     Harris-Foulkes estimate   =   -2299.97474038 Ry
     estimated scf accuracy    <     765.33847444 Ry

     iteration #  2     ecut=    40.00 Ry     beta=0.70
     CG style diagonalization
     c_bands:  1 eigenvalues not converged
     c_bands:  1 eigenvalues not converged
     c_bands:  1 eigenvalues not converged
     c_bands:  1 eigenvalues not converged
     c_bands:  1 eigenvalues not converged
     c_bands:  1 eigenvalues not converged
     ethr =  1.00E-02,  avg # of iterations =  8.4

     total cpu time spent up to now is      119.1 secs

     total energy              =   -1889.89893234 Ry
     Harris-Foulkes estimate   =   -2253.22897468 Ry
     estimated scf accuracy    <     629.59231106 Ry

     iteration #  3     ecut=    40.00 Ry     beta=0.70
     CG style diagonalization
     c_bands:  1 eigenvalues not converged
     c_bands:  1 eigenvalues not converged
     c_bands:  1 eigenvalues not converged
     c_bands:  1 eigenvalues not converged
     c_bands:  1 eigenvalues not converged
     ethr =  1.00E-02,  avg # of iterations = 10.1

     total cpu time spent up to now is      163.8 secs

     total energy              =   -2023.88013606 Ry
     Harris-Foulkes estimate   =   -2032.00092438 Ry
     estimated scf accuracy    <      12.56730208 Ry

     iteration #  4     ecut=    40.00 Ry     beta=0.70
     CG style diagonalization
     ethr =  7.95E-03,  avg # of iterations =  3.7

     total cpu time spent up to now is      179.7 secs

     total energy              =   -2026.63222690 Ry
     Harris-Foulkes estimate   =   -2027.37920406 Ry
     estimated scf accuracy    <       1.10148414 Ry

     iteration #  5     ecut=    40.00 Ry     beta=0.70
     CG style diagonalization
     c_bands:  1 eigenvalues not converged
     ethr =  6.97E-04,  avg # of iterations =  4.4

     total cpu time spent up to now is      199.7 secs

     total energy              =   -2027.03111304 Ry
     Harris-Foulkes estimate   =   -2027.16896679 Ry
     estimated scf accuracy    <       0.22432255 Ry

     iteration #  6     ecut=    40.00 Ry     beta=0.70
     CG style diagonalization
     c_bands:  1 eigenvalues not converged
     c_bands:  1 eigenvalues not converged
     c_bands:  1 eigenvalues not converged
     c_bands:  1 eigenvalues not converged
     c_bands:  1 eigenvalues not converged
     ethr =  1.42E-04,  avg # of iterations =  3.9

     total cpu time spent up to now is      217.4 secs

     total energy              =   -2027.07993563 Ry
     Harris-Foulkes estimate   =   -2027.08077959 Ry
     estimated scf accuracy    <       0.00165217 Ry

     iteration #  7     ecut=    40.00 Ry     beta=0.70
     CG style diagonalization
     c_bands:  2 eigenvalues not converged
     c_bands:  1 eigenvalues not converged
     c_bands:  1 eigenvalues not converged
     c_bands:  1 eigenvalues not converged
     c_bands:  2 eigenvalues not converged
     c_bands:  3 eigenvalues not converged
     c_bands:  1 eigenvalues not converged
     c_bands:  1 eigenvalues not converged
     c_bands:  3 eigenvalues not converged
     c_bands:  1 eigenvalues not converged
     c_bands:  1 eigenvalues not converged
     c_bands:  1 eigenvalues not converged
     c_bands:  1 eigenvalues not converged
     c_bands:  1 eigenvalues not converged
     c_bands:  1 eigenvalues not converged
     c_bands:  1 eigenvalues not converged
     c_bands:  1 eigenvalues not converged
     c_bands:  2 eigenvalues not converged
     c_bands:  2 eigenvalues not converged
     ethr =  1.05E-06,  avg # of iterations =  5.7

     total cpu time spent up to now is      248.7 secs

     total energy              =   -2027.08223677 Ry
     Harris-Foulkes estimate   =   -2027.08228274 Ry
     estimated scf accuracy    <       0.00011104 Ry

     iteration #  8     ecut=    40.00 Ry     beta=0.70
     CG style diagonalization
     c_bands:  1 eigenvalues not converged
     c_bands:  1 eigenvalues not converged
     c_bands:  1 eigenvalues not converged
     c_bands:  1 eigenvalues not converged
     c_bands:  1 eigenvalues not converged
     c_bands:  2 eigenvalues not converged
     ethr =  7.03E-08,  avg # of iterations =  3.9

     total cpu time spent up to now is      268.0 secs

     End of self-consistent calculation

          k = 0.0000 0.0000 0.0000 (  2601 PWs)   bands (ev):

   -54.7383 -54.6891 -30.7087 -30.4962 -30.4962 -29.7164 -29.7164 -29.7164
   -17.0295 -17.0295 -17.0295 -16.9996 -16.9996 -16.9996  -1.9770  -1.9770
    -1.5568   0.2678   0.2678   0.2678   1.3401   1.3401   1.3401   1.4319
     1.4319   1.4319   1.7130   1.7130   1.7130   3.2222   3.2222   3.2222
    27.6879  27.6879  28.5207  28.5207  28.5207  28.5720  28.5720  28.9176
    28.9176  28.9176  30.6119  31.9429  31.9429  31.9429  32.1475  32.5363
    33.2645  33.2645  34.1299  34.1299  34.1299  34.2216  37.6411  37.6411
    37.6411  37.9480  37.9480  39.1912  39.1912  39.1912  39.7803  39.7803
    39.7803  42.1816  42.1816  43.0758  43.0758  43.0758  43.5536  43.5536
    43.5536  48.2153  48.2153  48.2153  48.4725  49.6146  49.6146  50.6062
    51.8090  51.8090  51.8090  53.8674  53.8675  53.8675  54.8974  54.8974
    54.8975  54.9809  54.9809  54.9810  56.2264  56.2264  56.2266

          k = 0.0000 0.0000 0.1429 (  2657 PWs)   bands (ev):

   -54.7712 -54.7427 -30.6978 -30.5094 -30.4660 -29.7839 -29.7386 -29.7386
   -17.0500 -17.0500 -17.0402 -17.0334 -17.0334 -17.0275  -1.9989  -1.9151
    -1.5026   0.2648   0.2648   0.3197   1.2300   1.2300   1.3122   1.3838
     1.5024   1.5024   1.6485   1.6485   1.6500   2.9207   3.2060   3.2060
    27.6693  27.7994  28.4170  28.4170  28.4423  28.4894  28.5218  28.8541
    28.8541  28.8696  30.8374  31.3982  32.1115  32.1115  32.6436  33.1110
    33.4467  33.5166  33.9682  34.3221  34.3221  34.4580  37.2894  37.2894
    37.5903  37.7134  37.8237  38.9489  39.3406  39.3406  39.9377  39.9377
    40.2394  41.7770  41.8136  42.9545  42.9545  43.2709  43.2709  43.3853
    43.7854  46.3995  48.1278  48.1278  48.5701  49.1399  49.8945  51.8740
    52.0965  52.0965  52.4763  53.2977  53.8304  53.8304  54.1217  54.4897
    54.4898  55.0852  55.1670  55.1670  55.4988  56.0713  56.4634

          k = 0.0000 0.0000 0.2857 (  2677 PWs)   bands (ev):

   -54.7803 -54.7645 -30.6688 -30.5380 -30.3830 -29.9007 -29.7424 -29.7424
   -17.0570 -17.0570 -17.0456 -17.0413 -17.0413 -17.0368  -1.9662  -1.8495
    -1.0042   0.2704   0.2704   0.4654   1.1701   1.1774   1.1774   1.3600
     1.5796   1.5796   1.5908   1.6046   1.6046   2.0704   3.1923   3.1923
    27.5935  27.9477  28.1373  28.1373  28.3303  28.3335  28.5386  28.7634
    28.8075  28.8075  31.2253  31.3540  32.5288  32.5288  32.6882  33.0039
    33.3139  34.7554  34.7554  35.0986  35.2090  35.2691  36.8628  36.8628
    36.9223  37.3682  37.6520  38.4133  38.9163  38.9163  40.1875  40.1875
    40.7249  41.1120  41.2522  42.8080  42.8080  43.4101  43.4101  43.8055
    43.8867  44.0718  47.5699  47.5699  47.7212  49.2770  50.0126  51.9880
    52.1077  52.1077  53.1329  53.3848  53.3849  53.6738  53.9400  54.8974
    54.8975  55.3324  55.7480  55.7966  55.7969  56.2357  56.7362

          k = 0.0000 0.0000 0.4286 (  2658 PWs)   bands (ev):

   -54.7589 -54.7571 -30.6198 -30.5674 -30.2360 -30.0629 -29.7391 -29.7391
   -17.0497 -17.0497 -17.0402 -17.0402 -17.0203 -17.0126  -1.9216  -1.8757
    -0.0944   0.2711   0.2711   0.7029   0.8962   1.0477   1.1679   1.1679
     1.4369   1.5211   1.5620   1.5620   1.6757   1.6757   3.1978   3.1978
    27.5962  27.7825  27.9088  27.9088  28.3512  28.3582  28.5800  28.6565
    28.8020  28.8020  31.2910  31.4717  32.7648  32.8424  32.9184  32.9184
    33.9140  35.1473  35.1473  35.4415  35.9700  36.6482  36.6482  36.8155
    36.9729  37.4910  37.5792  38.2017  38.2017  38.3022  40.1575  40.3058
    40.3058  40.7428  40.8348  41.1020  42.4662  42.4662  44.0811  44.1737
    44.4737  44.4737  46.8077  46.8077  47.5460  48.2859  51.4601  51.4601
    51.8269  51.8858  52.5080  53.0226  53.0226  54.1312  54.7490  54.9760
    56.0050  56.0050  56.3103  56.3103  56.7308  57.0637  57.3632

          k = 0.0000 0.1667 0.0000 (  2653 PWs)   bands (ev):

   -54.7661 -54.7426 -30.6909 -30.5098 -30.4550 -29.7990 -29.7389 -29.7389
   -17.0479 -17.0479 -17.0336 -17.0335 -17.0335 -17.0261  -1.9942  -1.8917
    -1.4567   0.2701   0.2701   0.3494   1.2195   1.2195   1.3184   1.3594
     1.5208   1.5208   1.6425   1.6425   1.6427   2.8215   3.2081   3.2081
    27.6603  27.8318  28.3792  28.3792  28.4127  28.4625  28.5235  28.8416
    28.8416  28.8545  30.9159  31.3459  32.1690  32.1690  32.6544  33.1207
    33.5371  33.6917  34.0368  34.3857  34.3857  34.5405  37.2074  37.2074
    37.5695  37.6286  37.7928  38.8673  39.3206  39.3206  39.9968  39.9968
    40.3589  41.6647  41.7193  42.9546  42.9546  43.1977  43.1977  43.4607
    43.8416  46.0037  48.0744  48.0744  48.4969  49.1554  49.8418  52.1624
    52.1624  52.2052  52.6811  53.0761  53.8279  53.8280  53.9457  54.4208
    54.4209  55.1682  55.2454  55.2455  55.3855  56.0605  56.5316

          k = 0.0000 0.1667 0.1429 (  2662 PWs)   bands (ev):

   -54.7783 -54.7453 -30.6832 -30.4943 -30.4517 -29.8001 -29.7825 -29.7400
   -17.0567 -17.0501 -17.0459 -17.0409 -17.0312 -17.0175  -1.9494  -1.7705
    -1.4231   0.2810   0.3202   0.3471   1.1505   1.1602   1.3563   1.4111
     1.4700   1.5596   1.5703   1.6192   1.6890   2.7960   2.9065   3.2048
    27.7082  27.8671  28.3108  28.3467  28.3610  28.3749  28.4455  28.7252
    28.8006  28.8132  31.1182  31.1359  32.3431  32.5895  32.8973  33.4895
    33.6122  34.0267  34.0757  34.2379  34.5890  34.7592  36.8074  37.0214
    37.5198  37.5612  37.9474  38.7245  39.4130  39.4732  39.8542  40.1976
    40.3591  41.3240  41.6215  42.7734  42.8957  42.9692  43.1433  43.5437
    43.7401  45.8673  46.4724  48.2042  48.8193  49.0987  50.0794  51.7315
    52.4203  52.9642  53.0258  53.3328  53.5058  54.0736  54.1759  54.2566
    54.3373  54.8702  54.9045  55.0548  55.1282  55.8644  56.5208

          k = 0.0000 0.1667 0.2857 (  2666 PWs)   bands (ev):

   -54.7708 -54.7596 -30.6446 -30.5066 -30.3787 -29.9035 -29.7993 -29.7408
   -17.0537 -17.0524 -17.0455 -17.0428 -17.0303 -17.0170  -1.9214  -1.6200
    -1.0090   0.3024   0.3444   0.4685   1.0443   1.1067   1.3166   1.3660
     1.5212   1.5332   1.5768   1.6245   1.6891   2.0999   2.7963   3.1999
    27.6472  27.9514  28.0817  28.1321  28.2440  28.3015  28.4162  28.6032
    28.7231  28.7916  31.1270  31.5647  32.7139  32.7835  33.2816  33.5066
    33.6872  34.4755  35.0375  35.2298  35.3544  35.4441  36.2117  36.7447
    37.2218  37.3602  37.7406  38.3826  38.9235  39.1765  39.7691  40.2470
    40.7499  40.7523  41.5768  42.4153  42.6896  42.9476  42.9541  43.6348
    43.8945  44.1733  45.7592  48.0374  48.1453  48.7435  50.2916  51.8280
    52.2166  52.2549  53.2565  53.4180  53.9278  54.1258  54.3583  54.5363
    54.9313  55.0090  55.2568  55.5806  55.8771  56.3213  56.3383

          k = 0.0000 0.1667 0.4286 (  2658 PWs)   bands (ev):

   -54.7629 -54.7544 -30.5972 -30.5360 -30.2383 -30.0641 -29.7968 -29.7429
   -17.0514 -17.0505 -17.0429 -17.0413 -17.0176 -17.0049  -1.9085  -1.6133
    -0.1137   0.3198   0.3559   0.6780   0.8865   1.0195   1.0990   1.2455
     1.3189   1.5271   1.5475   1.6202   1.6657   1.6802   2.7950   3.2082
    27.6022  27.7467  27.8460  27.9998  28.3067  28.3236  28.4293  28.5778
    28.6460  28.8074  31.3438  31.6456  32.7224  33.2081  33.4775  33.5855
    33.9561  35.1252  35.2999  35.4333  36.1562  36.5982  36.7995  36.9300
    36.9324  37.1379  37.6169  38.0715  38.1773  38.9188  39.7139  39.9192
    40.3057  40.7096  41.0052  41.5813  42.1862  42.4878  42.9924  43.7851
    43.8778  44.7110  45.3341  47.0780  47.9096  47.9217  51.3460  51.4421
    51.8200  52.4103  53.0715  53.3482  53.8664  54.0925  54.6313  54.7793
    54.9645  55.2126  55.7401  56.4898  56.5509  57.0771  57.1384

          k = 0.0000 0.3333 0.0000 (  2677 PWs)   bands (ev):

   -54.7802 -54.7640 -30.6542 -30.5504 -30.3382 -29.9589 -29.7390 -29.7390
   -17.0577 -17.0577 -17.0474 -17.0474 -17.0358 -17.0265  -1.9523  -1.8485
    -0.7538   0.2683   0.2683   0.5325   1.0759   1.1691   1.1691   1.3838
     1.5723   1.5723   1.5758   1.6265   1.6265   1.7628   3.1821   3.1821
    27.5751  27.9251  28.0427  28.0427  28.3186  28.3352  28.5490  28.7259
    28.8036  28.8036  31.2262  31.4671  32.6808  32.6808  32.7269  32.9455
    33.3431  34.9049  34.9049  35.3736  35.8395  35.9871  36.5060  36.7666
    36.7666  37.2265  37.6043  38.2936  38.6615  38.6615  40.2281  40.2281
    40.6570  40.9396  41.0872  42.6711  42.6711  42.9632  43.7654  43.7654
    43.9164  44.1276  47.3087  47.3087  47.5301  48.9530  50.5486  51.8412
    51.9023  51.9023  52.8967  53.2096  53.2096  54.0783  54.3976  55.2569
    55.2996  55.2996  56.0095  56.0607  56.0608  56.4388  56.8649

          k = 0.0000 0.3333 0.1429 (  2660 PWs)   bands (ev):

   -54.7635 -54.7573 -30.6306 -30.5217 -30.3373 -29.9527 -29.7846 -29.7414
   -17.0541 -17.0482 -17.0424 -17.0392 -17.0275 -17.0109  -1.9194  -1.6894
    -0.7424   0.3017   0.3304   0.5433   1.0177   1.1154   1.2642   1.3690
     1.5257   1.5349   1.5823   1.6476   1.6723   1.7877   2.9028   3.2074
    27.6121  27.9027  28.0018  28.0776  28.2663  28.3080  28.4531  28.6377
    28.6950  28.7977  31.1797  31.6116  32.7371  32.8781  33.2286  33.4079
    33.5190  34.7450  35.1210  35.5504  35.8849  35.9235  36.1377  36.6978
    37.1122  37.2471  37.6036  38.1289  38.6477  39.0139  39.8237  40.1894
    40.6621  40.7982  41.4780  42.2568  42.7046  42.9952  43.0171  43.4348
    43.7766  44.3119  45.9298  47.7513  47.8982  48.5405  50.7090  51.7083
    51.9256  52.1861  53.1837  53.2639  53.8755  54.1571  54.5742  54.6331
    55.2468  55.2734  55.3661  55.8952  56.2725  56.3498  56.4878

          k = 0.0000 0.3333 0.2857 (  2658 PWs)   bands (ev):

   -54.7673 -54.7523 -30.5971 -30.4561 -30.3288 -29.9609 -29.8962 -29.7444
   -17.0529 -17.0453 -17.0452 -17.0380 -17.0171 -17.0065  -1.9067  -1.1087
    -0.7374   0.3627   0.4568   0.5348   0.9513   1.0295   1.2382   1.3327
     1.4592   1.5114   1.5987   1.6707   1.7201   1.7843   2.1362   3.2041
    27.6035  27.8274  27.8342  28.0628  28.2114  28.2725  28.3247  28.3888
    28.6804  28.8095  31.3296  31.9247  32.6958  33.4093  33.6883  34.0516
    34.5535  35.1175  35.5753  35.6035  35.9395  36.0005  36.3415  36.6246
    36.8444  36.9717  37.2454  38.1629  39.1622  39.3983  39.4429  40.1319
    40.1579  40.9443  41.8115  41.8290  42.2291  42.2827  42.8511  42.9121
    43.2620  43.7564  44.6745  46.6805  47.8825  48.8580  51.0950  51.1113
    51.6810  52.6127  53.5535  53.7023  53.9400  54.0147  54.0659  54.7456
    55.4155  55.7927  55.8366  56.1011  56.5200  56.7524  56.7816

          k = 0.0000 0.3333 0.4286 (  2654 PWs)   bands (ev):

   -54.7578 -54.7541 -30.5816 -30.4065 -30.2415 -30.0724 -29.9469 -29.7413
   -17.0584 -17.0539 -17.0440 -17.0372 -16.9983 -16.9920  -1.8991  -0.8077
    -0.1376   0.4150   0.4951   0.6051   0.9167   1.0039   1.0055   1.1133
     1.2959   1.4634   1.5244   1.6625   1.7017   1.7322   1.8199   3.1905
    27.5389  27.6386  27.6402  28.0590  28.1769  28.2057  28.3588  28.3896
    28.6583  28.8418  31.7079  32.0507  32.6260  33.5403  33.9980  34.3981
    35.2670  35.3546  35.8103  35.9126  36.0232  36.5090  36.6659  36.7613
    36.9309  37.1125  37.3528  37.6876  39.3564  39.4476  39.6295  39.6920
    40.0234  40.6463  41.2298  41.5838  41.7894  42.0982  42.4362  42.6500
    42.7193  43.0940  45.0136  45.0472  47.5319  49.5220  50.5464  50.9668
    51.9345  52.6507  53.3693  53.6607  53.7558  54.4366  54.6993  55.2629
    55.3322  55.4534  55.9860  56.2316  56.6075  56.9114  57.6521

          k = 0.0000-0.5000 0.0000 (  2666 PWs)   bands (ev):

   -54.7634 -54.7634 -30.5955 -30.5955 -30.1520 -30.1520 -29.7396 -29.7396
   -17.0519 -17.0519 -17.0448 -17.0448 -17.0190 -17.0190  -1.9052  -1.9052
     0.2712   0.2712   0.4318   0.4318   0.8162   0.8162   1.1644   1.1644
     1.4772   1.4772   1.5491   1.5491   1.6842   1.6842   3.1966   3.1966
    27.6705  27.6705  27.8762  27.8762  28.3652  28.3652  28.6134  28.6134
    28.8018  28.8018  31.3782  31.3782  32.7897  32.7897  32.9809  32.9809
    34.6372  34.6372  35.2145  35.2145  36.4147  36.4147  36.6200  36.6200
    37.3712  37.3712  38.0685  38.0685  38.3783  38.3783  40.0675  40.0675
    40.3305  40.3305  40.7360  40.7360  42.4118  42.4118  44.1513  44.1513
    44.7092  44.7092  46.6356  46.6356  47.8470  47.8470  51.3238  51.3238
    52.0881  52.0881  52.9683  52.9684  53.0617  53.0617  54.9357  54.9358
    56.2168  56.2169  56.2899  56.2899  57.2403  57.2404  57.5876

          k = 0.0000-0.5000 0.1429 (  2666 PWs)   bands (ev):

   -54.7638 -54.7637 -30.5918 -30.5595 -30.1560 -30.1528 -29.7825 -29.7411
   -17.0560 -17.0517 -17.0495 -17.0460 -17.0150 -17.0121  -1.9018  -1.6907
     0.2615   0.3102   0.4370   0.4822   0.7553   0.8401   1.1152   1.2112
     1.3392   1.5268   1.5331   1.6352   1.6518   1.6808   2.8927   3.1994
    27.6292  27.6852  27.8301  27.9561  28.3350  28.3352  28.4735  28.6269
    28.6294  28.8073  31.4155  31.5213  32.7223  33.1989  33.3170  33.4440
    34.3803  34.7974  35.3096  35.4343  36.4779  36.4975  36.6805  36.8449
    36.8844  37.3831  37.9614  38.0141  38.3647  38.9966  39.6621  39.8008
    40.0169  40.3491  40.7969  41.4366  42.1472  42.4423  43.2377  43.8899
    44.2788  44.7855  45.5794  47.0822  47.6262  47.8426  51.2190  51.4553
    52.2934  52.3625  52.9534  53.1668  53.7455  53.8145  54.4779  54.8713
    55.0137  55.3939  55.7997  56.6957  56.8763  57.2373  57.4153

          k = 0.0000-0.5000 0.2857 (  2658 PWs)   bands (ev):

   -54.7588 -54.7586 -30.5808 -30.4506 -30.1617 -30.1557 -29.8986 -29.7441
   -17.0601 -17.0573 -17.0457 -17.0391 -16.9998 -16.9945  -1.9048  -1.0776
     0.2338   0.3918   0.4614   0.5962   0.6618   0.9122   1.0252   1.1463
     1.2855   1.4726   1.5560   1.6425   1.6875   1.7108   2.1279   3.1904
    27.5566  27.6506  27.6749  28.0496  28.2140  28.2479  28.3444  28.4087
    28.6509  28.8342  31.6861  31.8735  32.6310  33.6601  33.8273  34.3676
    35.0627  35.1227  35.5768  35.7973  35.8531  36.5502  36.7242  36.8028
    36.9251  37.3066  37.4318  38.6901  38.8793  39.4154  39.4382  39.6408
    39.7188  39.9583  41.3032  41.6697  41.8476  42.2592  42.5998  42.8896
    43.2966  43.4305  44.9871  45.3715  47.6154  49.1890  50.7221  50.9089
    52.3891  52.4436  53.5077  53.6677  53.9706  54.0253  54.5671  54.9132
    55.5189  55.6458  55.8940  56.0930  56.2941  56.7023  57.5253

          k = 0.0000-0.5000 0.4286 (  2662 PWs)   bands (ev):

   -54.7618 -54.7618 -30.5816 -30.3107 -30.1688 -30.1645 -30.0435 -29.7400
   -17.0585 -17.0582 -17.0499 -17.0423 -16.9973 -16.9906  -1.8894  -0.1955
     0.2088   0.4385   0.4839   0.5962   0.6806   0.9782   0.9803   0.9825
     0.9934   1.4163   1.4405   1.4423   1.7155   1.7158   1.7473   3.1783
    27.4845  27.5017  27.5025  28.0956  28.1109  28.1454  28.4058  28.4114
    28.6555  28.8707  32.1595  32.2189  32.5307  33.2527  34.2946  34.6994
    35.2130  35.9336  36.0801  36.1352  36.3577  36.5001  36.6286  36.6649
    37.1537  37.1704  37.6169  38.8793  39.0428  39.2219  39.3201  40.0734
    40.2482  40.3279  40.7716  41.2427  41.3503  41.6181  41.6696  42.5731
    42.6095  42.9522  43.4768  45.2144  47.1773  50.1923  50.3100  50.5347
    52.3170  52.3553  53.1263  53.2118  53.9901  54.4069  54.6996  55.4675
    55.7216  55.8418  56.2010  56.2561  57.4694  57.7327  57.8037

          k = 0.2000 0.0000 0.0000 (  2661 PWs)   bands (ev):

   -54.7794 -54.7421 -30.6910 -30.5158 -30.4386 -29.8233 -29.7391 -29.7391
   -17.0549 -17.0549 -17.0421 -17.0337 -17.0337 -17.0237  -1.9866  -1.8670
    -1.3669   0.2705   0.2705   0.3801   1.2034   1.2034   1.3046   1.3286
     1.5395   1.5395   1.6310   1.6337   1.6337   2.6387   3.1990   3.1990
    27.6440  27.8770  28.3176  28.3176  28.3770  28.4215  28.5264  28.8274
    28.8274  28.8310  31.0374  31.2910  32.2600  32.2600  32.6612  33.0992
    33.4856  34.0872  34.2682  34.4817  34.4817  34.6740  37.0975  37.0975
    37.4825  37.5309  37.7504  38.7389  39.2549  39.2549  40.0718  40.0718
    40.5139  41.5032  41.5851  42.9920  42.9920  43.0978  43.0978  43.5644
    43.9165  45.4327  47.9680  47.9680  48.2880  49.3033  49.7311  52.2200
    52.2200  52.5672  52.7941  52.9859  53.7112  53.7516  53.7516  54.4223
    54.4223  55.2999  55.3045  55.3720  55.3722  56.0671  56.6012

          k = 0.2000 0.0000 0.1429 (  2667 PWs)   bands (ev):

   -54.7739 -54.7570 -30.6756 -30.4989 -30.4376 -29.8238 -29.7833 -29.7425
   -17.0567 -17.0559 -17.0471 -17.0359 -17.0349 -17.0228  -1.9438  -1.7318
    -1.3484   0.2837   0.3222   0.3736   1.1219   1.1431   1.3640   1.3838
     1.4909   1.5518   1.5693   1.6134   1.6868   2.6218   2.8996   3.2037
    27.6955  27.9041  28.2674  28.2853  28.3237  28.3480  28.4421  28.6951
    28.7859  28.7995  31.1129  31.2289  32.4370  32.6386  32.9696  33.4621
    33.6763  34.1241  34.3424  34.4215  34.6890  34.8851  36.6713  36.9427
    37.4793  37.4905  37.9570  38.5935  39.3751  39.3812  39.8635  40.2330
    40.4681  41.1864  41.5783  42.7405  42.8395  42.9032  43.1075  43.5630
    43.8318  45.3619  46.3679  48.1815  48.6087  49.2495  49.9223  51.8306
    52.4453  52.7640  53.1355  53.4281  53.5500  54.0531  54.1606  54.3562
    54.5031  54.8889  54.9189  55.0205  55.2444  55.9115  56.4333

          k = 0.2000 0.0000 0.2857 (  2659 PWs)   bands (ev):

   -54.7640 -54.7567 -30.6325 -30.4939 -30.3761 -29.9033 -29.8224 -29.7417
   -17.0475 -17.0464 -17.0450 -17.0407 -17.0258 -17.0147  -1.9170  -1.5032
    -1.0010   0.3145   0.3738   0.4703   1.0317   1.0834   1.3454   1.3536
     1.5097   1.5424   1.5653   1.6342   1.6985   2.1011   2.6365   3.2040
    27.6525  27.9501  28.0486  28.1240  28.2174  28.3011  28.3737  28.5390
    28.7164  28.7897  31.1351  31.6451  32.7151  32.8894  33.4546  33.6552
    33.9397  34.4364  35.1423  35.2069  35.4600  35.5557  36.1024  36.7115
    37.1759  37.3530  37.5973  38.6205  38.8513  39.1901  39.6703  40.2744
    40.6325  40.7477  41.6654  42.3206  42.5198  42.7808  42.9546  43.5330
    43.8470  44.2595  45.2691  48.0025  48.3141  48.4310  50.3971  51.7550
    52.1998  52.3085  53.2655  53.5826  53.8498  54.0596  54.4842  54.5930
    54.9268  54.9269  55.3513  55.8623  55.8824  56.4282  56.4559

          k = 0.2000 0.0000 0.4286 (  2660 PWs)   bands (ev):

   -54.7642 -54.7560 -30.5936 -30.5168 -30.2394 -30.0665 -29.8211 -29.7435
   -17.0524 -17.0515 -17.0447 -17.0444 -17.0119 -17.0065  -1.9076  -1.4924
    -0.1237   0.3358   0.3833   0.6659   0.8810   1.0131   1.0769   1.2632
     1.2770   1.5123   1.5686   1.6057   1.6759   1.6934   2.6286   3.2082
    27.5968  27.7378  27.8150  28.0199  28.2911  28.3178  28.3737  28.5086
    28.6501  28.8111  31.3853  31.7197  32.7050  33.3321  33.6647  33.8095
    34.0585  35.0884  35.3181  35.5355  36.2299  36.5941  36.6356  36.8999
    36.9685  37.1127  37.6340  37.9834  38.4223  39.0048  39.6061  39.9298
    40.1588  40.7128  41.0299  41.7710  42.0973  42.4117  42.7771  43.6079
    43.6533  44.7652  44.8508  46.7418  47.8539  48.2610  51.2916  51.3080
    51.8267  52.5941  53.2571  53.4301  53.8314  54.2669  54.5102  54.8671
    54.9249  55.0786  55.8150  56.3365  56.4556  57.0524  57.1335

          k = 0.2000 0.1667 0.0000 (  2672 PWs)   bands (ev):

   -54.7731 -54.7665 -30.6723 -30.4965 -30.4322 -29.8270 -29.8002 -29.7425
   -17.0648 -17.0541 -17.0454 -17.0421 -17.0391 -17.0195  -1.9421  -1.6779
    -1.3429   0.2904   0.3409   0.3724   1.1012   1.1276   1.3651   1.3974
     1.4804   1.5431   1.5736   1.5919   1.6903   2.6174   2.8011   3.1985
    27.7005  27.9176  28.2488  28.2643  28.2983  28.3380  28.4196  28.6597
    28.7791  28.7901  31.0925  31.2928  32.4975  32.6695  33.0750  33.5788
    33.7546  34.0910  34.3531  34.5364  34.7554  34.9587  36.5747  36.8999
    37.4380  37.4773  37.9776  38.5820  39.3672  39.3683  39.8149  40.3019
    40.4465  41.0969  41.5834  42.6880  42.7673  42.8426  43.1133  43.5405
    43.8709  45.2851  46.0504  48.2250  48.5954  49.1855  49.8900  51.8389
    52.4807  52.7401  53.1653  53.4810  53.5653  54.0107  54.2482  54.4858
    54.6112  54.7882  54.8207  54.9751  55.2325  55.9368  56.5073

          k = 0.2000 0.1667 0.1429 (  2665 PWs)   bands (ev):

   -54.7725 -54.7566 -30.6479 -30.4726 -30.4424 -29.8268 -29.8006 -29.7790
   -17.0635 -17.0480 -17.0453 -17.0375 -17.0276 -17.0205  -1.7501  -1.6576
    -1.3357   0.3345   0.3575   0.3842   0.9629   1.2637   1.3071   1.4564
     1.4758   1.5069   1.5426   1.6400   1.6685   2.6208   2.7949   2.9064
    27.7976  27.8992  28.1923  28.2142  28.2893  28.3057  28.3600  28.5977
    28.6811  28.6860  31.0169  31.4727  32.9301  33.0173  33.3622  33.7038
    33.8330  34.2338  34.4529  34.5376  34.7775  35.1569  36.4351  36.5633
    37.5057  37.7898  38.0096  38.6161  39.2201  39.3165  39.8941  40.0090
    40.2179  41.3047  41.4431  42.4938  42.5051  42.6561  42.9284  43.5807
    43.7230  45.3921  46.1880  46.5869  49.2000  49.3736  49.7851  51.9149
    52.0671  53.0286  53.3581  53.5383  53.6488  53.8393  53.9544  54.5574
    54.6523  54.9786  55.1166  55.2938  55.3156  56.1287  56.2636

          k = 0.2000 0.1667 0.2857 (  2655 PWs)   bands (ev):

   -54.7687 -54.7446 -30.5955 -30.4692 -30.3835 -29.9051 -29.8223 -29.7967
   -17.0486 -17.0447 -17.0429 -17.0276 -17.0262 -17.0104  -1.6420  -1.4824
    -1.0162   0.3686   0.4088   0.4931   0.8653   1.2366   1.2901   1.3732
     1.4618   1.5271   1.5817   1.6382   1.6765   2.1182   2.6368   2.8035
    27.7555  27.9278  28.0772  28.1044  28.1526  28.2295  28.3109  28.4871
    28.5704  28.6197  31.1354  31.8569  33.3504  33.4136  33.7124  33.9350
    34.0156  34.6201  34.8818  35.2061  35.6732  35.7745  35.9354  36.3228
    37.5010  37.6653  38.0546  38.3641  38.7195  39.1181  39.5231  39.6518
    40.5499  41.1085  41.5067  42.1055  42.1744  42.2397  42.5698  43.5850
    43.8657  44.1761  45.6850  46.2868  48.3807  48.6679  50.4932  51.4434
    51.8834  52.3741  53.2643  53.5556  53.8697  54.0988  54.3806  54.9467
    55.0921  55.5158  55.6876  56.2087  56.2895  56.4363  56.6448

          k = 0.2000 0.1667 0.4286 (  2655 PWs)   bands (ev):

   -54.7577 -54.7538 -30.5494 -30.5027 -30.2428 -30.0695 -29.8215 -29.7972
   -17.0497 -17.0454 -17.0419 -17.0354 -17.0088 -17.0073  -1.6137  -1.4842
    -0.1378   0.3907   0.4160   0.6749   0.7876   0.9992   1.1576   1.1916
     1.3655   1.4193   1.6153   1.6390   1.6424   1.6712   2.6351   2.7980
    27.6471  27.7034  27.9434  28.0007  28.2110  28.2358  28.3441  28.4434
    28.5328  28.6157  31.4982  31.8833  33.4396  33.7040  33.8444  34.0232
    34.1554  35.0415  35.4049  35.5816  36.2423  36.3548  36.7934  37.0823
    37.1018  37.5592  37.6907  37.8286  38.4110  39.0057  39.2187  39.4970
    40.3295  40.7075  41.3476  41.5506  41.8619  42.1523  42.2850  42.6660
    43.8840  44.1905  45.8247  46.5250  46.9112  47.5277  51.0607  51.4838
    52.0818  52.3337  53.4595  53.6628  53.7255  54.3348  54.5316  54.8027
    55.3283  55.4945  56.4056  56.6782  56.7742  57.1463  57.2060

          k = 0.2000 0.3333 0.0000 (  2656 PWs)   bands (ev):

   -54.7655 -54.7503 -30.6178 -30.5009 -30.3362 -29.9542 -29.8210 -29.7406
   -17.0513 -17.0449 -17.0416 -17.0391 -17.0240 -17.0066  -1.9092  -1.4895
    -0.7441   0.3225   0.3747   0.5371   0.9905   1.0797   1.3030   1.3270
     1.5112   1.5546   1.5549   1.6548   1.6995   1.7920   2.6348   3.2029
    27.6227  27.8866  27.9529  28.0851  28.2357  28.3012  28.3720  28.5209
    28.6900  28.7976  31.2034  31.7319  32.7249  33.0594  33.5117  33.6940
    33.9217  34.6605  35.2943  35.7070  35.7487  35.9471  36.1604  36.6587
    37.0851  37.2564  37.3133  38.5399  38.5773  39.1029  39.6336  40.1944
    40.4440  40.8592  41.7125  42.0486  42.4912  42.8501  42.8518  43.1838
    43.5792  44.4466  45.1094  47.5730  48.1617  48.2962  50.8319  51.5621
    51.8883  52.3820  53.3998  53.4967  53.8832  53.9412  54.5819  54.8021
    54.9309  55.1535  55.5419  56.2730  56.3108  56.4357  56.5871

          k = 0.2000 0.3333 0.1429 (  2657 PWs)   bands (ev):

   -54.7672 -54.7488 -30.5903 -30.4854 -30.3405 -29.9572 -29.8207 -29.7832
   -17.0469 -17.0462 -17.0428 -17.0345 -17.0231 -17.0093  -1.7027  -1.4812
    -0.7551   0.3674   0.3969   0.5517   0.8630   1.1913   1.2547   1.3672
     1.4488   1.5231   1.6101   1.6315   1.6780   1.8044   2.6321   2.9026
    27.6899  27.8531  28.0329  28.0827  28.1574  28.2403  28.3353  28.5003
    28.5618  28.6564  31.2201  31.8833  33.2697  33.4141  33.6750  33.8785
    33.9709  34.8098  35.1438  35.6831  35.8525  35.8749  36.2140  36.4184
    37.3630  37.4136  37.7589  38.2952  38.5545  39.0883  39.4503  39.6396
    40.7206  41.0078  41.5428  42.0060  42.1534  42.2866  42.4014  43.4441
    43.6666  44.1047  45.5868  46.6177  47.8417  48.4182  50.8540  51.5304
    51.8100  52.2424  53.3446  53.6381  53.8101  54.1724  54.3738  54.8291
    55.2423  55.6150  55.9795  56.2530  56.4179  56.6341  56.7729

          k = 0.2000 0.3333 0.2857 (  2656 PWs)   bands (ev):

   -54.7645 -54.7489 -30.5357 -30.4318 -30.3434 -29.9599 -29.8967 -29.8225
   -17.0504 -17.0475 -17.0394 -17.0258 -17.0169 -17.0052  -1.4934  -1.0885
    -0.7572   0.4274   0.5030   0.5821   0.7406   1.2046   1.2367   1.3312
     1.4343   1.4761   1.5817   1.6370   1.6756   1.8166   2.1278   2.6349
    27.7468  27.8013  28.0025  28.0278  28.0895  28.1995  28.2263  28.3222
    28.4303  28.5652  31.4445  32.2268  33.7462  33.8997  34.1118  34.4135
    34.6857  35.1087  35.3187  35.5762  35.7841  36.0963  36.2068  36.5697
    37.4065  37.6144  37.8547  38.2449  38.7206  38.8899  39.0721  39.4722
    40.6297  40.8616  41.4647  41.5683  41.7297  41.8108  41.9995  43.0012
    43.6616  43.9242  44.5763  46.0946  47.0551  48.3725  49.8313  51.4314
    51.7645  51.9223  53.3225  53.7238  53.9609  54.6663  54.8444  55.6449
    55.9183  56.2771  56.3206  56.5868  56.7075  57.0291  57.2586

          k = 0.2000 0.3333 0.4286 (  2643 PWs)   bands (ev):

   -54.7484 -54.7447 -30.5054 -30.3958 -30.2445 -30.0723 -29.9449 -29.8238
   -17.0446 -17.0426 -17.0295 -17.0276 -17.0012 -16.9929  -1.4813  -0.7958
    -0.1483   0.4952   0.5017   0.6220   0.7881   1.0119   1.1288   1.1674
     1.3368   1.4254   1.5348   1.6249   1.6443   1.6801   1.8218   2.6421
    27.6540  27.6580  27.8385  28.0267  28.1125  28.2004  28.2078  28.2982
    28.3424  28.5940  31.9151  32.3375  33.6957  33.9451  34.3250  34.6009
    35.2464  35.4911  35.7655  35.8797  36.0006  36.5063  36.7796  37.0545
    37.2153  37.4567  37.7438  37.8877  38.4286  38.9966  39.3656  39.7349
    40.2071  40.5520  41.0093  41.2749  41.4331  41.6127  42.0108  42.3014
    42.7022  44.0415  44.2488  45.3642  46.4454  47.9718  49.5992  50.6462
    51.8908  52.1188  53.2600  54.2249  54.6942  55.1310  55.2734  55.4152
    56.0227  56.3301  56.7379  56.8750  57.2049  57.5170  57.5769

          k = 0.2000-0.5000 0.0000 (  2658 PWs)   bands (ev):

   -54.7580 -54.7578 -30.5869 -30.5207 -30.1569 -30.1530 -29.8216 -29.7408
   -17.0500 -17.0465 -17.0453 -17.0399 -17.0127 -17.0091  -1.9020  -1.4904
     0.2505   0.3385   0.4471   0.5259   0.7150   0.8686   1.0841   1.2443
     1.2641   1.5057   1.5785   1.6069   1.6842   1.6982   2.6345   3.2057
    27.6030  27.6867  27.7815  28.0007  28.3050  28.3258  28.3751  28.5076
    28.6401  28.8148  31.4867  31.6460  32.6895  33.4052  33.7013  33.8134
    34.3130  34.9030  35.3897  35.6043  36.4402  36.5101  36.5766  36.7588
    36.8798  37.4268  37.8150  38.2891  38.4570  39.2500  39.5105  39.6072
    39.9785  40.0870  41.0150  41.7848  41.9498  42.3696  42.7824  43.6715
    43.8486  44.7752  44.8539  46.4724  47.7934  48.2547  51.1167  51.2593
    52.4291  52.4738  53.1484  53.2552  54.2111  54.3322  54.4131  54.5338
    54.8305  55.0519  55.9504  56.3608  56.7552  56.8746  57.3121

          k = 0.2000-0.5000 0.1429 (  2658 PWs)   bands (ev):

   -54.7581 -54.7578 -30.5497 -30.5172 -30.1577 -30.1564 -29.8219 -29.7832
   -17.0524 -17.0503 -17.0434 -17.0399 -17.0065 -17.0050  -1.6887  -1.4907
     0.2733   0.3084   0.5065   0.5306   0.7300   0.7968   1.1273   1.1703
     1.3592   1.4265   1.6180   1.6374   1.6509   1.6673   2.6347   2.8996
    27.6348  27.6583  27.8933  27.9834  28.2454  28.2626  28.3661  28.4693
    28.5278  28.6627  31.6387  31.7000  33.2381  33.6763  33.8215  33.9756
    34.4680  34.6760  35.5947  35.7303  36.2402  36.4489  36.7967  36.8648
    37.1035  37.4859  37.7773  38.1705  38.8417  39.1098  39.1520  39.2281
    40.0654  40.0882  41.3170  41.6176  41.9832  42.0843  42.4899  42.6360
    43.9212  44.4181  45.8277  46.4344  47.1485  47.2798  51.2232  51.3674
    52.3640  52.4432  53.4558  53.6352  53.8722  53.9570  54.5924  54.7061
    54.9790  55.3643  56.4792  56.7039  56.8570  57.0998  57.3037

          k = 0.2000-0.5000 0.2857 (  2648 PWs)   bands (ev):

   -54.7506 -54.7501 -30.5062 -30.4438 -30.1616 -30.1595 -29.8956 -29.8228
   -17.0435 -17.0411 -17.0361 -17.0354 -17.0008 -16.9973  -1.4816  -1.0739
     0.2716   0.3297   0.5531   0.5843   0.6902   0.8050   1.1340   1.1471
     1.3589   1.4138   1.5663   1.6301   1.6460   1.6769   2.1219   2.6373
    27.6442  27.6529  27.8798  28.0344  28.1108  28.1889  28.2470  28.3347
    28.3795  28.5805  31.9794  32.0415  33.6897  34.0185  34.3760  34.5078
    34.9054  35.0766  35.7846  35.8232  36.0895  36.2584  36.9139  36.9889
    37.2953  37.5750  37.9013  38.2921  38.7818  38.8984  39.0547  39.5320
    39.9196  39.9543  41.2797  41.4793  41.4976  41.8201  42.0073  42.1979
    43.0082  44.0949  45.1607  45.4112  46.5907  47.3107  50.2991  50.7186
    51.9749  52.1868  53.5044  54.1373  54.5840  54.6363  55.0019  55.2785
    55.8310  56.2963  56.6340  56.8006  57.0758  57.5167  57.5189

          k = 0.2000-0.5000 0.4286 (  2646 PWs)   bands (ev):

   -54.7487 -54.7481 -30.4990 -30.2932 -30.1668 -30.1650 -30.0510 -29.8251
   -17.0428 -17.0426 -17.0376 -17.0330 -16.9926 -16.9881  -1.4838  -0.1853
     0.2430   0.3726   0.5294   0.5943   0.6454   0.9630   0.9692   1.1114
     1.1391   1.3937   1.4692   1.4719   1.6534   1.6561   1.6723   2.6388
    27.5876  27.6072  27.6673  28.0717  28.0854  28.1575  28.2508  28.2665
    28.2999  28.6255  32.4461  32.4783  33.6270  33.7212  34.2413  34.7125
    35.4795  36.1057  36.1626  36.4336  36.4807  36.8326  36.8895  36.8952
    37.0326  37.3495  37.5833  37.9186  38.8126  39.0577  39.7099  39.9531
    39.9737  40.2280  40.6112  40.8065  41.3575  41.3602  41.6166  42.4252
    42.4570  43.3534  43.5677  44.2898  46.5397  48.4119  48.8930  49.9224
    52.0071  52.1495  52.7549  54.7391  55.0047  55.1014  55.7398  55.9399
    56.4216  56.4601  57.1850  57.4348  57.6470  57.8063  57.8740

          k = 0.4000 0.0000 0.0000 (  2657 PWs)   bands (ev):

   -54.7683 -54.7456 -30.6273 -30.5618 -30.2690 -30.0285 -29.7374 -29.7374
   -17.0531 -17.0531 -17.0389 -17.0389 -17.0229 -17.0077  -1.9288  -1.8639
    -0.2946   0.2721   0.2721   0.6578   0.9690   1.1674   1.1674   1.2560
     1.4254   1.5434   1.5686   1.5686   1.6602   1.6602   3.1946   3.1946
    27.5803  27.8310  27.9392  27.9392  28.3402  28.3513  28.5696  28.6762
    28.8023  28.8023  31.2659  31.4955  32.7588  32.8627  32.8627  32.8703
    33.6808  35.0877  35.0877  35.7648  35.7886  36.6740  36.6740  36.6985
    36.9570  37.0863  37.5439  38.2568  38.3176  38.3176  40.2848  40.2848
    40.3352  40.7800  40.8982  41.6504  42.5150  42.5150  44.0407  44.1693
    44.2834  44.2834  46.9421  46.9421  47.4880  48.4834  51.4215  51.5832
    51.5832  51.8348  52.6055  53.0635  53.0636  54.3632  54.7985  54.8836
    55.8286  55.8287  56.2782  56.2783  56.5256  56.8602  57.2058

          k = 0.4000 0.0000 0.1429 (  2659 PWs)   bands (ev):

   -54.7657 -54.7534 -30.6100 -30.5385 -30.2686 -30.0302 -29.7820 -29.7431
   -17.0515 -17.0509 -17.0450 -17.0409 -17.0192 -17.0079  -1.9115  -1.6866
    -0.3126   0.3086   0.3341   0.6469   0.9361   1.1134   1.1913   1.2790
     1.3544   1.5287   1.5383   1.6298   1.6560   1.6672   2.8965   3.2092
    27.5985  27.7953  27.8950  28.0072  28.3018  28.3239  28.4639  28.6301
    28.6560  28.8034  31.2762  31.6268  32.7416  33.0713  33.3124  33.4162
    33.7515  35.0455  35.3049  35.5261  35.9404  36.6262  36.7058  36.8851
    37.0232  37.1309  37.3231  38.0345  38.2507  38.8764  39.8040  40.0392
    40.4676  40.7441  41.4495  41.4583  42.3569  42.5509  43.1480  43.8506
    43.8528  44.5801  45.7237  47.4087  47.7383  48.0758  51.4559  51.5166
    51.5761  52.2385  52.9976  53.2690  53.8435  54.0591  54.7627  54.8662
    55.0050  55.4205  55.5981  56.4207  56.5072  56.7880  56.9173

          k = 0.4000 0.0000 0.2857 (  2657 PWs)   bands (ev):

   -54.7655 -54.7519 -30.5871 -30.4500 -30.2717 -30.0368 -29.8985 -29.7433
   -17.0591 -17.0508 -17.0452 -17.0388 -17.0085 -16.9945  -1.9062  -1.0867
    -0.3296   0.3782   0.4586   0.6035   0.9207   1.0228   1.1783   1.1834
     1.3306   1.4912   1.5675   1.6230   1.6904   1.7183   2.1294   3.1963
    27.5726  27.7248  27.7364  28.0521  28.2207  28.2557  28.3306  28.3948
    28.6629  28.8241  31.4936  31.9521  32.6701  33.6487  33.6547  34.2337
    34.8129  35.1992  35.4447  35.7420  36.3078  36.3445  36.6137  36.7589
    36.8280  37.1253  37.2423  37.7574  39.1476  39.4141  39.4142  39.8883
    40.0366  41.0315  41.1637  41.8312  42.0609  42.2436  42.5732  42.7039
    43.2732  43.5555  44.8614  45.9405  47.7203  49.0440  50.8580  51.2577
    51.6295  52.7343  53.5802  53.6454  53.9541  54.0179  54.2376  55.1116
    55.5107  55.7513  55.7980  56.0068  56.2383  56.8306  57.2814

          k = 0.4000 0.0000 0.4286 (  2657 PWs)   bands (ev):

   -54.7610 -54.7555 -30.5800 -30.3445 -30.2324 -30.0900 -30.0106 -29.7419
   -17.0627 -17.0553 -17.0463 -17.0343 -16.9997 -16.9893  -1.8955  -0.4031
    -0.1311   0.4504   0.5478   0.5700   0.9226   0.9815   1.0020   1.0458
     1.1430   1.4401   1.4829   1.5140   1.6894   1.7130   1.7440   3.1827
    27.5066  27.5555  27.5615  28.0726  28.1397  28.1656  28.3897  28.3957
    28.6573  28.8588  31.9288  32.1736  32.5859  33.3774  34.3708  34.3726
    35.2544  35.7902  35.9235  36.0259  36.5294  36.5487  36.6534  36.6717
    37.1107  37.1619  37.1846  37.6937  39.3241  39.3968  39.8067  39.9596
    40.0912  40.8638  41.1048  41.2317  41.3523  41.7422  41.8232  42.5771
    42.6453  42.9375  44.1950  45.1310  47.3244  49.9736  50.3054  50.7582
    52.0728  52.5409  53.2008  53.3084  53.9345  54.7557  55.0382  55.1130
    55.2174  55.5173  56.0769  56.4011  57.1713  57.3213  58.0106

          k = 0.4000 0.1667 0.0000 (  2659 PWs)   bands (ev):

   -54.7628 -54.7563 -30.6052 -30.5288 -30.2692 -30.0310 -29.7970 -29.7438
   -17.0517 -17.0508 -17.0429 -17.0413 -17.0186 -17.0082  -1.9111  -1.6116
    -0.3160   0.3181   0.3519   0.6437   0.9293   1.0981   1.1925   1.2863
     1.3264   1.5306   1.5419   1.6217   1.6643   1.6762   2.7936   3.2097
    27.6001  27.7883  27.8774  28.0209  28.2920  28.3175  28.4266  28.5796
    28.6570  28.8048  31.2918  31.6733  32.7314  33.1454  33.4582  33.5905
    33.7842  35.0253  35.3732  35.4875  35.9922  36.6171  36.7034  36.8854
    37.0412  37.0973  37.2417  38.1929  38.2096  38.9377  39.7171  40.0307
    40.3665  40.8077  41.3992  41.5809  42.3110  42.5353  42.9621  43.6951
    43.7664  44.6235  45.3986  47.2595  47.9555  47.9978  51.4520  51.4887
    51.5355  52.3575  53.1295  53.3755  53.8811  54.0813  54.5609  54.9206
    55.0524  55.2012  55.6331  56.4118  56.4497  56.8851  56.9268

          k = 0.4000 0.1667 0.1429 (  2662 PWs)   bands (ev):

   -54.7641 -54.7587 -30.5784 -30.5159 -30.2730 -30.0357 -29.7976 -29.7842
   -17.0543 -17.0490 -17.0453 -17.0408 -17.0179 -17.0079  -1.7003  -1.6013
    -0.3278   0.3632   0.3708   0.6433   0.8471   1.1468   1.1753   1.2587
     1.3774   1.4227   1.6181   1.6255   1.6449   1.6633   2.7926   2.8955
    27.6396  27.7526  27.9617  28.0082  28.2308  28.2663  28.3953  28.5170
    28.5918  28.6535  31.3433  31.8015  33.2716  33.4402  33.5653  33.7447
    33.9196  35.1820  35.3229  35.3832  36.1202  36.3523  36.8216  36.9958
    37.0161  37.3239  37.6019  37.7960  38.3783  39.0116  39.4002  39.6534
    40.4786  41.2325  41.2694  41.4267  42.0594  42.4611  42.5846  42.8987
    44.0450  44.2276  46.0649  46.5556  47.4877  47.7864  51.2820  51.6462
    51.7842  52.3445  53.2887  53.6285  53.8124  54.1666  54.2508  54.7579
    55.2812  55.3661  56.1347  56.4119  56.5607  57.0546  57.0813

          k = 0.4000 0.1667 0.2857 (  2650 PWs)   bands (ev):

   -54.7528 -54.7517 -30.5378 -30.4410 -30.2770 -30.0344 -29.8966 -29.7985
   -17.0502 -17.0429 -17.0367 -17.0328 -17.0045 -17.0006  -1.6126  -1.0756
    -0.3353   0.4404   0.4754   0.6244   0.7831   1.1471   1.1614   1.2134
     1.3472   1.4449   1.5669   1.6430   1.6486   1.6907   2.1256   2.8023
    27.6575  27.7014  27.8895  28.0376  28.1495  28.2202  28.2455  28.3594
    28.4372  28.6417  31.6039  32.1541  33.4239  33.8826  34.0646  34.4154
    34.8329  35.2172  35.4257  35.6864  36.0422  36.4162  36.8117  36.9136
    37.0134  37.4725  37.5348  37.8910  38.7415  39.0142  39.2303  39.5547
    40.3755  41.0378  41.1427  41.4620  41.7075  41.8280  41.9815  42.8512
    42.9786  44.2451  44.5873  46.1683  46.6869  48.1951  50.2947  51.1679
    51.9810  52.1367  53.3888  53.7843  54.1319  54.6902  54.7337  55.3240
    55.7736  56.1455  56.2733  56.6430  57.0098  57.0408  57.1613

          k = 0.4000 0.1667 0.4286 (  2652 PWs)   bands (ev):

   -54.7543 -54.7525 -30.5242 -30.3382 -30.2367 -30.0849 -30.0151 -29.8020
   -17.0500 -17.0486 -17.0397 -17.0318 -17.0015 -16.9900  -1.6098  -0.3901
    -0.1412   0.5171   0.5259   0.5594   0.8303   1.0006   1.0585   1.1197
     1.1933   1.4129   1.4885   1.5171   1.6596   1.6628   1.6997   2.7986
    27.5861  27.5983  27.6975  28.0454  28.1240  28.1796  28.2781  28.2926
    28.3957  28.6829  32.0815  32.3946  33.3429  33.7134  34.2791  34.6185
    35.4045  35.7502  35.9750  36.1987  36.5428  36.7346  36.8247  36.9345
    37.0866  37.2278  37.3025  37.8295  38.4321  39.2518  39.7677  40.0442
    40.1039  40.5923  40.9132  41.1496  41.2925  41.5237  41.5368  42.2932
    42.8099  43.2076  44.4123  44.5153  46.7692  48.7706  49.4149  50.4511
    52.0530  52.1307  52.9796  54.1307  54.7634  54.7910  55.3869  55.5345
    56.1912  56.4558  56.6360  56.9158  57.3482  57.4776  57.7872

          k = 0.4000 0.3333 0.0000 (  2652 PWs)   bands (ev):

   -54.7584 -54.7513 -30.5838 -30.4083 -30.2681 -30.0402 -29.9453 -29.7407
   -17.0555 -17.0535 -17.0435 -17.0363 -16.9991 -16.9917  -1.8991  -0.8171
    -0.3270   0.4069   0.5013   0.5886   0.9337   1.0067   1.1334   1.1702
     1.3189   1.4723   1.5404   1.6572   1.7017   1.7320   1.8279   3.1911
    27.5486  27.6667  27.6720  28.0537  28.1873  28.2122  28.3539  28.3802
    28.6619  28.8367  31.6275  32.0563  32.6449  33.5738  33.9034  34.3235
    35.1468  35.3819  35.8433  35.8690  36.1665  36.4260  36.6398  36.6802
    36.8208  37.1510  37.2438  37.4912  39.3580  39.3846  39.7111  39.7883
    40.0709  41.0468  41.1597  41.6042  41.8856  42.1022  42.4074  42.7035
    42.7645  43.0901  44.9626  45.3162  47.5867  49.4195  50.6093  51.1146
    51.7490  52.6928  53.3756  53.6792  53.8021  54.3728  54.5764  55.1592
    55.4751  55.5700  55.9436  56.1422  56.5391  56.8799  57.5725

          k = 0.4000 0.3333 0.1429 (  2654 PWs)   bands (ev):

   -54.7574 -54.7534 -30.5446 -30.4028 -30.2729 -30.0403 -29.9469 -29.7864
   -17.0525 -17.0489 -17.0438 -17.0351 -17.0004 -16.9959  -1.6882  -0.8129
    -0.3337   0.4565   0.5031   0.5947   0.8191   1.1170   1.1328   1.1837
     1.3293   1.4447   1.5390   1.6470   1.6569   1.7050   1.8262   2.9018
    27.6183  27.6537  27.7942  28.0360  28.1534  28.2225  28.2716  28.3201
    28.4712  28.7022  31.7136  32.2198  33.2026  33.8021  34.0955  34.4658
    35.1629  35.4127  35.7579  35.9259  35.9999  36.5182  36.7742  36.8893
    36.9453  37.2009  37.4844  37.6604  38.8351  39.1992  39.3787  39.8738
    40.2254  40.9908  41.0763  41.3924  41.6391  41.7721  42.1467  42.3591
    42.8863  43.7653  44.5469  45.4892  46.9648  48.6866  50.1301  50.8854
    52.0136  52.2320  53.3230  53.6965  54.5287  54.5753  54.7650  55.3124
    55.7080  56.2264  56.4928  56.6424  56.9966  57.0144  57.3969

          k = 0.4000 0.3333 0.2857 (  2651 PWs)   bands (ev):

   -54.7518 -54.7517 -30.4454 -30.3800 -30.2834 -30.0395 -29.9535 -29.9016
   -17.0491 -17.0386 -17.0336 -17.0220 -17.0063 -17.0019  -1.0737  -0.7990
    -0.3487   0.4659   0.5331   0.6664   0.7495   1.1452   1.1723   1.2407
     1.3215   1.4311   1.5317   1.5837   1.6208   1.6227   1.8245   2.1273
    27.7303  27.7658  27.9551  27.9643  28.0600  28.1055  28.1080  28.2087
    28.3058  28.4058  32.0411  32.6242  34.2069  34.3153  34.7426  34.8949
    35.1578  35.5113  35.7081  35.8205  35.9991  36.3008  36.7611  36.8121
    37.5712  37.7447  37.9260  38.1450  38.3855  38.6576  39.1008  39.3427
    40.5420  40.7568  40.9506  41.1356  41.2174  41.4634  41.6301  42.3596
    43.1130  43.1566  44.3260  45.2346  46.1140  47.1698  48.4739  49.9803
    51.7424  52.1429  53.6632  54.4046  55.0359  55.6232  55.8556  56.0059
    56.3078  56.4385  56.9998  57.3358  57.5933  57.6983  58.0479

          k = 0.4000 0.3333 0.4286 (  2646 PWs)   bands (ev):

   -54.7484 -54.7464 -30.3822 -30.3124 -30.2510 -30.0793 -30.0284 -29.9551
   -17.0403 -17.0322 -17.0278 -17.0157 -17.0086 -16.9994  -0.7935  -0.3622
    -0.1529   0.4578   0.4718   0.6971   0.8142   1.0015   1.1267   1.2178
     1.2809   1.3776   1.4797   1.5202   1.5604   1.5769   1.5879   1.8240
    27.7405  27.7894  27.9114  27.9395  28.0255  28.0522  28.0906  28.1238
    28.2052  28.3072  32.6010  32.9612  34.2768  34.3457  35.0234  35.0558
    35.3894  35.8066  35.9798  36.0918  36.1224  36.7314  36.8546  37.0581
    37.4943  37.5323  37.8947  38.2514  38.4388  39.0404  39.2151  39.2885
    40.3441  40.5934  40.7949  40.9617  41.2927  41.3018  41.5064  41.6350
    42.4711  43.1557  43.7155  44.9704  45.2500  46.6561  47.1977  48.4853
    51.9821  52.3421  54.0029  55.1628  55.5676  56.0236  56.2576  56.6874
    56.7900  57.1048  57.1420  57.7109  57.8822  58.0306  58.5727

          k = 0.4000-0.5000 0.0000 (  2650 PWs)   bands (ev):

   -54.7532 -54.7531 -30.5774 -30.3332 -30.1656 -30.1606 -30.0165 -29.7401
   -17.0571 -17.0564 -17.0436 -17.0361 -16.9902 -16.9830  -1.8901  -0.3786
     0.2191   0.4597   0.4690   0.6012   0.6758   0.9730   0.9877   1.0164
     1.1349   1.4346   1.4659   1.5134   1.7074   1.7138   1.7465   3.1820
    27.4956  27.5269  27.5292  28.0894  28.1202  28.1564  28.3961  28.4072
    28.6559  28.8651  32.0702  32.1664  32.5503  33.3150  34.3798  34.5279
    35.2505  35.8280  35.9507  36.0567  36.4802  36.5295  36.6146  36.7778
    37.1170  37.1353  37.1864  38.8730  39.0559  39.3030  39.3244  40.0157
    40.1927  40.2349  41.0990  41.3074  41.4982  41.5793  41.8273  42.5759
    42.6173  42.9518  43.8178  45.1783  47.2556  50.1631  50.2481  50.5954
    52.3143  52.3770  53.1622  53.3150  53.9340  54.5450  54.8680  55.2943
    55.5610  55.6085  56.1726  56.2949  57.3779  57.5781  57.9792

          k = 0.4000-0.5000 0.1429 (  2650 PWs)   bands (ev):

   -54.7525 -54.7514 -30.5361 -30.3287 -30.1662 -30.1614 -30.0199 -29.7860
   -17.0475 -17.0472 -17.0408 -17.0352 -16.9952 -16.9899  -1.6812  -0.3734
     0.2325   0.3875   0.5666   0.5846   0.6313   0.9339   1.0252   1.0764
     1.1807   1.4119   1.4756   1.5045   1.6714   1.6799   1.7211   2.9024
    27.5524  27.5591  27.6357  28.0858  28.0881  28.1759  28.3103  28.3282
    28.4483  28.7338  32.2178  32.2866  33.1200  33.5753  34.3390  34.5920
    35.3724  35.8893  35.9663  36.4230  36.5599  36.6158  36.8301  36.9117
    36.9242  37.1417  37.2914  38.4756  38.8355  38.9778  39.5578  39.9524
    40.0476  40.4040  40.9888  41.1369  41.3963  41.4496  41.5679  42.4524
    42.5205  43.3279  43.8699  44.7220  46.9109  49.0157  49.7262  50.3780
    52.1351  52.2526  52.9393  54.0242  54.3114  54.5443  55.3447  55.9049
    55.9489  56.5864  56.6700  56.9540  57.0769  57.6126  57.6194

          k = 0.4000-0.5000 0.2857 (  2640 PWs)   bands (ev):

   -54.7434 -54.7432 -30.4261 -30.3148 -30.1656 -30.1625 -30.0265 -29.9036
   -17.0371 -17.0369 -17.0234 -17.0212 -16.9981 -16.9954  -1.0703  -0.3584
     0.2788   0.3478   0.5013   0.5367   0.7643   0.9427   1.0830   1.1759
     1.2755   1.3722   1.4967   1.5000   1.5920   1.6066   1.6072   2.1277
    27.6848  27.7119  27.8260  28.0203  28.0289  28.1170  28.1444  28.1475
    28.2086  28.4148  32.6558  32.6790  34.0845  34.2945  34.6383  34.8729
    35.7033  35.8716  35.8787  36.1170  36.1985  36.7411  36.9901  37.0119
    37.4731  37.5299  37.7324  38.0457  38.7754  39.1021  39.4292  39.6450
    39.8873  39.9369  40.6896  41.1533  41.2215  41.2934  41.7140  42.1454
    42.2853  43.2259  44.0345  44.2490  45.7664  46.9246  48.1119  48.8515
    52.0323  52.1438  53.4994  55.3220  55.5229  55.9095  56.2351  56.3845
    56.4906  56.8021  57.0155  57.4251  57.9954  58.0252  58.4208

          k = 0.4000-0.5000 0.4286 (  2640 PWs)   bands (ev):

   -54.7418 -54.7418 -30.2994 -30.2671 -30.1678 -30.1670 -30.0698 -30.0370
   -17.0282 -17.0280 -17.0123 -17.0122 -17.0083 -17.0081  -0.3531  -0.1584
     0.3173   0.3294   0.4408   0.4461   0.7671   0.8853   1.1542   1.2067
     1.2937   1.3327   1.4498   1.4633   1.4945   1.4970   1.5210   1.5246
    27.8205  27.8337  27.9293  27.9374  27.9752  28.0096  28.0472  28.0537
    28.1286  28.1596  33.2714  33.2736  34.4229  34.4250  35.0348  35.1539
    35.2124  35.2453  36.2749  36.3228  36.7077  36.7463  36.9913  37.0659
    37.3994  37.7620  38.5079  38.6509  38.8248  38.9646  39.2149  39.2565
    40.0561  40.0723  40.7404  40.9078  40.9979  41.1189  41.2580  41.3718
    42.8002  42.8526  44.1782  44.5865  44.7953  45.3451  46.4643  46.6489
    52.5005  52.5027  54.7577  55.2138  56.1008  56.2373  56.7854  56.8546
    57.1665  57.1804  57.7971  57.8289  58.4362  58.4923  58.6559

     the Fermi energy is    50.5788 ev

!    total energy              =   -2027.08222592 Ry
     Harris-Foulkes estimate   =   -2027.08226913 Ry
     estimated scf accuracy    <       0.00005424 Ry

     The total energy is the sum of the following terms:

     one-electron contribution =     105.94044251 Ry
     hartree contribution      =     175.82409149 Ry
     xc contribution           =    -196.81466770 Ry
     ewald contribution        =   -2111.90848598 Ry
     smearing contrib. (-TS)   =      -0.12360623 Ry

     convergence has been achieved in   8 iterations

     Forces acting on atoms (Ry/au):

     atom    1 type  1   force =     0.00000000    0.00000000    0.00000000
     atom    2 type  1   force =     0.00000000    0.00000000    0.00000000
     atom    3 type  1   force =     0.00000000    0.00000000    0.00000000
     atom    4 type  1   force =     0.00000000    0.00000000    0.00000000
     atom    5 type  1   force =     0.00000000    0.00000000    0.00000000
     atom    6 type  1   force =     0.00000000    0.00000000    0.00000000
     atom    7 type  2   force =     0.00000000    0.00000000    0.00000000
     atom    8 type  2   force =     0.00000000    0.00000000    0.00000000

     Total force =     0.000000     Total SCF correction =     0.000000


     entering subroutine stress ...

          total   stress  (Ry/bohr**3)                   (kbar)     P= 5297.84
   0.03601402   0.00000000   0.00000000       5297.84      0.00      0.00
   0.00000000   0.03601402   0.00000000          0.00   5297.84      0.00
   0.00000000   0.00000000   0.03601402          0.00      0.00   5297.84


     BFGS Geometry Optimization

     number of scf cycles    =   1
     number of bfgs steps    =   0

     enthalpy new            =   -2027.0822259160 Ry

     new trust radius        =       0.5000000000 bohr
     new conv_thr            =       0.0001000000 Ry

     new unit-cell volume =    828.02266 a.u.^3 (   122.70030 Ang^3 )

CELL_PARAMETERS (alat=  8.53457320)
   1.100269143   0.000000000   0.000000000
   0.000000000   1.100269143   0.000000000
   0.000000000   0.000000000   1.100269143

ATOMIC_POSITIONS (crystal)
Cr       0.000000000   0.500000000   0.250000000
Cr       0.000000000   0.500000000   0.750000000
Cr       0.500000000   0.750000000   0.000000000
Cr       0.500000000   0.250000000   0.000000000
Cr       0.750000000   0.000000000   0.500000000
Cr       0.250000000   0.000000000   0.500000000
Si       0.500000000   0.500000000   0.500000000
Si       0.000000000   0.000000000   0.000000000



     Writing output data file Prototype-La-cP8-Cr3Si.save
     NEW-OLD atomic charge density approx. for the potential
     NEW k-points:
        k(    1) = (   0.0000000   0.0000000   0.0000000), wk =   0.0095238
        k(    2) = (   0.0000000   0.0000000   0.1298384), wk =   0.0190476
        k(    3) = (   0.0000000   0.0000000   0.2596767), wk =   0.0190476
        k(    4) = (   0.0000000   0.0000000   0.3895151), wk =   0.0190476
        k(    5) = (   0.0000000   0.1514781   0.0000000), wk =   0.0190476
        k(    6) = (   0.0000000   0.1514781   0.1298384), wk =   0.0380952
        k(    7) = (   0.0000000   0.1514781   0.2596767), wk =   0.0380952
        k(    8) = (   0.0000000   0.1514781   0.3895151), wk =   0.0380952
        k(    9) = (   0.0000000   0.3029562   0.0000000), wk =   0.0190476
        k(   10) = (   0.0000000   0.3029562   0.1298384), wk =   0.0380952
        k(   11) = (   0.0000000   0.3029562   0.2596767), wk =   0.0380952
        k(   12) = (   0.0000000   0.3029562   0.3895151), wk =   0.0380952
        k(   13) = (   0.0000000  -0.4544343   0.0000000), wk =   0.0095238
        k(   14) = (   0.0000000  -0.4544343   0.1298384), wk =   0.0190476
        k(   15) = (   0.0000000  -0.4544343   0.2596767), wk =   0.0190476
        k(   16) = (   0.0000000  -0.4544343   0.3895151), wk =   0.0190476
        k(   17) = (   0.1817737   0.0000000   0.0000000), wk =   0.0190476
        k(   18) = (   0.1817737   0.0000000   0.1298384), wk =   0.0380952
        k(   19) = (   0.1817737   0.0000000   0.2596767), wk =   0.0380952
        k(   20) = (   0.1817737   0.0000000   0.3895151), wk =   0.0380952
        k(   21) = (   0.1817737   0.1514781   0.0000000), wk =   0.0380952
        k(   22) = (   0.1817737   0.1514781   0.1298384), wk =   0.0761905
        k(   23) = (   0.1817737   0.1514781   0.2596767), wk =   0.0761905
        k(   24) = (   0.1817737   0.1514781   0.3895151), wk =   0.0761905
        k(   25) = (   0.1817737   0.3029562   0.0000000), wk =   0.0380952
        k(   26) = (   0.1817737   0.3029562   0.1298384), wk =   0.0761905
        k(   27) = (   0.1817737   0.3029562   0.2596767), wk =   0.0761905
        k(   28) = (   0.1817737   0.3029562   0.3895151), wk =   0.0761905
        k(   29) = (   0.1817737  -0.4544343   0.0000000), wk =   0.0190476
        k(   30) = (   0.1817737  -0.4544343   0.1298384), wk =   0.0380952
        k(   31) = (   0.1817737  -0.4544343   0.2596767), wk =   0.0380952
        k(   32) = (   0.1817737  -0.4544343   0.3895151), wk =   0.0380952
        k(   33) = (   0.3635474   0.0000000   0.0000000), wk =   0.0190476
        k(   34) = (   0.3635474   0.0000000   0.1298384), wk =   0.0380952
        k(   35) = (   0.3635474   0.0000000   0.2596767), wk =   0.0380952
        k(   36) = (   0.3635474   0.0000000   0.3895151), wk =   0.0380952
        k(   37) = (   0.3635474   0.1514781   0.0000000), wk =   0.0380952
        k(   38) = (   0.3635474   0.1514781   0.1298384), wk =   0.0761905
        k(   39) = (   0.3635474   0.1514781   0.2596767), wk =   0.0761905
        k(   40) = (   0.3635474   0.1514781   0.3895151), wk =   0.0761905
        k(   41) = (   0.3635474   0.3029562   0.0000000), wk =   0.0380952
        k(   42) = (   0.3635474   0.3029562   0.1298384), wk =   0.0761905
        k(   43) = (   0.3635474   0.3029562   0.2596767), wk =   0.0761905
        k(   44) = (   0.3635474   0.3029562   0.3895151), wk =   0.0761905
        k(   45) = (   0.3635474  -0.4544343   0.0000000), wk =   0.0190476
        k(   46) = (   0.3635474  -0.4544343   0.1298384), wk =   0.0380952
        k(   47) = (   0.3635474  -0.4544343   0.2596767), wk =   0.0380952
        k(   48) = (   0.3635474  -0.4544343   0.3895151), wk =   0.0380952

     total cpu time spent up to now is      273.7 secs

     Self-consistent Calculation

     iteration #  1     ecut=    40.00 Ry     beta=0.70
     CG style diagonalization
     c_bands:  2 eigenvalues not converged
     c_bands:  1 eigenvalues not converged
     c_bands:  1 eigenvalues not converged
     c_bands:  1 eigenvalues not converged
     c_bands:  1 eigenvalues not converged
     c_bands:  2 eigenvalues not converged
     c_bands:  2 eigenvalues not converged
     c_bands:  1 eigenvalues not converged
     c_bands:  1 eigenvalues not converged
     c_bands:  1 eigenvalues not converged
     c_bands:  1 eigenvalues not converged
     c_bands:  2 eigenvalues not converged
     c_bands:  1 eigenvalues not converged
     c_bands:  1 eigenvalues not converged
     c_bands:  2 eigenvalues not converged
     c_bands:  1 eigenvalues not converged
     c_bands:  2 eigenvalues not converged
     c_bands:  2 eigenvalues not converged
     c_bands:  2 eigenvalues not converged
     c_bands:  1 eigenvalues not converged
     c_bands:  1 eigenvalues not converged
     c_bands:  2 eigenvalues not converged
     c_bands:  1 eigenvalues not converged
     c_bands:  2 eigenvalues not converged
     c_bands:  1 eigenvalues not converged
     c_bands:  2 eigenvalues not converged
     c_bands:  1 eigenvalues not converged
     c_bands:  1 eigenvalues not converged
     ethr =  1.00E-06,  avg # of iterations = 22.5

     total cpu time spent up to now is      379.1 secs

     total energy              =   -2017.86682794 Ry
     Harris-Foulkes estimate   =   -2047.67389243 Ry
     estimated scf accuracy    <      38.19708480 Ry

     iteration #  2     ecut=    40.00 Ry     beta=0.70
     CG style diagonalization
     ethr =  1.00E-02,  avg # of iterations =  4.0

     total cpu time spent up to now is      397.4 secs

     total energy              =   -2029.17357434 Ry
     Harris-Foulkes estimate   =   -2032.51408477 Ry
     estimated scf accuracy    <       5.08855600 Ry

     iteration #  3     ecut=    40.00 Ry     beta=0.70
     CG style diagonalization
     ethr =  3.22E-03,  avg # of iterations =  3.7

     total cpu time spent up to now is      415.0 secs

     total energy              =   -2030.36977414 Ry
     Harris-Foulkes estimate   =   -2030.42065323 Ry
     estimated scf accuracy    <       0.07626466 Ry

     iteration #  4     ecut=    40.00 Ry     beta=0.70
     CG style diagonalization
     c_bands:  1 eigenvalues not converged
     ethr =  4.83E-05,  avg # of iterations =  4.2

     total cpu time spent up to now is      435.0 secs

     total energy              =   -2030.40406424 Ry
     Harris-Foulkes estimate   =   -2030.40589487 Ry
     estimated scf accuracy    <       0.00297796 Ry

     iteration #  5     ecut=    40.00 Ry     beta=0.70
     CG style diagonalization
     c_bands:  1 eigenvalues not converged
     c_bands:  1 eigenvalues not converged
     c_bands:  1 eigenvalues not converged
     c_bands:  1 eigenvalues not converged
     c_bands:  1 eigenvalues not converged
     c_bands:  1 eigenvalues not converged
     c_bands:  1 eigenvalues not converged
     ethr =  1.88E-06,  avg # of iterations =  4.2

     total cpu time spent up to now is      454.8 secs

     End of self-consistent calculation

          k = 0.0000 0.0000 0.0000 (  2601 PWs)   bands (ev):

   -66.0993 -65.9927 -41.4605 -41.4605 -41.3882 -41.0645 -41.0645 -41.0645
   -28.6846 -28.6846 -28.6846 -28.6611 -28.6611 -28.6611 -11.0186 -11.0186
   -10.8745  -9.9559  -9.9559  -9.9559  -9.4934  -9.4934  -9.4934  -9.4194
    -9.4194  -9.4194  -9.3069  -9.3069  -9.3069  -8.6774  -8.6774  -8.6774
    17.1892  17.1892  17.4385  17.4385  17.4838  17.4838  17.4838  17.6460
    17.6460  17.6460  20.9285  22.5296  23.2634  23.3091  23.3091  23.3091
    23.5105  23.5105  24.5038  24.5038  24.5038  25.0706  26.8767  26.8767
    26.8767  27.0313  27.0313  27.8198  27.8198  27.8198  28.5439  28.5439
    28.5439  29.9307  29.9307  30.5294  30.5294  30.5294  30.6677  30.6677
    30.6677  34.3172  34.3172  34.3172  34.8466  34.8466  35.0277  35.9780
    39.3358  39.3358  39.3358  41.1815  41.1815  41.4833  41.4833  41.4833
    41.6145  41.6145  41.6145  42.0691  42.0868  42.0868  42.0868

          k = 0.0000 0.0000 0.1298 (  2657 PWs)   bands (ev):

   -66.1829 -66.1109 -41.4721 -41.4373 -41.4077 -41.1679 -41.1448 -41.1448
   -28.7140 -28.7140 -28.7067 -28.6887 -28.6887 -28.6868 -11.0768 -11.0488
   -10.8836  -9.9592  -9.9592  -9.9361  -9.5536  -9.5536  -9.4874  -9.4788
    -9.4572  -9.4572  -9.3889  -9.3889  -9.3822  -8.8068  -8.7032  -8.7032
    17.1779  17.2185  17.4090  17.4208  17.4512  17.4512  17.4786  17.6196
    17.6196  17.6302  21.0941  22.2738  23.2717  23.4162  23.4162  23.4736
    23.7671  23.9087  24.3631  24.6165  24.6165  25.1912  26.5914  26.5914
    26.8478  26.8518  27.0596  27.5730  27.9795  27.9795  28.5952  28.5952
    28.6573  29.7039  29.7518  30.4790  30.4790  30.5667  30.5667  30.6658
    30.8049  32.6615  34.2420  34.2420  34.5574  34.8480  36.1312  36.6811
    38.9044  38.9179  38.9179  39.4572  41.4425  41.4425  41.5169  41.7494
    41.8163  41.8162  41.9996  41.9996  42.2098  42.5168  42.5218

          k = 0.0000 0.0000 0.2597 (  2677 PWs)   bands (ev):

   -66.2028 -66.1636 -41.4767 -41.4559 -41.4101 -41.2081 -41.1591 -41.1591
   -28.7184 -28.7184 -28.7161 -28.7097 -28.6973 -28.6973 -11.0711 -11.0291
   -10.6283  -9.9454  -9.9454  -9.8783  -9.5908  -9.5908  -9.5881  -9.4753
    -9.4510  -9.4510  -9.4175  -9.4175  -9.4076  -9.2246  -8.7208  -8.7208
    17.1632  17.2706  17.3590  17.3814  17.3814  17.4057  17.4920  17.5912
    17.5912  17.5966  21.5308  22.0682  23.1635  23.4061  23.6810  23.6810
    24.0246  24.8690  24.8888  24.8888  24.9948  25.5242  26.1231  26.2597
    26.2597  26.7264  27.0593  27.2767  27.7537  27.7537  28.7088  28.7190
    28.7190  29.3423  29.4466  30.3615  30.3615  30.7677  30.7677  30.7934
    30.8662  30.9744  33.8968  33.8968  33.9410  34.5076  36.8200  37.9261
    38.1505  38.1505  38.5160  38.7879  41.4048  41.4048  42.0327  42.1687
    42.2177  42.2177  42.4683  42.4684  42.5532  43.1498  43.4991

          k = 0.0000 0.0000 0.3895 (  2658 PWs)   bands (ev):

   -66.1508 -66.1474 -41.4587 -41.4373 -41.3315 -41.2614 -41.1475 -41.1475
   -28.7052 -28.7052 -28.7001 -28.7001 -28.6975 -28.6880 -11.0585 -11.0394
   -10.1798  -9.9383  -9.9383  -9.7500  -9.6747  -9.6638  -9.5894  -9.5894
    -9.4475  -9.4264  -9.4264  -9.4202  -9.3934  -9.3934  -8.7096  -8.7096
    17.1831  17.2344  17.3156  17.3156  17.3765  17.4023  17.5205  17.5554
    17.5871  17.5871  21.9448  22.0218  23.1688  23.3082  23.9255  23.9255
    24.1560  24.8943  25.1262  25.1262  25.9848  26.1721  26.1721  26.3125
    26.3404  26.4322  26.9636  27.1365  27.2584  27.2584  28.3119  28.7473
    28.7473  28.9156  29.1468  29.2058  30.2042  30.2042  31.0005  31.0412
    31.4288  31.4288  33.3546  33.3546  33.7142  34.0256  37.3396  37.4757
    37.6128  37.6128  39.1463  40.0632  41.3888  41.3888  41.6922  41.9062
    42.3833  42.3833  42.6876  42.8450  42.8450  42.8590  43.8661

          k = 0.0000 0.1515 0.0000 (  2653 PWs)   bands (ev):

   -66.1704 -66.1108 -41.4609 -41.4325 -41.4007 -41.1735 -41.1455 -41.1455
   -28.7112 -28.7112 -28.7005 -28.6888 -28.6888 -28.6867 -11.0754 -11.0384
   -10.8594  -9.9498  -9.9498  -9.9103  -9.5595  -9.5595  -9.4872  -9.4855
    -9.4494  -9.4494  -9.3917  -9.3917  -9.3850  -8.8426  -8.6992  -8.6992
    17.1759  17.2278  17.4012  17.4185  17.4442  17.4442  17.4802  17.6140
    17.6140  17.6259  21.1532  22.2272  23.2594  23.4526  23.4526  23.4657
    23.8644  24.0723  24.3399  24.6551  24.6551  25.2336  26.5259  26.5259
    26.7743  26.8363  27.0647  27.5109  27.9839  27.9839  28.6191  28.6191
    28.6855  29.6420  29.7023  30.4777  30.4777  30.5435  30.5435  30.7009
    30.8379  32.3552  34.2079  34.2079  34.4618  34.8116  36.2216  37.0121
    38.7960  38.7960  38.8103  39.1833  41.4398  41.4395  41.6137  41.8025
    41.9040  41.9038  42.0244  42.0242  42.2569  42.6460  42.5923

          k = 0.0000 0.1515 0.1298 (  2662 PWs)   bands (ev):

   -66.1981 -66.1173 -41.4536 -41.4328 -41.4289 -41.1699 -41.1682 -41.1497
   -28.7196 -28.7160 -28.7077 -28.7049 -28.6860 -28.6788 -11.0679 -10.9740
   -10.8445  -9.9395  -9.9345  -9.9152  -9.5889  -9.5824  -9.4948  -9.4814
    -9.4753  -9.4258  -9.4195  -9.4043  -9.3650  -8.8818  -8.8281  -8.7035
    17.1900  17.2360  17.3853  17.4012  17.4309  17.4346  17.4687  17.5795
    17.5951  17.6155  21.3143  22.1354  23.2915  23.5664  23.6635  23.7397
    23.8431  24.3491  24.3961  24.5623  24.7744  25.3452  26.1669  26.3540
    26.8452  26.8810  27.1246  27.3975  27.9786  28.0634  28.5395  28.6416
    28.7184  29.4655  29.6366  30.3422  30.3521  30.4270  30.5304  30.7186
    30.9371  32.2978  32.6498  34.2761  34.5188  35.4408  36.5602  36.8033
    38.4658  38.6108  38.6602  39.7693  40.4724  41.3891  41.5893  41.6030
    41.7234  41.8554  42.2899  42.3592  42.5188  42.6530  43.2269

          k = 0.0000 0.1515 0.2597 (  2666 PWs)   bands (ev):

   -66.1796 -66.1514 -41.4579 -41.4391 -41.3877 -41.2116 -41.1754 -41.1537
   -28.7143 -28.7123 -28.7095 -28.7030 -28.6981 -28.6859 -11.0650 -10.9128
   -10.6315  -9.9203  -9.9138  -9.8700  -9.6368  -9.6065  -9.5199  -9.4951
    -9.4589  -9.4275  -9.4227  -9.4157  -9.3705  -9.1860  -8.8818  -8.7066
    17.1837  17.2752  17.3402  17.3597  17.3820  17.3978  17.4743  17.5352
    17.5705  17.5918  21.7310  22.0627  23.2222  23.7547  23.8540  23.9796
    24.1936  24.5980  24.9489  25.0607  25.1918  25.6473  25.6558  26.1308
    26.6443  26.7865  26.8794  27.2995  27.7615  27.9082  28.4590  28.5480
    28.8851  29.1318  29.5789  30.0962  30.1927  30.4309  30.4325  30.7825
    30.8190  31.2423  32.2009  34.1217  34.2770  34.4173  37.1667  37.3766
    37.7893  38.3803  38.8670  39.8157  40.3351  41.1437  41.5518  41.7678
    42.0537  42.2290  42.5494  42.8600  42.8956  43.2742  43.7411

          k = 0.0000 0.1515 0.3895 (  2658 PWs)   bands (ev):

   -66.1605 -66.1403 -41.4402 -41.4334 -41.3288 -41.2574 -41.1669 -41.1628
   -28.7097 -28.7080 -28.7042 -28.6989 -28.6951 -28.6812 -11.0695 -10.9124
   -10.1812  -9.9042  -9.8959  -9.7620  -9.6784  -9.6643  -9.6117  -9.5506
    -9.5099  -9.4481  -9.4279  -9.4109  -9.4021  -9.3819  -8.8824  -8.6900
    17.1882  17.2329  17.2910  17.3352  17.3646  17.3877  17.4878  17.5252
    17.5502  17.5841  22.0837  22.1050  23.2054  23.7246  24.1278  24.1577
    24.2447  24.8604  25.0568  25.2947  25.9918  26.0051  26.1847  26.3957
    26.4551  26.5621  26.6055  27.1922  27.2060  27.7287  28.2347  28.3749
    28.7542  28.8905  28.9765  29.5641  29.9990  30.1623  30.3827  30.8670
    30.9983  31.5676  32.0436  33.1780  33.9229  34.1199  37.1237  37.2794
    38.3790  38.5402  38.7044  39.6639  41.1497  41.1958  41.4771  41.6775
    42.0832  42.3894  42.6167  43.0382  43.4148  43.5044  43.6800

          k = 0.0000 0.3030 0.0000 (  2677 PWs)   bands (ev):

   -66.2028 -66.1624 -41.4776 -41.4705 -41.3745 -41.2513 -41.1470 -41.1470
   -28.7177 -28.7177 -28.7111 -28.7046 -28.7046 -28.6990 -11.0684 -11.0216
   -10.5262  -9.9479  -9.9479  -9.8467  -9.6363  -9.5967  -9.5967  -9.4662
    -9.4446  -9.4446  -9.4163  -9.4163  -9.4009  -9.3235  -8.7350  -8.7350
    17.1672  17.2693  17.3538  17.3538  17.3550  17.4058  17.4996  17.5818
    17.5878  17.5878  21.6995  22.0395  23.1372  23.3765  23.7771  23.7771
    24.0179  24.9837  24.9837  25.2973  25.3179  25.6694  25.8754  26.2004
    26.2004  26.6500  27.0418  27.2237  27.5846  27.5846  28.6194  28.7337
    28.7337  29.2499  29.3530  30.1476  30.2991  30.2991  30.9204  30.9836
    30.9836  31.0091  33.7190  33.7190  33.7964  34.3505  37.0687  37.7195
    37.9237  37.9237  38.5647  39.3107  41.3933  41.3934  42.0924  42.3197
    42.3197  42.3458  42.6180  42.6181  42.6735  42.8184  43.3451

          k = 0.0000 0.3030 0.1298 (  2660 PWs)   bands (ev):

   -66.1623 -66.1464 -41.4444 -41.4321 -41.3693 -41.2244 -41.1710 -41.1565
   -28.7133 -28.7065 -28.7027 -28.7010 -28.6983 -28.6826 -11.0673 -10.9549
   -10.4964  -9.9175  -9.9122  -9.8239  -9.6445  -9.6042  -9.5359  -9.4914
    -9.4536  -9.4302  -9.4216  -9.4039  -9.3767  -9.3128  -8.8310  -8.6942
    17.1812  17.2714  17.3390  17.3412  17.3659  17.3959  17.4848  17.5431
    17.5665  17.5878  21.8363  22.0601  23.2012  23.6274  23.9129  23.9875
    24.1394  24.8232  25.1143  25.3146  25.3346  25.6706  25.7483  26.1209
    26.5068  26.7157  26.8254  27.2093  27.5794  27.8156  28.4864  28.4883
    28.8871  29.0923  29.5247  29.9252  30.2673  30.3072  30.4207  30.7078
    30.8525  31.3191  32.4114  33.9132  34.1141  34.2330  37.2176  37.5787
    37.6636  38.4244  38.7057  39.7925  40.5567  41.2820  41.5075  41.8311
    42.2878  42.3409  42.5572  42.8972  43.0363  43.3308  43.4330

          k = 0.0000 0.3030 0.2597 (  2658 PWs)   bands (ev):

   -66.1697 -66.1347 -41.4307 -41.4027 -41.3604 -41.2248 -41.2072 -41.1688
   -28.7101 -28.7090 -28.7022 -28.6995 -28.6936 -28.6826 -11.0695 -10.6559
   -10.4966  -9.8842  -9.8614  -9.8209  -9.6665  -9.6437  -9.5431  -9.4917
    -9.4643  -9.4431  -9.4222  -9.4012  -9.3696  -9.3288  -9.1527  -8.6946
    17.1863  17.2576  17.2806  17.3396  17.3603  17.3958  17.4486  17.4545
    17.5650  17.5783  22.1485  22.1550  23.1918  24.1977  24.2771  24.3609
    24.5538  24.8328  25.2007  25.3628  25.4414  25.7780  25.8327  26.1402
    26.2101  26.6442  26.7962  27.3348  27.8244  27.9576  28.1643  28.3550
    28.7006  29.0254  29.6339  29.6586  29.8823  29.9551  30.1946  30.4011
    30.6220  30.6960  31.5511  32.8387  34.0519  34.8506  37.0867  37.1640
    37.5156  38.6748  39.5740  40.0045  40.3798  40.9159  41.7098  41.9464
    41.9952  42.2522  43.0481  43.1332  43.3633  43.6812  44.0352

          k = 0.0000 0.3030 0.3895 (  2654 PWs)   bands (ev):

   -66.1480 -66.1395 -41.4302 -41.3748 -41.3334 -41.2562 -41.2213 -41.1589
[...]
    35.5120  35.5398  36.2038  36.2707  36.8664  37.0210  37.4414

          k = 0.1715-0.4288 0.3675 (  4222 PWs)   bands (ev):

   -72.8313 -72.8311 -47.2398 -47.2003 -47.1832 -47.1832 -47.1654 -47.1251
   -34.7931 -34.7929 -34.7912 -34.7909 -34.7875 -34.7874 -16.3189 -15.9229
   -15.7805 -15.7642 -15.6768 -15.6648 -15.6643 -15.6007 -15.5959 -15.5605
   -15.5570 -15.5057 -15.4907 -15.4863 -15.4378 -15.4350 -15.4337 -15.1745
    11.8466  11.8472  11.8574  11.8975  11.8978  11.9253  11.9313  11.9566
    11.9755  11.9915  17.8082  17.8095  19.1141  19.5231  20.0927  20.2927
    20.3135  20.4271  20.4472  20.7512  20.8362  20.8944  20.9938  21.1114
    21.4272  21.4560  21.6144  21.7713  21.9639  21.9665  22.5074  22.5544
    22.5590  22.8195  22.8865  23.3426  23.3513  23.4281  23.5818  24.0315
    24.1494  24.5356  24.5660  24.8293  26.6192  27.4067  27.8467  28.4028
    31.7145  31.7297  32.8904  34.0306  34.4946  34.9117  35.3572  35.6203
    36.1269  36.1327  36.1947  36.3089  36.6760  36.9233  37.2307

          k = 0.3430 0.0000 0.0000 (  4192 PWs)   bands (ev):

   -72.8279 -72.8070 -47.2525 -47.2482 -47.2018 -47.1546 -47.1078 -47.1078
   -34.7965 -34.7958 -34.7843 -34.7843 -34.7661 -34.7661 -16.4395 -16.4264
   -15.9718 -15.7192 -15.7192 -15.6607 -15.6067 -15.5375 -15.5362 -15.5362
   -15.4599 -15.4488 -15.4488 -15.4409 -15.4374 -15.4374 -15.0131 -15.0131
    11.8275  11.8590  11.9026  11.9157  11.9157  11.9230  11.9941  12.0229
    12.0295  12.0295  17.0297  17.3518  18.5348  18.6611  19.3838  19.3838
    19.4604  20.0748  20.2038  20.2038  20.7468  20.9487  20.9811  21.0588
    21.0588  21.3683  21.7605  21.7992  21.9995  21.9995  22.6845  23.0663
    23.0663  23.3236  23.4041  23.4629  24.1954  24.1954  24.6852  24.7214
    25.0025  25.0025  26.9201  26.9426  26.9426  27.0797  29.7082  30.1146
    30.4655  30.4655  31.8812  32.6970  34.0775  34.0775  34.3163  35.0487
    35.0487  35.0640  35.0861  35.5749  36.2856  36.2869  36.4797

          k = 0.3430 0.0000 0.1225 (  4204 PWs)   bands (ev):

   -72.8242 -72.8227 -47.2515 -47.2463 -47.2012 -47.1595 -47.1138 -47.1103
   -34.7987 -34.7948 -34.7842 -34.7822 -34.7811 -34.7733 -16.4328 -16.3678
   -15.9720 -15.7231 -15.7182 -15.6643 -15.6067 -15.5479 -15.5406 -15.5182
   -15.4856 -15.4630 -15.4561 -15.4382 -15.4356 -15.4265 -15.1085 -15.0198
    11.8314  11.8594  11.8994  11.9062  11.9176  11.9209  11.9893  12.0092
    12.0143  12.0318  17.1329  17.3931  18.5733  18.8683  19.4789  19.4967
    19.5430  20.0659  20.1142  20.2974  20.6838  20.9198  20.9376  21.0813
    21.3011  21.4341  21.4475  21.8388  21.9734  22.2611  22.6467  22.8535
    23.1225  23.2761  23.2813  23.6277  24.0853  24.1764  24.3248  24.6308
    24.7557  25.1223  25.8402  26.7442  27.0900  27.3616  29.7388  30.2505
    30.5964  31.2484  31.4384  32.5161  33.5028  33.8683  34.1314  34.5226
    35.3549  35.4640  35.4970  36.2829  36.3135  36.4079  36.6604

          k = 0.3430 0.0000 0.2450 (  4200 PWs)   bands (ev):

   -72.8249 -72.8176 -47.2508 -47.2269 -47.2006 -47.1592 -47.1334 -47.1088
   -34.8026 -34.7879 -34.7829 -34.7816 -34.7768 -34.7759 -16.4288 -16.1848
   -15.9774 -15.6979 -15.6969 -15.6677 -15.5940 -15.5672 -15.5497 -15.5243
   -15.5025 -15.4730 -15.4599 -15.4400 -15.4220 -15.4088 -15.3093 -15.0209
    11.8343  11.8546  11.8777  11.8987  11.9108  11.9301  11.9668  11.9753
    12.0092  12.0343  17.3759  17.5072  18.5680  19.4167  19.6677  19.7729
    19.8101  20.0496  20.1661  20.5369  20.6120  20.8255  20.8340  21.0759
    21.2329  21.4868  21.5769  21.8031  22.2453  22.4476  22.5630  22.6172
    22.9570  23.1356  23.2635  23.6874  23.8348  23.8886  24.0381  24.2688
    24.4222  24.4647  25.2349  25.6958  27.2316  28.1815  29.7447  29.7825
    30.3848  31.3236  32.1469  32.8528  32.9553  33.9764  34.0365  34.8141
    35.5340  35.6768  35.8715  36.1900  36.6824  37.0028  37.3639

          k = 0.3430 0.0000 0.3675 (  4217 PWs)   bands (ev):

   -72.8347 -72.8239 -47.2550 -47.2072 -47.1963 -47.1665 -47.1593 -47.1090
   -34.8010 -34.7933 -34.7916 -34.7878 -34.7830 -34.7796 -16.4319 -15.9877
   -15.9208 -15.6802 -15.6748 -15.6719 -15.6095 -15.5949 -15.5884 -15.5637
   -15.5615 -15.4964 -15.4865 -15.4822 -15.4214 -15.4178 -15.4107 -15.0309
    11.8326  11.8401  11.8493  11.9052  11.9082  11.9343  11.9415  11.9670
    12.0075  12.0365  17.5965  17.6225  18.5578  19.3205  19.9626  20.0613
    20.1971  20.2661  20.3738  20.6631  20.6771  20.7771  20.8722  21.2487
    21.3141  21.5463  21.5474  21.6340  22.3711  22.5431  22.5753  22.6482
    22.6578  22.9181  23.0721  23.3311  23.4305  23.5414  23.6182  24.0398
    24.2602  24.3335  24.7792  25.3173  27.3740  28.8654  29.4126  29.7569
    30.0760  30.5306  32.0885  33.2052  34.0331  34.2480  34.7823  35.0860
    35.6916  35.7839  35.9703  36.0113  36.3212  36.7876  37.0489

          k = 0.3430 0.1429 0.0000 (  4208 PWs)   bands (ev):

   -72.8284 -72.8222 -47.2512 -47.2446 -47.2025 -47.1594 -47.1169 -47.1113
   -34.8012 -34.7928 -34.7889 -34.7817 -34.7804 -34.7763 -16.4302 -16.3480
   -15.9734 -15.7183 -15.7158 -15.6646 -15.6058 -15.5503 -15.5439 -15.5158
   -15.4896 -15.4672 -15.4628 -15.4419 -15.4351 -15.4267 -15.1364 -15.0222
    11.8323  11.8593  11.8987  11.9026  11.9165  11.9221  11.9872  12.0026
    12.0128  12.0321  17.1664  17.4079  18.5741  18.9532  19.5097  19.5368
    19.5706  20.0546  20.0995  20.3297  20.6679  20.9062  20.9516  21.0984
    21.2743  21.4183  21.4695  21.8789  21.9596  22.3014  22.6382  22.8026
    23.1350  23.2340  23.2639  23.6706  24.0495  24.1255  24.2801  24.6073
    24.6664  25.1423  25.6058  26.5986  27.1042  27.4869  29.7236  30.1812
    30.7917  31.2020  31.5328  32.4334  33.5161  33.7118  34.0895  34.5568
    35.4338  35.5036  35.5286  36.2935  36.3912  36.5662  36.7251

          k = 0.3430 0.1429 0.1225 (  4209 PWs)   bands (ev):

   -72.8278 -72.8236 -47.2469 -47.2402 -47.2016 -47.1600 -47.1200 -47.1178
   -34.7990 -34.7936 -34.7869 -34.7842 -34.7803 -34.7789 -16.3770 -16.3448
   -15.9732 -15.7122 -15.7088 -15.6598 -15.6133 -15.5579 -15.5354 -15.5265
   -15.4961 -15.4865 -15.4402 -15.4372 -15.4351 -15.4311 -15.1280 -15.0998
    11.8380  11.8610  11.8945  11.9086  11.9113  11.9142  11.9851  11.9936
    12.0069  12.0129  17.2629  17.4572  18.8153  18.9786  19.5815  19.6424
    19.6734  20.0612  20.1422  20.2752  20.6330  20.8980  20.9884  21.0768
    21.3080  21.5201  21.5490  21.6625  22.0901  22.3345  22.5521  22.7252
    22.9680  23.2047  23.4753  23.5594  23.9792  24.0607  24.1195  24.2500
    24.8085  24.9201  25.8886  26.1785  26.8036  27.0484  29.9103  30.1103
    31.0134  31.3817  31.5786  31.9762  33.7069  34.1473  34.2268  34.4677
    35.3330  35.6700  36.0460  36.1380  36.2943  36.6374  37.3221

          k = 0.3430 0.1429 0.2450 (  4223 PWs)   bands (ev):

   -72.8351 -72.8295 -47.2448 -47.2279 -47.2049 -47.1607 -47.1385 -47.1211
   -34.8020 -34.7955 -34.7922 -34.7901 -34.7844 -34.7820 -16.3506 -16.1930
   -15.9779 -15.6991 -15.6928 -15.6646 -15.6257 -15.5604 -15.5508 -15.5341
   -15.5121 -15.4841 -15.4627 -15.4422 -15.4384 -15.4235 -15.3088 -15.1336
    11.8445  11.8599  11.8869  11.8925  11.9025  11.9224  11.9607  11.9718
    11.9902  12.0049  17.4976  17.5854  18.9390  19.5232  19.7524  19.8875
    19.9323  20.0513  20.2058  20.4371  20.5391  20.8296  20.9278  21.0896
    21.2612  21.5580  21.6570  21.8042  22.1288  22.3599  22.3852  22.5106
    22.9289  23.1239  23.3548  23.5707  23.7187  23.8082  23.8519  24.1257
    24.2752  24.9047  24.9619  25.9310  26.2605  27.3799  28.8153  29.8407
    31.1808  31.4327  32.1598  32.9748  33.9529  34.2164  34.3936  34.9566
    35.5245  35.8216  36.1722  36.3783  36.7514  36.9746  37.3540

          k = 0.3430 0.1429 0.3675 (  4221 PWs)   bands (ev):

   -72.8313 -72.8307 -47.2441 -47.2071 -47.1983 -47.1669 -47.1591 -47.1208
   -34.7964 -34.7930 -34.7910 -34.7896 -34.7862 -34.7855 -16.3543 -15.9805
   -15.9164 -15.6817 -15.6780 -15.6686 -15.6230 -15.5978 -15.5731 -15.5572
   -15.5482 -15.4948 -15.4843 -15.4760 -15.4368 -15.4304 -15.4236 -15.1333
    11.8431  11.8483  11.8610  11.8977  11.9008  11.9288  11.9360  11.9618
    11.9853  12.0039  17.7078  17.7192  18.9445  19.5058  20.0337  20.1455
    20.2339  20.3271  20.3847  20.6279  20.7783  20.7854  20.9186  21.1656
    21.2654  21.5174  21.6126  21.7138  22.0069  22.3282  22.4884  22.5673
    22.8199  22.8613  23.0826  23.3337  23.3923  23.5686  23.6055  23.9226
    24.2678  24.4200  24.9584  24.9723  26.6416  27.7891  28.1115  29.0844
    31.3069  31.4530  32.5964  33.9878  34.0979  34.3759  35.1263  35.3199
    35.8348  35.9526  36.0072  36.4993  36.7081  37.0180  37.2445

          k = 0.3430 0.2859 0.0000 (  4219 PWs)   bands (ev):

   -72.8356 -72.8253 -47.2540 -47.2204 -47.2031 -47.1613 -47.1456 -47.1107
   -34.8038 -34.7929 -34.7919 -34.7893 -34.7835 -34.7790 -16.4352 -16.1127
   -15.9792 -15.6915 -15.6900 -15.6725 -15.5951 -15.5860 -15.5587 -15.5411
   -15.5134 -15.4885 -15.4722 -15.4337 -15.4239 -15.4120 -15.3994 -15.0264
    11.8337  11.8501  11.8665  11.9006  11.9094  11.9330  11.9545  11.9715
    12.0085  12.0350  17.4613  17.5503  18.5639  19.4265  19.7787  19.8774
    19.9429  20.2015  20.2543  20.5682  20.6274  20.7140  20.7962  21.0920
    21.2962  21.4992  21.6090  21.6965  22.4074  22.4833  22.5074  22.6134
    22.8425  23.1245  23.2794  23.5678  23.6963  23.7487  23.9476  24.0032
    24.2729  24.4075  25.2677  25.3416  27.2843  28.4491  29.6285  29.7753
    30.1750  31.0375  32.5451  32.5607  33.4393  34.0318  34.2404  34.9084
    35.5464  35.7174  36.0336  36.1158  36.6357  36.9284  37.2935

          k = 0.3430 0.2859 0.1225 (  4226 PWs)   bands (ev):

   -72.8344 -72.8330 -47.2482 -47.2201 -47.2047 -47.1617 -47.1472 -47.1184
   -34.8046 -34.7966 -34.7895 -34.7893 -34.7882 -34.7831 -16.3728 -16.1115
   -15.9799 -15.6937 -15.6866 -15.6698 -15.6207 -15.5627 -15.5551 -15.5449
   -15.5121 -15.4906 -15.4756 -15.4418 -15.4334 -15.4202 -15.3945 -15.1082
    11.8418  11.8550  11.8747  11.8949  11.9033  11.9284  11.9500  11.9683
    11.9928  12.0117  17.5507  17.6132  18.8426  19.5521  19.8385  19.9496
    20.0215  20.1931  20.2699  20.4727  20.5831  20.7803  20.8683  21.1172
    21.2587  21.5261  21.6678  21.7389  22.2189  22.3633  22.4066  22.5471
    22.8874  23.1115  23.3065  23.5021  23.6932  23.7271  23.8003  23.8629
    24.2794  24.6207  25.0238  25.5078  26.5749  27.8020  28.6380  29.7326
    31.0784  31.2624  32.2994  33.4609  33.7243  34.1008  34.5441  35.0951
    35.5970  35.7949  36.0988  36.4378  36.8896  37.0130  37.2268

          k = 0.3430 0.2859 0.2450 (  4228 PWs)   bands (ev):

   -72.8379 -72.8304 -47.2265 -47.2179 -47.2053 -47.1618 -47.1492 -47.1405
   -34.8048 -34.7933 -34.7915 -34.7890 -34.7873 -34.7872 -16.1996 -16.1149
   -15.9787 -15.6896 -15.6761 -15.6553 -15.6409 -15.5571 -15.5533 -15.5262
   -15.5119 -15.4894 -15.4746 -15.4553 -15.4452 -15.4441 -15.3841 -15.3028
    11.8598  11.8669  11.8806  11.8881  11.8971  11.9128  11.9350  11.9577
    11.9639  11.9683  17.7709  17.7759  19.6231  19.8812  19.9805  20.1277
    20.1636  20.2143  20.2794  20.4578  20.5327  20.7604  20.8066  21.0258
    21.4654  21.5779  21.6993  21.8848  21.9420  22.0381  22.2698  22.3091
    22.9678  23.0787  23.3402  23.4085  23.5754  23.6001  23.6507  23.8079
    24.2115  24.3798  24.9152  25.4119  25.9968  26.6126  27.4501  28.6533
    31.7745  32.3484  33.2334  33.6659  34.5775  34.8772  35.1835  35.3417
    35.7384  36.1735  36.2569  36.7467  36.8459  37.1386  37.3850

          k = 0.3430 0.2859 0.3675 (  4211 PWs)   bands (ev):

   -72.8270 -72.8245 -47.2165 -47.2033 -47.1969 -47.1651 -47.1593 -47.1460
   -34.7936 -34.7921 -34.7894 -34.7867 -34.7832 -34.7794 -16.1094 -15.9811
   -15.9202 -15.6818 -15.6783 -15.6573 -15.6236 -15.5858 -15.5575 -15.5348
   -15.5191 -15.5045 -15.4768 -15.4736 -15.4589 -15.4431 -15.4403 -15.3808
    11.8656  11.8676  11.8801  11.8837  11.8911  11.9122  11.9203  11.9446
    11.9461  11.9490  17.9501  17.9635  19.9375  20.0490  20.1350  20.2912
    20.3943  20.4774  20.5075  20.5938  20.6237  20.7448  20.9518  21.0347
    21.2529  21.3934  21.5751  21.8585  21.8888  22.1242  22.2036  22.2170
    22.7936  22.8516  23.1858  23.3250  23.4226  23.4618  23.5128  23.8365
    23.8670  24.4660  24.7304  25.4030  25.5333  26.3594  26.7035  27.5843
    32.4038  32.8161  33.9214  34.5120  34.7577  35.3751  35.6608  35.7733
    36.1068  36.2986  36.4295  36.8942  37.1042  37.2033  37.3688

          k = 0.3430-0.4288 0.0000 (  4212 PWs)   bands (ev):

   -72.8266 -72.8266 -47.2532 -47.2060 -47.1814 -47.1808 -47.1583 -47.1094
   -34.7936 -34.7935 -34.7882 -34.7878 -34.7821 -34.7821 -16.4356 -15.9814
   -15.7852 -15.7551 -15.6696 -15.6643 -15.6568 -15.5890 -15.5842 -15.5789
   -15.5627 -15.4985 -15.4835 -15.4825 -15.4209 -15.4167 -15.4114 -15.0292
    11.8334  11.8358  11.8448  11.9072  11.9074  11.9322  11.9412  11.9660
    12.0073  12.0369  17.6364  17.6402  18.5567  19.2858  20.0534  20.1391
    20.1495  20.2858  20.3740  20.6461  20.6656  20.8646  20.9703  21.2126
    21.4188  21.5860  21.6099  21.7865  22.1286  22.3430  22.6074  22.6111
    22.6652  22.8333  23.0143  23.3675  23.4033  23.4621  23.6031  24.0665
    24.2427  24.3243  24.6121  25.3301  27.3974  28.9748  29.3623  29.7161
    30.1992  30.2981  31.9683  33.4012  34.0350  34.3509  35.1678  35.2095
    35.6787  35.7766  35.8195  35.9128  36.3473  36.6582  36.9838

          k = 0.3430-0.4288 0.1225 (  4210 PWs)   bands (ev):

   -72.8255 -72.8254 -47.2467 -47.2065 -47.1814 -47.1812 -47.1564 -47.1153
   -34.7900 -34.7899 -34.7878 -34.7877 -34.7841 -34.7834 -16.3720 -15.9745
   -15.7791 -15.7574 -15.6733 -15.6630 -15.6621 -15.5971 -15.5793 -15.5649
   -15.5482 -15.4986 -15.4789 -15.4724 -15.4260 -15.4245 -15.4157 -15.1125
    11.8409  11.8426  11.8537  11.9017  11.9022  11.9275  11.9378  11.9621
    11.9902  12.0119  17.7143  17.7172  18.8429  19.4252  20.0883  20.1808
    20.1941  20.3240  20.4032  20.6998  20.7125  20.8653  21.0149  21.1603
    21.4371  21.4749  21.5845  21.9071  22.0278  22.0493  22.5236  22.6242
    22.6358  22.8024  23.0573  23.3606  23.3775  23.5227  23.5741  24.0024
    24.1648  24.5106  24.6572  25.0778  26.9105  27.8324  28.4884  29.1016
    31.1289  31.2316  32.4858  33.9742  33.9744  34.5056  35.2956  35.3764
    35.8958  35.9402  36.0061  36.0705  36.6224  36.8532  37.2407

          k = 0.3430-0.4288 0.2450 (  4214 PWs)   bands (ev):

   -72.8275 -72.8274 -47.2244 -47.2038 -47.1818 -47.1817 -47.1596 -47.1387
   -34.7915 -34.7914 -34.7884 -34.7884 -34.7851 -34.7848 -16.1955 -15.9826
   -15.7768 -15.7709 -15.6759 -15.6746 -15.6355 -15.5987 -15.5650 -15.5466
   -15.5263 -15.5066 -15.4781 -15.4759 -15.4524 -15.4428 -15.4409 -15.2936
    11.8585  11.8593  11.8755  11.8892  11.8894  11.9146  11.9302  11.9501
    11.9528  11.9600  17.9116  17.9118  19.6669  19.7835  20.1123  20.3373
    20.3538  20.4702  20.5534  20.6364  20.6607  20.7356  21.0494  21.1722
    21.3349  21.4178  21.6489  21.7650  21.8563  21.9961  22.3147  22.3569
    22.6250  22.7338  23.1488  23.3674  23.4182  23.4200  23.5514  24.0126
    24.0814  24.2563  24.8414  25.0011  25.9296  26.4747  27.3720  27.6776
    32.3522  32.3664  33.5787  34.4024  34.7481  35.1426  35.4382  35.8656
    36.2307  36.2698  36.4649  36.5879  36.9359  37.1536  37.3779

          k = 0.3430-0.4288 0.3675 (  4216 PWs)   bands (ev):

   -72.8287 -72.8287 -47.2040 -47.1976 -47.1818 -47.1818 -47.1666 -47.1602
   -34.7949 -34.7948 -34.7923 -34.7921 -34.7803 -34.7801 -15.9771 -15.9214
   -15.7806 -15.7789 -15.6846 -15.6840 -15.6422 -15.6085 -15.5533 -15.5421
   -15.5257 -15.5123 -15.4925 -15.4883 -15.4786 -15.4760 -15.4601 -15.4591
    11.8723  11.8725  11.8800  11.8803  11.8950  11.9038  11.9191  11.9226
    11.9305  11.9320  18.1041  18.1049  20.1123  20.1813  20.4140  20.4456
    20.5239  20.5495  20.5805  20.7191  20.8078  20.8995  20.9989  21.0071
    21.2100  21.2719  21.7106  21.7523  21.9168  21.9844  22.0832  22.0901
    22.4478  22.5900  23.1559  23.2494  23.3414  23.3919  23.3982  23.4418
    24.3938  24.4135  25.0588  25.2739  25.3676  25.6429  26.3554  26.4241
    33.1708  33.1710  34.6927  34.8635  35.1711  35.2947  36.1594  36.2248
    36.2583  36.3873  36.9277  36.9479  37.2740  37.2764  37.5091

     the Fermi energy is    29.3607 ev

!    total energy              =   -2034.42284218 Ry
     Harris-Foulkes estimate   =   -2034.42284221 Ry
     estimated scf accuracy    <       0.00000003 Ry

     The total energy is the sum of the following terms:

     one-electron contribution =    -319.95688659 Ry
     hartree contribution      =     286.02851630 Ry
     xc contribution           =    -189.26230110 Ry
     ewald contribution        =   -1811.10062037 Ry
     smearing contrib. (-TS)   =      -0.13155043 Ry

     convergence has been achieved in  11 iterations

     Forces acting on atoms (Ry/au):

     atom    1 type  1   force =     0.00000000    0.00000000    0.00000000
     atom    2 type  1   force =     0.00000000    0.00000000    0.00000000
     atom    3 type  1   force =     0.00000000    0.00000000    0.00000000
     atom    4 type  1   force =     0.00000000    0.00000000    0.00000000
     atom    5 type  1   force =     0.00000000    0.00000000    0.00000000
     atom    6 type  1   force =     0.00000000    0.00000000    0.00000000
     atom    7 type  2   force =     0.00000000    0.00000000    0.00000000
     atom    8 type  2   force =     0.00000000    0.00000000    0.00000000

     Total force =     0.000000     Total SCF correction =     0.000000


     entering subroutine stress ...

          total   stress  (Ry/bohr**3)                   (kbar)     P=   70.67
   0.00048039   0.00000000   0.00000000         70.67      0.00      0.00
   0.00000000   0.00048039   0.00000000          0.00     70.67      0.00
   0.00000000   0.00000000   0.00048039          0.00      0.00     70.67


     Writing output data file Prototype-La-cP8-Cr3Si.save
 
     init_run     :      8.05s CPU     10.36s WALL (       2 calls)
     electrons    :   1206.69s CPU   1436.33s WALL (       5 calls)
     update_pot   :      1.51s CPU      1.55s WALL (       3 calls)
     forces       :      5.18s CPU      5.69s WALL (       5 calls)
     stress       :     14.83s CPU     15.30s WALL (       5 calls)

     Called by init_run:
     wfcinit      :      7.39s CPU      9.69s WALL (       2 calls)
     potinit      :      0.23s CPU      0.24s WALL (       2 calls)

     Called by electrons:
     c_bands      :   1170.77s CPU   1386.20s WALL (      36 calls)
     sum_band     :     35.70s CPU     47.97s WALL (      36 calls)
     v_of_rho     :      0.05s CPU      0.06s WALL (      41 calls)
     mix_rho      :      0.04s CPU      0.05s WALL (      36 calls)

     Called by c_bands:
     init_us_2    :      2.38s CPU      3.12s WALL (    4032 calls)
     ccgdiagg     :   1055.95s CPU   1233.79s WALL (    1962 calls)
     wfcrot       :    119.39s CPU    156.39s WALL (    2010 calls)

     Called by *cgdiagg:
     h_psi        :    791.85s CPU    978.76s WALL (  970520 calls)
     cdiaghg      :      6.96s CPU      7.43s WALL (    2010 calls)

     Called by h_psi:
     add_vuspsi   :     70.19s CPU    100.31s WALL (  970520 calls)

     General routines
     calbec       :    264.98s CPU    273.68s WALL ( 1939510 calls)
     fft          :      0.07s CPU      0.08s WALL (     187 calls)
     fftw         :    553.38s CPU    677.56s WALL ( 2483080 calls)
     davcio       :      1.79s CPU      4.71s WALL (    5760 calls)
 
     Parallel routines
     fft_scatter  :    251.12s CPU    293.62s WALL ( 2483267 calls)
 
     PWSCF        : 20m37.01s CPU    24m31.55s WALL

 
   This run was terminated on:  17:55:42  22Mar2018            

=------------------------------------------------------------------------------=
   JOB DONE.
=------------------------------------------------------------------------------=
