
     Program PWSCF v.5.0.2 starts on 22Mar2018 at 10:14:18 

     This program is part of the open-source Quantum ESPRESSO suite
     for quantum simulation of materials; please cite
         "P. Giannozzi et al., J. Phys.:Condens. Matter 21 395502 (2009);
          URL http://www.quantum-espresso.org", 
     in publications or presentations arising from this work. More details at
     http://www.quantum-espresso.org/quote.php

     Parallel version (MPI), running on     4 processors
     R & G space division:  proc/nbgrp/npool/nimage =       4

     Current dimensions of program PWSCF are:
     Max number of different atomic species (ntypx) = 10
     Max number of k-points (npk) =  40000
     Max angular momentum in pseudopotentials (lmaxx) =  3
     Waiting for input...
     Reading input from standard input

     Subspace diagonalization in iterative solution of the eigenvalue problem:
     a serial algorithm will be used

 
     Parallelization info
     --------------------
     sticks:   dense  smooth     PW     G-vecs:    dense   smooth      PW
     Min         207     207     61                 7381     7381    1191
     Max         208     208     62                 7386     7386    1192
     Sum         829     829    247                29529    29529    4767
 


     bravais-lattice index     =            0
     lattice parameter (alat)  =       7.0151  a.u.
     unit-cell volume          =     862.2778 (a.u.)^3
     number of atoms/cell      =           12
     number of atomic types    =            2
     number of electrons       =       296.00
     number of Kohn-Sham states=          178
     kinetic-energy cutoff     =      40.0000  Ry
     charge density cutoff     =     160.0000  Ry
     convergence threshold     =      1.0E-04
     mixing beta               =       0.7000
     number of iterations used =            8  plain     mixing
     Exchange-correlation      = SLA-PZ-NOGX-NOGC ( 1 1 0 0 0)
     EXX-fraction              =        0.00
     nstep                     =           50


     celldm(1)=   7.015105  celldm(2)=   0.000000  celldm(3)=   0.000000
     celldm(4)=   0.000000  celldm(5)=   0.000000  celldm(6)=   0.000000

     crystal axes: (cart. coord. in units of alat)
               a(1) = (   1.000000   0.000000   0.000000 )  
               a(2) = (   0.000000   1.315963   0.000000 )  
               a(3) = (   0.000000   0.000000   1.898020 )  

     reciprocal axes: (cart. coord. in units 2 pi/alat)
               b(1) = (  1.000000  0.000000  0.000000 )  
               b(2) = (  0.000000  0.759900  0.000000 )  
               b(3) = (  0.000000  0.000000  0.526865 )  


     PseudoPot. # 1 for Lu read from file:
     /home/cwx6513/pp.La/La.UPF
     MD5 check sum: 4fc038260c66a0bf25fb4835376efb80
     Pseudo is Norm-conserving, Zval = 25.0
     Generated in analytical, separable form
     Using radial grid of 1271 points,  6 beta functions with: 
                l(1) =   0
                l(2) =   0
                l(3) =   1
                l(4) =   1
                l(5) =   2
                l(6) =   3

     PseudoPot. # 2 for Yb read from file:
     /home/cwx6513/pp.La/Yb.UPF
     MD5 check sum: 3e859b81cc28c53ec6aa3a2e888efcdf
     Pseudo is Norm-conserving, Zval = 24.0
     Generated in analytical, separable form
     Using radial grid of 1269 points,  6 beta functions with: 
                l(1) =   0
                l(2) =   0
                l(3) =   1
                l(4) =   1
                l(5) =   2
                l(6) =   3

     atomic species   valence    mass     pseudopotential
        Co            25.00    58.93320     Lu( 1.00)
        Si            24.00    28.08550     Yb( 1.00)

      8 Sym. Ops., with inversion, found ( 6 have fractional translation)



   Cartesian axes

     site n.     atom                  positions (alat units)
         1           Co  tau(   1) = (   0.7500000   1.0875135   0.8270358  )
         2           Co  tau(   2) = (   0.2500000   0.2284499   1.0709846  )
         3           Co  tau(   3) = (   0.7500000   0.4295318   0.1219744  )
         4           Co  tau(   4) = (   0.2500000   0.8864316   1.7760460  )
         5           Co  tau(   5) = (   0.2500000   0.7067855   0.5358966  )
         6           Co  tau(   6) = (   0.7500000   0.6091779   1.3621238  )
         7           Co  tau(   7) = (   0.2500000   0.0488038   0.4131136  )
         8           Co  tau(   8) = (   0.7500000   1.2671596   1.4849068  )
         9           Si  tau(   9) = (   0.2500000   0.2669484   1.6960710  )
        10           Si  tau(  10) = (   0.7500000   1.0490149   0.2019494  )
        11           Si  tau(  11) = (   0.2500000   0.9249301   1.1509596  )
        12           Si  tau(  12) = (   0.7500000   0.3910333   0.7470608  )

     number of k points=    12  gaussian smearing, width (Ry)=  0.1000
                       cart. coord. in units 2pi/alat
        k(    1) = (   0.0000000   0.0000000   0.0000000), wk =   0.0833333
        k(    2) = (   0.0000000   0.0000000   0.1317162), wk =   0.1666667
        k(    3) = (   0.0000000   0.0000000  -0.2634324), wk =   0.0833333
        k(    4) = (   0.0000000   0.2532999   0.0000000), wk =   0.1666667
        k(    5) = (   0.0000000   0.2532999   0.1317162), wk =   0.3333333
        k(    6) = (   0.0000000   0.2532999  -0.2634324), wk =   0.1666667
        k(    7) = (  -0.5000000   0.0000000   0.0000000), wk =   0.0833333
        k(    8) = (  -0.5000000   0.0000000   0.1317162), wk =   0.1666667
        k(    9) = (  -0.5000000   0.0000000  -0.2634324), wk =   0.0833333
        k(   10) = (  -0.5000000   0.2532999   0.0000000), wk =   0.1666667
        k(   11) = (  -0.5000000   0.2532999   0.1317162), wk =   0.3333333
        k(   12) = (  -0.5000000   0.2532999  -0.2634324), wk =   0.1666667

     Dense  grid:    29529 G-vectors     FFT dimensions: (  30,  40,  54)

     Largest allocated arrays     est. size (Mb)     dimensions
        Kohn-Sham Wavefunctions         2.50 Mb     (    922,  178)
        NL pseudopotentials             3.38 Mb     (    922,  240)
        Each V/rho on FFT grid          0.26 Mb     (  16800)
        Each G-vector array             0.06 Mb     (   7386)
        G-vector shells                 0.06 Mb     (   7386)
     Largest temporary arrays     est. size (Mb)     dimensions
        Each subspace H/S matrix        0.48 Mb     ( 178, 178)
        Each <psi_i|beta_j> matrix      0.65 Mb     (    240,  178)
        Arrays for rho mixing           2.05 Mb     (  16800,   8)

     Initial potential from superposition of free atoms

     Starting from uniform charge
     Starting wfc are    0 randomized atomic wfcs

     total cpu time spent up to now is        3.4 secs

     Self-consistent Calculation

     iteration #  1     ecut=    40.00 Ry     beta=0.70
     CG style diagonalization
     ethr =  1.00E-02,  avg # of iterations = 19.1

     total cpu time spent up to now is      100.6 secs

     total energy              =   -4671.85574493 Ry
     Harris-Foulkes estimate   =   -6110.94722690 Ry
     estimated scf accuracy    <    1804.21817402 Ry

     iteration #  2     ecut=    40.00 Ry     beta=0.70
     CG style diagonalization
     c_bands:  1 eigenvalues not converged
     c_bands:  1 eigenvalues not converged
     ethr =  1.00E-02,  avg # of iterations =  9.4

     total cpu time spent up to now is      150.2 secs

     total energy              =   -5020.94330961 Ry
     Harris-Foulkes estimate   =   -5405.90798746 Ry
     estimated scf accuracy    <     563.96456876 Ry

     iteration #  3     ecut=    40.00 Ry     beta=0.70
     CG style diagonalization
     ethr =  1.00E-02,  avg # of iterations =  9.6

     total cpu time spent up to now is      203.4 secs

     total energy              =   -5171.67849872 Ry
     Harris-Foulkes estimate   =   -5307.76302364 Ry
     estimated scf accuracy    <     299.96666274 Ry

     iteration #  4     ecut=    40.00 Ry     beta=0.70
     CG style diagonalization
     ethr =  1.00E-02,  avg # of iterations =  5.2

     total cpu time spent up to now is      231.5 secs

     total energy              =   -5238.66786266 Ry
     Harris-Foulkes estimate   =   -5245.11665521 Ry
     estimated scf accuracy    <      14.22043364 Ry

     iteration #  5     ecut=    40.00 Ry     beta=0.70
     CG style diagonalization
     ethr =  4.80E-03,  avg # of iterations =  3.6

     total cpu time spent up to now is      250.2 secs

     total energy              =   -5241.74661232 Ry
     Harris-Foulkes estimate   =   -5241.97307217 Ry
     estimated scf accuracy    <       0.37606431 Ry

     iteration #  6     ecut=    40.00 Ry     beta=0.70
     CG style diagonalization
     c_bands:  2 eigenvalues not converged
     c_bands:  1 eigenvalues not converged
     c_bands:  1 eigenvalues not converged
     c_bands:  2 eigenvalues not converged
     ethr =  1.27E-04,  avg # of iterations =  4.7

     total cpu time spent up to now is      275.2 secs

     total energy              =   -5241.91636478 Ry
     Harris-Foulkes estimate   =   -5241.99151030 Ry
     estimated scf accuracy    <       0.13512711 Ry

     iteration #  7     ecut=    40.00 Ry     beta=0.70
     CG style diagonalization
     c_bands:  1 eigenvalues not converged
     ethr =  4.57E-05,  avg # of iterations =  3.7

     total cpu time spent up to now is      293.5 secs

     total energy              =   -5241.94804222 Ry
     Harris-Foulkes estimate   =   -5241.95744727 Ry
     estimated scf accuracy    <       0.01899016 Ry

     iteration #  8     ecut=    40.00 Ry     beta=0.70
     CG style diagonalization
     c_bands:  1 eigenvalues not converged
     c_bands:  1 eigenvalues not converged
     c_bands:  1 eigenvalues not converged
     ethr =  6.42E-06,  avg # of iterations =  3.9

     total cpu time spent up to now is      312.8 secs

     total energy              =   -5241.95286458 Ry
     Harris-Foulkes estimate   =   -5241.95322043 Ry
     estimated scf accuracy    <       0.00067740 Ry

     iteration #  9     ecut=    40.00 Ry     beta=0.70
     CG style diagonalization
     c_bands:  1 eigenvalues not converged
     c_bands:  1 eigenvalues not converged
     ethr =  2.29E-07,  avg # of iterations =  4.3

     total cpu time spent up to now is      334.0 secs

     total energy              =   -5241.95317729 Ry
     Harris-Foulkes estimate   =   -5241.95322454 Ry
     estimated scf accuracy    <       0.00010322 Ry

     iteration # 10     ecut=    40.00 Ry     beta=0.70
     CG style diagonalization
     c_bands:  1 eigenvalues not converged
     ethr =  3.49E-08,  avg # of iterations =  3.4

     total cpu time spent up to now is      350.4 secs

     End of self-consistent calculation

          k = 0.0000 0.0000 0.0000 (  3675 PWs)   bands (ev):

   -77.2485 -77.2411 -77.2074 -77.1575 -77.0450 -76.9798 -76.9551 -76.9471
   -65.8098 -65.7804 -65.7710 -65.7452 -33.0889 -33.0876 -33.0811 -33.0557
   -33.0426 -33.0170 -32.9958 -32.9829 -32.9671 -32.9327 -32.9210 -32.8834
   -32.8548 -32.8372 -32.7601 -32.7571 -32.7462 -32.7323 -32.7078 -32.7013
   -32.6983 -32.6423 -32.5526 -32.5341 -24.9968 -24.9763 -24.9735 -24.9696
   -24.9303 -24.9245 -24.9240 -24.9165 -24.7648 -24.7538 -24.7517 -24.7314
    24.2493  24.3931  24.4178  24.4282  24.4971  24.6012  24.7097  24.8012
    24.8509  24.9709  25.0565  25.2551  25.3038  25.3434  25.6523  25.8138
    25.9409  25.9409  26.0005  26.1385  26.1587  26.3374  26.3470  26.4457
    26.5190  26.7881  26.8238  26.9609  26.9887  27.0752  27.0818  27.2559
    27.2915  27.5101  27.9460  28.1357  28.1701  28.1904  28.3196  28.3946
    30.0370  30.3236  30.9862  31.1514  31.3210  31.5470  31.8065  31.8406
    31.8505  32.0286  32.2430  32.3996  32.4170  32.5886  32.5978  32.6005
    32.8262  33.1418  33.1928  33.1937  33.2746  35.1193  35.7955  40.0484
    41.0882  42.7125  42.9438  43.3036  44.7124  45.0061  46.9703  48.7565
    49.7897  49.9427  49.9672  50.6353  50.6750  52.0261  52.5928  52.6445
    52.8940  53.5367  53.7001  53.7359  53.8009  54.8167  55.1254  55.5824
    56.4819  56.8824  56.9576  57.0223  57.0899  57.2646  57.9952  58.3617
    58.4600  58.7194  59.1112  59.1281  59.8563  59.9879  61.4588  61.4853
    61.8091  61.9206  62.0474  62.2227  62.5563  62.6643  62.8700  62.9276
    63.3314  63.3432  64.0088  64.5897  65.4112  65.4796  65.6993  66.3874
    66.4732  66.7196  66.9843  67.2174  67.5985  68.0674  68.0724  68.4629
    68.4823  68.6611

          k = 0.0000 0.0000 0.1317 (  3675 PWs)   bands (ev):

   -77.2749 -77.2275 -77.1886 -77.1827 -77.0550 -77.0289 -76.9602 -76.8749
   -65.8191 -65.7737 -65.7714 -65.7460 -33.0882 -33.0812 -33.0708 -33.0608
   -33.0485 -33.0311 -32.9985 -32.9818 -32.9733 -32.9363 -32.9120 -32.8904
   -32.8593 -32.8427 -32.7621 -32.7430 -32.7425 -32.7320 -32.6987 -32.6962
   -32.6819 -32.6558 -32.5539 -32.5401 -24.9903 -24.9785 -24.9740 -24.9672
   -24.9314 -24.9273 -24.9205 -24.9154 -24.7650 -24.7619 -24.7452 -24.7369
    24.1253  24.2732  24.4359  24.4514  24.5682  24.6287  24.6474  24.6672
    25.0371  25.1454  25.2930  25.3452  25.3880  25.5295  25.5663  25.7164
    25.8019  25.8446  26.0367  26.0686  26.1913  26.2904  26.3905  26.4783
    26.5318  26.5361  26.5984  26.9127  26.9661  26.9901  27.1824  27.1969
    27.3814  27.7702  27.8726  28.0562  28.2220  28.2333  28.2605  28.4195
    30.2945  30.4660  31.0040  31.1288  31.2216  31.6887  31.7967  31.8104
    31.8543  32.0053  32.2686  32.3641  32.4675  32.5199  32.5652  32.6128
    32.8389  33.0118  33.1466  33.1557  33.2026  33.4454  38.1919  40.3108
    41.1828  42.2899  42.3703  43.5709  44.5849  45.7109  45.7239  47.4064
    49.4088  49.8381  51.0981  51.8007  52.1369  52.2202  52.2464  52.6030
    52.6246  52.6727  53.6327  53.6978  53.7817  54.8820  55.0162  55.6128
    56.4388  56.5751  56.8235  56.8532  57.0506  57.3943  57.3965  58.0900
    58.4979  58.9040  59.2415  59.4391  60.0859  60.3601  61.1382  61.5605
    61.7622  61.8622  61.9285  62.2191  62.4238  62.4301  63.1933  63.3173
    63.3583  63.9092  64.3295  64.8416  65.1283  65.2206  65.7605  66.1669
    66.6793  66.7290  66.7779  67.1175  67.2808  67.4639  68.4498  68.4763
    68.7399  68.9191

          k = 0.0000 0.0000-0.2634 (  3690 PWs)   bands (ev):

   -77.2803 -77.2803 -77.2041 -77.2041 -77.0513 -77.0513 -76.9378 -76.9378
   -65.8145 -65.8145 -65.7684 -65.7684 -33.0853 -33.0853 -33.0621 -33.0621
   -33.0508 -33.0508 -32.9980 -32.9980 -32.9474 -32.9474 -32.9168 -32.9168
   -32.8516 -32.8516 -32.7539 -32.7539 -32.7350 -32.7350 -32.7046 -32.7046
   -32.6771 -32.6771 -32.5527 -32.5527 -24.9830 -24.9830 -24.9679 -24.9679
   -24.9325 -24.9325 -24.9223 -24.9223 -24.7708 -24.7708 -24.7441 -24.7441
    24.1229  24.1229  24.3645  24.3645  24.5593  24.5593  24.9762  24.9762
    25.0447  25.0447  25.4008  25.4008  25.5386  25.5386  25.6571  25.6571
    25.8757  25.8757  25.8997  25.8997  26.1768  26.1768  26.2457  26.2457
    26.5448  26.5448  26.9103  26.9103  26.9403  26.9403  27.0081  27.0081
    27.7710  27.7710  27.8134  27.8134  28.2746  28.2746  28.3689  28.3689
    30.8170  30.8170  31.0678  31.0677  31.0898  31.0898  31.8216  31.8216
    32.1011  32.1011  32.1935  32.1935  32.4753  32.4753  32.5569  32.5569
    32.7058  32.7058  33.0931  33.0931  33.1637  33.1637  40.9575  40.9575
    41.3236  41.3236  41.7932  41.7932  45.1998  45.1998  46.4655  46.4655
    49.5553  49.5553  51.4591  51.4591  52.2016  52.2016  52.7268  52.7268
    52.7836  52.7836  53.9225  53.9225  54.7188  54.7188  54.7514  54.7514
    55.8796  55.8796  56.7618  56.7618  57.3910  57.3910  57.6501  57.6501
    58.7762  58.7762  59.7475  59.7475  60.3916  60.3916  60.7849  60.7849
    61.5213  61.5213  62.0327  62.0327  62.5565  62.5565  63.9077  63.9077
    64.1473  64.1473  64.3640  64.3641  65.1900  65.1901  65.7645  65.7645
    66.3610  66.3610  67.2478  67.2480  67.4162  67.4164  68.3509  68.3510
    68.8357  68.9635

          k = 0.0000 0.2533 0.0000 (  3664 PWs)   bands (ev):

   -77.2383 -77.1965 -77.1950 -77.1921 -77.0149 -76.9550 -76.9394 -76.9333
   -65.8002 -65.7954 -65.7478 -65.7148 -33.0873 -33.0671 -33.0577 -33.0440
   -33.0347 -33.0287 -32.9798 -32.9744 -32.9704 -32.9597 -32.9096 -32.8923
   -32.8155 -32.7749 -32.7571 -32.7564 -32.7357 -32.7169 -32.7135 -32.7062
   -32.6732 -32.6492 -32.6032 -32.5983 -24.9884 -24.9872 -24.9674 -24.9667
   -24.9309 -24.9299 -24.9195 -24.9145 -24.7668 -24.7643 -24.7430 -24.7389
    24.3383  24.4948  24.7272  24.7757  24.7810  24.8366  24.8451  24.8919
    24.9656  25.1113  25.1367  25.2218  25.5391  25.5882  25.6399  25.7092
    25.7168  25.9322  25.9857  26.0447  26.0600  26.2902  26.3922  26.4075
    26.4610  26.6889  26.7422  26.7798  26.9123  26.9739  27.3155  27.3756
    27.4935  27.4979  27.7365  27.8157  27.8423  28.2452  28.3372  28.4563
    30.6995  30.7918  30.9041  30.9407  31.4101  31.4337  31.5897  31.5982
    31.6950  31.9744  31.9995  32.4061  32.4352  32.5304  32.6655  32.6850
    32.7416  32.8235  32.8926  33.1781  33.2001  35.0973  35.9800  36.5598
    38.9298  39.3645  44.9662  46.7661  47.3924  48.3333  49.2650  49.2739
    49.5440  49.7064  50.0283  50.5734  50.5852  50.7112  50.9509  51.5006
    51.6532  52.6108  52.8174  52.9255  53.1526  54.0494  56.0991  57.0042
    57.4870  57.5076  57.6497  57.9979  58.2206  58.7051  58.8196  58.9868
    59.1197  59.3504  59.3625  59.6752  59.8364  60.3260  60.4461  60.5152
    61.1571  61.2893  61.4220  61.6185  62.1637  62.4322  62.8331  63.1899
    63.6728  64.1903  65.0060  65.1753  65.8139  65.9678  66.1405  66.2779
    66.7167  66.7770  66.8811  67.3825  67.4646  68.1384  68.1896  68.7675
    69.0458  69.1781

          k = 0.0000 0.2533 0.1317 (  3669 PWs)   bands (ev):

   -77.2585 -77.2332 -77.1760 -77.1645 -77.0238 -77.0126 -76.9350 -76.9271
   -65.7908 -65.7892 -65.7659 -65.7403 -33.0870 -33.0758 -33.0559 -33.0541
   -33.0384 -33.0349 -32.9799 -32.9781 -32.9682 -32.9542 -32.9077 -32.8959
   -32.8164 -32.7766 -32.7553 -32.7469 -32.7345 -32.7249 -32.7225 -32.7070
   -32.6664 -32.6549 -32.6026 -32.5999 -24.9873 -24.9845 -24.9689 -24.9637
   -24.9334 -24.9285 -24.9238 -24.9162 -24.7688 -24.7667 -24.7474 -24.7388
    24.3318  24.4636  24.5331  24.5835  24.8144  24.8292  24.9188  25.0575
    25.0810  25.2085  25.2578  25.3402  25.4721  25.5027  25.6707  25.7073
    25.8208  25.9257  25.9728  26.1072  26.1316  26.2681  26.3959  26.3969
    26.5153  26.5576  26.6488  26.7083  26.8757  26.9247  27.1933  27.3044
    27.3771  27.6192  27.7451  27.7854  27.9925  28.2420  28.3256  28.4281
    30.7778  30.8324  30.9068  31.0823  31.4546  31.4979  31.5573  31.6288
    31.7671  31.8963  32.0902  32.2470  32.2544  32.6132  32.6976  32.7086
    32.8095  32.8477  32.8979  33.0493  33.2150  34.1868  35.3504  37.2431
    39.0440  41.4348  45.2703  45.4387  46.8689  46.9712  48.4583  48.5652
    49.4322  49.5239  49.7136  50.6530  50.6903  51.1853  52.0230  52.1805
    52.6498  53.0636  53.2859  53.7635  53.8613  54.2936  55.2127  56.5855
    56.7513  56.9042  57.5017  57.5188  57.8453  58.4708  58.5096  58.7990
    58.9288  59.3880  59.5468  59.9475  60.2391  60.3363  60.3628  60.5053
    60.8478  61.1188  61.4967  62.0386  62.4085  62.9076  62.9261  63.2746
    63.9618  64.7790  65.0415  65.0675  65.6966  65.9645  66.1485  66.4064
    66.7550  66.7719  66.9395  67.0721  67.7887  68.2060  68.3333  68.5866
    69.0005  69.1359

          k = 0.0000 0.2533-0.2634 (  3666 PWs)   bands (ev):

   -77.2417 -77.2417 -77.1560 -77.1560 -77.0079 -77.0079 -76.9460 -76.9460
   -65.7814 -65.7814 -65.7571 -65.7571 -33.0810 -33.0810 -33.0447 -33.0447
   -33.0442 -33.0442 -32.9808 -32.9808 -32.9597 -32.9597 -32.8939 -32.8939
   -32.7996 -32.7996 -32.7467 -32.7467 -32.7356 -32.7356 -32.7127 -32.7127
   -32.6600 -32.6600 -32.6001 -32.6001 -24.9836 -24.9836 -24.9685 -24.9685
   -24.9315 -24.9315 -24.9176 -24.9176 -24.7677 -24.7677 -24.7426 -24.7426
    24.3949  24.3949  24.4277  24.4277  24.8734  24.8734  25.0025  25.0025
    25.2626  25.2626  25.3432  25.3432  25.4826  25.4826  25.7756  25.7756
    25.8731  25.8731  26.1271  26.1271  26.1819  26.1819  26.2622  26.2622
    26.6135  26.6135  26.6212  26.6212  26.7295  26.7295  27.1967  27.1967
    27.6033  27.6033  27.6765  27.6765  28.1817  28.1817  28.3629  28.3629
    30.8813  30.8813  31.0692  31.0692  31.4239  31.4239  31.7298  31.7298
    31.9004  31.9004  31.9939  31.9939  32.4700  32.4700  32.7311  32.7311
    32.8512  32.8512  33.0409  33.0409  33.1069  33.1069  36.0609  36.0609
    41.9806  41.9806  44.2344  44.2344  46.7288  46.7288  47.5512  47.5512
    49.6178  49.6178  50.2071  50.2071  50.7322  50.7322  52.9197  52.9197
    53.6157  53.6157  54.4260  54.4260  54.4733  54.4733  55.1883  55.1883
    56.2957  56.2957  56.3995  56.3995  58.3848  58.3848  58.8029  58.8029
    59.0839  59.0839  59.5638  59.5638  59.8811  59.8811  60.8407  60.8407
    61.0026  61.0026  61.4866  61.4866  62.9149  62.9150  63.9253  63.9253
    64.3074  64.3074  64.9510  64.9510  65.6297  65.6297  66.5161  66.5162
    66.9261  66.9261  67.4210  67.4210  67.8556  67.8556  68.5984  68.5985
    69.2009  69.2012

          k =-0.5000 0.0000 0.0000 (  3722 PWs)   bands (ev):

   -77.2849 -77.2849 -77.2615 -77.2615 -77.0608 -77.0608 -77.0397 -77.0397
   -65.8276 -65.8276 -65.8210 -65.8210 -33.1120 -33.1120 -33.0790 -33.0790
   -33.0688 -33.0688 -33.0180 -33.0180 -32.9555 -32.9555 -32.9260 -32.9260
   -32.8481 -32.8481 -32.7680 -32.7680 -32.7435 -32.7435 -32.7031 -32.7031
   -32.6655 -32.6655 -32.5492 -32.5492 -25.0072 -25.0072 -24.9899 -24.9899
   -24.9209 -24.9209 -24.9158 -24.9158 -24.7585 -24.7585 -24.7524 -24.7524
    24.4234  24.4234  24.8985  24.8985  25.0531  25.0531  25.2173  25.2173
    25.2225  25.2225  25.4033  25.4033  25.5314  25.5314  25.5345  25.5345
    25.6866  25.6866  25.8596  25.8596  25.9795  25.9795  26.0583  26.0583
    26.3356  26.3356  26.5809  26.5809  26.7270  26.7270  26.9863  26.9863
    27.0351  27.0351  27.7233  27.7233  28.2944  28.2944  28.4217  28.4217
    30.8804  30.8804  31.2305  31.2305  31.6401  31.6401  32.0962  32.0962
    32.1504  32.1504  32.1989  32.1989  32.5951  32.5951  32.7287  32.7287
    32.9579  32.9579  33.2559  33.2559  34.2682  34.2682  38.9871  38.9871
    38.9888  38.9888  42.0220  42.0220  44.9861  44.9861  47.5790  47.5790
    47.6188  47.6188  48.3412  48.3412  48.6744  48.6744  51.6604  51.6604
    52.3040  52.3040  55.8009  55.8009  56.4049  56.4049  57.7192  57.7192
    57.8491  57.8491  57.8899  57.8899  57.9426  57.9426  59.1436  59.1436
    59.6552  59.6552  59.9597  59.9597  61.0676  61.0676  61.4019  61.4019
    61.7981  61.7981  62.5670  62.5671  62.7855  62.7855  63.4301  63.4301
    64.1465  64.1466  64.2271  64.2271  65.3773  65.3773  65.5899  65.5899
    65.6839  65.6839  67.4999  67.4999  67.5567  67.5568  67.9485  67.9486
    68.9209  68.9211

          k =-0.5000 0.0000 0.1317 (  3710 PWs)   bands (ev):

   -77.2821 -77.2821 -77.2284 -77.2284 -77.0677 -77.0677 -77.0036 -77.0036
   -65.8141 -65.8141 -65.8113 -65.8113 -33.1125 -33.1125 -33.0744 -33.0744
   -33.0539 -33.0539 -33.0211 -33.0211 -32.9475 -32.9475 -32.9269 -32.9269
   -32.8521 -32.8521 -32.7600 -32.7600 -32.7436 -32.7436 -32.6986 -32.6986
   -32.6600 -32.6600 -32.5512 -32.5512 -25.0041 -25.0041 -24.9870 -24.9870
   -24.9196 -24.9196 -24.9133 -24.9133 -24.7574 -24.7574 -24.7519 -24.7519
    24.4492  24.4492  24.8883  24.8883  25.0064  25.0064  25.0725  25.0725
    25.3525  25.3525  25.4091  25.4091  25.5075  25.5075  25.6055  25.6055
    25.6831  25.6831  25.8798  25.8798  26.0067  26.0067  26.1640  26.1640
    26.3350  26.3350  26.4725  26.4725  26.7615  26.7615  26.9035  26.9035
    27.2062  27.2062  27.7060  27.7060  28.1944  28.1944  28.3921  28.3921
    30.8203  30.8203  31.0480  31.0480  31.6895  31.6895  31.9938  31.9938
    32.1342  32.1342  32.1965  32.1965  32.6108  32.6108  32.8238  32.8238
    33.0067  33.0067  33.2545  33.2545  34.6767  34.6767  37.3086  37.3086
    40.8567  40.8567  42.3461  42.3461  44.4352  44.4352  47.1020  47.1020
    47.2063  47.2063  48.6318  48.6318  49.4016  49.4016  50.3158  50.3158
    54.1502  54.1502  54.8705  54.8705  55.8047  55.8047  57.2290  57.2290
    57.6046  57.6046  58.3279  58.3279  59.0109  59.0109  59.3075  59.3075
    59.8729  59.8729  60.2495  60.2495  60.5017  60.5017  61.2398  61.2398
    61.9150  61.9150  62.2088  62.2088  62.8596  62.8596  63.3450  63.3450
    63.8259  63.8260  64.4702  64.4703  65.0242  65.0242  65.9494  65.9495
    66.3511  66.3512  67.0958  67.0958  67.5971  67.5972  68.4432  68.4434
    69.0184  69.0190

          k =-0.5000 0.0000-0.2634 (  3680 PWs)   bands (ev):

   -77.2302 -77.2302 -77.2064 -77.2064 -77.0231 -77.0231 -76.9692 -76.9692
   -65.7944 -65.7944 -65.7754 -65.7754 -33.1030 -33.1030 -33.0600 -33.0600
   -33.0573 -33.0573 -33.0029 -33.0029 -32.9312 -32.9312 -32.9297 -32.9297
   -32.8592 -32.8592 -32.7477 -32.7477 -32.7442 -32.7442 -32.6895 -32.6895
   -32.6439 -32.6439 -32.5434 -32.5434 -24.9973 -24.9973 -24.9835 -24.9835
   -24.9147 -24.9147 -24.9062 -24.9062 -24.7521 -24.7521 -24.7517 -24.7517
    24.4672  24.4672  24.9365  24.9365  24.9634  24.9634  25.0142  25.0142
    25.1982  25.1982  25.4292  25.4292  25.6744  25.6744  25.7014  25.7014
    25.7608  25.7608  25.8026  25.8026  25.9709  25.9709  26.2074  26.2074
    26.3303  26.3303  26.6065  26.6065  26.6840  26.6840  26.7330  26.7330
    27.4423  27.4423  27.7254  27.7254  28.0121  28.0121  28.3730  28.3730
    30.7747  30.7747  30.8817  30.8817  31.8058  31.8058  31.8256  31.8256
    32.1253  32.1253  32.1739  32.1739  32.6710  32.6710  32.8322  32.8322
    33.0567  33.0567  33.2906  33.2906  35.3695  35.3695  36.2692  36.2692
    41.9038  41.9038  43.0957  43.0957  43.5574  43.5574  46.9095  46.9095
    46.9773  46.9773  47.4136  47.4136  50.5399  50.5399  51.2483  51.2483
    52.5094  52.5094  54.7817  54.7817  57.0133  57.0133  57.2013  57.2013
    57.3609  57.3609  58.6567  58.6567  58.9478  58.9478  59.2201  59.2201
    59.4084  59.4084  60.2017  60.2017  60.7893  60.7893  61.3597  61.3597
    61.8898  61.8898  62.3447  62.3447  62.7616  62.7616  63.1785  63.1785
    63.5282  63.5282  64.2831  64.2831  65.4921  65.4922  66.2181  66.2181
    66.8517  66.8518  67.0574  67.0574  67.7547  67.7548  68.2465  68.2466
    68.3914  68.3915

          k =-0.5000 0.2533 0.0000 (  3686 PWs)   bands (ev):

   -77.2341 -77.2341 -77.2255 -77.2255 -77.0102 -77.0102 -77.0038 -77.0038
   -65.7995 -65.7995 -65.7862 -65.7862 -33.0890 -33.0890 -33.0725 -33.0725
   -33.0474 -33.0474 -33.0225 -33.0225 -32.9244 -32.9244 -32.9096 -32.9096
   -32.8010 -32.8010 -32.7653 -32.7653 -32.7501 -32.7501 -32.7024 -32.7024
   -32.6448 -32.6448 -32.5994 -32.5994 -25.0028 -25.0028 -24.9912 -24.9912
   -24.9129 -24.9129 -24.9120 -24.9120 -24.7538 -24.7538 -24.7499 -24.7499
    24.6898  24.6898  24.9038  24.9038  25.1522  25.1522  25.2217  25.2217
    25.3706  25.3706  25.3716  25.3716  25.7089  25.7089  25.7131  25.7131
    25.8443  25.8443  25.9960  25.9960  26.1124  26.1124  26.1763  26.1763
    26.3771  26.3771  26.4371  26.4371  26.8617  26.8617  27.0609  27.0609
    27.1367  27.1367  27.3592  27.3592  27.9694  27.9694  28.2154  28.2154
    31.0772  31.0772  31.0961  31.0961  31.5832  31.5832  31.7703  31.7703
    31.8988  31.8988  32.0549  32.0549  32.2145  32.2145  32.5896  32.5896
    32.6577  32.6577  32.6640  32.6640  35.6734  35.6734  38.5907  38.5907
    40.2559  40.2559  40.5267  40.5267  43.0598  43.0598  43.4750  43.4750
    50.4312  50.4312  51.8081  51.8081  52.4148  52.4148  53.0624  53.0624
    53.5818  53.5818  54.5253  54.5253  54.9606  54.9606  56.5994  56.5994
    57.8780  57.8780  58.3174  58.3174  58.4066  58.4066  59.0726  59.0726
    59.4756  59.4756  59.9385  59.9385  60.7813  60.7813  60.8685  60.8685
    61.9308  61.9308  61.9716  61.9716  62.1685  62.1685  63.4921  63.4921
    64.1680  64.1680  64.8454  64.8455  65.4937  65.4937  65.9604  65.9604
    66.3400  66.3401  66.6748  66.6750  67.7802  67.7803  67.8273  67.8274
    68.7888  68.7889

          k =-0.5000 0.2533 0.1317 (  3692 PWs)   bands (ev):

   -77.2418 -77.2418 -77.2295 -77.2295 -77.0239 -77.0239 -77.0070 -77.0070
   -65.8163 -65.8163 -65.7805 -65.7805 -33.0920 -33.0920 -33.0698 -33.0698
   -33.0420 -33.0420 -33.0244 -33.0244 -32.9280 -32.9280 -32.9172 -32.9172
   -32.8028 -32.8028 -32.7593 -32.7593 -32.7448 -32.7448 -32.7082 -32.7082
   -32.6510 -32.6510 -32.6045 -32.6045 -24.9980 -24.9980 -24.9920 -24.9920
   -24.9158 -24.9158 -24.9126 -24.9126 -24.7595 -24.7595 -24.7502 -24.7502
    24.6921  24.6921  24.9052  24.9052  25.1284  25.1284  25.1913  25.1913
    25.3680  25.3680  25.4432  25.4432  25.6044  25.6044  25.7454  25.7454
    25.8823  25.8823  26.0007  26.0007  26.1194  26.1194  26.2617  26.2617
    26.3413  26.3413  26.5254  26.5254  26.8457  26.8457  26.9536  26.9536
    27.2390  27.2390  27.3654  27.3654  27.8937  27.8937  28.2023  28.2023
    30.9236  30.9236  31.0535  31.0535  31.5415  31.5415  31.7490  31.7490
    31.9223  31.9223  32.0722  32.0722  32.2403  32.2403  32.5522  32.5522
    32.6570  32.6570  32.7461  32.7461  36.0289  36.0289  38.2785  38.2785
    39.3460  39.3460  41.4524  41.4524  42.4237  42.4237  45.3597  45.3597
    49.4391  49.4391  50.4567  50.4567  51.3768  51.3768  52.3598  52.3598
    54.6575  54.6575  55.5646  55.5646  56.5022  56.5022  56.6650  56.6650
    57.9252  57.9252  58.3296  58.3296  58.5326  58.5326  59.3025  59.3025
    59.4878  59.4878  59.8148  59.8148  60.3263  60.3263  60.8062  60.8062
    61.1878  61.1878  61.7070  61.7070  61.9151  61.9151  63.6071  63.6071
    64.1692  64.1692  64.4367  64.4367  65.6073  65.6074  66.0973  66.0973
    66.6690  66.6690  66.9833  66.9833  67.6141  67.6142  68.6410  68.6411
    68.8788  68.8788

          k =-0.5000 0.2533-0.2634 (  3704 PWs)   bands (ev):

   -77.2661 -77.2661 -77.2392 -77.2392 -77.0370 -77.0370 -77.0232 -77.0232
   -65.8332 -65.8332 -65.7875 -65.7875 -33.0974 -33.0974 -33.0639 -33.0639
   -33.0452 -33.0452 -33.0292 -33.0292 -32.9350 -32.9350 -32.9308 -32.9308
   -32.8032 -32.8032 -32.7528 -32.7528 -32.7487 -32.7487 -32.7130 -32.7130
   -32.6503 -32.6503 -32.6102 -32.6102 -24.9988 -24.9988 -24.9930 -24.9930
   -24.9183 -24.9183 -24.9131 -24.9131 -24.7614 -24.7614 -24.7557 -24.7557
    24.6756  24.6756  24.9761  24.9761  25.0277  25.0277  25.2452  25.2452
    25.2934  25.2934  25.4861  25.4861  25.6330  25.6330  25.7600  25.7600
    25.8578  25.8578  25.9684  25.9684  26.1647  26.1647  26.2805  26.2805
    26.4222  26.4222  26.6187  26.6187  26.7059  26.7059  26.9414  26.9414
    27.1824  27.1824  27.5835  27.5835  27.7261  27.7261  28.1867  28.1867
    30.8725  30.8725  30.8904  30.8904  31.5914  31.5914  31.7186  31.7186
    31.9386  31.9386  31.9863  31.9863  32.3416  32.3416  32.4523  32.4523
    32.7136  32.7136  32.8019  32.8019  36.7345  36.7345  37.3149  37.3149
    39.8877  39.8877  40.3404  40.3404  43.7701  43.7701  46.7210  46.7210
    48.5754  48.5754  48.6390  48.6390  51.2901  51.2901  51.5664  51.5664
    55.3259  55.3259  56.7441  56.7441  57.1262  57.1262  57.3012  57.3012
    57.9010  57.9010  57.9361  57.9361  59.0588  59.0588  59.0865  59.0865
    59.6372  59.6372  59.7262  59.7262  59.9499  59.9499  60.4102  60.4102
    60.8974  60.8974  61.3229  61.3229  61.7250  61.7250  63.2888  63.2888
    63.7914  63.7914  64.6676  64.6676  65.7640  65.7641  66.1186  66.1186
    66.7854  66.7855  67.1500  67.1501  68.3430  68.3430  68.3752  68.3754
    69.5861  69.5865

     the Fermi energy is    60.0771 ev

!    total energy              =   -5241.95319075 Ry
     Harris-Foulkes estimate   =   -5241.95319712 Ry
     estimated scf accuracy    <       0.00000648 Ry

     The total energy is the sum of the following terms:

     one-electron contribution =    -329.42295817 Ry
     hartree contribution      =     570.52349914 Ry
     xc contribution           =    -420.72878631 Ry
     ewald contribution        =   -5061.77919325 Ry
     smearing contrib. (-TS)   =      -0.54575215 Ry

     convergence has been achieved in  10 iterations

     Forces acting on atoms (Ry/au):

     atom    1 type  1   force =     0.00000000   -0.06061602   -0.09386018
     atom    2 type  1   force =     0.00000000    0.06061602    0.09386018
     atom    3 type  1   force =     0.00000000   -0.06061602    0.09386018
     atom    4 type  1   force =     0.00000000    0.06061602   -0.09386018
     atom    5 type  1   force =     0.00000000    0.16868867   -0.36866719
     atom    6 type  1   force =     0.00000000   -0.16868867    0.36866719
     atom    7 type  1   force =     0.00000000    0.16868867    0.36866719
     atom    8 type  1   force =     0.00000000   -0.16868867   -0.36866719
     atom    9 type  2   force =     0.00000000   -0.29691471    0.00184741
     atom   10 type  2   force =     0.00000000    0.29691471   -0.00184741
     atom   11 type  2   force =     0.00000000   -0.29691471   -0.00184741
     atom   12 type  2   force =     0.00000000    0.29691471    0.00184741

     Total force =     1.029596     Total SCF correction =     0.000000


     entering subroutine stress ...

          total   stress  (Ry/bohr**3)                   (kbar)     P= 7242.48
   0.05181767   0.00000000   0.00000000       7622.64      0.00      0.00
   0.00000000   0.04660056   0.00000000          0.00   6855.18      0.00
   0.00000000   0.00000000   0.04928199          0.00      0.00   7249.63


     BFGS Geometry Optimization

     number of scf cycles    =   1
     number of bfgs steps    =   0

     enthalpy new            =   -5241.9531907520 Ry

     new trust radius        =       0.5000000000 bohr
     new conv_thr            =       0.0001000000 Ry

     new unit-cell volume =   1088.89421 a.u.^3 (   161.35747 Ang^3 )

CELL_PARAMETERS (alat=  7.01510508)
   1.085136619   0.000000000   0.000000000
   0.000000000   1.416719965   0.000000000
   0.000000000   0.000000000   2.051704030

ATOMIC_POSITIONS (crystal)
Co       0.750000000   0.825969473   0.435272719
Co       0.250000000   0.174030527   0.564727281
Co       0.750000000   0.325969473   0.064727281
Co       0.250000000   0.674030527   0.935272719
Co       0.250000000   0.538286899   0.280525308
Co       0.750000000   0.461713101   0.719474692
Co       0.250000000   0.038286899   0.219474692
Co       0.750000000   0.961713101   0.780525308
Si       0.250000000   0.200740257   0.893609119
Si       0.750000000   0.799259743   0.106390881
Si       0.250000000   0.700740257   0.606390881
Si       0.750000000   0.299259743   0.393609119



     Writing output data file Prototype-La-oP12-Co2Si.save
     NEW-OLD atomic charge density approx. for the potential
     NEW k-points:
        k(    1) = (   0.0000000   0.0000000   0.0000000), wk =   0.0833333
        k(    2) = (   0.0000000   0.0000000   0.1218499), wk =   0.1666667
        k(    3) = (   0.0000000   0.0000000  -0.2436999), wk =   0.0833333
        k(    4) = (   0.0000000   0.2352853   0.0000000), wk =   0.1666667
        k(    5) = (   0.0000000   0.2352853   0.1218499), wk =   0.3333333
        k(    6) = (   0.0000000   0.2352853  -0.2436999), wk =   0.1666667
        k(    7) = (  -0.4607715   0.0000000   0.0000000), wk =   0.0833333
        k(    8) = (  -0.4607715   0.0000000   0.1218499), wk =   0.1666667
        k(    9) = (  -0.4607715   0.0000000  -0.2436999), wk =   0.0833333
        k(   10) = (  -0.4607715   0.2352853   0.0000000), wk =   0.1666667
        k(   11) = (  -0.4607715   0.2352853   0.1218499), wk =   0.3333333
        k(   12) = (  -0.4607715   0.2352853  -0.2436999), wk =   0.1666667

     total cpu time spent up to now is      356.5 secs

     Self-consistent Calculation

     iteration #  1     ecut=    40.00 Ry     beta=0.70
     CG style diagonalization
     c_bands:  1 eigenvalues not converged
     c_bands:  4 eigenvalues not converged
     c_bands:  1 eigenvalues not converged
     c_bands:  2 eigenvalues not converged
     c_bands:  2 eigenvalues not converged
     ethr =  1.00E-06,  avg # of iterations = 23.2

     total cpu time spent up to now is      471.3 secs

     total energy              =   -5232.59929398 Ry
     Harris-Foulkes estimate   =   -5275.05994631 Ry
     estimated scf accuracy    <      52.62434006 Ry

     iteration #  2     ecut=    40.00 Ry     beta=0.70
     CG style diagonalization
     ethr =  1.00E-02,  avg # of iterations =  4.0

     total cpu time spent up to now is      489.3 secs

     total energy              =   -5247.48834349 Ry
     Harris-Foulkes estimate   =   -5250.28018159 Ry
     estimated scf accuracy    <       3.87131290 Ry

     iteration #  3     ecut=    40.00 Ry     beta=0.70
     CG style diagonalization
     ethr =  1.31E-03,  avg # of iterations =  3.7

     total cpu time spent up to now is      506.4 secs

     total energy              =   -5248.51096189 Ry
     Harris-Foulkes estimate   =   -5248.71616163 Ry
     estimated scf accuracy    <       0.39257979 Ry

     iteration #  4     ecut=    40.00 Ry     beta=0.70
     CG style diagonalization
     ethr =  1.33E-04,  avg # of iterations =  3.5

     total cpu time spent up to now is      522.9 secs

     total energy              =   -5248.61865609 Ry
     Harris-Foulkes estimate   =   -5248.62589544 Ry
     estimated scf accuracy    <       0.01381576 Ry

     iteration #  5     ecut=    40.00 Ry     beta=0.70
     CG style diagonalization
     c_bands:  1 eigenvalues not converged
     ethr =  4.67E-06,  avg # of iterations =  4.3

     total cpu time spent up to now is      543.8 secs

     total energy              =   -5248.62271737 Ry
     Harris-Foulkes estimate   =   -5248.62506211 Ry
     estimated scf accuracy    <       0.00466156 Ry

     iteration #  6     ecut=    40.00 Ry     beta=0.70
     CG style diagonalization
     ethr =  1.57E-06,  avg # of iterations =  3.6

     total cpu time spent up to now is      560.9 secs

     total energy              =   -5248.62379645 Ry
     Harris-Foulkes estimate   =   -5248.62405774 Ry
     estimated scf accuracy    <       0.00055600 Ry

     iteration #  7     ecut=    40.00 Ry     beta=0.70
     CG style diagonalization
     ethr =  1.88E-07,  avg # of iterations =  3.5

     total cpu time spent up to now is      578.1 secs

     End of self-consistent calculation

          k = 0.0000 0.0000 0.0000 (  3675 PWs)   bands (ev):

   -87.8930 -87.8615 -87.8061 -87.7261 -87.7231 -87.6340 -87.6171 -87.6001
   -76.3795 -76.3403 -76.3322 -76.2976 -44.7781 -44.7726 -44.7677 -44.7561
   -44.7528 -44.7286 -44.7256 -44.7239 -44.7106 -44.7022 -44.7020 -44.6848
   -44.6799 -44.6762 -44.6392 -44.6387 -44.6274 -44.6266 -44.6222 -44.6210
   -44.6172 -44.5948 -44.5598 -44.5512 -36.3955 -36.3913 -36.3895 -36.3823
   -36.3773 -36.3768 -36.3768 -36.3751 -36.2811 -36.2781 -36.2756 -36.2665
    14.3273  14.3578  14.3908  14.4156  14.4337  14.4564  14.5749  14.6103
    14.6210  14.6821  14.7261  14.8624  14.9030  14.9532  15.0143  15.0669
    15.1121  15.1840  15.2584  15.2598  15.2628  15.3724  15.3827  15.3916
    15.4577  15.5331  15.6089  15.6960  15.6975  15.6988  15.7085  15.8440
    15.8730  15.9466  16.1700  16.2420  16.3121  16.3306  16.3574  16.4432
    20.1529  20.3964  20.3988  20.5787  20.6777  20.7456  20.8418  20.9196
    20.9336  20.9502  20.9787  21.0086  21.0755  21.1311  21.1965  21.3142
    21.3170  21.3283  21.3396  21.4206  22.1138  25.5619  25.9086  29.6825
    29.9501  32.1120  32.7150  32.8355  33.1188  33.1479  35.3297  36.4344
    36.4549  37.7067  37.7519  38.2188  38.2955  40.2478  40.2620  40.5093
    40.7533  40.9958  41.6424  41.7855  41.9613  42.2065  42.4842  42.6335
    43.3840  45.1981  45.2700  45.2963  45.3798  45.6310  45.8575  45.8988
    46.1992  46.5998  47.4978  47.6477  48.8758  49.2015  49.7135  50.1906
    50.1983  50.2883  50.3955  50.4455  50.6807  51.2490  51.2569  51.5871
    51.8279  51.9882  52.1836  52.3702  53.7139  53.7656  53.9850  54.0704
    54.1817  54.4511  54.7553  55.2540  55.3728  55.6051  55.6902  55.7497
    56.1876  56.6118

          k = 0.0000 0.0000 0.1218 (  3675 PWs)   bands (ev):

   -87.9110 -87.8649 -87.8562 -87.7773 -87.6918 -87.6479 -87.6066 -87.5156
   -76.3988 -76.3370 -76.3280 -76.2883 -44.7741 -44.7741 -44.7679 -44.7611
   -44.7486 -44.7348 -44.7253 -44.7200 -44.7183 -44.7032 -44.6982 -44.6887
   -44.6805 -44.6801 -44.6410 -44.6307 -44.6263 -44.6241 -44.6218 -44.6156
   -44.6103 -44.5998 -44.5611 -44.5545 -36.3926 -36.3884 -36.3869 -36.3868
   -36.3807 -36.3764 -36.3754 -36.3728 -36.2829 -36.2822 -36.2726 -36.2683
    14.2712  14.3117  14.3948  14.4019  14.4924  14.4955  14.5387  14.5568
    14.6645  14.7839  14.7937  14.9072  14.9093  14.9697  15.0090  15.0837
    15.1009  15.1643  15.1792  15.2217  15.3309  15.3629  15.3983  15.3985
    15.4585  15.4689  15.4983  15.6543  15.6726  15.7032  15.7857  15.8082
    15.8755  16.0371  16.1426  16.1885  16.3223  16.3430  16.3822  16.4213
    20.2227  20.4002  20.4029  20.5993  20.6396  20.7857  20.8474  20.8739
    20.8814  20.9646  21.0063  21.0302  21.0893  21.1205  21.1961  21.2529
    21.3318  21.3355  21.3579  21.4076  22.3093  24.0756  27.8377  29.9234
    30.0883  31.3515  31.5866  32.9870  33.2138  34.2167  34.5178  35.8345
    36.4409  36.8276  38.9278  39.4412  39.7323  39.7666  39.7870  40.3621
    40.5185  40.8468  41.3401  41.4451  41.4929  42.4965  42.7310  42.8038
    43.9932  44.2484  44.3861  44.6639  45.3361  45.8401  45.8908  46.0492
    46.2525  47.2002  48.3806  48.6323  48.8511  49.3687  49.8005  49.8720
    49.8959  50.1641  50.2405  50.5240  50.6583  50.8911  51.1467  51.7609
    51.8052  52.0027  52.2224  52.4926  53.4202  53.4681  53.6059  54.0483
    54.2089  54.3254  54.7017  55.1872  55.4982  55.5179  55.6816  55.7255
    56.2379  56.4231

          k = 0.0000 0.0000-0.2437 (  3690 PWs)   bands (ev):

   -87.9350 -87.9350 -87.7846 -87.7846 -87.7647 -87.7647 -87.5719 -87.5719
   -76.3954 -76.3954 -76.3283 -76.3283 -44.7747 -44.7747 -44.7678 -44.7678
   -44.7416 -44.7416 -44.7267 -44.7267 -44.7073 -44.7073 -44.7044 -44.7044
   -44.6793 -44.6793 -44.6376 -44.6376 -44.6248 -44.6248 -44.6234 -44.6234
   -44.6092 -44.6092 -44.5616 -44.5616 -36.3893 -36.3893 -36.3860 -36.3860
   -36.3806 -36.3806 -36.3771 -36.3771 -36.2876 -36.2876 -36.2727 -36.2727
    14.2647  14.2647  14.3970  14.3970  14.4343  14.4343  14.6692  14.6692
    14.6848  14.6848  14.9056  14.9056  14.9544  14.9544  15.0282  15.0282
    15.1511  15.1511  15.1831  15.1831  15.3133  15.3133  15.3456  15.3456
    15.4578  15.4578  15.6448  15.6448  15.6738  15.6738  15.6980  15.6980
    16.0552  16.0552  16.0937  16.0937  16.3447  16.3447  16.3938  16.3938
    20.3976  20.3976  20.4033  20.4033  20.7714  20.7714  20.8486  20.8486
    20.8812  20.8812  21.0892  21.0892  21.1126  21.1126  21.1296  21.1296
    21.3653  21.3653  21.3720  21.3720  22.9386  22.9386  30.2388  30.2388
    30.5133  30.5133  30.6890  30.6890  34.2707  34.2707  35.3207  35.3207
    36.4163  36.4163  38.6863  38.6863  40.4388  40.4388  40.6124  40.6124
    40.6245  40.6245  41.5486  41.5486  42.0975  42.0975  42.5593  42.5593
    42.9335  42.9335  44.4811  44.4811  45.6633  45.6633  45.8776  45.8776
    47.6902  47.6902  48.7860  48.7860  48.8080  48.8080  49.5872  49.5872
    50.1724  50.1724  50.3367  50.3367  50.9011  50.9011  51.3758  51.3758
    52.0923  52.0923  52.5034  52.5034  53.0382  53.0382  53.3498  53.3498
    54.7552  54.7552  54.7800  54.7800  55.0527  55.0527  55.5986  55.5986
    56.8111  56.8111

          k = 0.0000 0.2353 0.0000 (  3664 PWs)   bands (ev):

   -87.8442 -87.8426 -87.8101 -87.7987 -87.6590 -87.6042 -87.5698 -87.5479
   -76.3779 -76.3751 -76.2818 -76.2316 -44.7745 -44.7692 -44.7593 -44.7579
   -44.7452 -44.7358 -44.7220 -44.7139 -44.7137 -44.7110 -44.6966 -44.6879
   -44.6641 -44.6489 -44.6367 -44.6339 -44.6291 -44.6268 -44.6195 -44.6174
   -44.6083 -44.5971 -44.5804 -44.5775 -36.3950 -36.3922 -36.3858 -36.3823
   -36.3799 -36.3766 -36.3732 -36.3726 -36.2807 -36.2804 -36.2698 -36.2691
    14.3759  14.4156  14.5495  14.5540  14.5726  14.5770  14.6366  14.6436
    14.7612  14.7779  14.7966  14.8370  14.9714  14.9718  15.0297  15.1008
    15.1098  15.1387  15.2090  15.2440  15.2458  15.2565  15.3889  15.4097
    15.4233  15.5254  15.5408  15.5738  15.6373  15.7067  15.8985  15.9079
    15.9329  15.9385  16.0649  16.1004  16.1597  16.3228  16.3420  16.3791
    20.2926  20.3655  20.3986  20.5437  20.6331  20.6975  20.7128  20.7582
    20.7873  20.8441  20.9469  21.0471  21.1359  21.1515  21.1914  21.2494
    21.2671  21.2796  21.2947  21.3751  22.9224  25.5171  26.3565  26.6766
    28.7488  29.0589  34.1299  34.9007  35.4663  36.5066  36.5897  37.2108
    37.2852  37.8198  37.9196  38.3131  38.4338  38.4383  38.5890  39.1647
    39.2031  40.4058  40.5988  40.6969  40.9116  41.8478  43.9528  44.5565
    45.0705  45.5274  45.9477  45.9825  46.1265  46.6089  46.9017  46.9362
    47.0579  47.0971  47.4039  47.6920  47.8122  48.6528  48.7886  49.5698
    49.7238  49.7570  49.7844  50.0898  50.2341  50.5763  50.9130  51.2163
    51.2232  52.4195  52.5587  53.3995  53.5323  53.7043  53.7726  54.0622
    54.2609  54.7039  54.7138  54.9067  55.3518  55.5359  55.6934  56.0245
    56.4747  57.1054

          k = 0.0000 0.2353 0.1218 (  3669 PWs)   bands (ev):

   -87.8986 -87.8435 -87.7861 -87.7689 -87.6934 -87.6538 -87.5683 -87.5610
   -76.3661 -76.3592 -76.3141 -76.2719 -44.7751 -44.7730 -44.7636 -44.7588
   -44.7452 -44.7388 -44.7193 -44.7171 -44.7143 -44.7077 -44.6963 -44.6907
   -44.6652 -44.6492 -44.6342 -44.6314 -44.6279 -44.6278 -44.6227 -44.6198
   -44.6056 -44.5999 -44.5818 -44.5772 -36.3931 -36.3920 -36.3837 -36.3831
   -36.3796 -36.3782 -36.3761 -36.3724 -36.2828 -36.2813 -36.2728 -36.2687
    14.3715  14.4053  14.4499  14.4703  14.6010  14.6286  14.6509  14.7356
    14.7807  14.7846  14.8238  14.8814  14.9361  14.9443  15.0599  15.0904
    15.1136  15.1816  15.2157  15.2207  15.2801  15.3163  15.3532  15.3986
    15.4302  15.5058  15.5129  15.5408  15.6117  15.6821  15.8291  15.8719
    15.9291  15.9806  16.0663  16.0807  16.2001  16.3263  16.3268  16.3681
    20.3370  20.3709  20.4079  20.5951  20.6473  20.6606  20.7172  20.7352
    20.8225  20.8370  20.9521  20.9911  21.1145  21.1447  21.1808  21.2024
    21.2558  21.2776  21.3181  21.3976  23.1337  24.8931  25.7474  27.3896
    28.6035  30.7959  33.6172  34.4567  34.9500  35.4480  36.3408  36.7704
    36.8393  37.1532  37.5099  38.2536  38.6711  39.0422  39.6977  39.8359
    40.3093  40.5573  41.1783  41.6432  41.6762  42.0995  42.8186  44.3804
    44.3989  44.8642  45.1085  45.1779  45.3693  46.2069  46.3696  46.9643
    47.0806  47.1565  47.7157  48.4856  48.7940  49.0333  49.1809  49.2793
    49.3670  49.8492  50.1042  50.2062  50.3818  50.7339  50.9262  51.6085
    51.7136  52.4567  52.7192  53.2062  53.4777  53.5904  53.6709  54.0709
    54.3143  54.5390  54.9626  55.0896  55.3638  55.6205  55.7487  56.4216
    56.7137  56.7169

          k = 0.0000 0.2353-0.2437 (  3666 PWs)   bands (ev):

   -87.8459 -87.8459 -87.7453 -87.7453 -87.6790 -87.6790 -87.5933 -87.5933
   -76.3444 -76.3444 -76.3025 -76.3025 -44.7725 -44.7725 -44.7598 -44.7598
   -44.7412 -44.7412 -44.7193 -44.7193 -44.7101 -44.7101 -44.6887 -44.6887
   -44.6593 -44.6593 -44.6319 -44.6319 -44.6270 -44.6270 -44.6229 -44.6229
   -44.6020 -44.6020 -44.5792 -44.5792 -36.3907 -36.3907 -36.3850 -36.3850
   -36.3784 -36.3784 -36.3732 -36.3732 -36.2817 -36.2817 -36.2706 -36.2706
    14.3908  14.3908  14.3995  14.3995  14.6481  14.6481  14.6761  14.6761
    14.8476  14.8476  14.8749  14.8749  14.9263  14.9263  15.1022  15.1022
    15.1359  15.1359  15.2471  15.2471  15.3093  15.3093  15.3474  15.3474
    15.4643  15.4643  15.5213  15.5213  15.5985  15.5985  15.8144  15.8144
    16.0147  16.0147  16.0256  16.0256  16.2848  16.2848  16.3489  16.3489
    20.3758  20.3758  20.5078  20.5078  20.6828  20.6828  20.7230  20.7230
    20.8438  20.8438  20.9146  20.9146  21.1359  21.1359  21.1923  21.1923
    21.2275  21.2275  21.3853  21.3853  23.7823  23.7823  26.3585  26.3585
    30.9988  30.9988  33.0034  33.0034  35.3816  35.3816  35.5999  35.5999
    36.9271  36.9271  38.1434  38.1434  38.4701  38.4701  40.8363  40.8363
    41.4154  41.4154  42.0342  42.0342  42.1860  42.1860  42.7688  42.7688
    44.0070  44.0070  44.1105  44.1105  46.0240  46.0240  46.2619  46.2619
    47.2545  47.2545  47.6470  47.6470  48.9000  48.9000  49.7386  49.7386
    49.8551  49.8551  50.6664  50.6664  50.7684  50.7684  51.5335  51.5335
    52.2703  52.2703  52.6909  52.6909  53.2400  53.2400  54.3472  54.3472
    54.7167  54.7167  54.7845  54.7845  55.3298  55.3298  56.2158  56.2158
    56.4450  56.4450

          k =-0.4608 0.0000 0.0000 (  3722 PWs)   bands (ev):

   -87.9259 -87.9259 -87.8591 -87.8591 -87.8014 -87.8014 -87.7567 -87.7567
   -76.4288 -76.4288 -76.4141 -76.4141 -44.7837 -44.7837 -44.7751 -44.7751
   -44.7555 -44.7555 -44.7314 -44.7314 -44.7159 -44.7159 -44.7020 -44.7020
   -44.6801 -44.6801 -44.6451 -44.6451 -44.6370 -44.6370 -44.6225 -44.6225
   -44.6056 -44.6056 -44.5587 -44.5587 -36.4012 -36.4012 -36.3955 -36.3955
   -36.3804 -36.3804 -36.3775 -36.3775 -36.2814 -36.2814 -36.2772 -36.2772
    14.3980  14.3980  14.5509  14.5509  14.6765  14.6765  14.7944  14.7944
    14.8046  14.8046  14.9385  14.9385  14.9852  14.9852  14.9943  14.9943
    15.0980  15.0980  15.1545  15.1545  15.1787  15.1787  15.3293  15.3293
    15.3371  15.3371  15.4583  15.4583  15.5651  15.5651  15.7048  15.7048
    15.7590  15.7590  16.0515  16.0515  16.2770  16.2770  16.4541  16.4541
    20.2130  20.2130  20.4336  20.4336  20.7627  20.7627  20.8919  20.8919
    20.9267  20.9267  20.9580  20.9580  21.0990  21.0990  21.2728  21.2728
    21.2979  21.2979  21.3870  21.3870  25.1183  25.1183  28.7657  28.7657
    28.8324  28.8324  31.9636  31.9636  33.3775  33.3775  35.4411  35.4411
    35.6903  35.6903  36.2947  36.2947  36.3398  36.3398  39.0544  39.0544
    39.4840  39.4840  43.3660  43.3660  43.9925  43.9925  45.3370  45.3370
    46.3222  46.3222  47.3453  47.3453  47.3994  47.3994  47.8011  47.8011
    47.8526  47.8526  47.9218  47.9218  49.3303  49.3303  49.4524  49.4524
    49.7825  49.7825  50.6102  50.6102  50.7419  50.7419  51.3785  51.3785
    51.9372  51.9372  52.5815  52.5815  53.6753  53.6753  53.9613  53.9613
    53.9648  53.9648  55.0668  55.0668  55.1776  55.1776  55.4621  55.4621
    55.5759  55.5759

          k =-0.4608 0.0000 0.1218 (  3710 PWs)   bands (ev):

   -87.9046 -87.9046 -87.8303 -87.8303 -87.8037 -87.8037 -87.6999 -87.6999
   -76.4021 -76.4021 -76.3993 -76.3993 -44.7844 -44.7844 -44.7666 -44.7666
   -44.7511 -44.7511 -44.7338 -44.7338 -44.7130 -44.7130 -44.7034 -44.7034
   -44.6790 -44.6790 -44.6419 -44.6419 -44.6366 -44.6366 -44.6194 -44.6194
   -44.6037 -44.6037 -44.5606 -44.5606 -36.3990 -36.3990 -36.3944 -36.3944
   -36.3794 -36.3794 -36.3754 -36.3754 -36.2807 -36.2807 -36.2770 -36.2770
    14.4162  14.4162  14.5592  14.5592  14.6839  14.6839  14.7346  14.7346
    14.8332  14.8332  14.9139  14.9139  14.9955  14.9955  15.0520  15.0520
    15.1037  15.1037  15.1336  15.1336  15.2094  15.2094  15.2685  15.2685
    15.4193  15.4193  15.4728  15.4728  15.5495  15.5495  15.6595  15.6595
    15.8219  15.8219  16.0406  16.0406  16.2450  16.2450  16.4465  16.4465
    20.2086  20.2086  20.3977  20.3977  20.7550  20.7550  20.8481  20.8481
    20.9473  20.9473  21.0115  21.0115  21.0857  21.0857  21.2725  21.2725
    21.3169  21.3169  21.3931  21.3931  25.3628  25.3628  27.3058  27.3058
    30.5950  30.5950  32.1617  32.1617  33.3623  33.3623  34.6751  34.6751
    34.9485  34.9485  36.2072  36.2072  37.1842  37.1842  38.0922  38.0922
    41.4550  41.4550  42.1249  42.1249  43.2303  43.2303  46.6180  46.6180
    47.1570  47.1570  47.2587  47.2587  47.6220  47.6220  47.8447  47.8447
    47.9173  47.9173  48.1430  48.1430  48.3694  48.3694  49.0730  49.0730
    49.6836  49.6836  49.9199  49.9199  50.9097  50.9097  51.2370  51.2370
    52.1286  52.1286  52.7580  52.7580  53.2873  53.2873  54.0339  54.0339
    54.7098  54.7098  54.8338  54.8338  55.0014  55.0014  55.9478  55.9478
    56.1612  56.1612

          k =-0.4608 0.0000-0.2437 (  3680 PWs)   bands (ev):

   -87.8257 -87.8257 -87.7977 -87.7977 -87.7415 -87.7415 -87.6249 -87.6249
   -76.3685 -76.3685 -76.3325 -76.3325 -44.7782 -44.7782 -44.7582 -44.7582
   -44.7459 -44.7459 -44.7284 -44.7284 -44.7070 -44.7070 -44.7050 -44.7050
   -44.6793 -44.6793 -44.6372 -44.6372 -44.6345 -44.6345 -44.6148 -44.6148
   -44.5950 -44.5950 -44.5559 -44.5559 -36.3944 -36.3944 -36.3923 -36.3923
   -36.3755 -36.3755 -36.3705 -36.3705 -36.2770 -36.2770 -36.2767 -36.2767
    14.4346  14.4346  14.5666  14.5666  14.6991  14.6991  14.7006  14.7006
    14.8395  14.8395  14.8590  14.8590  15.0292  15.0292  15.0951  15.0951
    15.1048  15.1048  15.1526  15.1526  15.2058  15.2058  15.3130  15.3130
    15.4107  15.4107  15.5397  15.5397  15.5540  15.5540  15.5731  15.5731
    15.9251  15.9251  16.0389  16.0389  16.1977  16.1977  16.4349  16.4349
    20.2059  20.2059  20.3621  20.3621  20.7490  20.7490  20.8273  20.8273
    20.9545  20.9545  21.0356  21.0356  21.1201  21.1201  21.2549  21.2549
    21.3102  21.3102  21.4206  21.4206  25.8814  25.8814  26.4001  26.4001
    31.8049  31.8049  32.7099  32.7099  33.1136  33.1136  34.2094  34.2094
    34.4639  34.4639  34.7630  34.7630  38.6985  38.6985  38.9146  38.9146
    39.6496  39.6496  42.0955  42.0955  45.0135  45.0135  45.2045  45.2045
    47.0484  47.0484  47.7798  47.7798  47.7990  47.7990  47.9255  47.9255
    48.2756  48.2756  48.3807  48.3807  48.5836  48.5836  48.9891  48.9891
    49.3885  49.3885  50.1059  50.1059  50.1701  50.1701  51.1074  51.1074
    51.1800  51.1800  53.4298  53.4298  53.6224  53.6224  54.1338  54.1338
    54.5550  54.5550  55.0513  55.0513  55.1127  55.1127  56.1026  56.1026
    56.7695  56.7695

          k =-0.4608 0.2353 0.0000 (  3686 PWs)   bands (ev):

   -87.8294 -87.8294 -87.8249 -87.8249 -87.7313 -87.7313 -87.6784 -87.6784
   -76.3766 -76.3766 -76.3538 -76.3538 -44.7742 -44.7742 -44.7695 -44.7695
   -44.7434 -44.7434 -44.7330 -44.7330 -44.7020 -44.7020 -44.6936 -44.6936
   -44.6566 -44.6566 -44.6418 -44.6418 -44.6399 -44.6399 -44.6193 -44.6193
   -44.5948 -44.5948 -44.5774 -44.5774 -36.3996 -36.3996 -36.3948 -36.3948
   -36.3743 -36.3743 -36.3734 -36.3734 -36.2756 -36.2756 -36.2729 -36.2729
    14.5280  14.5280  14.5672  14.5672  14.8212  14.8212  14.8298  14.8298
    14.8730  14.8730  14.8807  14.8807  15.0462  15.0462  15.0754  15.0754
    15.1215  15.1215  15.2371  15.2371  15.2673  15.2673  15.3278  15.3278
    15.3798  15.3798  15.4361  15.4361  15.5927  15.5927  15.7290  15.7290
    15.8163  15.8163  15.8827  15.8827  16.1525  16.1525  16.2981  16.2981
    20.3280  20.3280  20.4371  20.4371  20.7717  20.7717  20.8278  20.8278
    20.8461  20.8461  20.8918  20.8918  21.0048  21.0048  21.1189  21.1189
    21.1610  21.1610  21.2167  21.2167  26.0558  26.0558  28.4649  28.4649
    29.6254  29.6254  29.9150  29.9150  32.0080  32.0080  32.2686  32.2686
    37.9753  37.9753  39.2768  39.2768  39.8615  39.8615  40.4723  40.4723
    41.1320  41.1320  41.7544  41.7544  42.1998  42.1998  44.1384  44.1384
    46.3557  46.3557  46.4341  46.4341  47.5243  47.5243  47.5436  47.5436
    48.1766  48.1766  48.2097  48.2097  48.6342  48.6342  49.0018  49.0018
    49.6487  49.6487  50.0668  50.0668  50.3378  50.3378  51.3744  51.3744
    52.2541  52.2541  52.6210  52.6210  53.8758  53.8758  53.9275  53.9275
    54.1304  54.1304  54.4917  54.4917  55.7284  55.7284  55.9836  55.9836
    56.0590  56.0590

          k =-0.4608 0.2353 0.1218 (  3692 PWs)   bands (ev):

   -87.8401 -87.8401 -87.8148 -87.8148 -87.7447 -87.7447 -87.7075 -87.7075
   -76.4061 -76.4061 -76.3426 -76.3426 -44.7752 -44.7752 -44.7674 -44.7674
   -44.7415 -44.7415 -44.7341 -44.7341 -44.7034 -44.7034 -44.6976 -44.6976
   -44.6592 -44.6592 -44.6411 -44.6411 -44.6355 -44.6355 -44.6221 -44.6221
   -44.5986 -44.5986 -44.5802 -44.5802 -36.3966 -36.3966 -36.3957 -36.3957
   -36.3761 -36.3761 -36.3738 -36.3738 -36.2795 -36.2795 -36.2730 -36.2730
    14.5312  14.5312  14.5868  14.5868  14.7609  14.7609  14.8240  14.8240
    14.8826  14.8826  14.9030  14.9030  15.0063  15.0063  15.0752  15.0752
    15.1599  15.1599  15.2268  15.2268  15.2735  15.2735  15.3372  15.3372
    15.4202  15.4202  15.4571  15.4571  15.5898  15.5898  15.6888  15.6888
    15.8138  15.8138  15.8978  15.8978  16.1172  16.1172  16.2939  16.2939
    20.3095  20.3095  20.4030  20.4030  20.7578  20.7578  20.7959  20.7959
    20.8645  20.8645  20.9523  20.9523  20.9946  20.9946  21.1346  21.1346
    21.1586  21.1586  21.2103  21.2103  26.2811  26.2811  28.0506  28.0506
    28.9680  28.9680  30.5871  30.5871  31.6883  31.6883  33.9050  33.9050
    36.8587  36.8587  38.0342  38.0342  38.9836  38.9836  39.8449  39.8449
    42.2913  42.2913  42.8361  42.8361  44.0539  44.0539  44.3558  44.3558
    45.5227  45.5227  46.5408  46.5408  47.4959  47.4959  47.7616  47.7616
    48.0581  48.0581  48.3528  48.3528  48.5112  48.5112  48.7237  48.7237
    48.9879  48.9879  49.6131  49.6131  49.8112  49.8112  51.5214  51.5214
    52.0164  52.0164  52.5779  52.5779  53.8278  53.8278  54.2481  54.2481
    54.6640  54.6640  55.1901  55.1901  55.4658  55.4658  56.2450  56.2450
    56.5645  56.5645

          k =-0.4608 0.2353-0.2437 (  3704 PWs)   bands (ev):

   -87.8900 -87.8900 -87.8260 -87.8260 -87.7568 -87.7568 -87.7336 -87.7336
   -76.4355 -76.4355 -76.3545 -76.3545 -44.7780 -44.7780 -44.7639 -44.7639
   -44.7432 -44.7432 -44.7374 -44.7374 -44.7064 -44.7064 -44.7054 -44.7054
   -44.6609 -44.6609 -44.6399 -44.6399 -44.6365 -44.6365 -44.6240 -44.6240
   -44.5991 -44.5991 -44.5840 -44.5840 -36.3969 -36.3969 -36.3968 -36.3968
   -36.3776 -36.3776 -36.3744 -36.3744 -36.2808 -36.2808 -36.2767 -36.2767
    14.5282  14.5282  14.6278  14.6278  14.6970  14.6970  14.8364  14.8364
    14.8628  14.8628  14.9367  14.9367  14.9586  14.9586  15.1005  15.1005
    15.1697  15.1697  15.2128  15.2128  15.2539  15.2539  15.3823  15.3823
    15.4394  15.4394  15.5036  15.5036  15.5473  15.5473  15.6788  15.6788
    15.7685  15.7685  15.9827  15.9827  16.0378  16.0378  16.2811  16.2811
    20.2906  20.2906  20.3697  20.3697  20.7626  20.7626  20.7739  20.7739
    20.8701  20.8701  20.9573  20.9573  21.0403  21.0403  21.1161  21.1161
    21.1501  21.1501  21.2178  21.2178  26.7932  26.7932  27.2051  27.2051
    29.3776  29.3776  29.7531  29.7531  33.2430  33.2430  34.6160  34.6160
    36.1794  36.1794  36.3924  36.3924  38.8175  38.8175  39.1332  39.1332
    43.3920  43.3920  44.1074  44.1074  44.8258  44.8258  44.9982  44.9982
    45.4965  45.4965  45.6507  45.6507  47.2782  47.2782  47.5769  47.5769
    48.2054  48.2054  48.2318  48.2318  48.5421  48.5421  48.7149  48.7149
    48.8044  48.8044  48.8755  48.8755  49.0048  49.0048  51.5808  51.5808
    52.0401  52.0401  52.4379  52.4379  54.0172  54.0172  54.4097  54.4097
    54.9261  54.9261  55.4072  55.4072  56.0679  56.0679  56.3115  56.3116
    56.9071  56.9076

     the Fermi energy is    48.4266 ev

!    total energy              =   -5248.62392338 Ry
     Harris-Foulkes estimate   =   -5248.62393558 Ry
     estimated scf accuracy    <       0.00001671 Ry

     The total energy is the sum of the following terms:

     one-electron contribution =    -858.59950223 Ry
     hartree contribution      =     705.90412805 Ry
     xc contribution           =    -411.34337164 Ry
     ewald contribution        =   -4684.00008329 Ry
     smearing contrib. (-TS)   =      -0.58509428 Ry

     convergence has been achieved in   7 iterations

     Forces acting on atoms (Ry/au):

     atom    1 type  1   force =     0.00000000   -0.01644451   -0.02578888
     atom    2 type  1   force =     0.00000000    0.01644451    0.02578888
     atom    3 type  1   force =     0.00000000   -0.01644451    0.02578888
     atom    4 type  1   force =     0.00000000    0.01644451   -0.02578888
     atom    5 type  1   force =     0.00000000    0.10947743   -0.23754978
     atom    6 type  1   force =     0.00000000   -0.10947743    0.23754978
     atom    7 type  1   force =     0.00000000    0.10947743    0.23754978
     atom    8 type  1   force =     0.00000000   -0.10947743   -0.23754978
     atom    9 type  2   force =     0.00000000   -0.20299323    0.05616576
     atom   10 type  2   force =     0.00000000    0.20299323   -0.05616576
     atom   11 type  2   force =     0.00000000   -0.20299323   -0.05616576
     atom   12 type  2   force =     0.00000000    0.20299323    0.05616576

     Total force =     0.674423     Total SCF correction =     0.000000


     entering subroutine stress ...

          total   stress  (Ry/bohr**3)                   (kbar)     P= 1950.57
   0.01416648   0.00000000   0.00000000       2083.96      0.00      0.00
   0.00000000   0.01211791   0.00000000          0.00   1782.61      0.00
   0.00000000   0.00000000   0.01349476          0.00      0.00   1985.15


     number of scf cycles    =   2
     number of bfgs steps    =   1

     enthalpy old            =   -5241.9531907520 Ry
     enthalpy new            =   -5248.6239233806 Ry

     CASE: enthalpy_new < enthalpy_old

     small trust_radius: resetting bfgs history

     new trust radius        =       2.3373562502 bohr
     new conv_thr            =       0.0001000000 Ry

     new unit-cell volume =   2569.41685 a.u.^3 (   380.74829 Ang^3 )

CELL_PARAMETERS (alat=  7.01510508)
   1.469450876   0.000000000   0.000000000
   0.000000000   1.845912059   0.000000000
   0.000000000   0.000000000   2.743885263

ATOMIC_POSITIONS (crystal)
Co       0.750000000   0.824314836   0.433480943
Co       0.250000000   0.175685164   0.566519057
Co       0.750000000   0.324314836   0.066519057
Co       0.250000000   0.675685164   0.933480943
Co       0.250000000   0.549302454   0.264020680
Co       0.750000000   0.450697546   0.735979320
Co       0.250000000   0.049302454   0.235979320
Co       0.750000000   0.950697546   0.764020680
Si       0.250000000   0.180315196   0.897511437
Si       0.750000000   0.819684804   0.102488563
Si       0.250000000   0.680315196   0.602488563
Si       0.750000000   0.319684804   0.397511437



     Writing output data file Prototype-La-oP12-Co2Si.save
     NEW-OLD atomic charge density approx. for the potential
     NEW k-points:
        k(    1) = (   0.0000000   0.0000000   0.0000000), wk =   0.0833333
        k(    2) = (   0.0000000   0.0000000   0.0911117), wk =   0.1666667
        k(    3) = (   0.0000000   0.0000000  -0.1822234), wk =   0.0833333
        k(    4) = (   0.0000000   0.1805792   0.0000000), wk =   0.1666667
        k(    5) = (   0.0000000   0.1805792   0.0911117), wk =   0.3333333
        k(    6) = (   0.0000000   0.1805792  -0.1822234), wk =   0.1666667
        k(    7) = (  -0.3402632   0.0000000   0.0000000), wk =   0.0833333
        k(    8) = (  -0.3402632   0.0000000   0.0911117), wk =   0.1666667
        k(    9) = (  -0.3402632   0.0000000  -0.1822234), wk =   0.0833333
        k(   10) = (  -0.3402632   0.1805792   0.0000000), wk =   0.1666667
        k(   11) = (  -0.3402632   0.1805792   0.0911117), wk =   0.3333333
        k(   12) = (  -0.3402632   0.1805792  -0.1822234), wk =   0.1666667

     total cpu time spent up to now is      584.7 secs

     Self-consistent Calculation

     iteration #  1     ecut=    40.00 Ry     beta=0.70
     CG style diagonalization
     c_bands:  1 eigenvalues not converged
     c_bands:  1 eigenvalues not converged
     c_bands:  2 eigenvalues not converged
     c_bands:  1 eigenvalues not converged
     c_bands:  2 eigenvalues not converged
     c_bands:  2 eigenvalues not converged
     c_bands:  1 eigenvalues not converged
     ethr =  1.00E-06,  avg # of iterations = 37.8

     total cpu time spent up to now is      777.0 secs

     total energy              =   -5087.53643857 Ry
     Harris-Foulkes estimate   =   -5494.85221024 Ry
     estimated scf accuracy    <     498.83259097 Ry

     iteration #  2     ecut=    40.00 Ry     beta=0.70
     CG style diagonalization
     ethr =  1.00E-02,  avg # of iterations =  5.8

     total cpu time spent up to now is      807.4 secs

     total energy              =   -5193.57935533 Ry
     Harris-Foulkes estimate   =   -5214.22883517 Ry
     estimated scf accuracy    <      27.68762598 Ry

     iteration #  3     ecut=    40.00 Ry     beta=0.70
     CG style diagonalization
     ethr =  9.35E-03,  avg # of iterations =  3.7

     total cpu time spent up to now is      825.4 secs

     total energy              =   -5201.81983324 Ry
     Harris-Foulkes estimate   =   -5206.47033088 Ry
     estimated scf accuracy    <       8.20200340 Ry

     iteration #  4     ecut=    40.00 Ry     beta=0.70
     CG style diagonalization
     ethr =  2.77E-03,  avg # of iterations =  3.4

     total cpu time spent up to now is      841.5 secs

     total energy              =   -5203.48694166 Ry
     Harris-Foulkes estimate   =   -5203.62255161 Ry
     estimated scf accuracy    <       0.22295942 Ry

     iteration #  5     ecut=    40.00 Ry     beta=0.70
     CG style diagonalization
     c_bands:  1 eigenvalues not converged
     c_bands:  1 eigenvalues not converged
     c_bands:  2 eigenvalues not converged
     ethr =  7.53E-05,  avg # of iterations =  4.3

     total cpu time spent up to now is      862.7 secs

     total energy              =   -5203.57294586 Ry
     Harris-Foulkes estimate   =   -5203.61100011 Ry
     estimated scf accuracy    <       0.07088397 Ry

     iteration #  6     ecut=    40.00 Ry     beta=0.70
     CG style diagonalization
     ethr =  2.39E-05,  avg # of iterations =  3.6

     total cpu time spent up to now is      879.8 secs

     total energy              =   -5203.58848279 Ry
     Harris-Foulkes estimate   =   -5203.59385119 Ry
     estimated scf accuracy    <       0.01043678 Ry

     iteration #  7     ecut=    40.00 Ry     beta=0.70
     CG style diagonalization
     c_bands:  1 eigenvalues not converged
     c_bands:  1 eigenvalues not converged
     ethr =  3.53E-06,  avg # of iterations =  3.9

     total cpu time spent up to now is      898.6 secs

     total energy              =   -5203.59086870 Ry
     Harris-Foulkes estimate   =   -5203.59156478 Ry
     estimated scf accuracy    <       0.00120415 Ry

     iteration #  8     ecut=    40.00 Ry     beta=0.70
     CG style diagonalization
     ethr =  4.07E-07,  avg # of iterations =  3.5

     total cpu time spent up to now is      914.3 secs

     total energy              =   -5203.59121067 Ry
     Harris-Foulkes estimate   =   -5203.59137065 Ry
     estimated scf accuracy    <       0.00034755 Ry

     iteration #  9     ecut=    40.00 Ry     beta=0.70
     CG style diagonalization
     ethr =  1.17E-07,  avg # of iterations =  3.2

     total cpu time spent up to now is      929.7 secs

     End of self-consistent calculation

          k = 0.0000 0.0000 0.0000 (  3675 PWs)   bands (ev):

  -115.6366-115.5732-115.5697-115.5271-115.4172-115.4165-115.3178-115.2736
  -102.0275-102.0215-101.8986-101.8295 -79.5504 -79.4808 -79.4644 -79.4319
   -79.3951 -79.3652 -79.3070 -79.2950 -79.2804 -79.2644 -79.2522 -79.1971
   -79.1374 -79.1113 -79.0927 -79.0867 -79.0622 -79.0486 -78.9554 -78.9500
   -78.8358 -78.7982 -78.7946 -78.7509 -69.1953 -69.1305 -69.0806 -69.0782
   -69.0060 -68.9666 -68.9462 -68.9139 -68.8766 -68.7707 -68.7534 -68.7330
   -12.2320 -12.2143 -12.1338 -12.0866 -12.0278 -11.9712 -11.9665 -11.9497
   -11.9008 -11.8925 -11.8296 -11.7959 -11.7356 -11.6812 -11.6675 -11.6062
   -11.5658 -11.5416 -11.5374 -11.4933 -11.4902 -11.4745 -11.4452 -11.4084
   -11.3934 -11.3306 -11.2622 -11.2558 -11.2074 -11.2031 -11.1820 -11.1140
   -11.0113 -11.0032 -10.9741 -10.9676 -10.9029 -10.7432 -10.7158 -10.6003
    -6.4167  -6.3001  -6.2174  -6.2024  -6.1736  -6.1402  -6.1383  -6.1337
    -6.0941  -5.9901  -5.9416  -5.8968  -5.8611  -5.7433  -5.7327  -5.7097
    -5.6739  -5.6224  -5.5798  -5.5655   3.4642   4.5959   4.8253   5.7825
     6.1003   6.1823   6.4725   6.5352   8.5216   8.5902   8.6680   9.5462
    11.3639  12.3561  12.4350  12.7855  12.8697  13.0361  13.0643  13.1526
    13.2040  13.4337  13.8675  14.4435  15.0387  15.0387  15.1416  15.1536
    15.2564  15.4482  15.5930  16.4090  16.4752  16.7006  17.2665  17.5489
    17.6030  17.8226  17.8789  18.5874  18.8659  18.9871  19.2387  19.6102
    20.0406  20.4920  20.5360  21.0610  22.0232  22.5347  22.9755  23.0944
    23.3356  23.5020  23.5127  23.7578  24.0575  24.1908  24.3300  25.0331
    25.0728  25.2227  25.3431  25.6865  26.3272  26.4473  26.4755  26.5699
    26.6298  26.8362

          k = 0.0000 0.0000 0.0911 (  3675 PWs)   bands (ev):

  -115.6629-115.6232-115.5496-115.5296-115.3916-115.3879-115.3648-115.2497
  -102.0325-102.0169-101.8688-101.8675 -79.5468 -79.5261 -79.4805 -79.4548
   -79.4240 -79.4058 -79.3397 -79.3213 -79.2740 -79.2228 -79.1905 -79.1678
   -79.1267 -79.0915 -79.0857 -79.0668 -79.0626 -79.0456 -78.9930 -78.9245
   -78.8167 -78.7909 -78.7641 -78.7192 -69.1992 -69.1461 -69.1115 -69.0940
   -68.9857 -68.9603 -68.9477 -68.8971 -68.8451 -68.7908 -68.7437 -68.6985
   -12.2721 -12.2466 -12.1675 -12.0746 -12.0733 -12.0303 -11.9873 -11.9557
   -11.9110 -11.8765 -11.8296 -11.7956 -11.7497 -11.7241 -11.6926 -11.6523
   -11.5999 -11.5973 -11.5934 -11.5835 -11.5301 -11.4648 -11.4636 -11.4280
   -11.3960 -11.2773 -11.2724 -11.2518 -11.2367 -11.1428 -11.0592 -11.0168
   -10.9808 -10.9151 -10.9096 -10.8642 -10.8587 -10.7746 -10.6538 -10.5575
    -6.3467  -6.2940  -6.2593  -6.2061  -6.2036  -6.1989  -6.1643  -6.1585
    -6.0916  -6.0372  -5.9700  -5.8732  -5.8437  -5.7136  -5.7126  -5.6970
    -5.6831  -5.6159  -5.4974  -5.4622   3.5476   4.1779   5.3033   5.8058
     6.0518   6.2557   6.2962   6.5235   8.3149   8.5357   8.9854   9.5411
    11.4956  12.1314  12.2743  12.3599  12.7424  12.8500  13.1359  13.3007
    13.7534  13.9308  13.9504  14.0352  14.5275  14.9086  15.2180  15.3808
    15.4323  15.4692  16.0268  16.2756  16.7347  16.7853  17.2307  17.4366
    17.5814  17.8767  17.8826  18.6405  18.6513  19.1739  19.1872  19.4374
    19.9715  20.1180  20.4624  20.8275  22.0633  22.3187  22.6237  22.7415
    23.4175  23.6941  23.9474  23.9755  24.2622  24.4243  24.9044  25.1350
    25.1873  25.2886  25.5464  25.6938  25.8977  26.4014  26.5643  26.6316
    26.7282  26.7371

          k = 0.0000 0.0000-0.1822 (  3690 PWs)   bands (ev):

  -115.7270-115.7270-115.5553-115.5553-115.4086-115.4086-115.3353-115.3353
  -102.0880-102.0880-101.8828-101.8828 -79.6107 -79.6107 -79.4999 -79.4999
   -79.4701 -79.4701 -79.3398 -79.3398 -79.3275 -79.3275 -79.2047 -79.2047
   -79.0637 -79.0637 -79.0511 -79.0511 -79.0306 -79.0306 -78.9368 -78.9368
   -78.8188 -78.8188 -78.7247 -78.7247 -69.2186 -69.2186 -69.1244 -69.1244
   -68.9902 -68.9902 -68.9222 -68.9222 -68.8119 -68.8119 -68.6969 -68.6969
   -12.3642 -12.3642 -12.2810 -12.2810 -12.1043 -12.1043 -12.0347 -12.0347
   -11.9968 -11.9968 -11.9152 -11.9152 -11.8491 -11.8491 -11.6841 -11.6841
   -11.6302 -11.6302 -11.5973 -11.5973 -11.5315 -11.5315 -11.4908 -11.4908
   -11.3165 -11.3165 -11.2617 -11.2617 -11.0507 -11.0507 -11.0441 -11.0441
   -10.9671 -10.9671 -10.8943 -10.8943 -10.8578 -10.8578 -10.6311 -10.6311
    -6.4268  -6.4268  -6.3065  -6.3065  -6.2114  -6.2114  -6.1927  -6.1927
    -6.1484  -6.1484  -5.8920  -5.8920  -5.7534  -5.7534  -5.7222  -5.7222
    -5.6056  -5.6056  -5.4965  -5.4965   3.7865   3.7865   5.7756   5.7756
     6.0180   6.0180   6.3942   6.3942   8.3324   8.3324   9.3857   9.3857
    11.8378  11.8378  12.0369  12.0369  12.9198  12.9198  13.1927  13.1927
    13.4901  13.4901  14.6798  14.6798  14.9681  14.9681  15.0375  15.0375
    15.3563  15.3563  15.7353  15.7353  17.0880  17.0880  17.7093  17.7093
    17.7279  17.7279  18.2617  18.2617  18.4172  18.4172  19.3131  19.3131
    20.1297  20.1297  20.2592  20.2592  22.1520  22.1520  22.2823  22.2823
    23.7603  23.7603  24.4758  24.4758  24.8639  24.8639  24.8818  24.8819
    25.4945  25.4945  25.5461  25.5461  26.0495  26.0496  26.1272  26.1274
    26.6188  26.7722

          k = 0.0000 0.1806 0.0000 (  3664 PWs)   bands (ev):

  -115.6002-115.5903-115.5514-115.5319-115.3859-115.3292-115.3064-115.2774
  -102.0305-101.9082-101.8740-101.8658 -79.5043 -79.4920 -79.4659 -79.4423
   -79.3648 -79.3522 -79.2947 -79.2733 -79.2566 -79.2255 -79.2242 -79.1935
   -79.1173 -79.0887 -79.0802 -79.0547 -79.0200 -79.0194 -78.9644 -78.9341
   -78.8229 -78.8221 -78.7423 -78.6953 -69.1606 -69.1177 -69.1060 -69.1013
   -68.9921 -68.9720 -68.8921 -68.8743 -68.8416 -68.7469 -68.7453 -68.7241
   -12.2471 -12.0950 -12.0622 -12.0198 -12.0037 -11.9638 -11.9204 -11.8652
   -11.8370 -11.8163 -11.8075 -11.8007 -11.7880 -11.7614 -11.6812 -11.6437
   -11.5758 -11.5575 -11.5257 -11.5069 -11.4755 -11.4347 -11.4033 -11.3797
   -11.3554 -11.2593 -11.2392 -11.2323 -11.2155 -11.1465 -11.0441 -11.0027
   -10.9741 -10.9100 -10.8871 -10.8664 -10.8561 -10.7877 -10.5888 -10.5428
    -6.2862  -6.2851  -6.2276  -6.2030  -6.1585  -6.1423  -6.1327  -6.0647
    -6.0498  -6.0102  -6.0019  -5.9198  -5.8371  -5.7572  -5.7012  -5.6422
    -5.6240  -5.6017  -5.4804  -5.4643   3.7878   4.6484   4.8997   5.1840
     5.7925   5.8340   6.5918   6.6386   8.3321   8.5082   9.0194   9.4819
    11.8116  12.8274  12.9613  12.9658  13.0158  13.0703  13.2142  13.3910
    13.4679  14.3535  14.4028  14.4761  14.5083  15.0517  15.1783  15.2343
    15.2857  15.3881  15.6763  16.2455  16.5359  16.6628  16.8370  17.0454
    17.1112  18.0511  18.0965  18.3417  18.4000  18.4928  18.5377  18.6768
    18.8133  19.5162  20.3184  20.3706  22.3517  22.6310  22.6959  23.3313
    23.7270  24.0241  24.0708  24.2250  24.2652  24.2686  24.5289  24.8238
    25.0565  25.3204  25.4862  25.5077  25.9105  26.3161  26.6839  26.7049
    26.7421  26.7935

          k = 0.0000 0.1806 0.0911 (  3669 PWs)   bands (ev):

  -115.6683-115.6137-115.5310-115.5111-115.4269-115.3492-115.2911-115.2787
  -102.0269-101.9410-101.9038-101.8665 -79.5484 -79.5114 -79.4664 -79.4518
   -79.4089 -79.3536 -79.3313 -79.3140 -79.2872 -79.2787 -79.2018 -79.1849
   -79.1123 -79.1040 -79.0721 -79.0693 -79.0284 -78.9943 -78.9391 -78.8880
   -78.8265 -78.8026 -78.7302 -78.7100 -69.1659 -69.1523 -69.1243 -69.1112
   -68.9894 -68.9585 -68.9278 -68.8925 -68.8137 -68.7550 -68.7396 -68.7096
   -12.2165 -12.1776 -12.1207 -12.0769 -12.0334 -11.9947 -11.9360 -11.9350
   -11.8957 -11.8587 -11.8481 -11.7958 -11.7672 -11.7212 -11.6927 -11.6537
   -11.6355 -11.5756 -11.5542 -11.5540 -11.5065 -11.4959 -11.4611 -11.4259
   -11.3846 -11.3110 -11.2902 -11.2056 -11.1894 -11.1546 -11.0704 -11.0150
   -10.9644 -10.9003 -10.8663 -10.8087 -10.8060 -10.7969 -10.5443 -10.5002
    -6.3739  -6.3228  -6.2824  -6.2088  -6.1842  -6.1190  -6.1136  -6.0735
    -6.0646  -6.0645  -6.0062  -5.9760  -5.8131  -5.7424  -5.6746  -5.6476
    -5.5997  -5.5883  -5.5277  -5.4305   3.8671   4.4510   4.8286   5.2947
     5.7199   6.1763   6.4832   6.5997   8.3800   8.6014   8.8945   9.3392
    11.9286  12.5970  12.7275  12.7429  12.9785  13.1187  13.1651  13.8222
    13.9228  14.1506  14.2742  14.3118  14.8434  15.0411  15.1653  15.2080
    15.4683  15.6184  15.9285  16.2321  16.4030  16.4370  16.4593  17.2619
    17.6017  17.7858  17.9906  18.1969  18.2198  18.4198  18.4823  18.7321
    19.0391  19.3577  19.9458  20.1713  22.5231  22.7253  23.0028  23.1966
    23.6776  23.7259  24.2360  24.2739  24.4264  24.5171  24.8051  25.0170
    25.0750  25.1508  25.3739  25.5542  25.6772  26.1828  26.2499  26.5261
    26.6796  27.1653

          k = 0.0000 0.1806-0.1822 (  3666 PWs)   bands (ev):

  -115.6171-115.6171-115.4930-115.4930-115.3636-115.3636-115.3307-115.3307
  -101.9705-101.9705-101.8837-101.8837 -79.5219 -79.5219 -79.4310 -79.4310
   -79.3904 -79.3904 -79.3202 -79.3202 -79.2632 -79.2632 -79.2000 -79.2000
   -79.0759 -79.0759 -79.0661 -79.0661 -79.0389 -79.0389 -78.9079 -78.9079
   -78.8103 -78.8103 -78.7466 -78.7466 -69.1517 -69.1517 -69.1154 -69.1154
   -68.9795 -68.9795 -68.9012 -68.9012 -68.7805 -68.7805 -68.7308 -68.7308
   -12.1695 -12.1695 -12.0750 -12.0750 -12.0263 -12.0263 -11.8784 -11.8784
   -11.8390 -11.8390 -11.8286 -11.8286 -11.6642 -11.6642 -11.6347 -11.6347
   -11.5610 -11.5610 -11.5594 -11.5594 -11.5132 -11.5132 -11.4746 -11.4746
   -11.3833 -11.3833 -11.2687 -11.2687 -11.1274 -11.1274 -11.0203 -11.0203
   -10.9384 -10.9384 -10.8966 -10.8966 -10.7761 -10.7761 -10.5504 -10.5504
    -6.3715  -6.3715  -6.2044  -6.2044  -6.1394  -6.1394  -6.0893  -6.0893
    -6.0517  -6.0517  -5.9702  -5.9702  -5.7854  -5.7854  -5.6373  -5.6373
    -5.6349  -5.6349  -5.4770  -5.4770   4.0991   4.0991   5.0170   5.0170
     6.1588   6.1588   6.4576   6.4576   8.5421   8.5421   9.0013   9.0013
    12.2486  12.2486  12.5879  12.5879  13.2128  13.2128  13.3858  13.3858
    13.7436  13.7436  14.8375  14.8375  15.1246  15.1246  15.3094  15.3094
    15.7238  15.7238  15.9845  15.9845  16.0189  16.0189  16.8173  16.8173
    17.5095  17.5095  18.3117  18.3117  18.4707  18.4707  18.7110  18.7110
    18.9753  18.9753  19.7369  19.7369  22.6868  22.6868  23.0581  23.0581
    23.9383  23.9383  24.2659  24.2659  24.5019  24.5019  24.5472  24.5472
    25.6566  25.6567  25.7991  25.7991  26.0874  26.0875  26.1498  26.1499
    26.5272  26.5274

          k =-0.3403 0.0000 0.0000 (  3722 PWs)   bands (ev):

  -115.6462-115.6462-115.6270-115.6270-115.5283-115.5283-115.4697-115.4697
  -102.0823-102.0823-102.0464-102.0464 -79.5069 -79.5069 -79.4760 -79.4760
   -79.4002 -79.4002 -79.3830 -79.3830 -79.3102 -79.3102 -79.2708 -79.2708
   -79.1939 -79.1939 -79.1661 -79.1661 -79.1106 -79.1106 -79.1071 -79.1071
   -79.0149 -79.0149 -78.9408 -78.9408 -69.1581 -69.1581 -69.1355 -69.1355
   -69.0277 -69.0277 -68.9782 -68.9782 -68.9122 -68.9122 -68.8530 -68.8530
   -12.2596 -12.2596 -12.1826 -12.1826 -12.1667 -12.1667 -12.0663 -12.0663
   -11.9833 -11.9833 -11.9656 -11.9656 -11.8718 -11.8718 -11.8413 -11.8413
   -11.7825 -11.7825 -11.6319 -11.6319 -11.5952 -11.5952 -11.4744 -11.4744
   -11.4399 -11.4399 -11.4265 -11.4265 -11.3950 -11.3950 -11.3308 -11.3308
   -11.2645 -11.2645 -11.1798 -11.1798 -11.1424 -11.1424 -11.0202 -11.0202
    -6.3688  -6.3688  -6.3584  -6.3584  -6.3346  -6.3346  -6.1779  -6.1779
    -6.0442  -6.0442  -5.9850  -5.9850  -5.9571  -5.9571  -5.8645  -5.8645
    -5.8522  -5.8522  -5.8001  -5.8001   4.5023   4.5023   5.5329   5.5329
     5.5958   5.5958   6.5076   6.5076   8.3208   8.3208   8.4946   8.4946
    11.2043  11.2043  12.1624  12.1624  12.4134  12.4134  12.7564  12.7564
    12.8506  12.8506  14.9035  14.9035  15.1342  15.1342  16.0295  16.0295
    16.5180  16.5180  16.7119  16.7119  17.6513  17.6513  17.6542  17.6542
    18.5890  18.5890  18.7953  18.7953  18.9760  18.9760  19.1110  19.1110
    20.0070  20.0070  20.1704  20.1704  22.9180  22.9180  23.6404  23.6404
    24.1176  24.1176  24.3664  24.3664  24.5705  24.5705  24.6200  24.6200
    25.0429  25.0429  25.1809  25.1809  25.2143  25.2143  25.4099  25.4099
    25.5930  25.5930

          k =-0.3403 0.0000 0.0911 (  3710 PWs)   bands (ev):

  -115.6515-115.6515-115.5921-115.5921-115.4967-115.4967-115.4335-115.4335
  -102.0403-102.0403-102.0306-102.0306 -79.5127 -79.5127 -79.4728 -79.4728
   -79.4189 -79.4189 -79.3531 -79.3531 -79.3030 -79.3030 -79.2385 -79.2385
   -79.1981 -79.1981 -79.1303 -79.1303 -79.0865 -79.0865 -79.0204 -79.0204
   -78.9863 -78.9863 -78.9041 -78.9041 -69.1608 -69.1608 -69.1326 -69.1326
   -69.0025 -69.0025 -68.9531 -68.9531 -68.8802 -68.8802 -68.8400 -68.8400
   -12.2348 -12.2348 -12.2037 -12.2037 -12.1219 -12.1219 -12.0998 -12.0998
   -12.0194 -12.0194 -11.9086 -11.9086 -11.7918 -11.7918 -11.7064 -11.7064
[...]
    35.0035  35.0035  36.3409  36.3409  37.9841  37.9841  38.3188  38.3188
    39.7278  39.7278  40.0426  40.0426  41.5840  41.5840  41.8351  41.8351
    42.2917  42.2917  42.5680  42.5680  42.6685  42.6685  43.5230  43.5230
    43.9377  43.9377  44.9280  44.9280  45.0576  45.0577  45.5063  45.5063
    46.4667  46.4667  46.6097  46.6098  46.8620  46.8620  47.1891  47.1891
    48.1606  48.1609

          k = 0.0000 0.2235 0.0000 (  5527 PWs)   bands (ev):

   -96.5535 -96.5258 -96.5191 -96.5133 -96.4884 -96.4866 -96.4624 -96.4286
   -84.7390 -84.7244 -84.7110 -84.6823 -52.1201 -52.1151 -52.1074 -52.1025
   -52.0901 -52.0828 -52.0804 -52.0772 -52.0747 -52.0738 -52.0694 -52.0677
   -52.0665 -52.0649 -52.0630 -52.0606 -52.0571 -52.0564 -52.0561 -52.0520
   -52.0488 -52.0488 -52.0459 -52.0454 -43.6436 -43.6426 -43.6382 -43.6377
   -43.6261 -43.6217 -43.6212 -43.6153 -43.5736 -43.5685 -43.5666 -43.5655
     7.6977   7.7095   7.7572   7.7903   7.7956   7.8172   7.8598   7.8727
     7.9345   7.9384   7.9771   7.9875   8.0526   8.0557   8.0853   8.1301
     8.1448   8.1517   8.1540   8.1907   8.2252   8.2380   8.3009   8.3211
     8.3323   8.3661   8.3766   8.3808   8.4102   8.4600   8.5720   8.5826
     8.6015   8.6085   8.6696   8.7100   8.7247   8.8290   8.8304   8.8529
    13.6156  13.6384  13.6744  13.7160  13.7531  13.8285  13.8300  13.8419
    13.8671  13.8844  13.9396  13.9524  14.0399  14.0403  14.0434  14.0726
    14.1106  14.1572  14.1627  14.2005  17.4425  19.6026  20.2738  20.5644
    22.3513  22.6130  27.1674  27.3957  27.6453  28.2561  28.7527  29.4432
    30.1717  30.2340  30.6706  30.7786  31.0125  31.0623  31.0881  31.1248
    31.3341  32.8917  33.0451  33.1537  33.3677  34.3668  36.1300  36.4775
    36.9050  37.5198  37.6675  37.7112  38.1731  38.3010  38.5087  38.7534
    38.8535  38.9036  39.3326  39.5516  39.7552  40.7804  41.1354  41.6026
    41.8130  42.1007  42.2482  42.2605  42.6149  42.8198  42.9273  43.6665
    43.9831  44.2905  44.2922  44.5870  44.7792  45.3511  45.5999  45.6810
    46.1003  46.4145  46.8001  46.9366  46.9801  47.1126  47.4932  47.5085
    47.9259  48.0430

          k = 0.0000 0.2235 0.1147 (  5556 PWs)   bands (ev):

   -96.5852 -96.5693 -96.5454 -96.5314 -96.5078 -96.5019 -96.4770 -96.4736
   -84.7558 -84.7437 -84.7273 -84.7096 -52.1252 -52.1227 -52.1145 -52.1112
   -52.0964 -52.0864 -52.0843 -52.0843 -52.0782 -52.0767 -52.0764 -52.0718
   -52.0710 -52.0699 -52.0686 -52.0674 -52.0667 -52.0632 -52.0595 -52.0588
   -52.0508 -52.0463 -52.0447 -52.0444 -43.6474 -43.6456 -43.6441 -43.6412
   -43.6259 -43.6239 -43.6213 -43.6202 -43.5755 -43.5739 -43.5709 -43.5684
     7.6944   7.7059   7.7238   7.7522   7.8199   7.8489   7.8578   7.9101
     7.9483   7.9498   7.9629   7.9910   8.0316   8.0500   8.1049   8.1128
     8.1200   8.1790   8.1913   8.2151   8.2204   8.2484   8.2881   8.3149
     8.3264   8.3477   8.3681   8.3825   8.3930   8.4551   8.5438   8.5654
     8.6062   8.6205   8.6640   8.6930   8.7488   8.8170   8.8341   8.8501
    13.6339  13.6463  13.6729  13.7365  13.7669  13.7787  13.8329  13.8560
    13.8768  13.8896  13.9261  13.9437  14.0176  14.0265  14.0537  14.0680
    14.1069  14.1465  14.1787  14.2066  17.6203  19.0762  19.7989  21.1916
    22.1362  24.0610  26.2632  27.1276  27.8697  27.8951  28.5852  28.8578
    29.1268  29.7210  30.3628  30.4894  31.0816  31.6970  31.7266  31.9808
    32.6512  32.9044  33.6857  34.0555  34.0565  34.5446  34.7775  36.2735
    36.3634  36.9244  36.9908  37.0403  37.1711  37.9457  38.0957  38.7337
    39.1234  39.3510  39.7540  40.6239  40.6608  40.9126  41.3527  41.5333
    41.6696  42.0366  42.3086  42.3636  42.4320  42.8599  43.3302  43.5121
    44.1820  44.2352  44.5698  44.6820  44.9158  45.3912  45.5578  45.6760
    45.7406  46.4796  46.6613  46.7600  47.0044  47.1246  47.4306  47.7544
    47.8680  48.1199

          k = 0.0000 0.2235-0.2295 (  5530 PWs)   bands (ev):

   -96.5584 -96.5584 -96.5198 -96.5198 -96.4772 -96.4772 -96.4503 -96.4503
   -84.7257 -84.7257 -84.7095 -84.7094 -52.1168 -52.1168 -52.1085 -52.1085
   -52.0861 -52.0861 -52.0789 -52.0789 -52.0741 -52.0740 -52.0694 -52.0693
   -52.0662 -52.0662 -52.0648 -52.0648 -52.0575 -52.0575 -52.0575 -52.0575
   -52.0463 -52.0463 -52.0436 -52.0436 -43.6425 -43.6425 -43.6384 -43.6384
   -43.6217 -43.6217 -43.6205 -43.6205 -43.5734 -43.5734 -43.5661 -43.5660
     7.6985   7.6985   7.7161   7.7161   7.8622   7.8622   7.8719   7.8719
     7.9733   7.9733   7.9982   7.9982   8.0190   8.0190   8.1005   8.1005
     8.1736   8.1736   8.2074   8.2074   8.2508   8.2508   8.2822   8.2822
     8.3453   8.3453   8.3552   8.3552   8.4208   8.4208   8.5352   8.5352
     8.6377   8.6377   8.6581   8.6581   8.7894   8.7894   8.8453   8.8453
    13.6516  13.6516  13.7113  13.7113  13.7730  13.7730  13.8430  13.8430
    13.8852  13.8852  13.9256  13.9256  14.0065  14.0065  14.0655  14.0655
    14.1195  14.1195  14.2021  14.2021  18.1630  18.1630  20.3208  20.3208
    24.1138  24.1138  25.9259  25.9259  27.9117  27.9117  28.6115  28.6115
    28.7574  28.7574  30.7340  30.7340  30.9087  30.9087  33.0367  33.0367
    33.4581  33.4581  34.2936  34.2936  34.4857  34.4857  34.9358  34.9358
    36.1750  36.1750  36.2106  36.2106  37.6605  37.6605  37.9817  37.9817
    39.3020  39.3020  39.6488  39.6488  41.8116  41.8116  41.8541  41.8541
    42.1641  42.1641  42.6540  42.6540  43.0146  43.0146  43.0805  43.0805
    43.8037  43.8037  44.4992  44.4992  45.3421  45.3421  45.4931  45.4931
    46.2948  46.2949  46.8464  46.8465  46.8539  46.8540  47.4883  47.4885
    47.8423  47.8426

          k =-0.4319 0.0000 0.0000 (  5556 PWs)   bands (ev):

   -96.5522 -96.5522 -96.5521 -96.5521 -96.5300 -96.5300 -96.4799 -96.4799
   -84.7457 -84.7457 -84.7313 -84.7313 -52.1131 -52.1131 -52.1114 -52.1114
   -52.0969 -52.0969 -52.0836 -52.0836 -52.0811 -52.0811 -52.0771 -52.0771
   -52.0712 -52.0712 -52.0667 -52.0667 -52.0623 -52.0623 -52.0579 -52.0579
   -52.0558 -52.0558 -52.0451 -52.0451 -43.6415 -43.6415 -43.6407 -43.6407
   -43.6288 -43.6288 -43.6273 -43.6273 -43.5720 -43.5720 -43.5695 -43.5695
     7.6986   7.6986   7.7332   7.7332   7.8410   7.8410   7.9457   7.9457
     7.9954   7.9954   8.0371   8.0371   8.0752   8.0752   8.0972   8.0972
     8.1457   8.1457   8.1689   8.1689   8.1998   8.1998   8.2413   8.2413
     8.3132   8.3132   8.3374   8.3374   8.3924   8.3924   8.4775   8.4775
     8.5364   8.5364   8.6781   8.6781   8.7821   8.7821   8.9243   8.9243
    13.5102  13.5102  13.6286  13.6286  13.8706  13.8706  13.8926  13.8926
    13.9504  13.9504  13.9565  13.9565  14.0493  14.0493  14.1020  14.1020
    14.1374  14.1374  14.1834  14.1834  19.2962  19.2962  22.3280  22.3280
    22.4309  22.4309  25.6607  25.6607  25.9807  25.9807  27.8371  27.8371
    27.9641  27.9641  29.0464  29.0464  29.3455  29.3455  31.2952  31.2952
    31.5526  31.5526  35.3015  35.3015  35.9851  35.9851  37.1344  37.1344
    38.1512  38.1512  39.1561  39.1561  39.8481  39.8481  40.1562  40.1562
    40.2199  40.2199  40.3169  40.3169  41.3437  41.3437  41.5280  41.5280
    41.5782  41.5782  42.8587  42.8587  42.9302  42.9302  43.3775  43.3775
    44.1036  44.1036  44.6071  44.6071  45.6571  45.6571  46.0618  46.0618
    46.0774  46.0775  46.3962  46.3963  46.6211  46.6211  47.1429  47.1429
    47.1557  47.1557

          k =-0.4319 0.0000 0.1147 (  5572 PWs)   bands (ev):

   -96.5793 -96.5793 -96.5403 -96.5403 -96.5337 -96.5337 -96.5181 -96.5181
   -84.7644 -84.7644 -84.7329 -84.7329 -52.1189 -52.1189 -52.1148 -52.1148
   -52.0995 -52.0995 -52.0873 -52.0873 -52.0825 -52.0825 -52.0797 -52.0797
   -52.0734 -52.0734 -52.0688 -52.0688 -52.0666 -52.0666 -52.0640 -52.0640
   -52.0555 -52.0555 -52.0439 -52.0439 -43.6463 -43.6463 -43.6404 -43.6404
   -43.6318 -43.6318 -43.6267 -43.6267 -43.5739 -43.5739 -43.5714 -43.5714
     7.6994   7.6994   7.7439   7.7439   7.8469   7.8469   7.9194   7.9194
     7.9839   7.9839   8.0374   8.0374   8.0831   8.0831   8.0922   8.0922
     8.1489   8.1489   8.1730   8.1730   8.1994   8.1994   8.2373   8.2373
     8.3347   8.3347   8.3571   8.3571   8.3816   8.3816   8.4595   8.4595
     8.5553   8.5553   8.6716   8.6716   8.7686   8.7686   8.9192   8.9192
    13.5040  13.5040  13.6207  13.6207  13.8602  13.8602  13.8934  13.8934
    13.9564  13.9564  13.9705  13.9705  14.0443  14.0443  14.1033  14.1033
    14.1383  14.1383  14.1847  14.1847  19.4853  19.4853  21.0860  21.0860
    24.0027  24.0027  25.7991  25.7991  26.0971  26.0971  26.9595  26.9595
    27.8248  27.8248  28.5970  28.5970  29.5626  29.5626  30.7859  30.7859
    33.4418  33.4418  34.0609  34.0609  35.3389  35.3389  38.4744  38.4744
    38.9977  38.9977  39.1210  39.1210  39.7938  39.7938  40.1320  40.1320
    40.1928  40.1928  40.3078  40.3078  40.4648  40.4648  41.1467  41.1467
    41.9467  41.9467  42.1327  42.1327  42.9824  42.9824  43.4298  43.4298
    43.9655  43.9655  44.8784  44.8784  45.4575  45.4575  46.0501  46.0502
    46.3888  46.3888  46.5574  46.5575  46.7019  46.7020  47.2586  47.2587
    47.5832  47.5833

          k =-0.4319 0.0000-0.2295 (  5560 PWs)   bands (ev):

   -96.5491 -96.5491 -96.5335 -96.5335 -96.5249 -96.5249 -96.5140 -96.5140
   -84.7456 -84.7456 -84.7332 -84.7332 -52.1216 -52.1216 -52.1105 -52.1105
   -52.1053 -52.1053 -52.0850 -52.0850 -52.0828 -52.0828 -52.0733 -52.0733
   -52.0711 -52.0711 -52.0658 -52.0658 -52.0612 -52.0612 -52.0586 -52.0586
   -52.0530 -52.0530 -52.0431 -52.0431 -43.6451 -43.6451 -43.6404 -43.6404
   -43.6279 -43.6279 -43.6240 -43.6240 -43.5737 -43.5737 -43.5711 -43.5711
     7.7008   7.7008   7.7559   7.7559   7.8546   7.8546   7.8974   7.8974
     7.9785   7.9785   8.0180   8.0180   8.0729   8.0729   8.1102   8.1102
     8.1492   8.1492   8.1833   8.1833   8.2144   8.2144   8.2435   8.2435
     8.3342   8.3342   8.3774   8.3774   8.3962   8.3962   8.4123   8.4123
     8.5912   8.5912   8.6665   8.6665   8.7490   8.7490   8.9152   8.9152
    13.4980  13.4980  13.6144  13.6144  13.8510  13.8510  13.8927  13.8927
    13.9642  13.9642  13.9804  13.9804  14.0483  14.0483  14.1135  14.1135
    14.1178  14.1178  14.1930  14.1930  19.8785  19.8785  20.3281  20.3281
    25.5853  25.5853  25.8037  25.8037  26.0822  26.0822  26.7902  26.7902
    26.9336  26.9336  27.2742  27.2742  30.9757  30.9757  31.5722  31.5722
    31.6667  31.6667  34.3742  34.3742  36.7007  36.7007  36.9131  36.9131
    39.5090  39.5090  39.7213  39.7213  39.8948  39.8948  40.1064  40.1064
    40.1547  40.1547  40.5877  40.5877  41.0694  41.0694  41.0961  41.0961
    41.1581  41.1581  42.1470  42.1470  42.4397  42.4397  43.0299  43.0299
    43.3396  43.3396  45.6415  45.6415  45.6636  45.6637  46.1748  46.1748
    46.2010  46.2011  46.6928  46.6929  46.8570  46.8571  47.4724  47.4725
    47.9878  47.9880

          k =-0.4319 0.2235 0.0000 (  5552 PWs)   bands (ev):

   -96.5520 -96.5520 -96.5435 -96.5435 -96.5046 -96.5046 -96.4922 -96.4922
   -84.7397 -84.7397 -84.7280 -84.7280 -52.1103 -52.1103 -52.1098 -52.1098
   -52.0924 -52.0924 -52.0838 -52.0838 -52.0831 -52.0831 -52.0791 -52.0791
   -52.0697 -52.0697 -52.0647 -52.0647 -52.0612 -52.0612 -52.0603 -52.0603
   -52.0526 -52.0526 -52.0483 -52.0483 -43.6410 -43.6410 -43.6400 -43.6400
   -43.6283 -43.6283 -43.6271 -43.6271 -43.5709 -43.5709 -43.5702 -43.5702
     7.7560   7.7560   7.7975   7.7975   7.9503   7.9503   7.9664   7.9664
     8.0021   8.0021   8.0249   8.0249   8.0878   8.0878   8.1270   8.1270
     8.1438   8.1438   8.1982   8.1982   8.2357   8.2357   8.2828   8.2828
     8.2855   8.2855   8.3337   8.3337   8.3915   8.3915   8.4965   8.4965
     8.5553   8.5553   8.5786   8.5786   8.7173   8.7173   8.7987   8.7987
    13.5786  13.5786  13.6390  13.6390  13.8635  13.8635  13.8880  13.8880
    13.9071  13.9071  13.9329  13.9329  14.0004  14.0004  14.0144  14.0144
    14.0692  14.0692  14.1298  14.1298  20.0325  20.0325  22.0704  22.0704
    22.9913  22.9913  23.3362  23.3362  25.1081  25.1081  25.3429  25.3429
    30.2992  30.2992  31.4010  31.4010  31.9847  31.9847  32.7924  32.7924
    33.4980  33.4980  33.6910  33.6910  34.1650  34.1650  36.2322  36.2322
    38.1880  38.1880  38.4171  38.4171  39.5984  39.5984  39.9121  39.9121
    39.9718  39.9718  40.2036  40.2036  40.8566  40.8566  41.1555  41.1555
    41.6390  41.6390  42.2627  42.2627  42.4674  42.4674  43.2152  43.2152
    44.1917  44.1917  44.5066  44.5066  45.5328  45.5328  45.7723  45.7723
    46.2741  46.2741  46.4053  46.4053  47.3831  47.3832  47.5097  47.5098
    47.7686  47.7687

          k =-0.4319 0.2235 0.1147 (  5554 PWs)   bands (ev):

   -96.5579 -96.5579 -96.5442 -96.5442 -96.5134 -96.5134 -96.4856 -96.4856
   -84.7468 -84.7468 -84.7242 -84.7242 -52.1173 -52.1173 -52.1092 -52.1092
   -52.0930 -52.0930 -52.0842 -52.0842 -52.0822 -52.0822 -52.0766 -52.0766
   -52.0677 -52.0677 -52.0648 -52.0648 -52.0621 -52.0621 -52.0569 -52.0569
   -52.0545 -52.0545 -52.0500 -52.0500 -43.6439 -43.6439 -43.6398 -43.6398
   -43.6275 -43.6275 -43.6251 -43.6251 -43.5719 -43.5719 -43.5706 -43.5706
     7.7591   7.7591   7.8158   7.8158   7.9285   7.9285   7.9572   7.9572
     7.9989   7.9989   8.0220   8.0220   8.0701   8.0701   8.1267   8.1267
     8.1613   8.1613   8.2105   8.2105   8.2326   8.2326   8.2696   8.2696
     8.3289   8.3289   8.3449   8.3449   8.3909   8.3909   8.4779   8.4779
     8.5405   8.5405   8.5924   8.5924   8.6995   8.6995   8.7993   8.7993
    13.5699  13.5699  13.6316  13.6316  13.8620  13.8620  13.8783  13.8783
    13.9126  13.9126  13.9455  13.9455  14.0000  14.0000  14.0257  14.0257
    14.0661  14.0661  14.1272  14.1272  20.2122  20.2122  21.6608  21.6608
    22.5363  22.5363  23.8257  23.8257  24.9547  24.9547  26.6884  26.6884
    29.1709  29.1709  30.3500  30.3500  31.4570  31.4570  32.1938  32.1938
    34.3019  34.3019  34.7480  34.7480  35.9752  35.9752  36.4664  36.4664
    37.4437  37.4437  38.4192  38.4192  39.3903  39.3903  39.6956  39.6956
    40.1729  40.1729  40.4041  40.4041  40.5597  40.5597  40.7071  40.7071
    41.3233  41.3233  41.7363  41.7363  42.1135  42.1135  43.4119  43.4119
    43.8630  43.8630  44.7527  44.7527  45.8616  45.8616  46.2365  46.2365
    46.4556  46.4557  46.9190  46.9191  47.3200  47.3201  47.6982  47.6983
    48.0500  48.0501

          k =-0.4319 0.2235-0.2295 (  5552 PWs)   bands (ev):

   -96.5502 -96.5502 -96.5411 -96.5411 -96.5192 -96.5192 -96.4889 -96.4889
   -84.7380 -84.7380 -84.7328 -84.7328 -52.1149 -52.1149 -52.1131 -52.1131
   -52.0925 -52.0925 -52.0824 -52.0824 -52.0793 -52.0793 -52.0741 -52.0741
   -52.0683 -52.0683 -52.0669 -52.0669 -52.0598 -52.0598 -52.0586 -52.0586
   -52.0543 -52.0543 -52.0517 -52.0517 -43.6435 -43.6435 -43.6409 -43.6409
   -43.6260 -43.6260 -43.6255 -43.6255 -43.5719 -43.5719 -43.5702 -43.5702
     7.7641   7.7641   7.8535   7.8535   7.8785   7.8785   7.9591   7.9591
     7.9905   7.9905   8.0291   8.0291   8.0439   8.0439   8.1492   8.1492
     8.1674   8.1674   8.2122   8.2122   8.2134   8.2134   8.3173   8.3173
     8.3224   8.3224   8.3735   8.3735   8.3760   8.3760   8.4738   8.4738
     8.5027   8.5027   8.6355   8.6355   8.6635   8.6635   8.7992   8.7992
    13.5612  13.5612  13.6243  13.6243  13.8635  13.8635  13.8684  13.8684
    13.9165  13.9165  13.9553  13.9553  14.0073  14.0073  14.0306  14.0306
    14.0626  14.0626  14.1249  14.1249  20.5993  20.5993  20.9812  20.9812
    22.8429  22.8429  23.1967  23.1967  26.7123  26.7123  26.8478  26.8478
    28.2089  28.2089  29.3294  29.3294  31.2377  31.2377  31.5607  31.5607
    35.4194  35.4194  36.0208  36.0208  36.6704  36.6704  36.9757  36.9757
    37.4618  37.4618  37.6336  37.6336  38.9101  38.9101  39.3364  39.3364
    40.0618  40.0618  40.1777  40.1777  40.5583  40.5583  40.6562  40.6562
    41.2186  41.2186  41.2280  41.2280  41.6221  41.6221  43.5979  43.5979
    44.2737  44.2737  44.3735  44.3736  46.0402  46.0403  46.3729  46.3729
    46.9357  46.9358  47.2743  47.2744  47.6753  47.6754  47.8660  47.8661
    48.1696  48.1698

     the Fermi energy is    40.5254 ev

!    total energy              =   -5259.33415153 Ry
     Harris-Foulkes estimate   =   -5259.33423175 Ry
     estimated scf accuracy    <       0.00008891 Ry

     The total energy is the sum of the following terms:

     one-electron contribution =   -1255.42098812 Ry
     hartree contribution      =     821.11079512 Ry
     xc contribution           =    -406.77905177 Ry
     ewald contribution        =   -4417.70447911 Ry
     smearing contrib. (-TS)   =      -0.54042764 Ry

     convergence has been achieved in  11 iterations

     Forces acting on atoms (Ry/au):

     atom    1 type  1   force =     0.00000000   -0.00482566   -0.03831134
     atom    2 type  1   force =     0.00000000    0.00482566    0.03831134
     atom    3 type  1   force =     0.00000000   -0.00482566    0.03831134
     atom    4 type  1   force =     0.00000000    0.00482566   -0.03831134
     atom    5 type  1   force =     0.00000000    0.07696422   -0.15079337
     atom    6 type  1   force =     0.00000000   -0.07696422    0.15079337
     atom    7 type  1   force =     0.00000000    0.07696422    0.15079337
     atom    8 type  1   force =     0.00000000   -0.07696422   -0.15079337
     atom    9 type  2   force =     0.00000000   -0.14515145    0.01639480
     atom   10 type  2   force =     0.00000000    0.14515145   -0.01639480
     atom   11 type  2   force =     0.00000000   -0.14515145   -0.01639480
     atom   12 type  2   force =     0.00000000    0.14515145    0.01639480

     Total force =     0.453832     Total SCF correction =     0.000000


     entering subroutine stress ...

          total   stress  (Ry/bohr**3)                   (kbar)     P= 1232.36
   0.00935871   0.00000000   0.00000000       1376.71      0.00      0.00
   0.00000000   0.00746399   0.00000000          0.00   1097.99      0.00
   0.00000000   0.00000000   0.00830961          0.00      0.00   1222.39


     Writing output data file Prototype-La-oP12-Co2Si.save
 
     init_run     :      6.35s CPU      7.66s WALL (       2 calls)
     electrons    :   1995.00s CPU   2171.80s WALL (       5 calls)
     update_pot   :      1.98s CPU      2.02s WALL (       3 calls)
     forces       :      6.04s CPU      6.29s WALL (       5 calls)
     stress       :     23.45s CPU     23.73s WALL (       5 calls)

     Called by init_run:
     wfcinit      :      5.45s CPU      6.74s WALL (       2 calls)
     potinit      :      0.42s CPU      0.42s WALL (       2 calls)

     Called by electrons:
     c_bands      :   1965.77s CPU   2129.49s WALL (      46 calls)
     sum_band     :     28.75s CPU     38.38s WALL (      46 calls)
     v_of_rho     :      0.09s CPU      0.10s WALL (      51 calls)
     mix_rho      :      0.09s CPU      0.12s WALL (      46 calls)

     Called by c_bands:
     init_us_2    :      1.53s CPU      1.78s WALL (    1248 calls)
     ccgdiagg     :   1839.53s CPU   1975.51s WALL (     650 calls)
     wfcrot       :    129.75s CPU    156.89s WALL (     662 calls)

     Called by *cgdiagg:
     h_psi        :   1121.76s CPU   1272.85s WALL (  631931 calls)
     cdiaghg      :     12.19s CPU     13.63s WALL (     662 calls)

     Called by h_psi:
     add_vuspsi   :    238.88s CPU    247.73s WALL (  631931 calls)

     General routines
     calbec       :    612.68s CPU    649.75s WALL ( 1263320 calls)
     fft          :      0.64s CPU      0.66s WALL (     227 calls)
     fftw         :    496.71s CPU    586.51s WALL ( 1596466 calls)
     davcio       :      1.32s CPU      3.82s WALL (    1800 calls)
 
     Parallel routines
     fft_scatter  :    225.91s CPU    271.44s WALL ( 1596693 calls)
 
     PWSCF        : 33m53.20s CPU    36m52.41s WALL

 
   This run was terminated on:  10:51:10  22Mar2018            

=------------------------------------------------------------------------------=
   JOB DONE.
=------------------------------------------------------------------------------=
