
     Program PWSCF v.5.0.2 starts on 22Mar2018 at 10:14:19 

     This program is part of the open-source Quantum ESPRESSO suite
     for quantum simulation of materials; please cite
         "P. Giannozzi et al., J. Phys.:Condens. Matter 21 395502 (2009);
          URL http://www.quantum-espresso.org", 
     in publications or presentations arising from this work. More details at
     http://www.quantum-espresso.org/quote.php

     Parallel version (MPI), running on     4 processors
     R & G space division:  proc/nbgrp/npool/nimage =       4

     Current dimensions of program PWSCF are:
     Max number of different atomic species (ntypx) = 10
     Max number of k-points (npk) =  40000
     Max angular momentum in pseudopotentials (lmaxx) =  3
     Waiting for input...
     Reading input from standard input

     Subspace diagonalization in iterative solution of the eigenvalue problem:
     a serial algorithm will be used

 
     Parallelization info
     --------------------
     sticks:   dense  smooth     PW     G-vecs:    dense   smooth      PW
     Min         356     356    106                 9670     9670    1578
     Max         358     358    108                 9671     9671    1579
     Sum        1429    1429    427                38681    38681    6313
 


     bravais-lattice index     =            0
     lattice parameter (alat)  =      13.3930  a.u.
     unit-cell volume          =    1134.0956 (a.u.)^3
     number of atoms/cell      =            4
     number of atomic types    =            2
     number of electrons       =        98.00
     number of Kohn-Sham states=           59
     kinetic-energy cutoff     =      40.0000  Ry
     charge density cutoff     =     160.0000  Ry
     convergence threshold     =      1.0E-04
     mixing beta               =       0.7000
     number of iterations used =            8  plain     mixing
     Exchange-correlation      = SLA-PZ-NOGX-NOGC ( 1 1 0 0 0)
     EXX-fraction              =        0.00
     nstep                     =           50


     celldm(1)=  13.392972  celldm(2)=   0.000000  celldm(3)=   0.000000
     celldm(4)=   0.000000  celldm(5)=   0.000000  celldm(6)=   0.000000

     crystal axes: (cart. coord. in units of alat)
               a(1) = (   1.000000   0.000000   0.000000 )  
               a(2) = (  -0.776311   0.630350   0.000000 )  
               a(3) = (   0.000000   0.000000   0.748922 )  

     reciprocal axes: (cart. coord. in units 2 pi/alat)
               b(1) = (  1.000000  1.231554  0.000000 )  
               b(2) = (  0.000000  1.586419  0.000000 )  
               b(3) = (  0.000000  0.000000  1.335252 )  


     PseudoPot. # 1 for Lu read from file:
     /home/cwx6513/pp.La/La.UPF
     MD5 check sum: 4fc038260c66a0bf25fb4835376efb80
     Pseudo is Norm-conserving, Zval = 25.0
     Generated in analytical, separable form
     Using radial grid of 1271 points,  6 beta functions with: 
                l(1) =   0
                l(2) =   0
                l(3) =   1
                l(4) =   1
                l(5) =   2
                l(6) =   3

     PseudoPot. # 2 for Yb read from file:
     /home/cwx6513/pp.La/Yb.UPF
     MD5 check sum: 3e859b81cc28c53ec6aa3a2e888efcdf
     Pseudo is Norm-conserving, Zval = 24.0
     Generated in analytical, separable form
     Using radial grid of 1269 points,  6 beta functions with: 
                l(1) =   0
                l(2) =   0
                l(3) =   1
                l(4) =   1
                l(5) =   2
                l(6) =   3

     atomic species   valence    mass     pseudopotential
        Tl            25.00   204.38300     Lu( 1.00)
        I             24.00   126.90400     Yb( 1.00)

      2 Sym. Ops., with inversion, found
          (note:  2 additional sym.ops. were found but ignored
           their fractional translations are incommensurate with FFT grid)


   Cartesian axes

     site n.     atom                  positions (alat units)
         1           Tl  tau(   1) = (  -0.0906317   0.3870269   0.5616917  )
         2           Tl  tau(   2) = (   0.3143210   0.2433234   0.1872306  )
         3           I   tau(   3) = (  -0.5408004   0.5467760   0.5616917  )
         4           I   tau(   4) = (   0.7644896   0.0835744   0.1872306  )

     number of k points=   106  gaussian smearing, width (Ry)=  0.1000

     Number of k-points >= 100: set verbosity='high' to print them.

     Dense  grid:    38681 G-vectors     FFT dimensions: (  54,  54,  45)

     Largest allocated arrays     est. size (Mb)     dimensions
        Kohn-Sham Wavefunctions         1.11 Mb     (   1230,   59)
        NL pseudopotentials             1.50 Mb     (   1230,   80)
        Each V/rho on FFT grid          0.53 Mb     (  34992)
        Each G-vector array             0.07 Mb     (   9671)
        G-vector shells                 0.07 Mb     (   9671)
     Largest temporary arrays     est. size (Mb)     dimensions
        Each subspace H/S matrix        0.05 Mb     (  59,  59)
        Each <psi_i|beta_j> matrix      0.07 Mb     (     80,   59)
        Arrays for rho mixing           4.27 Mb     (  34992,   8)

     Initial potential from superposition of free atoms

     Starting from uniform charge
     Starting wfc are    0 randomized atomic wfcs

     total cpu time spent up to now is       10.7 secs

     Self-consistent Calculation

     iteration #  1     ecut=    40.00 Ry     beta=0.70
     CG style diagonalization
     c_bands:  2 eigenvalues not converged
     c_bands:  1 eigenvalues not converged
     c_bands:  1 eigenvalues not converged
     c_bands:  1 eigenvalues not converged
     c_bands:  1 eigenvalues not converged
     c_bands:  1 eigenvalues not converged
     c_bands:  1 eigenvalues not converged
     c_bands:  1 eigenvalues not converged
     c_bands:  2 eigenvalues not converged
     c_bands:  2 eigenvalues not converged
     c_bands:  1 eigenvalues not converged
     c_bands:  2 eigenvalues not converged
     c_bands:  2 eigenvalues not converged
     c_bands:  2 eigenvalues not converged
     c_bands:  1 eigenvalues not converged
     c_bands:  2 eigenvalues not converged
     c_bands:  1 eigenvalues not converged
     c_bands:  2 eigenvalues not converged
     c_bands:  1 eigenvalues not converged
     c_bands:  2 eigenvalues not converged
     c_bands:  3 eigenvalues not converged
     c_bands:  2 eigenvalues not converged
     c_bands:  1 eigenvalues not converged
     c_bands:  1 eigenvalues not converged
     c_bands:  2 eigenvalues not converged
     c_bands:  1 eigenvalues not converged
     c_bands:  1 eigenvalues not converged
     c_bands:  1 eigenvalues not converged
     c_bands:  2 eigenvalues not converged
     c_bands:  1 eigenvalues not converged
     c_bands:  1 eigenvalues not converged
     c_bands:  1 eigenvalues not converged
     c_bands:  1 eigenvalues not converged
     c_bands:  3 eigenvalues not converged
     c_bands:  1 eigenvalues not converged
     c_bands:  2 eigenvalues not converged
     c_bands:  2 eigenvalues not converged
     c_bands:  1 eigenvalues not converged
     c_bands:  2 eigenvalues not converged
     c_bands:  1 eigenvalues not converged
     c_bands:  1 eigenvalues not converged
     c_bands:  1 eigenvalues not converged
     c_bands:  1 eigenvalues not converged
     c_bands:  1 eigenvalues not converged
     c_bands:  1 eigenvalues not converged
     c_bands:  1 eigenvalues not converged
     c_bands:  2 eigenvalues not converged
     c_bands:  1 eigenvalues not converged
     c_bands:  1 eigenvalues not converged
     c_bands:  1 eigenvalues not converged
     c_bands:  1 eigenvalues not converged
     c_bands:  1 eigenvalues not converged
     c_bands:  1 eigenvalues not converged
     c_bands:  1 eigenvalues not converged
     c_bands:  1 eigenvalues not converged
     c_bands:  1 eigenvalues not converged
     c_bands:  1 eigenvalues not converged
     c_bands:  1 eigenvalues not converged
     c_bands:  1 eigenvalues not converged
     c_bands:  2 eigenvalues not converged
     c_bands:  2 eigenvalues not converged
     c_bands:  2 eigenvalues not converged
     c_bands:  1 eigenvalues not converged
     c_bands:  2 eigenvalues not converged
     c_bands:  2 eigenvalues not converged
     c_bands:  2 eigenvalues not converged
     c_bands:  1 eigenvalues not converged
     c_bands:  2 eigenvalues not converged
     c_bands:  1 eigenvalues not converged
     c_bands:  1 eigenvalues not converged
     c_bands:  1 eigenvalues not converged
     c_bands:  2 eigenvalues not converged
     c_bands:  1 eigenvalues not converged
     c_bands:  2 eigenvalues not converged
     ethr =  1.00E-02,  avg # of iterations = 24.7

     total cpu time spent up to now is      270.4 secs

     total energy              =   -1458.19310721 Ry
     Harris-Foulkes estimate   =   -2464.97872155 Ry
     estimated scf accuracy    <    1233.38408331 Ry

     iteration #  2     ecut=    40.00 Ry     beta=0.70
     CG style diagonalization
     ethr =  1.00E-02,  avg # of iterations =  8.7

     total cpu time spent up to now is      365.3 secs

     total energy              =   -1462.37929311 Ry
     Harris-Foulkes estimate   =   -1895.67839185 Ry
     estimated scf accuracy    <     676.12460960 Ry

     iteration #  3     ecut=    40.00 Ry     beta=0.70
     CG style diagonalization
     c_bands:  1 eigenvalues not converged
     c_bands:  1 eigenvalues not converged
     c_bands:  1 eigenvalues not converged
     c_bands:  1 eigenvalues not converged
     ethr =  1.00E-02,  avg # of iterations = 10.9

     total cpu time spent up to now is      480.4 secs

     total energy              =   -1637.70897293 Ry
     Harris-Foulkes estimate   =   -1844.69176962 Ry
     estimated scf accuracy    <     519.41964831 Ry

     iteration #  4     ecut=    40.00 Ry     beta=0.70
     CG style diagonalization
     ethr =  1.00E-02,  avg # of iterations =  7.6

     total cpu time spent up to now is      560.3 secs

     total energy              =   -1724.95422452 Ry
     Harris-Foulkes estimate   =   -1728.84820437 Ry
     estimated scf accuracy    <       5.86074874 Ry

     iteration #  5     ecut=    40.00 Ry     beta=0.70
     CG style diagonalization
     ethr =  5.98E-03,  avg # of iterations =  3.9

     total cpu time spent up to now is      601.3 secs

     total energy              =   -1726.35846673 Ry
     Harris-Foulkes estimate   =   -1727.56165857 Ry
     estimated scf accuracy    <       2.92147614 Ry

     iteration #  6     ecut=    40.00 Ry     beta=0.70
     CG style diagonalization
     ethr =  2.98E-03,  avg # of iterations =  3.4

     total cpu time spent up to now is      637.5 secs

     total energy              =   -1726.83364475 Ry
     Harris-Foulkes estimate   =   -1726.92630342 Ry
     estimated scf accuracy    <       0.22692105 Ry

     iteration #  7     ecut=    40.00 Ry     beta=0.70
     CG style diagonalization
     ethr =  2.32E-04,  avg # of iterations =  4.1

     total cpu time spent up to now is      680.8 secs

     total energy              =   -1726.85247247 Ry
     Harris-Foulkes estimate   =   -1726.88016359 Ry
     estimated scf accuracy    <       0.04799363 Ry

     iteration #  8     ecut=    40.00 Ry     beta=0.70
     CG style diagonalization
     c_bands:  1 eigenvalues not converged
     ethr =  4.90E-05,  avg # of iterations =  3.8

     total cpu time spent up to now is      721.4 secs

     total energy              =   -1726.86282319 Ry
     Harris-Foulkes estimate   =   -1726.86442331 Ry
     estimated scf accuracy    <       0.00285846 Ry

     iteration #  9     ecut=    40.00 Ry     beta=0.70
     CG style diagonalization
     c_bands:  1 eigenvalues not converged
     c_bands:  1 eigenvalues not converged
     c_bands:  1 eigenvalues not converged
     c_bands:  1 eigenvalues not converged
     c_bands:  1 eigenvalues not converged
     c_bands:  2 eigenvalues not converged
     c_bands:  1 eigenvalues not converged
     c_bands:  1 eigenvalues not converged
     c_bands:  1 eigenvalues not converged
     c_bands:  1 eigenvalues not converged
     c_bands:  1 eigenvalues not converged
     c_bands:  1 eigenvalues not converged
     c_bands:  1 eigenvalues not converged
     ethr =  2.92E-06,  avg # of iterations =  4.4

     total cpu time spent up to now is      767.6 secs

     total energy              =   -1726.86354150 Ry
     Harris-Foulkes estimate   =   -1726.86370208 Ry
     estimated scf accuracy    <       0.00027260 Ry

     iteration # 10     ecut=    40.00 Ry     beta=0.70
     CG style diagonalization
     ethr =  2.78E-07,  avg # of iterations =  3.8

     total cpu time spent up to now is      807.2 secs

     End of self-consistent calculation

     Number of k-points >= 100: set verbosity='high' to print the bands.

     the Fermi energy is    12.3976 ev

!    total energy              =   -1726.86356366 Ry
     Harris-Foulkes estimate   =   -1726.86362061 Ry
     estimated scf accuracy    <       0.00006413 Ry

     The total energy is the sum of the following terms:

     one-electron contribution =   -1046.29677269 Ry
     hartree contribution      =     493.77455028 Ry
     xc contribution           =    -129.40058740 Ry
     ewald contribution        =   -1044.70147623 Ry
     smearing contrib. (-TS)   =      -0.23927761 Ry

     convergence has been achieved in  10 iterations

     Forces acting on atoms (Ry/au):

     atom    1 type  1   force =     0.02931570   -0.01227127   -0.00640990
     atom    2 type  1   force =    -0.02931570    0.01227127    0.00640990
     atom    3 type  2   force =    -0.03006320    0.00937728   -0.00509532
     atom    4 type  2   force =     0.03006320   -0.00937728    0.00509532

     Total force =     0.064324     Total SCF correction =     0.000000


     entering subroutine stress ...

          total   stress  (Ry/bohr**3)                   (kbar)     P= -605.22
  -0.00408028  -0.00003213   0.00000002       -600.23     -4.73      0.00
  -0.00003213  -0.00415862   0.00000003         -4.73   -611.75      0.00
   0.00000002   0.00000003  -0.00410368          0.00      0.00   -603.67


     BFGS Geometry Optimization

     number of scf cycles    =   1
     number of bfgs steps    =   0

     enthalpy new            =   -1726.8635636558 Ry

     new trust radius        =       0.5000000000 bohr
     new conv_thr            =       0.0001000000 Ry

     new unit-cell volume =    902.12915 a.u.^3 (   133.68175 Ang^3 )

CELL_PARAMETERS (alat= 13.39297219)
   0.927164611  -0.000573463   0.000000403
  -0.720129337   0.584002216  -0.000000006
   0.000000302   0.000000365   0.694061301

ATOMIC_POSITIONS (crystal)
Tl       0.386770207   0.612949129   0.749543700
Tl       0.613229793   0.387050871   0.250456300
I        0.131596927   0.868209105   0.749637281
I        0.868403073   0.131790895   0.250362719



     Writing output data file Prototype-La-oS8-TlI.save
     NEW-OLD atomic charge density approx. for the potential
     NEW k-points: (use verbosity='high' to print them)

     total cpu time spent up to now is      814.4 secs

     Self-consistent Calculation

     iteration #  1     ecut=    40.00 Ry     beta=0.70
     CG style diagonalization
     c_bands:  4 eigenvalues not converged
     c_bands:  1 eigenvalues not converged
     c_bands:  1 eigenvalues not converged
     c_bands:  1 eigenvalues not converged
     c_bands:  1 eigenvalues not converged
     c_bands:  1 eigenvalues not converged
     c_bands:  1 eigenvalues not converged
     c_bands:  1 eigenvalues not converged
     c_bands:  1 eigenvalues not converged
     c_bands:  2 eigenvalues not converged
     ethr =  1.00E-06,  avg # of iterations = 21.9

     total cpu time spent up to now is     1045.0 secs

     total energy              =   -1716.82474313 Ry
     Harris-Foulkes estimate   =   -1739.09599422 Ry
     estimated scf accuracy    <      26.82071246 Ry

     iteration #  2     ecut=    40.00 Ry     beta=0.70
     CG style diagonalization
     ethr =  1.00E-02,  avg # of iterations =  5.0

     total cpu time spent up to now is     1097.0 secs

     total energy              =   -1723.25932960 Ry
     Harris-Foulkes estimate   =   -1731.94276960 Ry
     estimated scf accuracy    <      14.22489206 Ry

     iteration #  3     ecut=    40.00 Ry     beta=0.70
     CG style diagonalization
     ethr =  1.00E-02,  avg # of iterations =  3.8

     total cpu time spent up to now is     1138.5 secs

     total energy              =   -1726.87795172 Ry
     Harris-Foulkes estimate   =   -1728.54071230 Ry
     estimated scf accuracy    <       3.66120414 Ry

     iteration #  4     ecut=    40.00 Ry     beta=0.70
     CG style diagonalization
     ethr =  3.74E-03,  avg # of iterations =  3.5

     total cpu time spent up to now is     1175.7 secs

     total energy              =   -1727.59072675 Ry
     Harris-Foulkes estimate   =   -1727.60939234 Ry
     estimated scf accuracy    <       0.02536268 Ry

     iteration #  5     ecut=    40.00 Ry     beta=0.70
     CG style diagonalization
     c_bands:  1 eigenvalues not converged
     c_bands:  1 eigenvalues not converged
     c_bands:  1 eigenvalues not converged
     c_bands:  1 eigenvalues not converged
     c_bands:  1 eigenvalues not converged
     c_bands:  1 eigenvalues not converged
     c_bands:  1 eigenvalues not converged
     c_bands:  1 eigenvalues not converged
     c_bands:  1 eigenvalues not converged
     c_bands:  1 eigenvalues not converged
     c_bands:  1 eigenvalues not converged
     c_bands:  1 eigenvalues not converged
     c_bands:  1 eigenvalues not converged
     c_bands:  1 eigenvalues not converged
     c_bands:  1 eigenvalues not converged
     c_bands:  1 eigenvalues not converged
     c_bands:  1 eigenvalues not converged
     c_bands:  1 eigenvalues not converged
     c_bands:  1 eigenvalues not converged
     c_bands:  1 eigenvalues not converged
     c_bands:  1 eigenvalues not converged
     ethr =  2.59E-05,  avg # of iterations =  5.3

     total cpu time spent up to now is     1231.5 secs

     total energy              =   -1727.61774367 Ry
     Harris-Foulkes estimate   =   -1727.62566248 Ry
     estimated scf accuracy    <       0.01873102 Ry

     iteration #  6     ecut=    40.00 Ry     beta=0.70
     CG style diagonalization
     ethr =  1.91E-05,  avg # of iterations =  3.4

     total cpu time spent up to now is     1267.5 secs

     total energy              =   -1727.61922571 Ry
     Harris-Foulkes estimate   =   -1727.62024692 Ry
     estimated scf accuracy    <       0.00310307 Ry

     iteration #  7     ecut=    40.00 Ry     beta=0.70
     CG style diagonalization
     c_bands:  1 eigenvalues not converged
     c_bands:  1 eigenvalues not converged
     c_bands:  1 eigenvalues not converged
     c_bands:  1 eigenvalues not converged
     c_bands:  1 eigenvalues not converged
     c_bands:  1 eigenvalues not converged
     ethr =  3.17E-06,  avg # of iterations =  3.6

     total cpu time spent up to now is     1307.4 secs

     total energy              =   -1727.61919625 Ry
     Harris-Foulkes estimate   =   -1727.61965096 Ry
     estimated scf accuracy    <       0.00079652 Ry

     iteration #  8     ecut=    40.00 Ry     beta=0.70
     CG style diagonalization
     c_bands:  1 eigenvalues not converged
     ethr =  8.13E-07,  avg # of iterations =  4.0

     total cpu time spent up to now is     1349.0 secs

     End of self-consistent calculation

     Number of k-points >= 100: set verbosity='high' to print the bands.

     the Fermi energy is    17.2482 ev

!    total energy              =   -1727.61943477 Ry
     Harris-Foulkes estimate   =   -1727.61948099 Ry
     estimated scf accuracy    <       0.00005318 Ry

     The total energy is the sum of the following terms:

     one-electron contribution =    -911.90991353 Ry
     hartree contribution      =     442.23594864 Ry
     xc contribution           =    -130.19643648 Ry
     ewald contribution        =   -1127.55465811 Ry
     smearing contrib. (-TS)   =      -0.19437529 Ry

     convergence has been achieved in   8 iterations

     Forces acting on atoms (Ry/au):

     atom    1 type  1   force =     0.03740615   -0.00909271    0.01163407
     atom    2 type  1   force =    -0.03740615    0.00909271   -0.01163407
     atom    3 type  2   force =    -0.11011395    0.04105475   -0.01712808
     atom    4 type  2   force =     0.11011395   -0.04105475    0.01712808

     Total force =     0.177320     Total SCF correction =     0.000000


     entering subroutine stress ...

          total   stress  (Ry/bohr**3)                   (kbar)     P= -316.23
  -0.00217563  -0.00003011  -0.00000159       -320.05     -4.43     -0.23
  -0.00003011  -0.00225005   0.00000064         -4.43   -330.99      0.09
  -0.00000159   0.00000064  -0.00202334         -0.23      0.09   -297.64


     number of scf cycles    =   2
     number of bfgs steps    =   1

     enthalpy old            =   -1726.8635636558 Ry
     enthalpy new            =   -1727.6194347701 Ry

     CASE: enthalpy_new < enthalpy_old

     small trust_radius: resetting bfgs history

     new trust radius        =       0.3379365787 bohr
     new conv_thr            =       0.0001000000 Ry

     new unit-cell volume =    764.35192 a.u.^3 (   113.26527 Ang^3 )

CELL_PARAMETERS (alat= 13.39297219)
   0.876735914  -0.001239108  -0.000036437
  -0.681400596   0.551693440   0.000037964
  -0.000027271   0.000011490   0.658953259

ATOMIC_POSITIONS (crystal)
Tl       0.388881260   0.611788678   0.750795274
Tl       0.611118740   0.388211322   0.249204726
I        0.126802480   0.873453342   0.747794672
I        0.873197520   0.126546658   0.252205328



     Writing output data file Prototype-La-oS8-TlI.save
     NEW-OLD atomic charge density approx. for the potential
     NEW k-points: (use verbosity='high' to print them)

     total cpu time spent up to now is     1356.1 secs

     Self-consistent Calculation

     iteration #  1     ecut=    40.00 Ry     beta=0.70
     CG style diagonalization
     c_bands:  1 eigenvalues not converged
     c_bands:  2 eigenvalues not converged
     c_bands:  1 eigenvalues not converged
     c_bands:  1 eigenvalues not converged
     c_bands:  1 eigenvalues not converged
     c_bands:  1 eigenvalues not converged
     c_bands:  1 eigenvalues not converged
     c_bands:  1 eigenvalues not converged
     c_bands:  1 eigenvalues not converged
     c_bands:  1 eigenvalues not converged
     c_bands:  1 eigenvalues not converged
     c_bands:  2 eigenvalues not converged
     c_bands:  1 eigenvalues not converged
     c_bands:  1 eigenvalues not converged
     c_bands:  1 eigenvalues not converged
     c_bands:  1 eigenvalues not converged
     c_bands:  1 eigenvalues not converged
     c_bands:  1 eigenvalues not converged
     c_bands:  1 eigenvalues not converged
     c_bands:  1 eigenvalues not converged
     c_bands:  1 eigenvalues not converged
     c_bands:  1 eigenvalues not converged
     c_bands:  2 eigenvalues not converged
     c_bands:  1 eigenvalues not converged
     c_bands:  1 eigenvalues not converged
     c_bands:  1 eigenvalues not converged
     c_bands:  1 eigenvalues not converged
     c_bands:  1 eigenvalues not converged
     ethr =  1.00E-06,  avg # of iterations = 24.2

     total cpu time spent up to now is     1595.3 secs

     total energy              =   -1699.03501811 Ry
     Harris-Foulkes estimate   =   -1742.57346634 Ry
     estimated scf accuracy    <      51.46006541 Ry

     iteration #  2     ecut=    40.00 Ry     beta=0.70
     CG style diagonalization
     ethr =  1.00E-02,  avg # of iterations =  7.4

     total cpu time spent up to now is     1672.8 secs

     total energy              =   -1706.46934792 Ry
     Harris-Foulkes estimate   =   -1759.42718497 Ry
     estimated scf accuracy    <     120.03735807 Ry

     iteration #  3     ecut=    40.00 Ry     beta=0.70
     CG style diagonalization
     ethr =  1.00E-02,  avg # of iterations =  5.6

     total cpu time spent up to now is     1731.6 secs

     total energy              =   -1727.19033513 Ry
     Harris-Foulkes estimate   =   -1728.32400444 Ry
     estimated scf accuracy    <       2.00088349 Ry

     iteration #  4     ecut=    40.00 Ry     beta=0.70
     CG style diagonalization
     ethr =  2.04E-03,  avg # of iterations =  4.1

     total cpu time spent up to now is     1775.0 secs

     total energy              =   -1727.72343834 Ry
     Harris-Foulkes estimate   =   -1727.76556375 Ry
     estimated scf accuracy    <       0.07009363 Ry

     iteration #  5     ecut=    40.00 Ry     beta=0.70
     CG style diagonalization
     c_bands:  1 eigenvalues not converged
     c_bands:  1 eigenvalues not converged
     c_bands:  1 eigenvalues not converged
     c_bands:  1 eigenvalues not converged
     c_bands:  1 eigenvalues not converged
     c_bands:  3 eigenvalues not converged
     c_bands:  1 eigenvalues not converged
     c_bands:  1 eigenvalues not converged
     c_bands:  1 eigenvalues not converged
     c_bands:  1 eigenvalues not converged
     c_bands:  2 eigenvalues not converged
     c_bands:  1 eigenvalues not converged
     c_bands:  2 eigenvalues not converged
     c_bands:  1 eigenvalues not converged
     c_bands:  2 eigenvalues not converged
     c_bands:  1 eigenvalues not converged
     c_bands:  1 eigenvalues not converged
     c_bands:  1 eigenvalues not converged
     c_bands:  1 eigenvalues not converged
     c_bands:  1 eigenvalues not converged
     c_bands:  2 eigenvalues not converged
     c_bands:  1 eigenvalues not converged
     c_bands:  1 eigenvalues not converged
     c_bands:  3 eigenvalues not converged
     c_bands:  1 eigenvalues not converged
     c_bands:  1 eigenvalues not converged
     c_bands:  2 eigenvalues not converged
     c_bands:  1 eigenvalues not converged
     c_bands:  3 eigenvalues not converged
     c_bands:  1 eigenvalues not converged
     c_bands:  2 eigenvalues not converged
     c_bands:  1 eigenvalues not converged
     c_bands:  2 eigenvalues not converged
     ethr =  7.15E-05,  avg # of iterations =  5.6

     total cpu time spent up to now is     1833.9 secs

     total energy              =   -1727.77970938 Ry
     Harris-Foulkes estimate   =   -1727.78614290 Ry
     estimated scf accuracy    <       0.01080952 Ry

     iteration #  6     ecut=    40.00 Ry     beta=0.70
     CG style diagonalization
     c_bands:  1 eigenvalues not converged
     c_bands:  2 eigenvalues not converged
     c_bands:  1 eigenvalues not converged
     c_bands:  1 eigenvalues not converged
     c_bands:  1 eigenvalues not converged
     c_bands:  1 eigenvalues not converged
     c_bands:  1 eigenvalues not converged
     c_bands:  1 eigenvalues not converged
     c_bands:  1 eigenvalues not converged
     c_bands:  1 eigenvalues not converged
     c_bands:  1 eigenvalues not converged
     c_bands:  1 eigenvalues not converged
     c_bands:  1 eigenvalues not converged
     c_bands:  1 eigenvalues not converged
     c_bands:  1 eigenvalues not converged
     ethr =  1.10E-05,  avg # of iterations =  4.2

     total cpu time spent up to now is     1878.1 secs

     total energy              =   -1727.78225078 Ry
     Harris-Foulkes estimate   =   -1727.78307028 Ry
     estimated scf accuracy    <       0.00120126 Ry

     iteration #  7     ecut=    40.00 Ry     beta=0.70
     CG style diagonalization
     c_bands:  1 eigenvalues not converged
     c_bands:  1 eigenvalues not converged
     c_bands:  1 eigenvalues not converged
     c_bands:  1 eigenvalues not converged
     c_bands:  1 eigenvalues not converged
     c_bands:  1 eigenvalues not converged
     c_bands:  1 eigenvalues not converged
     c_bands:  1 eigenvalues not converged
     ethr =  1.23E-06,  avg # of iterations =  4.6

     total cpu time spent up to now is     1926.2 secs

     total energy              =   -1727.78272372 Ry
     Harris-Foulkes estimate   =   -1727.78293359 Ry
     estimated scf accuracy    <       0.00039180 Ry

     iteration #  8     ecut=    40.00 Ry     beta=0.70
     CG style diagonalization
     c_bands:  1 eigenvalues not converged
     ethr =  4.00E-07,  avg # of iterations =  3.6

     total cpu time spent up to now is     1964.2 secs

     End of self-consistent calculation

     Number of k-points >= 100: set verbosity='high' to print the bands.

     the Fermi energy is    21.3715 ev

!    total energy              =   -1727.78280431 Ry
     Harris-Foulkes estimate   =   -1727.78284319 Ry
     estimated scf accuracy    <       0.00004383 Ry

     The total energy is the sum of the following terms:

     one-electron contribution =    -811.82630241 Ry
     hartree contribution      =     405.88914059 Ry
     xc contribution           =    -130.91993213 Ry
     ewald contribution        =   -1190.75513192 Ry
     smearing contrib. (-TS)   =      -0.17057844 Ry

     convergence has been achieved in   8 iterations

     Forces acting on atoms (Ry/au):

     atom    1 type  1   force =     0.06923446   -0.02788038   -0.04023000
     atom    2 type  1   force =    -0.06923446    0.02788038    0.04023000
     atom    3 type  2   force =    -0.04205565    0.01177514   -0.02277055
     atom    4 type  2   force =     0.04205565   -0.01177514    0.02277055

     Total force =     0.138672     Total SCF correction =     0.000000


     entering subroutine stress ...

          total   stress  (Ry/bohr**3)                   (kbar)     P=   21.24
  -0.00008625   0.00006094   0.00001575        -12.69      8.96      2.32
   0.00006094   0.00005702  -0.00000551          8.96      8.39     -0.81
   0.00001575  -0.00000551   0.00046246          2.32     -0.81     68.03


     number of scf cycles    =   3
     number of bfgs steps    =   2

     enthalpy old            =   -1727.6194347701 Ry
     enthalpy new            =   -1727.7828043118 Ry

     CASE: enthalpy_new < enthalpy_old

     Message from routine bfgs:
     history already reset at previous step: stopping
     small trust_radius: resetting bfgs history

     new trust radius        =       0.0847890250 bohr
     new conv_thr            =       0.0000692345 Ry

     new unit-cell volume =    772.61975 a.u.^3 (   114.49043 Ang^3 )

CELL_PARAMETERS (alat= 13.39297219)
   0.874843488   0.000094855   0.000308592
  -0.679090747   0.551441800  -0.000305975
   0.000232317  -0.000079342   0.666571791

ATOMIC_POSITIONS (crystal)
Tl       0.391850000   0.608022118   0.746237192
Tl       0.608150000   0.391977882   0.253762808
I        0.124455315   0.875041769   0.745214318
I        0.875544685   0.124958231   0.254785682



     Writing output data file Prototype-La-oS8-TlI.save
     NEW-OLD atomic charge density approx. for the potential
     NEW k-points: (use verbosity='high' to print them)

     total cpu time spent up to now is     1971.4 secs

     Self-consistent Calculation

     iteration #  1     ecut=    40.00 Ry     beta=0.70
     CG style diagonalization
     c_bands:  1 eigenvalues not converged
     c_bands:  1 eigenvalues not converged
     c_bands:  1 eigenvalues not converged
     c_bands:  1 eigenvalues not converged
     c_bands:  1 eigenvalues not converged
     c_bands:  1 eigenvalues not converged
     c_bands:  1 eigenvalues not converged
     c_bands:  1 eigenvalues not converged
     c_bands:  1 eigenvalues not converged
     c_bands:  1 eigenvalues not converged
     c_bands:  1 eigenvalues not converged
     c_bands:  1 eigenvalues not converged
     c_bands:  1 eigenvalues not converged
     c_bands:  1 eigenvalues not converged
     c_bands:  1 eigenvalues not converged
     c_bands:  1 eigenvalues not converged
     c_bands:  1 eigenvalues not converged
     c_bands:  1 eigenvalues not converged
     c_bands:  1 eigenvalues not converged
     c_bands:  1 eigenvalues not converged
     c_bands:  1 eigenvalues not converged
     c_bands:  1 eigenvalues not converged
     c_bands:  1 eigenvalues not converged
     c_bands:  1 eigenvalues not converged
     c_bands:  1 eigenvalues not converged
     c_bands:  1 eigenvalues not converged
     c_bands:  1 eigenvalues not converged
     c_bands:  1 eigenvalues not converged
     c_bands:  1 eigenvalues not converged
     c_bands:  1 eigenvalues not converged
     ethr =  1.00E-06,  avg # of iterations = 22.5

     total cpu time spent up to now is     2196.8 secs

     total energy              =   -1712.32641472 Ry
     Harris-Foulkes estimate   =   -1734.11549211 Ry
     estimated scf accuracy    <      25.58769269 Ry

     iteration #  2     ecut=    40.00 Ry     beta=0.70
     CG style diagonalization
     ethr =  1.00E-02,  avg # of iterations =  6.5

     total cpu time spent up to now is     2264.5 secs

     total energy              =   -1713.51739681 Ry
     Harris-Foulkes estimate   =   -1746.86185912 Ry
     estimated scf accuracy    <      81.81079653 Ry

     iteration #  3     ecut=    40.00 Ry     beta=0.70
     CG style diagonalization
     ethr =  1.00E-02,  avg # of iterations =  5.0

     total cpu time spent up to now is     2317.5 secs

     total energy              =   -1727.46926170 Ry
     Harris-Foulkes estimate   =   -1727.83774172 Ry
     estimated scf accuracy    <       0.76580852 Ry

     iteration #  4     ecut=    40.00 Ry     beta=0.70
     CG style diagonalization
     ethr =  7.81E-04,  avg # of iterations =  4.6

     total cpu time spent up to now is     2368.1 secs

     total energy              =   -1727.76537677 Ry
     Harris-Foulkes estimate   =   -1727.78863935 Ry
     estimated scf accuracy    <       0.04786071 Ry

     iteration #  5     ecut=    40.00 Ry     beta=0.70
     CG style diagonalization
     c_bands:  1 eigenvalues not converged
     c_bands:  1 eigenvalues not converged
     c_bands:  2 eigenvalues not converged
     c_bands:  1 eigenvalues not converged
     c_bands:  1 eigenvalues not converged
     c_bands:  1 eigenvalues not converged
     c_bands:  1 eigenvalues not converged
     c_bands:  1 eigenvalues not converged
     c_bands:  1 eigenvalues not converged
     c_bands:  1 eigenvalues not converged
     c_bands:  1 eigenvalues not converged
     c_bands:  1 eigenvalues not converged
     c_bands:  1 eigenvalues not converged
     c_bands:  1 eigenvalues not converged
     c_bands:  1 eigenvalues not converged
     c_bands:  2 eigenvalues not converged
     c_bands:  1 eigenvalues not converged
     c_bands:  1 eigenvalues not converged
     c_bands:  1 eigenvalues not converged
     c_bands:  1 eigenvalues not converged
     c_bands:  1 eigenvalues not converged
     c_bands:  1 eigenvalues not converged
     c_bands:  1 eigenvalues not converged
     c_bands:  1 eigenvalues not converged
     c_bands:  2 eigenvalues not converged
     ethr =  4.88E-05,  avg # of iterations =  5.0

     total cpu time spent up to now is     2420.8 secs

     total energy              =   -1727.78661631 Ry
     Harris-Foulkes estimate   =   -1727.79391181 Ry
     estimated scf accuracy    <       0.01677807 Ry

     iteration #  6     ecut=    40.00 Ry     beta=0.70
     CG style diagonalization
     c_bands:  1 eigenvalues not converged
     c_bands:  1 eigenvalues not converged
     c_bands:  1 eigenvalues not converged
     c_bands:  1 eigenvalues not converged
     c_bands:  1 eigenvalues not converged
     c_bands:  1 eigenvalues not converged
     c_bands:  1 eigenvalues not converged
     c_bands:  1 eigenvalues not converged
     c_bands:  1 eigenvalues not converged
     c_bands:  1 eigenvalues not converged
     c_bands:  1 eigenvalues not converged
     c_bands:  1 eigenvalues not converged
     ethr =  1.71E-05,  avg # of iterations =  3.8

     total cpu time spent up to now is     2460.8 secs

     total energy              =   -1727.79001704 Ry
     Harris-Foulkes estimate   =   -1727.79064733 Ry
     estimated scf accuracy    <       0.00123603 Ry

     iteration #  7     ecut=    40.00 Ry     beta=0.70
     CG style diagonalization
     c_bands:  1 eigenvalues not converged
     c_bands:  1 eigenvalues not converged
     c_bands:  1 eigenvalues not converged
     c_bands:  1 eigenvalues not converged
     c_bands:  1 eigenvalues not converged
     c_bands:  1 eigenvalues not converged
     c_bands:  1 eigenvalues not converged
     c_bands:  2 eigenvalues not converged
     c_bands:  1 eigenvalues not converged
     c_bands:  1 eigenvalues not converged
     c_bands:  1 eigenvalues not converged
     c_bands:  1 eigenvalues not converged
     c_bands:  1 eigenvalues not converged
     ethr =  1.26E-06,  avg # of iterations =  4.8

     total cpu time spent up to now is     2510.9 secs

     total energy              =   -1727.79061477 Ry
     Harris-Foulkes estimate   =   -1727.79065631 Ry
     estimated scf accuracy    <       0.00007103 Ry

     iteration #  8     ecut=    40.00 Ry     beta=0.70
     CG style diagonalization
     c_bands:  1 eigenvalues not converged
     c_bands:  1 eigenvalues not converged
     c_bands:  1 eigenvalues not converged
     c_bands:  1 eigenvalues not converged
     ethr =  7.25E-08,  avg # of iterations =  4.5

     total cpu time spent up to now is     2557.8 secs

     End of self-consistent calculation

     Number of k-points >= 100: set verbosity='high' to print the bands.

     the Fermi energy is    21.0413 ev

!    total energy              =   -1727.79064970 Ry
     Harris-Foulkes estimate   =   -1727.79065885 Ry
     estimated scf accuracy    <       0.00001162 Ry

     The total energy is the sum of the following terms:

     one-electron contribution =    -822.14992987 Ry
     hartree contribution      =     410.09232730 Ry
     xc contribution           =    -130.86770035 Ry
     ewald contribution        =   -1184.69376372 Ry
     smearing contrib. (-TS)   =      -0.17158306 Ry

     convergence has been achieved in   8 iterations

     Forces acting on atoms (Ry/au):

     atom    1 type  1   force =    -0.00317473    0.00405923    0.01571247
     atom    2 type  1   force =     0.00317473   -0.00405923   -0.01571247
     atom    3 type  2   force =     0.00790925    0.00028059    0.00648766
     atom    4 type  2   force =    -0.00790925   -0.00028059   -0.00648766

     Total force =     0.027501     Total SCF correction =     0.000000


     entering subroutine stress ...

          total   stress  (Ry/bohr**3)                   (kbar)     P=   -8.36
  -0.00022267   0.00005189   0.00000100        -32.76      7.63      0.15
   0.00005189  -0.00010080  -0.00000018          7.63    -14.83     -0.03
   0.00000100  -0.00000018   0.00015293          0.15     -0.03     22.50


     The maximum number of steps has been reached.

     End of BFGS Geometry Optimization
Begin final coordinates
     new unit-cell volume =    772.61975 a.u.^3 (   114.49043 Ang^3 )

CELL_PARAMETERS (alat= 13.39297219)
   0.874843488   0.000094855   0.000308592
  -0.679090747   0.551441800  -0.000305975
   0.000232317  -0.000079342   0.666571791

ATOMIC_POSITIONS (crystal)
Tl       0.391850000   0.608022118   0.746237192
Tl       0.608150000   0.391977882   0.253762808
I        0.124455315   0.875041769   0.745214318
I        0.875544685   0.124958231   0.254785682
End final coordinates



     A final scf calculation at the relaxed structure.
     The G-vectors are recalculated for the final unit cell
     Results may differ from those at the preceding step.
 
     Parallelization info
     --------------------
     sticks:   dense  smooth     PW     G-vecs:    dense   smooth      PW
     Min         276     276     82                 6605     6605    1108
     Max         277     277     83                 6608     6608    1110
     Sum        1107    1107    329                26427    26427    4435
 


     bravais-lattice index     =            0
     lattice parameter (alat)  =      13.3930  a.u.
     unit-cell volume          =     772.6197 (a.u.)^3
     number of atoms/cell      =            4
     number of atomic types    =            2
     number of electrons       =        98.00
     number of Kohn-Sham states=           59
     kinetic-energy cutoff     =      40.0000  Ry
     charge density cutoff     =     160.0000  Ry
     convergence threshold     =      6.9E-05
     mixing beta               =       0.7000
     number of iterations used =            8  plain     mixing
     Exchange-correlation      = SLA-PZ-NOGX-NOGC ( 1 1 0 0 0)
     EXX-fraction              =        0.00

     celldm(1)=  13.392972  celldm(2)=   0.000000  celldm(3)=   0.000000
     celldm(4)=   0.000000  celldm(5)=   0.000000  celldm(6)=   0.000000

     crystal axes: (cart. coord. in units of alat)
               a(1) = (   0.874843   0.000095   0.000309 )  
               a(2) = (  -0.679091   0.551442  -0.000306 )  
               a(3) = (   0.000232  -0.000079   0.666572 )  

     reciprocal axes: (cart. coord. in units 2 pi/alat)
               b(1) = (  1.142909  1.407472 -0.000231 )  
               b(2) = ( -0.000197  1.813186  0.000216 )  
               b(3) = ( -0.000529  0.000181  1.500214 )  


     PseudoPot. # 1 for Lu read from file:
     /home/cwx6513/pp.La/La.UPF
     MD5 check sum: 4fc038260c66a0bf25fb4835376efb80
     Pseudo is Norm-conserving, Zval = 25.0
     Generated in analytical, separable form
     Using radial grid of 1271 points,  6 beta functions with: 
                l(1) =   0
                l(2) =   0
                l(3) =   1
                l(4) =   1
                l(5) =   2
                l(6) =   3

     PseudoPot. # 2 for Yb read from file:
     /home/cwx6513/pp.La/Yb.UPF
     MD5 check sum: 3e859b81cc28c53ec6aa3a2e888efcdf
     Pseudo is Norm-conserving, Zval = 24.0
     Generated in analytical, separable form
     Using radial grid of 1269 points,  6 beta functions with: 
                l(1) =   0
                l(2) =   0
                l(3) =   1
                l(4) =   1
                l(5) =   2
                l(6) =   3

     atomic species   valence    mass     pseudopotential
        Tl            25.00   204.38300     Lu( 1.00)
        I             24.00   126.90400     Yb( 1.00)

      2 Sym. Ops., with inversion, found
          (note:  2 additional sym.ops. were found but ignored
           their fractional translations are incommensurate with FFT grid)


   Cartesian axes

     site n.     atom                  positions (alat units)
         1           Tl  tau(   1) = (  -0.0699214   0.3352668   0.4973555  )
         2           Tl  tau(   2) = (   0.2659065   0.2161905   0.1692189  )
         3           I   tau(   3) = (  -0.4851807   0.4824873   0.4965095  )
         4           I   tau(   4) = (   0.6811658   0.0689700   0.1700649  )

     number of k points=   106  gaussian smearing, width (Ry)=  0.1000

     Number of k-points >= 100: set verbosity='high' to print them.

     Dense  grid:    26427 G-vectors     FFT dimensions: (  48,  48,  36)

     Largest allocated arrays     est. size (Mb)     dimensions
        Kohn-Sham Wavefunctions         0.76 Mb     (    847,   59)
        NL pseudopotentials             1.03 Mb     (    847,   80)
        Each V/rho on FFT grid          0.32 Mb     (  20736)
        Each G-vector array             0.05 Mb     (   6608)
        G-vector shells                 0.05 Mb     (   6316)
     Largest temporary arrays     est. size (Mb)     dimensions
        Each subspace H/S matrix        0.05 Mb     (  59,  59)
        Each <psi_i|beta_j> matrix      0.07 Mb     (     80,   59)
        Arrays for rho mixing           2.53 Mb     (  20736,   8)

     Initial potential from superposition of free atoms

     Starting from uniform charge
     Starting wfc are    0 randomized atomic wfcs

     Writing output data file Prototype-La-oS8-TlI.save

     total cpu time spent up to now is     2570.4 secs

     Self-consistent Calculation

     iteration #  1     ecut=    40.00 Ry     beta=0.70
     CG style diagonalization
     c_bands:  5 eigenvalues not converged
     c_bands:  5 eigenvalues not converged
     c_bands:  5 eigenvalues not converged
     c_bands:  5 eigenvalues not converged
     c_bands:  5 eigenvalues not converged
     c_bands:  5 eigenvalues not converged
     c_bands:  5 eigenvalues not converged
     c_bands:  5 eigenvalues not converged
     c_bands:  5 eigenvalues not converged
     c_bands:  5 eigenvalues not converged
     c_bands:  5 eigenvalues not converged
     c_bands:  5 eigenvalues not converged
     c_bands:  5 eigenvalues not converged
     c_bands:  5 eigenvalues not converged
     c_bands:  5 eigenvalues not converged
     c_bands:  5 eigenvalues not converged
     c_bands:  5 eigenvalues not converged
     c_bands:  5 eigenvalues not converged
     c_bands:  5 eigenvalues not converged
     c_bands:  5 eigenvalues not converged
     c_bands:  5 eigenvalues not converged
     c_bands:  5 eigenvalues not converged
     c_bands:  5 eigenvalues not converged
     c_bands:  5 eigenvalues not converged
     c_bands:  5 eigenvalues not converged
     c_bands:  5 eigenvalues not converged
     c_bands:  5 eigenvalues not converged
     c_bands:  5 eigenvalues not converged
     c_bands:  5 eigenvalues not converged
     c_bands:  5 eigenvalues not converged
     c_bands:  5 eigenvalues not converged
     c_bands:  5 eigenvalues not converged
     c_bands:  5 eigenvalues not converged
     c_bands:  5 eigenvalues not converged
     c_bands:  5 eigenvalues not converged
     c_bands:  5 eigenvalues not converged
     c_bands:  5 eigenvalues not converged
     c_bands:  5 eigenvalues not converged
     c_bands:  5 eigenvalues not converged
     c_bands:  5 eigenvalues not converged
     c_bands:  5 eigenvalues not converged
     c_bands:  5 eigenvalues not converged
     c_bands:  5 eigenvalues not converged
     c_bands:  5 eigenvalues not converged
     c_bands:  5 eigenvalues not converged
     c_bands:  5 eigenvalues not converged
     c_bands:  5 eigenvalues not converged
     c_bands:  5 eigenvalues not converged
     c_bands:  5 eigenvalues not converged
     c_bands:  5 eigenvalues not converged
     c_bands:  5 eigenvalues not converged
     c_bands:  5 eigenvalues not converged
     c_bands:  5 eigenvalues not converged
     c_bands:  5 eigenvalues not converged
     c_bands:  5 eigenvalues not converged
     c_bands:  5 eigenvalues not converged
     c_bands:  5 eigenvalues not converged
     c_bands:  5 eigenvalues not converged
     c_bands:  5 eigenvalues not converged
     c_bands:  5 eigenvalues not converged
     c_bands:  5 eigenvalues not converged
     c_bands:  5 eigenvalues not converged
     c_bands:  5 eigenvalues not converged
     c_bands:  5 eigenvalues not converged
     c_bands:  5 eigenvalues not converged
     c_bands:  5 eigenvalues not converged
     c_bands:  5 eigenvalues not converged
     c_bands:  5 eigenvalues not converged
     c_bands:  5 eigenvalues not converged
     c_bands:  5 eigenvalues not converged
     c_bands:  5 eigenvalues not converged
     c_bands:  5 eigenvalues not converged
     c_bands:  5 eigenvalues not converged
     c_bands:  5 eigenvalues not converged
     c_bands:  5 eigenvalues not converged
     c_bands:  5 eigenvalues not converged
     c_bands:  5 eigenvalues not converged
     c_bands:  5 eigenvalues not converged
     c_bands:  5 eigenvalues not converged
     c_bands:  5 eigenvalues not converged
     c_bands:  5 eigenvalues not converged
     c_bands:  5 eigenvalues not converged
     c_bands:  5 eigenvalues not converged
     c_bands:  5 eigenvalues not converged
     c_bands:  5 eigenvalues not converged
     c_bands:  5 eigenvalues not converged
     c_bands:  5 eigenvalues not converged
     c_bands:  5 eigenvalues not converged
     c_bands:  5 eigenvalues not converged
     c_bands:  5 eigenvalues not converged
     c_bands:  5 eigenvalues not converged
     c_bands:  5 eigenvalues not converged
     c_bands:  5 eigenvalues not converged
     c_bands:  5 eigenvalues not converged
     c_bands:  5 eigenvalues not converged
     c_bands:  5 eigenvalues not converged
     c_bands:  5 eigenvalues not converged
     c_bands:  5 eigenvalues not converged
     c_bands:  5 eigenvalues not converged
     c_bands:  5 eigenvalues not converged
     c_bands:  5 eigenvalues not converged
     c_bands:  5 eigenvalues not converged
     c_bands:  5 eigenvalues not converged
     c_bands:  5 eigenvalues not converged
     c_bands:  5 eigenvalues not converged
     c_bands:  5 eigenvalues not converged
     ethr =  1.00E-06,  avg # of iterations = 61.1

     total cpu time spent up to now is     2931.0 secs

     total energy              =   -1457.69251179 Ry
     Harris-Foulkes estimate   =   -2356.77693607 Ry
     estimated scf accuracy    <    1102.20839184 Ry

     iteration #  2     ecut=    40.00 Ry     beta=0.70
     CG style diagonalization
     ethr =  1.00E-02,  avg # of iterations =  8.7

     total cpu time spent up to now is     2985.1 secs

     total energy              =   -1491.91325145 Ry
     Harris-Foulkes estimate   =   -1877.38236704 Ry
     estimated scf accuracy    <     605.59040509 Ry

     iteration #  3     ecut=    40.00 Ry     beta=0.70
     CG style diagonalization
     c_bands:  1 eigenvalues not converged
     c_bands:  1 eigenvalues not converged
     c_bands:  1 eigenvalues not converged
     c_bands:  1 eigenvalues not converged
     c_bands:  1 eigenvalues not converged
     c_bands:  1 eigenvalues not converged
     c_bands:  1 eigenvalues not converged
     c_bands:  1 eigenvalues not converged
     c_bands:  1 eigenvalues not converged
     c_bands:  1 eigenvalues not converged
     c_bands:  1 eigenvalues not converged
     c_bands:  2 eigenvalues not converged
     ethr =  1.00E-02,  avg # of iterations = 10.2

     total cpu time spent up to now is     3049.0 secs

     total energy              =   -1638.25226635 Ry
     Harris-Foulkes estimate   =   -1810.46809852 Ry
     estimated scf accuracy    <     428.84152447 Ry

     iteration #  4     ecut=    40.00 Ry     beta=0.70
     CG style diagonalization
     ethr =  1.00E-02,  avg # of iterations =  7.4

     total cpu time spent up to now is     3095.1 secs

     total energy              =   -1724.81933990 Ry
     Harris-Foulkes estimate   =   -1728.07998335 Ry
     estimated scf accuracy    <       5.42042632 Ry

     iteration #  5     ecut=    40.00 Ry     beta=0.70
     CG style diagonalization
     ethr =  5.53E-03,  avg # of iterations =  3.9

     total cpu time spent up to now is     3120.1 secs

     total energy              =   -1725.97958180 Ry
     Harris-Foulkes estimate   =   -1727.46561323 Ry
     estimated scf accuracy    <       3.93244250 Ry

     iteration #  6     ecut=    40.00 Ry     beta=0.70
     CG style diagonalization
     ethr =  4.01E-03,  avg # of iterations =  3.3

     total cpu time spent up to now is     3140.7 secs

     total energy              =   -1726.44462949 Ry
     Harris-Foulkes estimate   =   -1726.56013967 Ry
     estimated scf accuracy    <       0.33564996 Ry

     iteration #  7     ecut=    40.00 Ry     beta=0.70
     CG style diagonalization
     ethr =  3.42E-04,  avg # of iterations =  3.8

     total cpu time spent up to now is     3165.3 secs

     total energy              =   -1726.46970659 Ry
     Harris-Foulkes estimate   =   -1726.50419367 Ry
     estimated scf accuracy    <       0.07696535 Ry

     iteration #  8     ecut=    40.00 Ry     beta=0.70
     CG style diagonalization
     c_bands:  1 eigenvalues not converged
     ethr =  7.85E-05,  avg # of iterations =  3.6

     total cpu time spent up to now is     3188.7 secs

     total energy              =   -1726.47690955 Ry
     Harris-Foulkes estimate   =   -1726.48103338 Ry
     estimated scf accuracy    <       0.00962704 Ry

     iteration #  9     ecut=    40.00 Ry     beta=0.70
     CG style diagonalization
     c_bands:  1 eigenvalues not converged
     c_bands:  1 eigenvalues not converged
     c_bands:  1 eigenvalues not converged
     c_bands:  1 eigenvalues not converged
     c_bands:  1 eigenvalues not converged
     c_bands:  1 eigenvalues not converged
     c_bands:  1 eigenvalues not converged
     c_bands:  1 eigenvalues not converged
     c_bands:  1 eigenvalues not converged
     ethr =  9.82E-06,  avg # of iterations =  4.0

     total cpu time spent up to now is     3213.6 secs

     total energy              =   -1726.47813160 Ry
     Harris-Foulkes estimate   =   -1726.47891315 Ry
     estimated scf accuracy    <       0.00122549 Ry

     iteration # 10     ecut=    40.00 Ry     beta=0.70
     CG style diagonalization
     c_bands:  1 eigenvalues not converged
     c_bands:  1 eigenvalues not converged
     ethr =  1.25E-06,  avg # of iterations =  4.1

     total cpu time spent up to now is     3239.8 secs

     End of self-consistent calculation

     Number of k-points >= 100: set verbosity='high' to print the bands.

     the Fermi energy is    21.1073 ev

!    total energy              =   -1726.47853115 Ry
     Harris-Foulkes estimate   =   -1726.47858440 Ry
     estimated scf accuracy    <       0.00006523 Ry

     The total energy is the sum of the following terms:

     one-electron contribution =    -819.91341860 Ry
     hartree contribution      =     408.95325680 Ry
     xc contribution           =    -130.65496580 Ry
     ewald contribution        =   -1184.69376374 Ry
     smearing contrib. (-TS)   =      -0.16963980 Ry

     convergence has been achieved in  10 iterations

     Forces acting on atoms (Ry/au):

     atom    1 type  1   force =     0.03281597   -0.00992893    0.04899356
     atom    2 type  1   force =    -0.03281597    0.00992893   -0.04899356
     atom    3 type  2   force =    -0.00161933    0.00238634    0.04844932
     atom    4 type  2   force =     0.00161933   -0.00238634   -0.04844932

     Total force =     0.108917     Total SCF correction =     0.000000


     entering subroutine stress ...

          total   stress  (Ry/bohr**3)                   (kbar)     P= -553.54
  -0.00398571   0.00004477   0.00000446       -586.32      6.59      0.66
   0.00004477  -0.00387631  -0.00000137          6.59   -570.23     -0.20
   0.00000446  -0.00000137  -0.00342666          0.66     -0.20   -504.08


     Writing output data file Prototype-La-oS8-TlI.save
 
     init_run     :     12.85s CPU     16.86s WALL (       2 calls)
     electrons    :   2532.26s CPU   3195.09s WALL (       5 calls)
     update_pot   :      2.37s CPU      2.39s WALL (       3 calls)
     forces       :      6.80s CPU      7.33s WALL (       5 calls)
     stress       :     20.04s CPU     21.16s WALL (       5 calls)

     Called by init_run:
     wfcinit      :     11.76s CPU     15.75s WALL (       2 calls)
     potinit      :      0.58s CPU      0.58s WALL (       2 calls)

     Called by electrons:
     c_bands      :   2418.31s CPU   3041.41s WALL (      44 calls)
     sum_band     :    113.48s CPU    152.61s WALL (      44 calls)
     v_of_rho     :      0.10s CPU      0.13s WALL (      49 calls)
     mix_rho      :      0.07s CPU      0.10s WALL (      44 calls)

     Called by c_bands:
     init_us_2    :      5.64s CPU      7.75s WALL (   10600 calls)
     ccgdiagg     :   2109.87s CPU   2633.98s WALL (    5511 calls)
     wfcrot       :    314.63s CPU    413.92s WALL (    5617 calls)

     Called by *cgdiagg:
     h_psi        :   1925.52s CPU   2487.87s WALL ( 1864324 calls)
     cdiaghg      :      7.16s CPU      7.67s WALL (    5617 calls)

     Called by h_psi:
     add_vuspsi   :    113.69s CPU    141.04s WALL ( 1864324 calls)

     General routines
     calbec       :    242.47s CPU    276.93s WALL ( 3724091 calls)
     fft          :      0.12s CPU      0.16s WALL (     219 calls)
     fftw         :   1687.52s CPU   2153.57s WALL ( 4655396 calls)
     davcio       :      3.50s CPU      6.79s WALL (   15264 calls)
 
     Parallel routines
     fft_scatter  :    592.88s CPU    800.88s WALL ( 4655615 calls)
 
     PWSCF        : 42m55.25s CPU    54m 4.21s WALL

 
   This run was terminated on:  11: 8:23  22Mar2018            

=------------------------------------------------------------------------------=
   JOB DONE.
=------------------------------------------------------------------------------=
