
     Program PWSCF v.5.0.2 starts on 22Mar2018 at 18:41:57 

     This program is part of the open-source Quantum ESPRESSO suite
     for quantum simulation of materials; please cite
         "P. Giannozzi et al., J. Phys.:Condens. Matter 21 395502 (2009);
          URL http://www.quantum-espresso.org", 
     in publications or presentations arising from this work. More details at
     http://www.quantum-espresso.org/quote.php

     Parallel version (MPI), running on     4 processors
     R & G space division:  proc/nbgrp/npool/nimage =       4

     Current dimensions of program PWSCF are:
     Max number of different atomic species (ntypx) = 10
     Max number of k-points (npk) =  40000
     Max angular momentum in pseudopotentials (lmaxx) =  3
     Waiting for input...
     Reading input from standard input

     Subspace diagonalization in iterative solution of the eigenvalue problem:
     a serial algorithm will be used

 
     Parallelization info
     --------------------
     sticks:   dense  smooth     PW     G-vecs:    dense   smooth      PW
     Min         267     267     77                11587    11587    1762
     Max         268     268     79                11596    11596    1765
     Sum        1069    1069    313                46361    46361    7055
 


     bravais-lattice index     =            0
     lattice parameter (alat)  =       9.9235  a.u.
     unit-cell volume          =    1361.0366 (a.u.)^3
     number of atoms/cell      =           12
     number of atomic types    =            2
     number of electrons       =       224.00
     number of Kohn-Sham states=          134
     kinetic-energy cutoff     =      40.0000  Ry
     charge density cutoff     =     160.0000  Ry
     convergence threshold     =      1.0E-04
     mixing beta               =       0.7000
     number of iterations used =            8  plain     mixing
     Exchange-correlation      = SLA-PZ-NOGX-NOGC ( 1 1 0 0 0)
     EXX-fraction              =        0.00
     nstep                     =           50


     celldm(1)=   9.923489  celldm(2)=   0.000000  celldm(3)=   0.000000
     celldm(4)=   0.000000  celldm(5)=   0.000000  celldm(6)=   0.000000

     crystal axes: (cart. coord. in units of alat)
               a(1) = (   1.000000   0.000000   0.000000 )  
               a(2) = (  -0.500000   0.866025   0.000000 )  
               a(3) = (   0.000000   0.000000   1.608222 )  

     reciprocal axes: (cart. coord. in units 2 pi/alat)
               b(1) = (  1.000000  0.577350  0.000000 )  
               b(2) = (  0.000000  1.154701  0.000000 )  
               b(3) = (  0.000000  0.000000  0.621805 )  


     PseudoPot. # 1 for Sm read from file:
     /home/cwx6513/pp.La/Sm.UPF
     MD5 check sum: 5079e8b144a06bfcdbc14fb02b96ab09
     Pseudo is Norm-conserving, Zval = 16.0
     Generated in analytical, separable form
     Using radial grid of 1259 points,  6 beta functions with: 
                l(1) =   0
                l(2) =   0
                l(3) =   1
                l(4) =   1
                l(5) =   2
                l(6) =   3

     PseudoPot. # 2 for Dy read from file:
     /home/cwx6513/pp.La/Dy.UPF
     MD5 check sum: 9597327bec62616a94a14d07f3fd9936
     Pseudo is Norm-conserving, Zval = 20.0
     Generated in analytical, separable form
     Using radial grid of 1265 points,  6 beta functions with: 
                l(1) =   0
                l(2) =   0
                l(3) =   1
                l(4) =   1
                l(5) =   2
                l(6) =   3

     atomic species   valence    mass     pseudopotential
        Mg            16.00    24.30500     Sm( 1.00)
        Zn            20.00    65.39000     Dy( 1.00)

     24 Sym. Ops., with inversion, found (12 have fractional translation)



   Cartesian axes

     site n.     atom                  positions (alat units)
         1           Mg  tau(   1) = (  -0.0000005   0.5773506   0.1003820  )
         2           Mg  tau(   2) = (   0.5000005   0.2886748   0.9044931  )
         3           Mg  tau(   3) = (   0.5000005   0.2886748   1.5078402  )
         4           Mg  tau(   4) = (  -0.0000005   0.5773506   0.7037291  )
         5           Zn  tau(   5) = (   0.0000000   0.0000000   0.0000000  )
         6           Zn  tau(   6) = (   0.0000000   0.0000000   0.8041111  )
         7           Zn  tau(   7) = (   0.0000000   0.2950739   1.2061667  )
         8           Zn  tau(   8) = (   0.7444585   0.1475370   0.4020556  )
         9           Zn  tau(   9) = (   0.2555415   0.1475370   0.4020556  )
        10           Zn  tau(  10) = (   0.2444585   0.7184884   1.2061667  )
        11           Zn  tau(  11) = (  -0.2444585   0.7184884   1.2061667  )
        12           Zn  tau(  12) = (   0.5000000   0.5709515   0.4020556  )

     number of k points=    12  gaussian smearing, width (Ry)=  0.1000
                       cart. coord. in units 2pi/alat
        k(    1) = (   0.0000000   0.0000000   0.0000000), wk =   0.0833333
        k(    2) = (   0.0000000   0.0000000   0.1554512), wk =   0.1666667
        k(    3) = (   0.0000000   0.0000000  -0.3109023), wk =   0.0833333
        k(    4) = (   0.0000000   0.3849002   0.0000000), wk =   0.1666667
        k(    5) = (   0.0000000   0.3849002   0.1554512), wk =   0.3333333
        k(    6) = (   0.0000000   0.3849002  -0.3109023), wk =   0.1666667
        k(    7) = (  -0.5000000  -0.2886751   0.0000000), wk =   0.0833333
        k(    8) = (  -0.5000000  -0.2886751   0.1554512), wk =   0.1666667
        k(    9) = (  -0.5000000  -0.2886751  -0.3109023), wk =   0.0833333
        k(   10) = (  -0.5000000   0.0962250   0.0000000), wk =   0.1666667
        k(   11) = (  -0.5000000   0.0962250   0.1554512), wk =   0.3333333
        k(   12) = (  -0.5000000   0.0962250  -0.3109023), wk =   0.1666667

     Dense  grid:    46361 G-vectors     FFT dimensions: (  40,  40,  72)

     Largest allocated arrays     est. size (Mb)     dimensions
        Kohn-Sham Wavefunctions         3.02 Mb     (   1478,  134)
        NL pseudopotentials             5.41 Mb     (   1478,  240)
        Each V/rho on FFT grid          0.44 Mb     (  28800)
        Each G-vector array             0.09 Mb     (  11589)
        G-vector shells                 0.09 Mb     (  11589)
     Largest temporary arrays     est. size (Mb)     dimensions
        Each subspace H/S matrix        0.27 Mb     ( 134, 134)
        Each <psi_i|beta_j> matrix      0.49 Mb     (    240,  134)
        Arrays for rho mixing           3.52 Mb     (  28800,   8)

     Initial potential from superposition of free atoms

     Starting from uniform charge
     Starting wfc are    0 randomized atomic wfcs

     total cpu time spent up to now is        3.7 secs

     Self-consistent Calculation

     iteration #  1     ecut=    40.00 Ry     beta=0.70
     CG style diagonalization
     c_bands:  1 eigenvalues not converged
     c_bands:  1 eigenvalues not converged
     ethr =  1.00E-02,  avg # of iterations = 19.6

     total cpu time spent up to now is       86.9 secs

     total energy              =   -1778.74745893 Ry
     Harris-Foulkes estimate   =   -3393.78033066 Ry
     estimated scf accuracy    <    1954.45533259 Ry

     iteration #  2     ecut=    40.00 Ry     beta=0.70
     CG style diagonalization
     ethr =  1.00E-02,  avg # of iterations = 19.4

     total cpu time spent up to now is      163.3 secs

     total energy              =   -1844.54142552 Ry
     Harris-Foulkes estimate   =   -3710.86104242 Ry
     estimated scf accuracy    <    4116.43622347 Ry

     iteration #  3     ecut=    40.00 Ry     beta=0.70
     CG style diagonalization
     c_bands:  2 eigenvalues not converged
     c_bands:  2 eigenvalues not converged
     c_bands:  1 eigenvalues not converged
     c_bands:  1 eigenvalues not converged
     c_bands:  1 eigenvalues not converged
     ethr =  1.00E-02,  avg # of iterations = 12.5

     total cpu time spent up to now is      215.0 secs

     total energy              =   -2668.45090173 Ry
     Harris-Foulkes estimate   =   -2739.28732518 Ry
     estimated scf accuracy    <     159.06412836 Ry

     iteration #  4     ecut=    40.00 Ry     beta=0.70
     CG style diagonalization
     ethr =  1.00E-02,  avg # of iterations =  4.9

     total cpu time spent up to now is      234.8 secs

     total energy              =   -2687.44673602 Ry
     Harris-Foulkes estimate   =   -2691.27740819 Ry
     estimated scf accuracy    <       7.21880267 Ry

     iteration #  5     ecut=    40.00 Ry     beta=0.70
     CG style diagonalization
     ethr =  3.22E-03,  avg # of iterations =  4.0

     total cpu time spent up to now is      250.8 secs

     total energy              =   -2688.34320600 Ry
     Harris-Foulkes estimate   =   -2689.30715895 Ry
     estimated scf accuracy    <       1.80699517 Ry

     iteration #  6     ecut=    40.00 Ry     beta=0.70
     CG style diagonalization
     ethr =  8.07E-04,  avg # of iterations =  4.1

     total cpu time spent up to now is      266.8 secs

     total energy              =   -2688.71486266 Ry
     Harris-Foulkes estimate   =   -2688.89934561 Ry
     estimated scf accuracy    <       0.33100156 Ry

     iteration #  7     ecut=    40.00 Ry     beta=0.70
     CG style diagonalization
     c_bands:  1 eigenvalues not converged
     c_bands:  2 eigenvalues not converged
     c_bands:  1 eigenvalues not converged
     c_bands:  1 eigenvalues not converged
     ethr =  1.48E-04,  avg # of iterations =  4.1

     total cpu time spent up to now is      282.9 secs

     total energy              =   -2688.79870907 Ry
     Harris-Foulkes estimate   =   -2688.81466293 Ry
     estimated scf accuracy    <       0.02705100 Ry

     iteration #  8     ecut=    40.00 Ry     beta=0.70
     CG style diagonalization
     c_bands:  1 eigenvalues not converged
     c_bands:  1 eigenvalues not converged
     c_bands:  1 eigenvalues not converged
     c_bands:  1 eigenvalues not converged
     c_bands:  2 eigenvalues not converged
     ethr =  1.21E-05,  avg # of iterations =  4.4

     total cpu time spent up to now is      301.0 secs

     total energy              =   -2688.80679311 Ry
     Harris-Foulkes estimate   =   -2688.80782930 Ry
     estimated scf accuracy    <       0.00163074 Ry

     iteration #  9     ecut=    40.00 Ry     beta=0.70
     CG style diagonalization
     c_bands:  1 eigenvalues not converged
     c_bands:  1 eigenvalues not converged
     c_bands:  1 eigenvalues not converged
     c_bands:  1 eigenvalues not converged
     c_bands:  2 eigenvalues not converged
     c_bands:  1 eigenvalues not converged
     ethr =  7.28E-07,  avg # of iterations =  4.5

     total cpu time spent up to now is      319.5 secs

     total energy              =   -2688.80746659 Ry
     Harris-Foulkes estimate   =   -2688.80752415 Ry
     estimated scf accuracy    <       0.00012038 Ry

     iteration # 10     ecut=    40.00 Ry     beta=0.70
     CG style diagonalization
     c_bands:  1 eigenvalues not converged
     ethr =  5.37E-08,  avg # of iterations =  4.1

     total cpu time spent up to now is      335.4 secs

     End of self-consistent calculation

          k = 0.0000 0.0000 0.0000 (  5769 PWs)   bands (ev):

   -53.4645 -53.4300 -53.2962 -53.2665 -53.2665 -53.2608 -53.2608 -53.2337
   -26.4278 -26.4065 -26.3655 -26.3397 -21.7146 -21.4783 -21.0817 -20.7185
   -20.7185 -20.6676 -20.6676 -20.5381 -20.5381 -20.4202 -20.3646 -20.2066
   -20.2066 -20.1623 -20.1623 -19.9155 -19.9155 -19.8972 -19.8547 -19.8547
   -19.8472 -19.8354 -19.8275 -19.8275  -1.8324  -1.8312  -1.8167  -1.8167
    -1.7950  -1.7950  -1.5354  -1.5167  -1.5086  -1.5086  -1.4851  -1.4851
    14.9924  15.7114  16.2046  17.2378  17.2378  17.5818  17.5818  17.8243
    17.9326  17.9327  18.4223  18.4223  19.0123  19.0987  19.3889  19.4136
    19.4137  19.9407  19.9408  20.8190  21.0076  21.0076  21.0346  21.0347
    21.1113  22.0217  22.1742  22.1742  22.1870  22.1870  22.1892  22.2382
    22.2383  22.2936  22.3089  22.3089  23.3062  23.5588  23.5588  24.2996
    24.2996  25.2904  25.2930  25.9406  25.9406  25.9620  26.1304  26.1304
    26.8703  26.9544  27.0265  27.0265  27.5037  27.5038  27.8570  27.8571
    28.2908  28.2909  29.6764  30.0928  30.2964  30.3672  30.3672  30.5571
    30.5571  32.7530  32.7531  33.9769  34.5242  34.5242  34.8836  35.3066
    35.4275  35.8815  36.0149  36.0150  36.0783  36.0784  36.3724  36.3725
    36.4495  37.7649  37.9866  37.9868  38.2124  38.2548

          k = 0.0000 0.0000 0.1555 (  5780 PWs)   bands (ev):

   -53.4587 -53.4345 -53.2820 -53.2685 -53.2685 -53.2644 -53.2644 -53.2495
   -26.4255 -26.4114 -26.3600 -26.3428 -21.6913 -21.5286 -21.0064 -20.7178
   -20.7178 -20.6820 -20.6820 -20.5957 -20.5045 -20.5045 -20.3134 -20.3133
   -20.1978 -20.0710 -20.0710 -19.9276 -19.9193 -19.9192 -19.8591 -19.8591
   -19.8510 -19.8453 -19.8424 -19.8424  -1.8307  -1.8273  -1.8126  -1.8125
    -1.7999  -1.7999  -1.5375  -1.5214  -1.5054  -1.5054  -1.4891  -1.4891
    15.0494  15.4839  16.5211  17.2645  17.2645  17.4812  17.4812  17.5453
    18.0610  18.0610  18.3855  18.3855  19.1478  19.2381  19.4200  19.4200
    19.4628  19.7621  19.7622  20.8316  20.9116  21.1800  21.1800  21.3298
    21.3298  21.5262  22.0289  22.0289  22.1764  22.1765  22.1863  22.1863
    22.2039  22.2570  22.2571  22.2777  23.5096  23.5097  23.9938  23.9947
    23.9947  25.2908  25.2924  25.8943  26.1683  26.1683  26.4057  26.4057
    26.7401  27.2129  27.2129  27.3209  27.3209  27.4842  27.8740  27.8740
    28.0615  28.0615  28.6008  29.7777  30.3406  30.3406  30.5281  30.5281
    31.2349  32.9395  32.9395  33.2343  34.2583  34.2583  35.0110  35.2071
    35.5590  35.9014  35.9015  35.9283  35.9284  36.0024  36.9099  36.9100
    37.1236  37.8572  37.8573  38.0079  38.5112  38.7158

          k = 0.0000 0.0000-0.3109 (  5780 PWs)   bands (ev):

   -53.4556 -53.4556 -53.2709 -53.2709 -53.2588 -53.2587 -53.2587 -53.2587
   -26.4195 -26.4195 -26.3503 -26.3502 -21.6171 -21.6171 -20.8392 -20.8392
   -20.6972 -20.6972 -20.6972 -20.6972 -20.4140 -20.4140 -20.4140 -20.4140
   -20.0450 -20.0450 -19.9731 -19.9731 -19.9731 -19.9731 -19.8603 -19.8603
   -19.8602 -19.8602 -19.8403 -19.8402  -1.8275  -1.8274  -1.8058  -1.8058
    -1.8058  -1.8058  -1.5338  -1.5336  -1.4960  -1.4960  -1.4960  -1.4960
    15.2172  15.2172  17.0316  17.0316  17.3477  17.3477  17.3477  17.3477
    18.2568  18.2568  18.2568  18.2568  19.2570  19.2571  19.5232  19.5232
    19.5232  19.5233  20.0551  20.0551  21.1476  21.1476  21.5591  21.5591
    21.5591  21.5591  21.9118  21.9118  21.9118  21.9118  22.1959  22.1959
    22.1959  22.1959  22.2410  22.2410  23.5982  23.5982  23.5982  23.5983
    25.0527  25.0527  25.2917  25.2917  26.5507  26.5507  26.5507  26.5507
    27.3069  27.3069  27.3069  27.3070  27.3440  27.3441  27.7927  27.7927
    27.7928  27.7928  28.7635  28.7636  30.3945  30.3945  30.3945  30.3945
    32.2032  32.2033  33.5563  33.5563  33.5563  33.5563  35.1441  35.1441
    35.8513  35.8513  35.8514  35.8514  35.8715  35.8715  37.7876  37.7877
    37.7878  37.7879  38.4197  38.4202  38.6139  38.6137

          k = 0.0000 0.3849 0.0000 (  5787 PWs)   bands (ev):

   -53.4448 -53.3928 -53.3237 -53.2973 -53.2890 -53.2653 -53.2590 -53.2265
   -26.4166 -26.3925 -26.3797 -26.3538 -21.4708 -21.2490 -21.0801 -20.7970
   -20.6814 -20.5666 -20.5654 -20.5357 -20.4936 -20.4039 -20.3053 -20.2589
   -20.2180 -20.2023 -20.1999 -20.1350 -20.0612 -20.0425 -19.9965 -19.8843
   -19.8837 -19.8626 -19.8469 -19.8223  -1.8836  -1.8458  -1.8346  -1.8063
    -1.7611  -1.7160  -1.6112  -1.5530  -1.4995  -1.4956  -1.4655  -1.4564
    15.8912  16.6151  16.6855  17.5454  17.6140  17.9450  18.0986  18.1402
    18.3126  18.5827  18.6841  18.8725  19.1408  19.2749  19.6324  19.7143
    19.8989  19.9010  20.1763  20.2407  20.3834  20.5334  20.5607  20.6994
    20.8792  21.0187  21.2430  21.4069  21.5161  21.9474  21.9497  22.0039
    22.0540  22.1883  22.2242  22.4950  22.5086  22.6585  22.9978  23.1118
    23.8546  23.8761  24.4546  24.9482  25.4515  26.3761  26.4336  26.8613
    27.0363  27.1692  27.2680  27.2810  27.8423  27.8915  28.1182  28.4932
    28.5499  28.9123  29.3368  29.6386  29.6654  30.1482  30.4990  30.6344
    30.7716  30.8273  31.7775  31.9263  33.2617  33.6249  34.9030  34.9667
    35.5689  35.7236  35.9670  36.5716  37.1167  37.2408  37.5260  37.8736
    38.2857  38.2954  38.7654  38.8723  39.1566  39.2172

          k = 0.0000 0.3849 0.1555 (  5804 PWs)   bands (ev):

   -53.4398 -53.4049 -53.3233 -53.3089 -53.2769 -53.2701 -53.2643 -53.2318
   -26.4147 -26.3996 -26.3727 -26.3562 -21.4569 -21.3182 -20.9988 -20.8143
   -20.6757 -20.5628 -20.5519 -20.5362 -20.5113 -20.4684 -20.3617 -20.3067
   -20.2337 -20.2048 -20.1188 -20.0777 -20.0650 -20.0049 -19.9759 -19.9090
   -19.8924 -19.8725 -19.8616 -19.8452  -1.8765  -1.8461  -1.8317  -1.8109
    -1.7631  -1.7298  -1.5999  -1.5602  -1.4948  -1.4909  -1.4696  -1.4636
    15.9396  16.3180  17.0443  17.5232  17.6091  18.0243  18.1033  18.1321
    18.2149  18.4474  18.7345  18.8822  19.0626  19.2486  19.6062  19.6892
    19.8840  19.8892  19.9949  20.2335  20.3861  20.6181  20.8584  20.8642
    20.8904  21.0455  21.1824  21.5016  21.7001  21.7031  21.9812  22.0166
    22.1299  22.1388  22.2258  22.3276  22.6889  22.7081  22.9153  22.9156
    23.8295  23.9067  24.3091  24.6692  25.5407  26.4168  26.7444  26.9078
    26.9901  27.1887  27.3596  27.4862  27.7671  27.7970  28.0133  28.1878
    28.7882  28.8191  29.3080  29.6563  29.7906  30.1194  30.2822  30.4143
    31.1640  31.2400  31.5298  32.0831  32.9705  33.2819  34.6520  34.9653
    35.9489  36.0762  36.3764  36.6928  36.7423  37.0986  37.4556  37.5571
    38.4301  38.7330  38.8481  38.9284  39.0072  39.2942

          k = 0.0000 0.3849-0.3109 (  5816 PWs)   bands (ev):

   -53.4234 -53.4234 -53.3228 -53.3228 -53.2705 -53.2705 -53.2515 -53.2515
   -26.4089 -26.4088 -26.3630 -26.3629 -21.4058 -21.4058 -20.8865 -20.8865
   -20.6283 -20.6283 -20.5607 -20.5606 -20.4640 -20.4640 -20.4016 -20.4016
   -20.2073 -20.2073 -20.0796 -20.0796 -19.9812 -19.9812 -19.9311 -19.9311
   -19.9309 -19.9308 -19.8576 -19.8575  -1.8578  -1.8577  -1.8213  -1.8212
    -1.7542  -1.7541  -1.5783  -1.5782  -1.4808  -1.4808  -1.4795  -1.4794
    16.0821  16.0821  17.3773  17.3773  17.7763  17.7763  18.1163  18.1163
    18.3094  18.3094  18.8400  18.8400  19.0724  19.0724  19.6891  19.6891
    19.7448  19.7448  20.1762  20.1762  20.4806  20.4806  20.8542  20.8542
    21.1164  21.1164  21.6368  21.6369  21.6507  21.6507  21.9713  21.9713
    22.0626  22.0626  22.1597  22.1597  22.7790  22.7791  22.8138  22.8138
    24.0615  24.0616  24.0949  24.0950  25.9775  25.9776  26.9449  26.9449
    27.2448  27.2448  27.5118  27.5119  27.6433  27.6433  28.2254  28.2254
    28.4728  28.4728  29.6371  29.6371  30.1257  30.1257  30.3761  30.3761
    30.9183  30.9183  31.9274  31.9275  32.9558  32.9558  35.0869  35.0869
    35.7283  35.7284  36.5526  36.5526  36.9810  36.9811  37.8860  37.8863
    38.2577  38.2578  39.0588  39.0598  39.1750  39.1798

          k =-0.5000-0.2887 0.0000 (  5800 PWs)   bands (ev):

   -53.4226 -53.3824 -53.3451 -53.3075 -53.2973 -53.2743 -53.2599 -53.2252
   -26.4093 -26.3880 -26.3851 -26.3616 -21.3586 -21.1408 -21.0751 -20.9006
   -20.6526 -20.5752 -20.5338 -20.4834 -20.4034 -20.3935 -20.3226 -20.3023
   -20.2476 -20.2451 -20.2103 -20.1992 -20.1711 -20.0704 -20.0448 -19.8940
   -19.8872 -19.8614 -19.8382 -19.8244  -1.8880  -1.8520  -1.8412  -1.8097
    -1.7500  -1.6963  -1.6325  -1.5655  -1.4918  -1.4877  -1.4624  -1.4553
    16.2593  16.7641  17.0329  17.7063  17.7770  18.2235  18.2324  18.3119
    18.5415  18.5812  18.9714  19.1018  19.3977  19.5873  19.6182  19.8272
    19.8491  19.9070  20.0778  20.2255  20.3358  20.4388  20.4844  20.5582
    20.7163  20.7310  20.7418  21.2139  21.2571  21.7743  21.7780  21.8206
    21.8700  22.1554  22.1740  22.2511  22.2798  22.5035  22.5429  22.6170
    22.6925  23.9397  24.4414  24.5976  25.9390  26.5108  26.7224  26.9689
    26.9701  27.4170  27.5279  27.8648  27.9047  28.0233  28.1087  28.4023
    28.4419  29.2240  29.4391  29.4682  29.8155  30.1180  30.1841  30.3564
    30.5801  30.5856  30.8725  31.6580  32.7714  32.9216  35.1705  35.1752
    35.6031  35.8343  36.3029  36.9623  37.4597  37.8432  38.0414  38.0613
    38.5706  38.7024  39.0994  39.2691  39.4170  39.5612

          k =-0.5000-0.2887 0.1555 (  5822 PWs)   bands (ev):

   -53.4202 -53.3862 -53.3479 -53.3303 -53.2773 -53.2764 -53.2683 -53.2359
   -26.4080 -26.3958 -26.3770 -26.3639 -21.3455 -21.2176 -21.0023 -20.9052
   -20.6529 -20.5444 -20.5268 -20.4915 -20.4727 -20.3901 -20.3882 -20.3015
   -20.2993 -20.2845 -20.1930 -20.1784 -20.1016 -20.0185 -20.0104 -19.9206
   -19.8964 -19.8649 -19.8639 -19.8455  -1.8785  -1.8520  -1.8381  -1.8156
    -1.7551  -1.7209  -1.6121  -1.5677  -1.4901  -1.4858  -1.4644  -1.4633
    16.2991  16.5980  17.2677  17.7299  17.7747  18.0870  18.2399  18.2482
    18.5805  18.6203  19.0003  19.0488  19.4086  19.6100  19.6147  19.6780
    19.7817  19.9322  19.9890  20.1008  20.1757  20.5056  20.5134  20.5293
    20.7996  20.8252  20.9603  21.4155  21.4297  21.7563  21.7990  21.8849
    21.8873  22.1231  22.1409  22.2227  22.3362  22.4407  22.4417  22.6221
    22.7292  23.9447  24.2981  24.3269  25.9759  26.2001  26.8587  27.0227
    27.3119  27.4022  27.5770  27.5961  27.7543  28.2150  28.2344  28.2536
    28.6623  29.0175  29.0767  29.8688  29.8766  29.9814  30.0159  30.1721
    30.8332  31.0411  31.0766  32.0709  32.2011  32.8367  34.5098  35.1627
    36.1026  36.1695  36.3666  36.9837  37.0971  37.6422  37.8491  38.1765
    38.5031  38.8641  38.9659  39.0902  39.0917  39.2960

          k =-0.5000-0.2887-0.3109 (  5804 PWs)   bands (ev):

   -53.3983 -53.3983 -53.3377 -53.3377 -53.2706 -53.2706 -53.2539 -53.2539
   -26.4034 -26.4033 -26.3689 -26.3687 -21.2971 -21.2971 -20.9326 -20.9326
   -20.5874 -20.5874 -20.5100 -20.5100 -20.4598 -20.4598 -20.3479 -20.3479
   -20.2969 -20.2969 -20.1817 -20.1817 -19.9906 -19.9906 -19.9412 -19.9412
   -19.9206 -19.9206 -19.8592 -19.8591  -1.8589  -1.8588  -1.8266  -1.8266
    -1.7475  -1.7474  -1.5809  -1.5808  -1.4775  -1.4774  -1.4762  -1.4762
    16.4161  16.4161  17.6408  17.6408  17.7856  17.7856  18.2613  18.2613
    18.6566  18.6566  18.9935  18.9935  19.4877  19.4877  19.5866  19.5866
    19.8230  19.8230  20.0142  20.0142  20.2357  20.2357  20.5366  20.5366
    20.8934  20.8934  21.4546  21.4546  21.6123  21.6123  21.9256  21.9256
    22.0453  22.0453  22.1531  22.1531  22.2072  22.2072  22.4628  22.4629
    23.4891  23.4891  24.0531  24.0531  26.1218  26.1218  27.0410  27.0411
    27.1976  27.1976  27.8149  27.8149  27.8301  27.8302  28.3366  28.3367
    28.6959  28.6960  29.3766  29.3767  29.9231  29.9231  30.2222  30.2222
    31.1897  31.1898  31.5719  31.5719  32.4683  32.4683  34.8340  34.8341
    35.8248  35.8249  36.7461  36.7462  37.3681  37.3682  38.0798  38.0798
    38.7975  38.7977  38.9527  38.9529  39.1172  39.1172

          k =-0.5000 0.0962 0.0000 (  5827 PWs)   bands (ev):

   -53.4289 -53.3804 -53.3525 -53.3097 -53.3041 -53.2773 -53.2687 -53.2252
   -26.4095 -26.3881 -26.3849 -26.3623 -21.3509 -21.1422 -21.0758 -20.9071
   -20.7353 -20.5741 -20.5500 -20.4533 -20.4104 -20.4036 -20.3037 -20.2970
   -20.2624 -20.2437 -20.2247 -20.1856 -20.0945 -20.0550 -20.0234 -19.9331
   -19.9276 -19.8852 -19.8526 -19.8382  -1.8823  -1.8602  -1.8517  -1.8215
    -1.7342  -1.6795  -1.6431  -1.5806  -1.4902  -1.4854  -1.4641  -1.4526
    16.3755  16.8114  17.2550  17.6369  17.7178  18.0447  18.0527  18.3233
    18.4352  18.8315  18.8367  19.1423  19.1846  19.3199  19.5598  19.6225
    19.7398  19.8919  20.2056  20.2394  20.4427  20.4720  20.5493  20.6458
    20.6518  20.7388  20.8954  21.2590  21.3022  21.6201  21.8528  21.8568
    21.8923  21.9679  22.0977  22.1950  22.4247  22.4863  22.9824  23.0695
    23.4679  23.6818  24.1241  24.5016  25.9285  26.1448  26.7619  26.7868
    27.1244  27.4381  27.4890  27.7766  27.8852  27.9446  28.2871  28.5092
    28.5725  28.6196  29.0385  29.5446  29.6348  29.8676  30.2005  30.3843
    30.5285  30.9834  31.1823  31.6243  32.2246  34.2281  34.5557  35.2885
    35.3580  35.9835  36.7280  36.9825  37.2115  37.9807  38.1164  38.2527
    38.5307  38.7498  38.7865  39.1095  39.1896  39.3495

          k =-0.5000 0.0962 0.1555 (  5825 PWs)   bands (ev):

   -53.4224 -53.3893 -53.3483 -53.3317 -53.2792 -53.2726 -53.2681 -53.2330
   -26.4080 -26.3958 -26.3768 -26.3640 -21.3341 -21.2100 -21.0093 -20.9162
   -20.7075 -20.5524 -20.5352 -20.4859 -20.4569 -20.4026 -20.3706 -20.3411
   -20.2782 -20.2550 -20.1565 -20.1330 -20.0720 -20.0115 -20.0023 -19.9331
   -19.9283 -19.9010 -19.8693 -19.8595  -1.8742  -1.8547  -1.8485  -1.8275
    -1.7394  -1.7066  -1.6172  -1.5804  -1.4904  -1.4799  -1.4691  -1.4566
    16.4144  16.6896  17.4218  17.6209  17.7392  18.0803  18.1213  18.2940
    18.4065  18.5945  18.9070  19.0109  19.2650  19.3390  19.5009  19.6240
    19.7644  19.8937  20.0262  20.1175  20.1976  20.5076  20.6633  20.7224
    20.7363  21.0500  21.1311  21.1677  21.4851  21.6091  21.7755  21.8030
    21.9436  22.0571  22.1270  22.2371  22.3836  22.4886  22.8507  22.8946
    23.5320  23.6854  24.0364  24.4805  25.8497  26.2820  26.3921  26.9946
    27.1606  27.3144  27.4027  27.6789  27.8571  27.9546  28.1678  28.3310
    28.7277  29.0580  29.2106  29.4458  29.7598  29.8560  30.1061  30.4149
    30.6597  30.7312  31.4903  31.6438  32.4568  34.0560  34.6606  34.8236
    35.5544  36.0737  36.3261  36.5783  37.4719  37.8187  38.2353  38.3501
    38.6520  38.7289  38.8019  39.0666  39.1082  39.3719

          k =-0.5000 0.0962-0.3109 (  5824 PWs)   bands (ev):

   -53.4049 -53.4049 -53.3454 -53.3454 -53.2701 -53.2701 -53.2515 -53.2515
   -26.4034 -26.4033 -26.3691 -26.3689 -21.2857 -21.2857 -20.9444 -20.9444
   -20.6161 -20.6161 -20.5185 -20.5185 -20.4440 -20.4440 -20.3847 -20.3847
   -20.2730 -20.2730 -20.1216 -20.1216 -20.0003 -20.0003 -19.9404 -19.9403
   -19.9298 -19.9297 -19.9010 -19.9010  -1.8575  -1.8574  -1.8397  -1.8397
    -1.7348  -1.7347  -1.5897  -1.5896  -1.4825  -1.4824  -1.4682  -1.4682
    16.5251  16.5251  17.5868  17.5868  17.9136  17.9136  18.2361  18.2361
    18.4253  18.4253  18.9305  18.9305  19.3611  19.3611  19.4232  19.4232
    19.8481  19.8481  20.0377  20.0377  20.2689  20.2689  20.7145  20.7145
    20.9397  20.9397  21.4370  21.4370  21.5809  21.5809  21.7857  21.7857
    22.0780  22.0780  22.1998  22.1998  22.3158  22.3158  22.7381  22.7381
    23.6636  23.6636  24.1673  24.1674  25.9612  25.9612  26.6735  26.6735
    27.3121  27.3121  27.6149  27.6149  27.6716  27.6717  28.2553  28.2554
    28.8793  28.8794  29.6577  29.6577  29.8855  29.8856  30.1200  30.1200
    30.8002  30.8003  31.4171  31.4171  33.3488  33.3488  35.0175  35.0176
    35.6160  35.6160  35.9413  35.9413  37.8972  37.8973  38.2608  38.2608
    38.6284  38.6285  38.9086  38.9089  39.3437  39.3433

     the Fermi energy is    30.8132 ev

!    total energy              =   -2688.80749964 Ry
     Harris-Foulkes estimate   =   -2688.80751629 Ry
     estimated scf accuracy    <       0.00001967 Ry

     The total energy is the sum of the following terms:

     one-electron contribution =    -338.90947166 Ry
     hartree contribution      =     371.77617582 Ry
     xc contribution           =    -260.82827768 Ry
     ewald contribution        =   -2460.43782463 Ry
     smearing contrib. (-TS)   =      -0.40810149 Ry

     convergence has been achieved in  10 iterations

     Forces acting on atoms (Ry/au):

     atom    1 type  1   force =     0.00000000    0.00000000    0.02480976
     atom    2 type  1   force =     0.00000000    0.00000000    0.02480976
     atom    3 type  1   force =     0.00000000    0.00000000   -0.02480976
     atom    4 type  1   force =     0.00000000    0.00000000   -0.02480976
     atom    5 type  2   force =     0.00000000    0.00000000    0.00000000
     atom    6 type  2   force =     0.00000000    0.00000000    0.00000000
     atom    7 type  2   force =     0.00000000    0.08075210    0.00000000
     atom    8 type  2   force =    -0.06993337    0.04037605    0.00000000
     atom    9 type  2   force =     0.06993337    0.04037605    0.00000000
     atom   10 type  2   force =    -0.06993337   -0.04037605    0.00000000
     atom   11 type  2   force =     0.06993337   -0.04037605    0.00000000
     atom   12 type  2   force =     0.00000000   -0.08075210    0.00000000

     Total force =     0.203930     Total SCF correction =     0.000000


     entering subroutine stress ...

          total   stress  (Ry/bohr**3)                   (kbar)     P=  785.62
   0.00535305   0.00000000   0.00000000        787.46      0.00      0.00
   0.00000000   0.00535305   0.00000000          0.00    787.46      0.00
   0.00000000   0.00000000   0.00531546          0.00      0.00    781.93


     BFGS Geometry Optimization

     number of scf cycles    =   1
     number of bfgs steps    =   0

     enthalpy new            =   -2688.8074996400 Ry

     new trust radius        =       0.5000000000 bohr
     new conv_thr            =       0.0001000000 Ry

     new unit-cell volume =   1656.16358 a.u.^3 (   245.41812 Ang^3 )

CELL_PARAMETERS (alat=  9.92348860)
   1.067764947   0.000000000   0.000000000
  -0.533882474   0.924711570   0.000000000
   0.000000000   0.000000000   1.716438125

ATOMIC_POSITIONS (crystal)
Mg       0.333333000   0.666667000   0.063205184
Mg       0.666667000   0.333333000   0.563205184
Mg       0.666667000   0.333333000   0.936794816
Mg       0.333333000   0.666667000   0.436794816
Zn       0.000000000   0.000000000   0.000000000
Zn       0.000000000   0.000000000   0.500000000
Zn       0.172739990   0.345479981   0.750000000
Zn       0.827260010   0.172739990   0.250000000
Zn       0.345479981   0.172739990   0.250000000
Zn       0.654520019   0.827260010   0.750000000
Zn       0.172739990   0.827260010   0.750000000
Zn       0.827260010   0.654520019   0.250000000



     Writing output data file Prototype-La-hP12-MgZn2.save
     NEW-OLD atomic charge density approx. for the potential
     NEW k-points:
        k(    1) = (   0.0000000   0.0000000   0.0000000), wk =   0.0833333
        k(    2) = (   0.0000000   0.0000000   0.1456505), wk =   0.1666667
        k(    3) = (   0.0000000   0.0000000  -0.2913009), wk =   0.0833333
        k(    4) = (   0.0000000   0.3604728   0.0000000), wk =   0.1666667
        k(    5) = (   0.0000000   0.3604728   0.1456505), wk =   0.3333333
        k(    6) = (   0.0000000   0.3604728  -0.2913009), wk =   0.1666667
        k(    7) = (  -0.4682679  -0.2703546   0.0000000), wk =   0.0833333
        k(    8) = (  -0.4682679  -0.2703546   0.1456505), wk =   0.1666667
        k(    9) = (  -0.4682679  -0.2703546  -0.2913009), wk =   0.0833333
        k(   10) = (  -0.4682679   0.0901182   0.0000000), wk =   0.1666667
        k(   11) = (  -0.4682679   0.0901182   0.1456505), wk =   0.3333333
        k(   12) = (  -0.4682679   0.0901182  -0.2913009), wk =   0.1666667

     total cpu time spent up to now is      340.9 secs

     Self-consistent Calculation

     iteration #  1     ecut=    40.00 Ry     beta=0.70
     CG style diagonalization
     c_bands:  5 eigenvalues not converged
     c_bands:  4 eigenvalues not converged
     c_bands:  1 eigenvalues not converged
     c_bands:  1 eigenvalues not converged
     c_bands:  1 eigenvalues not converged
     c_bands:  1 eigenvalues not converged
     ethr =  1.00E-06,  avg # of iterations = 20.5

     total cpu time spent up to now is      421.8 secs

     total energy              =   -2675.17615649 Ry
     Harris-Foulkes estimate   =   -2703.05147875 Ry
     estimated scf accuracy    <      35.09569804 Ry

     iteration #  2     ecut=    40.00 Ry     beta=0.70
     CG style diagonalization
     ethr =  1.00E-02,  avg # of iterations =  4.0

     total cpu time spent up to now is      437.2 secs

     total energy              =   -2682.70232389 Ry
     Harris-Foulkes estimate   =   -2695.35003797 Ry
     estimated scf accuracy    <      22.05203640 Ry

     iteration #  3     ecut=    40.00 Ry     beta=0.70
     CG style diagonalization
     ethr =  9.84E-03,  avg # of iterations =  3.6

     total cpu time spent up to now is      451.2 secs

     total energy              =   -2687.83281624 Ry
     Harris-Foulkes estimate   =   -2690.19057347 Ry
     estimated scf accuracy    <       5.40547592 Ry

     iteration #  4     ecut=    40.00 Ry     beta=0.70
     CG style diagonalization
     ethr =  2.41E-03,  avg # of iterations =  3.5

     total cpu time spent up to now is      464.9 secs

     total energy              =   -2689.09098490 Ry
     Harris-Foulkes estimate   =   -2689.20289052 Ry
     estimated scf accuracy    <       0.26670358 Ry

     iteration #  5     ecut=    40.00 Ry     beta=0.70
     CG style diagonalization
     c_bands:  1 eigenvalues not converged
     ethr =  1.19E-04,  avg # of iterations =  3.6

     total cpu time spent up to now is      479.2 secs

     total energy              =   -2689.14091761 Ry
     Harris-Foulkes estimate   =   -2689.14765766 Ry
     estimated scf accuracy    <       0.01261260 Ry

     iteration #  6     ecut=    40.00 Ry     beta=0.70
     CG style diagonalization
     c_bands:  1 eigenvalues not converged
     ethr =  5.63E-06,  avg # of iterations =  4.2

     total cpu time spent up to now is      495.7 secs

     total energy              =   -2689.14498546 Ry
     Harris-Foulkes estimate   =   -2689.14577871 Ry
     estimated scf accuracy    <       0.00174062 Ry

     iteration #  7     ecut=    40.00 Ry     beta=0.70
     CG style diagonalization
     c_bands:  1 eigenvalues not converged
     ethr =  7.77E-07,  avg # of iterations =  3.5

     total cpu time spent up to now is      509.2 secs

     total energy              =   -2689.14510506 Ry
     Harris-Foulkes estimate   =   -2689.14529956 Ry
     estimated scf accuracy    <       0.00036714 Ry

     iteration #  8     ecut=    40.00 Ry     beta=0.70
     CG style diagonalization
     c_bands:  1 eigenvalues not converged
     ethr =  1.64E-07,  avg # of iterations =  3.6

     total cpu time spent up to now is      522.9 secs

     End of self-consistent calculation

          k = 0.0000 0.0000 0.0000 (  5769 PWs)   bands (ev):

   -58.7298 -58.7042 -58.6513 -58.6513 -58.6434 -58.6434 -58.6397 -58.6046
   -32.7370 -32.7317 -32.7191 -32.7062 -26.4387 -26.3115 -26.0216 -25.8715
   -25.8715 -25.8478 -25.8478 -25.7397 -25.7397 -25.7293 -25.6626 -25.5817
   -25.5816 -25.5358 -25.5358 -25.4567 -25.4567 -25.4288 -25.4070 -25.4070
   -25.3893 -25.3747 -25.3670 -25.3670  -7.9003  -7.8992  -7.8848  -7.8848
    -7.8647  -7.8647  -7.7455  -7.7269  -7.7255  -7.7255  -7.7160  -7.7160
    11.1785  11.6995  12.2209  12.9030  12.9030  13.1287  13.1287  13.3173
    13.4702  13.4702  13.8420  13.8420  14.2569  14.3118  14.5809  14.5810
    14.6090  14.8737  14.8737  15.5028  15.6617  15.6617  15.8159  15.8159
    15.8896  16.4637  16.4637  16.4910  16.5196  16.5196  16.5438  16.5480
    16.5480  16.5615  16.5615  16.7279  17.5241  17.5242  17.7948  17.8880
    17.8880  18.5885  18.5897  20.3681  20.6398  20.6398  20.7003  20.7003
    21.1058  21.1957  21.4244  21.4244  21.6072  21.6073  21.7626  21.7627
    22.2841  22.2841  23.3101  23.5431  23.8757  23.8757  23.8757  23.9979
    23.9979  25.7413  25.7413  26.7600  27.0486  27.0486  27.8559  28.0729
    28.2109  28.2109  28.4471  28.5358  28.5358  28.6806  28.7851  28.7852
    28.9446  30.3543  30.3544  31.1166  31.7014  32.1837

          k = 0.0000 0.0000 0.1457 (  5780 PWs)   bands (ev):

   -58.7204 -58.7042 -58.6585 -58.6585 -58.6505 -58.6505 -58.6266 -58.6262
   -32.7365 -32.7348 -32.7149 -32.7093 -26.4239 -26.3319 -25.9981 -25.8732
   -25.8732 -25.8551 -25.8551 -25.7901 -25.7275 -25.7274 -25.6334 -25.6334
   -25.5944 -25.5040 -25.5040 -25.4478 -25.4478 -25.4418 -25.4115 -25.4115
   -25.3956 -25.3866 -25.3801 -25.3801  -7.8993  -7.8952  -7.8795  -7.8795
    -7.8709  -7.8709  -7.7497  -7.7309  -7.7251  -7.7251  -7.7187  -7.7187
    11.2253  11.5580  12.4197  12.9227  12.9228  13.0699  13.0699  13.1310
    13.5560  13.5560  13.8120  13.8120  14.3385  14.3724  14.5686  14.5686
    14.7180  14.7692  14.7692  15.5787  15.7796  15.7884  15.7884  15.9718
    15.9718  16.1361  16.3706  16.3706  16.4734  16.4735  16.4986  16.5271
    16.5271  16.5360  16.5780  16.5780  17.5212  17.5212  17.7777  17.7778
    18.5072  18.5886  18.5895  20.2625  20.7100  20.7100  20.8310  20.8310
    21.0952  21.4665  21.5010  21.5010  21.5041  21.5041  21.8115  21.8115
    22.1215  22.1215  22.5068  23.2874  23.8660  23.8661  23.9591  23.9591
    24.5686  25.9528  25.9529  26.0540  26.9358  26.9358  28.0042  28.0042
    28.0796  28.1870  28.1870  28.2434  28.6330  28.6857  29.3047  29.3047
    29.6589  30.7632  30.7633  31.1711  31.4129  31.4130

          k = 0.0000 0.0000-0.2913 (  5780 PWs)   bands (ev):

   -58.7325 -58.7325 -58.6390 -58.6390 -58.6390 -58.6390 -58.6352 -58.6352
   -32.7363 -32.7362 -32.7111 -32.7110 -26.3754 -26.3754 -25.9342 -25.9342
   -25.8577 -25.8577 -25.8577 -25.8577 -25.6769 -25.6769 -25.6768 -25.6768
   -25.5165 -25.5165 -25.4623 -25.4623 -25.4623 -25.4623 -25.4059 -25.4059
   -25.4059 -25.4059 -25.3811 -25.3811  -7.8973  -7.8971  -7.8745  -7.8745
    -7.8745  -7.8745  -7.7461  -7.7459  -7.7193  -7.7193  -7.7193  -7.7193
    11.3593  11.3593  12.7745  12.7745  12.9819  12.9819  12.9819  12.9819
    13.7065  13.7065  13.7065  13.7065  14.3933  14.3933  14.6196  14.6196
    14.6196  14.6196  15.2070  15.2070  15.7602  15.7602  16.0453  16.0453
    16.0453  16.0453  16.3197  16.3197  16.3197  16.3197  16.5172  16.5172
    16.5521  16.5521  16.5521  16.5521  17.5932  17.5932  17.5932  17.5932
    18.5891  18.5891  19.5078  19.5078  20.8716  20.8716  20.8716  20.8716
    21.5211  21.5211  21.5433  21.5434  21.5434  21.5434  21.8557  21.8557
    21.8557  21.8557  22.4647  22.4647  23.8869  23.8869  23.8869  23.8869
    25.2713  25.2714  26.4830  26.4830  26.4830  26.4830  27.9165  27.9165
    27.9165  27.9165  28.3919  28.3919  28.6406  28.6406  30.2446  30.2447
    30.2447  30.2447  31.0138  31.0138  31.9054  31.9054

          k = 0.0000 0.3605 0.0000 (  5787 PWs)   bands (ev):

   -58.7317 -58.7021 -58.6646 -58.6554 -58.6453 -58.6417 -58.6379 -58.6310
   -32.7359 -32.7251 -32.7229 -32.7133 -26.2950 -26.2021 -26.0346 -25.9444
   -25.8633 -25.8025 -25.7714 -25.7523 -25.7346 -25.7057 -25.6289 -25.6008
   -25.5849 -25.5763 -25.5704 -25.5460 -25.5023 -25.4978 -25.4645 -25.4212
   -25.4211 -25.4100 -25.3932 -25.3603  -7.9191  -7.9079  -7.8908  -7.8738
    -7.8576  -7.8380  -7.7799  -7.7502  -7.7228  -7.7215  -7.7049  -7.7041
    11.8729  12.4276  12.5542  13.1277  13.2151  13.3756  13.5872  13.6431
    13.7479  13.9396  13.9539  14.1150  14.3458  14.3905  14.6646  14.7606
    14.9254  14.9307  15.1061  15.1354  15.3141  15.3413  15.4097  15.4764
    15.5652  15.8072  15.8838  16.0049  16.1642  16.3454  16.4484  16.4702
    16.4908  16.5570  16.5763  16.7449  16.7560  16.8093  17.1161  17.4368
    17.6669  18.0318  18.2912  19.2418  19.3819  20.7741  20.8345  21.1953
    21.3403  21.4610  21.5072  21.5743  21.8861  22.0485  22.1976  22.3588
    22.4036  22.4984  23.0276  23.2766  23.2991  23.7801  24.0321  24.0772
    24.0958  24.1413  24.8601  25.0335  26.0204  26.4906  27.4579  27.8633
    28.0562  28.2620  28.5128  29.5578  29.6385  30.2159  30.2908  30.4842
    30.7212  30.8697  31.8819  32.0548  32.1083  32.7467

          k = 0.0000 0.3605 0.1457 (  5804 PWs)   bands (ev):

   -58.7278 -58.7144 -58.6687 -58.6645 -58.6572 -58.6498 -58.6465 -58.6293
   -32.7356 -32.7286 -32.7216 -32.7145 -26.2914 -26.2282 -26.0101 -25.9476
   -25.8570 -25.7978 -25.7857 -25.7587 -25.7426 -25.7243 -25.6655 -25.6302
   -25.5984 -25.5892 -25.5346 -25.5147 -25.5068 -25.4755 -25.4501 -25.4332
   -25.4207 -25.4099 -25.4087 -25.3855  -7.9192  -7.9075  -7.8908  -7.8772
    -7.8591  -7.8449  -7.7757  -7.7574  -7.7211  -7.7195  -7.7093  -7.7063
    11.9151  12.2280  12.7833  13.1270  13.1784  13.4525  13.5919  13.6288
    13.6671  13.8330  13.9977  14.1158  14.3023  14.4049  14.7035  14.7475
    14.8894  14.9146  14.9452  15.1111  15.3338  15.4254  15.5535  15.5706
    15.6567  15.8520  15.8602  16.1568  16.1866  16.2444  16.3885  16.3949
    16.4953  16.5510  16.5832  16.6169  16.8765  16.9156  17.0560  17.1780
    17.7153  17.9646  18.2970  19.0141  19.7209  20.7460  20.9944  21.2777
    21.3351  21.4156  21.5530  21.6410  21.8572  21.9478  22.1022  22.1832
    22.3104  22.5671  23.0335  23.3721  23.4360  23.7486  23.8355  23.8991
    24.4104  24.4859  24.6718  25.1537  25.8860  26.0188  27.0916  28.0507
    28.4114  28.6470  29.0152  29.3378  29.4967  29.8426  29.9108  30.3328
    31.2853  31.3574  31.5171  31.9055  32.3070  32.3439

          k = 0.0000 0.3605-0.2913 (  5816 PWs)   bands (ev):

   -58.7217 -58.7217 -58.6698 -58.6698 -58.6635 -58.6635 -58.6422 -58.6422
   -32.7337 -32.7336 -32.7177 -32.7176 -26.2696 -26.2696 -25.9747 -25.9747
   -25.8243 -25.8243 -25.7978 -25.7978 -25.7155 -25.7155 -25.6815 -25.6815
   -25.5916 -25.5916 -25.5164 -25.5164 -25.4687 -25.4687 -25.4376 -25.4376
   -25.4315 -25.4315 -25.4039 -25.4039  -7.9118  -7.9117  -7.8836  -7.8836
    -7.8577  -7.8577  -7.7672  -7.7670  -7.7157  -7.7156  -7.7144  -7.7144
    12.0366  12.0367  13.0098  13.0098  13.3159  13.3159  13.6062  13.6062
    13.7070  13.7070  14.0796  14.0797  14.3169  14.3170  14.7627  14.7627
    14.7907  14.7907  15.0801  15.0801  15.3583  15.3583  15.5776  15.5776
    15.9310  15.9310  16.1363  16.1363  16.1411  16.1411  16.4212  16.4212
    16.4307  16.4307  16.5342  16.5342  16.9495  16.9496  16.9904  16.9904
    17.8291  17.8291  18.5634  18.5634  20.2991  20.2992  21.2563  21.2563
    21.4380  21.4380  21.6656  21.6656  21.8091  21.8091  22.1589  22.1589
    22.2276  22.2276  23.3490  23.3491  23.6968  23.6969  23.8600  23.8600
    24.2518  24.2518  25.0218  25.0218  25.7698  25.7698  27.6181  27.6181
    28.5997  28.5997  29.1213  29.1213  29.6957  29.6957  30.4502  30.4503
    30.8811  30.8811  31.9281  31.9282  32.3502  32.3502

          k =-0.4683-0.2704 0.0000 (  5800 PWs)   bands (ev):

   -58.7186 -58.7148 -58.6705 -58.6692 -58.6528 -58.6435 -58.6418 -58.6331
   -32.7319 -32.7270 -32.7253 -32.7153 -26.2308 -26.1499 -26.0333 -26.0096
   -25.8607 -25.7720 -25.7586 -25.7386 -25.7325 -25.7051 -25.6486 -25.6228
   -25.5906 -25.5886 -25.5886 -25.5847 -25.5393 -25.5007 -25.4836 -25.4255
   -25.4191 -25.4128 -25.3973 -25.3633  -7.9252  -7.9086  -7.8948  -7.8763
    -7.8519  -7.8231  -7.7955  -7.7615  -7.7201  -7.7140  -7.7067  -7.7055
    12.1680  12.6730  12.6928  13.3277  13.3289  13.7087  13.7121  13.7261
    13.7932  13.8867  14.0271  14.3415  14.6019  14.7084  14.7153  14.7775
    14.8092  14.8568  15.0179  15.0742  15.0994  15.3014  15.4059  15.4166
    15.5046  15.5199  15.5575  15.8754  16.0392  16.2343  16.2682  16.3145
    16.3543  16.4756  16.5948  16.5990  16.7226  16.8308  16.9200  16.9733
    17.4196  17.7128  18.0167  18.8546  19.8714  20.7929  21.0621  21.2553
    21.3151  21.3928  21.8323  22.0232  22.0677  22.0757  22.1948  22.3893
    22.3995  22.6448  22.9301  22.9731  23.4750  23.5159  23.8203  23.9480
    23.9857  24.0659  24.2030  24.8347  25.7473  25.8476  27.7577  27.8764
    28.3697  28.4128  28.5425  30.1016  30.2042  30.3572  30.7062  30.7907
    31.3335  31.7629  32.0553  32.1793  32.3508  32.5493

          k =-0.4683-0.2704 0.1457 (  5822 PWs)   bands (ev):

   -58.7234 -58.7217 -58.6797 -58.6690 -58.6590 -58.6579 -58.6536 -58.6435
   -32.7335 -32.7288 -32.7229 -32.7186 -26.2265 -26.1702 -26.0319 -26.0084
   -25.8545 -25.7713 -25.7623 -25.7522 -25.7437 -25.7128 -25.6809 -25.6378
   -25.6240 -25.6172 -25.5670 -25.5497 -25.5267 -25.4822 -25.4698 -25.4369
   -25.4294 -25.4141 -25.4098 -25.3843  -7.9208  -7.9118  -7.8952  -7.8817
    -7.8535  -7.8389  -7.7868  -7.7647  -7.7207  -7.7171  -7.7108  -7.7043
    12.2035  12.4705  12.9351  13.3304  13.3334  13.5234  13.7168  13.7192
    13.8267  13.9517  14.0833  14.2994  14.6183  14.7051  14.7238  14.7321
    14.7910  14.8429  14.9292  14.9833  15.0163  15.3112  15.3619  15.3953
    15.6332  15.6437  15.7018  15.9864  16.0954  16.2758  16.3027  16.3071
    16.3367  16.4845  16.5733  16.5929  16.6278  16.7941  16.9036  17.1775
    17.2298  17.7326  17.9483  18.5719  20.0943  20.4855  21.3482  21.3507
    21.4037  21.5863  21.7114  21.7346  21.8950  22.0872  22.2351  22.2695
    22.5581  22.5775  22.8386  23.3474  23.4143  23.5787  23.6914  23.8066
    24.1836  24.2847  24.3378  25.1537  25.3212  25.6898  27.0323  28.0691
    28.3721  28.4963  29.3331  29.7284  29.9807  30.3027  30.7771  30.8817
    31.2247  31.3421  31.9543  31.9849  32.1147  32.2531

          k =-0.4683-0.2704-0.2913 (  5804 PWs)   bands (ev):

   -58.7118 -58.7118 -58.6639 -58.6639 -58.6636 -58.6636 -58.6402 -58.6402
   -32.7314 -32.7312 -32.7190 -32.7189 -26.2052 -26.2052 -26.0141 -26.0141
   -25.8041 -25.8041 -25.7744 -25.7744 -25.7071 -25.7071 -25.6668 -25.6668
   -25.6203 -25.6203 -25.5526 -25.5526 -25.4682 -25.4682 -25.4398 -25.4398
   -25.4290 -25.4290 -25.4059 -25.4059  -7.9129  -7.9128  -7.8875  -7.8875
    -7.8472  -7.8471  -7.7688  -7.7686  -7.7145  -7.7144  -7.7133  -7.7133
    12.3086  12.3086  13.2164  13.2164  13.3413  13.3413  13.7261  13.7261
    13.9080  13.9081  14.2067  14.2067  14.6777  14.6777  14.7189  14.7189
    14.8042  14.8042  14.8072  14.8072  15.2055  15.2056  15.3273  15.3273
    15.7276  15.7277  16.0585  16.0585  16.1099  16.1099  16.2981  16.2981
    16.5241  16.5241  16.5657  16.5657  16.7078  16.7078  16.8153  16.8154
    17.8162  17.8162  17.8734  17.8734  20.4132  20.4132  21.2880  21.2880
    21.5766  21.5766  21.7107  21.7107  21.9114  21.9115  22.3151  22.3151
    22.4388  22.4388  23.1269  23.1270  23.6320  23.6321  23.7110  23.7111
    24.4788  24.4788  24.6369  24.6369  25.4553  25.4553  27.1560  27.1560
    28.9386  28.9387  29.2560  29.2560  30.1228  30.1228  30.9410  30.9410
    31.2066  31.2066  32.0620  32.0620  32.0672  32.0673

          k =-0.4683 0.0901 0.0000 (  5827 PWs)   bands (ev):

   -58.7330 -58.7132 -58.6876 -58.6743 -58.6625 -58.6572 -58.6538 -58.6366
   -32.7341 -32.7272 -32.7251 -32.7180 -26.2293 -26.1617 -26.0351 -26.0145
   -25.8981 -25.7618 -25.7561 -25.7473 -25.7439 -25.7058 -25.6363 -25.6266
   -25.6060 -25.5973 -25.5888 -25.5640 -25.5234 -25.5007 -25.4855 -25.4478
   -25.4445 -25.4232 -25.4047 -25.3810  -7.9228  -7.9150  -7.9027  -7.8854
    -7.8470  -7.8194  -7.7986  -7.7666  -7.7193  -7.7190  -7.7091  -7.7053
    12.2614  12.7197  12.8464  13.2450  13.2603  13.4688  13.5716  13.7359
    13.8281  14.0159  14.1325  14.2982  14.3609  14.4018  14.6698  14.7700
    14.8021  14.8489  15.0684  15.1429  15.2941  15.3447  15.3568  15.4069
    15.4958  15.5311  15.6180  15.8859  16.0672  16.1924  16.2926  16.3726
    16.3984  16.4266  16.5022  16.6614  16.7158  16.8250  17.0391  17.4470
    17.5437  17.7788  17.9357  18.7938  19.8351  20.4390  20.7468  21.0200
    21.5007  21.7037  21.7059  21.9111  21.9879  22.1015  22.1906  22.3681
    22.5133  22.5275  22.7906  23.2470  23.2550  23.4237  23.7564  23.9335
    24.0388  24.3440  24.3763  24.7433  25.2768  26.7915  27.6070  27.8122
    28.2306  28.9157  28.9963  29.4623  29.7069  30.5757  30.5769  30.8082
    31.0869  31.5114  31.7346  31.7893  32.2196  32.5623

          k =-0.4683 0.0901 0.1457 (  5825 PWs)   bands (ev):

   -58.7287 -58.7219 -58.6741 -58.6717 -58.6666 -58.6566 -58.6496 -58.6438
   -32.7339 -32.7289 -32.7223 -32.7188 -26.2207 -26.1719 -26.0351 -26.0180
   -25.8748 -25.7642 -25.7579 -25.7498 -25.7448 -25.7187 -25.6690 -25.6480
   -25.6146 -25.6062 -25.5556 -25.5452 -25.5099 -25.4787 -25.4690 -25.4482
   -25.4410 -25.4252 -25.4123 -25.3941  -7.9200  -7.9121  -7.8995  -7.8886
    -7.8482  -7.8315  -7.7861  -7.7688  -7.7211  -7.7159  -7.7107  -7.7059
    12.2981  12.5638  13.0175  13.2098  13.2873  13.5463  13.5749  13.7099
    13.7976  13.8838  14.1750  14.2651  14.3636  14.4363  14.6019  14.7185
    14.8282  14.9388  14.9739  15.0436  15.1180  15.3835  15.4193  15.4455
    15.5311  15.7375  15.8135  15.8453  16.1521  16.1867  16.2708  16.3614
    16.4081  16.4948  16.5125  16.6117  16.7466  16.7542  17.0055  17.2355
    17.5914  17.7852  17.9380  18.7052  20.0032  20.3871  20.4932  21.2968
    21.3993  21.6034  21.6612  21.8248  21.9812  22.0241  22.1364  22.2784
    22.5965  22.8644  22.8962  23.2061  23.4161  23.4567  23.7282  23.9216
    24.0957  24.1333  24.6858  24.7184  25.4616  26.6887  27.1474  27.6688
    28.4881  28.5898  28.8348  29.3578  30.0414  30.1529  30.7482  31.1385
    31.4135  31.5478  31.7556  31.9748  32.2635  32.5553

          k =-0.4683 0.0901-0.2913 (  5824 PWs)   bands (ev):

   -58.7207 -58.7207 -58.6722 -58.6722 -58.6651 -58.6651 -58.6472 -58.6472
   -32.7322 -32.7320 -32.7199 -32.7197 -26.2004 -26.2004 -26.0217 -26.0217
   -25.8180 -25.8180 -25.7642 -25.7641 -25.7113 -25.7113 -25.6858 -25.6858
   -25.6112 -25.6112 -25.5404 -25.5404 -25.4751 -25.4751 -25.4468 -25.4468
   -25.4379 -25.4379 -25.4217 -25.4217  -7.9134  -7.9133  -7.8944  -7.8944
    -7.8443  -7.8442  -7.7729  -7.7728  -7.7178  -7.7177  -7.7112  -7.7112
    12.4034  12.4034  13.1544  13.1544  13.4237  13.4237  13.6929  13.6929
    13.7553  13.7553  14.2153  14.2153  14.4210  14.4210  14.5857  14.5857
    14.8853  14.8853  14.9873  14.9873  15.2136  15.2136  15.4518  15.4519
    15.6670  15.6670  16.0534  16.0534  16.1371  16.1371  16.3305  16.3305
    16.5063  16.5063  16.5460  16.5460  16.7071  16.7071  16.9716  16.9716
    17.6601  17.6601  18.3260  18.3261  20.1558  20.1558  20.8663  20.8663
    21.5562  21.5562  21.7690  21.7690  21.8440  21.8440  22.2233  22.2233
    22.7218  22.7218  23.3426  23.3427  23.5168  23.5168  23.7231  23.7232
    24.1926  24.1926  24.5646  24.5646  26.1655  26.1655  27.3539  27.3539
    28.3705  28.3705  28.7324  28.7325  30.5775  30.5775  31.0219  31.0219
    31.3780  31.3780  32.0679  32.0680  32.3522  32.3522

     the Fermi energy is    24.2608 ev

!    total energy              =   -2689.14518517 Ry
     Harris-Foulkes estimate   =   -2689.14521124 Ry
     estimated scf accuracy    <       0.00002932 Ry

     The total energy is the sum of the following terms:

     one-electron contribution =    -559.50119415 Ry
     hartree contribution      =     434.38275934 Ry
     xc contribution           =    -257.16757412 Ry
     ewald contribution        =   -2306.35767771 Ry
     smearing contrib. (-TS)   =      -0.50149854 Ry

     convergence has been achieved in   8 iterations

     Forces acting on atoms (Ry/au):

     atom    1 type  1   force =     0.00000000    0.00000000    0.01852686
     atom    2 type  1   force =     0.00000000    0.00000000    0.01852686
     atom    3 type  1   force =     0.00000000    0.00000000   -0.01852686
     atom    4 type  1   force =     0.00000000    0.00000000   -0.01852686
     atom    5 type  2   force =     0.00000000    0.00000000    0.00000000
     atom    6 type  2   force =     0.00000000    0.00000000    0.00000000
     atom    7 type  2   force =     0.00000000   -0.02231595    0.00000000
     atom    8 type  2   force =     0.01932618   -0.01115797    0.00000000
     atom    9 type  2   force =    -0.01932618   -0.01115797    0.00000000
     atom   10 type  2   force =     0.01932618    0.01115797    0.00000000
     atom   11 type  2   force =    -0.01932618    0.01115797    0.00000000
     atom   12 type  2   force =     0.00000000    0.02231595    0.00000000

     Total force =     0.066038     Total SCF correction =     0.000000


     entering subroutine stress ...

          total   stress  (Ry/bohr**3)                   (kbar)     P= -294.10
  -0.00192246   0.00000000   0.00000000       -282.80      0.00      0.00
   0.00000000  -0.00192246   0.00000000          0.00   -282.80      0.00
   0.00000000   0.00000000  -0.00215279          0.00      0.00   -316.69


     number of scf cycles    =   2
     number of bfgs steps    =   1

     enthalpy old            =   -2688.8074996400 Ry
     enthalpy new            =   -2689.1451851684 Ry

     CASE: enthalpy_new < enthalpy_old

     small trust_radius: resetting bfgs history

     new trust radius        =       0.4380501946 bohr
     new conv_thr            =       0.0000223159 Ry

     new unit-cell volume =   1420.02138 a.u.^3 (   210.42546 Ang^3 )

CELL_PARAMETERS (alat=  9.92348860)
   1.016446592   0.000000000   0.000000000
  -0.508223296   0.880268571   0.000000000
   0.000000000   0.000000000   1.624059728

ATOMIC_POSITIONS (crystal)
Mg       0.333333000   0.666667000   0.064292884
Mg       0.666667000   0.333333000   0.564292884
Mg       0.666667000   0.333333000   0.935707116
Mg       0.333333000   0.666667000   0.435707116
Zn       0.000000000   0.000000000   0.000000000
Zn       0.000000000   0.000000000   0.500000000
Zn       0.171524043   0.343048087   0.750000000
Zn       0.828475957   0.171524043   0.250000000
Zn       0.343048087   0.171524043   0.250000000
Zn       0.656951913   0.828475957   0.750000000
Zn       0.171524043   0.828475957   0.750000000
Zn       0.828475957   0.656951913   0.250000000



     Writing output data file Prototype-La-hP12-MgZn2.save
     NEW-OLD atomic charge density approx. for the potential
     NEW k-points:
        k(    1) = (   0.0000000   0.0000000   0.0000000), wk =   0.0833333
        k(    2) = (   0.0000000   0.0000000   0.1539352), wk =   0.1666667
        k(    3) = (   0.0000000   0.0000000  -0.3078705), wk =   0.0833333
        k(    4) = (   0.0000000   0.3786723   0.0000000), wk =   0.1666667
        k(    5) = (   0.0000000   0.3786723   0.1539352), wk =   0.3333333
        k(    6) = (   0.0000000   0.3786723  -0.3078705), wk =   0.1666667
        k(    7) = (  -0.4919098  -0.2840042   0.0000000), wk =   0.0833333
        k(    8) = (  -0.4919098  -0.2840042   0.1539352), wk =   0.1666667
        k(    9) = (  -0.4919098  -0.2840042  -0.3078705), wk =   0.0833333
        k(   10) = (  -0.4919098   0.0946681   0.0000000), wk =   0.1666667
        k(   11) = (  -0.4919098   0.0946681   0.1539352), wk =   0.3333333
        k(   12) = (  -0.4919098   0.0946681  -0.3078705), wk =   0.1666667

     total cpu time spent up to now is      528.4 secs

     Self-consistent Calculation

     iteration #  1     ecut=    40.00 Ry     beta=0.70
     CG style diagonalization
     c_bands:  5 eigenvalues not converged
     c_bands:  2 eigenvalues not converged
     c_bands:  3 eigenvalues not converged
     c_bands:  2 eigenvalues not converged
     c_bands:  1 eigenvalues not converged
     c_bands:  3 eigenvalues not converged
     ethr =  1.00E-06,  avg # of iterations = 19.8

     total cpu time spent up to now is      607.9 secs

     total energy              =   -2681.33879180 Ry
     Harris-Foulkes estimate   =   -2697.40139684 Ry
     estimated scf accuracy    <      20.08588788 Ry

     iteration #  2     ecut=    40.00 Ry     beta=0.70
     CG style diagonalization
     ethr =  8.97E-03,  avg # of iterations =  3.9

     total cpu time spent up to now is      623.6 secs

     total energy              =   -2686.59672899 Ry
     Harris-Foulkes estimate   =   -2691.91028503 Ry
     estimated scf accuracy    <       8.60952397 Ry

     iteration #  3     ecut=    40.00 Ry     beta=0.70
     CG style diagonalization
     ethr =  3.84E-03,  avg # of iterations =  3.6

     total cpu time spent up to now is      637.9 secs

     total energy              =   -2688.75945315 Ry
     Harris-Foulkes estimate   =   -2689.36608235 Ry
     estimated scf accuracy    <       1.21844780 Ry

     iteration #  4     ecut=    40.00 Ry     beta=0.70
     CG style diagonalization
     ethr =  5.44E-04,  avg # of iterations =  3.5

     total cpu time spent up to now is      651.8 secs

     total energy              =   -2689.05159925 Ry
     Harris-Foulkes estimate   =   -2689.07692757 Ry
     estimated scf accuracy    <       0.03871493 Ry

     iteration #  5     ecut=    40.00 Ry     beta=0.70
     CG style diagonalization
     c_bands:  1 eigenvalues not converged
     c_bands:  1 eigenvalues not converged
     c_bands:  1 eigenvalues not converged
     c_bands:  2 eigenvalues not converged
     ethr =  1.73E-05,  avg # of iterations =  4.5

     total cpu time spent up to now is      670.5 secs

     total energy              =   -2689.06314802 Ry
     Harris-Foulkes estimate   =   -2689.07603354 Ry
     estimated scf accuracy    <       0.02947956 Ry

     iteration #  6     ecut=    40.00 Ry     beta=0.70
     CG style diagonalization
     c_bands:  2 eigenvalues not converged
     c_bands:  1 eigenvalues not converged
     ethr =  1.32E-05,  avg # of iterations =  3.6

     total cpu time spent up to now is      684.9 secs

     total energy              =   -2689.06861980 Ry
     Harris-Foulkes estimate   =   -2689.06941821 Ry
     estimated scf accuracy    <       0.00146302 Ry

     iteration #  7     ecut=    40.00 Ry     beta=0.70
     CG style diagonalization
     c_bands:  1 eigenvalues not converged
     ethr =  6.53E-07,  avg # of iterations =  3.9

     total cpu time spent up to now is      700.1 secs

     total energy              =   -2689.06900639 Ry
     Harris-Foulkes estimate   =   -2689.06905219 Ry
     estimated scf accuracy    <       0.00008017 Ry

     iteration #  8     ecut=    40.00 Ry     beta=0.70
     CG style diagonalization
     ethr =  3.58E-08,  avg # of iterations =  4.2

     total cpu time spent up to now is      716.3 secs

     End of self-consistent calculation

          k = 0.0000 0.0000 0.0000 (  5769 PWs)   bands (ev):

   -54.6838 -54.6534 -54.5687 -54.5157 -54.5156 -54.5102 -54.5102 -54.5056
   -27.8994 -27.8778 -27.8521 -27.8264 -22.7723 -22.5539 -22.2159 -21.8898
   -21.8898 -21.8405 -21.8404 -21.7407 -21.7407 -21.6596 -21.5740 -21.4382
   -21.4382 -21.4175 -21.4175 -21.1964 -21.1964 -21.1864 -21.1402 -21.1402
   -21.1240 -21.1176 -21.1175 -21.1115  -3.2653  -3.2608  -3.2199  -3.2198
    -3.1941  -3.1941  -2.9741  -2.9657  -2.9657  -2.9527  -2.9412  -2.9412
    14.1352  14.8333  15.3378  16.2593  16.2593  16.5931  16.5931  16.8227
    16.9058  16.9058  17.3808  17.3808  17.9410  18.0183  18.2844  18.3371
    18.3371  18.7445  18.7445  19.6004  19.7699  19.7699  19.8478  19.8478
    19.9007  20.7908  20.8536  20.8536  20.8691  20.8691  20.8752  20.9192
    20.9192  20.9689  20.9717  20.9717  22.0136  22.2071  22.2072  22.7895
    22.7895  23.7024  23.7049  24.6485  24.7225  24.7225  24.8464  24.8464
    25.5475  25.5496  25.6745  25.6745  26.1726  26.1727  26.3849  26.3850
    26.8893  26.8893  28.1400  28.5050  28.8486  28.8486  28.8533  29.0702
    29.0702  31.0783  31.0784  32.4111  32.7357  32.7357  33.4496  33.5955
    33.8135  34.2291  34.2307  34.2307  34.2488  34.2489  34.5516  34.5516
    34.7630  36.4152  36.4152  36.4816  36.6292  36.6301

          k = 0.0000 0.0000 0.1539 (  5780 PWs)   bands (ev):

   -54.6784 -54.6586 -54.5517 -54.5229 -54.5186 -54.5186 -54.5142 -54.5142
   -27.8973 -27.8834 -27.8458 -27.8294 -22.7505 -22.6004 -22.1508 -21.8895
   -21.8895 -21.8558 -21.8558 -21.7925 -21.7097 -21.7097 -21.5402 -21.5402
   -21.4464 -21.3315 -21.3315 -21.2118 -21.1965 -21.1964 -21.1453 -21.1453
   -21.1324 -21.1324 -21.1285 -21.1218  -3.2635  -3.2577  -3.2150  -3.2149
    -3.1998  -3.1997  -2.9756  -2.9626  -2.9626  -2.9576  -2.9454  -2.9454
    14.1927  14.6204  15.6284  16.2853  16.2853  16.4940  16.4940  16.5716
    17.0336  17.0336  17.3482  17.3482  18.0622  18.1469  18.3252  18.3252
    18.3529  18.5953  18.5954  19.6542  19.6892  19.9373  19.9373  20.0997
    20.0998  20.2787  20.7268  20.7268  20.8578  20.8578  20.8599  20.8600
    20.8884  20.9356  20.9357  20.9547  22.1692  22.1692  22.5637  22.5637
    22.7080  23.7028  23.7044  24.5927  24.8770  24.8770  25.0790  25.0791
    25.3957  25.8483  25.8483  25.9761  25.9761  26.0505  26.4395  26.4395
    26.6794  26.6794  27.1540  28.2187  28.8297  28.8298  29.0254  29.0254
    29.7027  31.2775  31.2776  31.6341  32.5130  32.5130  33.5898  33.6250
    33.9494  34.0396  34.0396  34.1039  34.1039  34.2560  35.0948  35.0948
    35.4709  36.2950  36.2952  36.7170  36.8394  37.2147

          k = 0.0000 0.0000-0.3079 (  5780 PWs)   bands (ev):

   -54.6762 -54.6761 -54.5453 -54.5453 -54.5075 -54.5074 -54.5074 -54.5074
   -27.8916 -27.8915 -27.8363 -27.8362 -22.6814 -22.6814 -22.0072 -22.0072
   -21.8698 -21.8698 -21.8698 -21.8698 -21.6276 -21.6276 -21.6276 -21.6276
   -21.3165 -21.3165 -21.2438 -21.2438 -21.2438 -21.2438 -21.1482 -21.1482
   -21.1482 -21.1482 -21.1168 -21.1168  -3.2595  -3.2593  -3.2073  -3.2072
    -3.2072  -3.2072  -2.9710  -2.9709  -2.9522  -2.9522  -2.9522  -2.9522
    14.3601  14.3601  16.1012  16.1012  16.3656  16.3656  16.3656  16.3656
    17.2257  17.2257  17.2257  17.2257  18.1602  18.1602  18.3942  18.3943
    18.3943  18.3943  18.9194  18.9194  19.9102  19.9102  20.2917  20.2917
    20.2917  20.2917  20.6177  20.6177  20.6177  20.6177  20.8796  20.8796
    20.8796  20.8796  20.9217  20.9217  22.2454  22.2454  22.2454  22.2454
    23.7036  23.7036  23.7608  23.7608  25.1849  25.1850  25.1850  25.1850
    25.9569  25.9569  25.9569  25.9569  25.9638  25.9638  26.4054  26.4054
    26.4054  26.4054  27.2614  27.2614  28.8865  28.8866  28.8866  28.8866
    30.6209  30.6210  31.8776  31.8776  31.8777  31.8777  33.7031  33.7031
    33.9813  33.9813  33.9813  33.9814  34.1428  34.1429  36.0027  36.0027
    36.0028  36.0028  36.8264  36.8264  37.2045  37.2045

          k = 0.0000 0.3787 0.0000 (  5787 PWs)   bands (ev):

   -54.6710 -54.6215 -54.5714 -54.5704 -54.5296 -54.5161 -54.5078 -54.4993
   -27.8911 -27.8668 -27.8628 -27.8376 -22.5579 -22.3654 -22.2179 -21.9795
   -21.8596 -21.7668 -21.7636 -21.7377 -21.6991 -21.6272 -21.5219 -21.4822
   -21.4533 -21.4499 -21.4323 -21.3862 -21.3066 -21.2980 -21.2539 -21.1737
   -21.1616 -21.1446 -21.1391 -21.1118  -3.2954  -3.2747  -3.2341  -3.2045
    -3.1689  -3.1458  -3.0416  -3.0040  -2.9560  -2.9403  -2.9247  -2.9115
    14.9796  15.7325  15.7406  16.5438  16.6010  16.9223  17.0646  17.1034
    17.2746  17.5475  17.6127  17.7952  18.0321  18.1801  18.4557  18.5668
    18.7710  18.7728  19.0341  19.0516  19.2143  19.3460  19.3501  19.4971
    19.6438  19.8286  20.0106  20.1785  20.2737  20.6730  20.7212  20.7239
    20.8006  20.8687  20.9115  21.1642  21.1831  21.3240  21.6511  21.7691
    22.4607  22.5652  22.9503  23.5894  24.0404  25.0806  25.1120  25.5714
    25.7961  25.8368  25.8511  25.9571  26.4355  26.5399  26.6965  27.0286
    27.1690  27.3340  27.9148  28.0990  28.2138  28.6596  29.0276  29.1071
    29.1493  29.2462  30.1641  30.3269  31.5256  31.9710  33.2112  33.3752
    33.8601  33.9482  34.2608  34.9544  35.3564  35.6370  35.9146  36.1140
    36.5665  36.6740  37.2721  37.5247  37.5864  37.7515

          k = 0.0000 0.3787 0.1539 (  5804 PWs)   bands (ev):

   -54.6673 -54.6350 -54.5750 -54.5676 -54.5293 -54.5214 -54.5139 -54.5029
   -27.8894 -27.8753 -27.8547 -27.8397 -22.5465 -22.4254 -22.1504 -21.9951
   -21.8536 -21.7625 -21.7533 -21.7385 -21.7112 -21.6774 -21.5837 -21.5346
   -21.4616 -21.4363 -21.3664 -21.3386 -21.3110 -21.2690 -21.2380 -21.1953
   -21.1691 -21.1610 -21.1441 -21.1334  -3.2909  -3.2734  -3.2314  -3.2096
    -3.1728  -3.1559  -3.0329  -3.0074  -2.9509  -2.9395  -2.9287  -2.9181
    15.0298  15.4141  16.1048  16.5251  16.6000  16.9979  17.0685  17.0950
    17.1921  17.4085  17.6609  17.8017  17.9677  18.1410  18.4752  18.5465
    18.7437  18.7527  18.8386  19.0560  19.2182  19.4263  19.6290  19.6356
    19.6870  19.8525  19.9640  20.2572  20.4379  20.4650  20.6940  20.7228
    20.8223  20.8844  20.9120  21.0072  21.3724  21.3739  21.5630  21.5764
    22.5036  22.5264  22.8343  23.3342  24.1897  25.1037  25.3894  25.6273
    25.6969  25.8236  26.0345  26.0912  26.3988  26.4131  26.6122  26.7530
    27.2430  27.3479  27.8739  28.1816  28.3223  28.6324  28.7670  28.8774
    29.5559  29.6675  29.9310  30.4814  31.3209  31.5542  32.9138  33.3809
    34.2819  34.3244  34.6869  35.0198  35.0367  35.4996  35.6682  35.9004
    36.8405  37.0856  37.1198  37.4550  37.5911  37.6832

          k = 0.0000 0.3787-0.3079 (  5816 PWs)   bands (ev):

   -54.6530 -54.6530 -54.5747 -54.5747 -54.5216 -54.5216 -54.5170 -54.5170
   -27.8842 -27.8840 -27.8458 -27.8457 -22.5023 -22.5023 -22.0579 -22.0579
   -21.8099 -21.8099 -21.7610 -21.7610 -21.6760 -21.6760 -21.6187 -21.6187
   -21.4386 -21.4386 -21.3267 -21.3267 -21.2569 -21.2569 -21.2089 -21.2089
   -21.2032 -21.2032 -21.1419 -21.1419  -3.2784  -3.2782  -3.2206  -3.2206
    -3.1724  -3.1723  -3.0175  -3.0174  -2.9404  -2.9404  -2.9304  -2.9303
    15.1763  15.1763  16.3957  16.3957  16.7808  16.7808  17.0798  17.0798
    17.2661  17.2661  17.7600  17.7600  17.9829  17.9829  18.5598  18.5598
    18.6024  18.6024  19.0163  19.0163  19.2992  19.2992  19.6361  19.6362
    19.9168  19.9168  20.3692  20.3692  20.3780  20.3780  20.7054  20.7054
    20.7621  20.7621  20.8584  20.8584  21.4466  21.4466  21.4751  21.4751
    22.6325  22.6325  22.7918  22.7918  24.6595  24.6595  25.6216  25.6216
    25.9317  25.9317  26.1020  26.1021  26.2919  26.2919  26.7846  26.7846
    26.9862  26.9862  28.1887  28.1888  28.6195  28.6196  28.8663  28.8663
    29.3432  29.3432  30.3028  30.3029  31.2768  31.2768  33.3920  33.3920
    34.0683  34.0683  34.8268  34.8268  35.3505  35.3505  36.2922  36.2922
    36.4197  36.4197  37.4718  37.4718  37.6740  37.6740

          k =-0.4919-0.2840 0.0000 (  5800 PWs)   bands (ev):

   -54.6543 -54.6178 -54.5857 -54.5702 -54.5434 -54.5256 -54.5098 -54.4985
   -27.8852 -27.8693 -27.8616 -27.8435 -22.4593 -22.2741 -22.2140 -22.0808
   -21.8378 -21.7722 -21.7356 -21.7048 -21.6253 -21.6211 -21.5418 -21.5071
   -21.4771 -21.4685 -21.4517 -21.4430 -21.3879 -21.3228 -21.2967 -21.1827
   -21.1650 -21.1445 -21.1324 -21.1143  -3.3007  -3.2779  -3.2398  -3.2077
    -3.1591  -3.1279  -3.0607  -3.0167  -2.9483  -2.9354  -2.9231  -2.9101
    15.3305  15.8719  16.0701  16.7037  16.7637  17.1824  17.1980  17.2741
    17.4657  17.5212  17.7966  17.9898  18.3033  18.4985  18.5066  18.6670
    18.6868  18.6971  18.9802  19.0354  19.0671  19.2939  19.3179  19.3733
    19.5393  19.5514  19.5689  19.9932  20.0779  20.4758  20.4946  20.5843
    20.5844  20.8404  20.9240  20.9404  20.9956  21.1682  21.2971  21.3551
    21.4136  22.5365  22.9378  23.2325  24.5390  25.1941  25.4715  25.5777
    25.6541  25.9629  26.2752  26.5091  26.5403  26.6566  26.6739  26.9887
    27.0389  27.7834  27.7928  27.9710  28.2830  28.5346  28.6864  28.9013
    29.0001  29.0948  29.3003  30.0886  31.1914  31.2146  33.4812  33.6332
    33.9378  34.0204  34.4550  35.4106  35.7027  36.1483  36.3353  36.3931
    37.0322  37.3009  37.5626  37.6003  37.8531  37.9098

          k =-0.4919-0.2840 0.1539 (  5822 PWs)   bands (ev):

   -54.6526 -54.6230 -54.5917 -54.5799 -54.5361 -54.5299 -54.5190 -54.5076
   -27.8844 -27.8742 -27.8564 -27.8457 -22.4478 -22.3379 -22.1600 -22.0840
   -21.8363 -21.7469 -21.7319 -21.7104 -21.6798 -21.6223 -21.6073 -21.5318
   -21.5075 -21.4958 -21.4184 -21.3962 -21.3643 -21.2804 -21.2711 -21.2068
   -21.1740 -21.1546 -21.1471 -21.1343  -3.2933  -3.2779  -3.2372  -3.2141
    -3.1653  -3.1466  -3.0463  -3.0160  -2.9468  -2.9359  -2.9246  -2.9171
    15.3727  15.6870  16.3114  16.7219  16.7639  17.0586  17.1968  17.2093
    17.5001  17.5621  17.8393  17.9449  18.3159  18.4987  18.5089  18.5452
    18.6489  18.7256  18.8764  18.9186  18.9465  19.3180  19.3441  19.3598
    19.6222  19.6564  19.7579  20.1687  20.2098  20.4934  20.5205  20.5923
    20.6224  20.8181  20.8594  20.9140  21.0449  21.1921  21.2082  21.2954
    21.4353  22.5381  22.8208  22.9674  24.6250  24.8594  25.5998  25.7309
    25.9668  25.9973  26.1775  26.2161  26.4135  26.7702  26.8242  26.8511
    27.2811  27.4970  27.6250  28.3249  28.3643  28.4450  28.5286  28.7023
    29.2649  29.4583  29.4784  30.4736  30.6227  31.1502  32.8048  33.5950
    34.2610  34.3249  34.8089  35.3844  35.4117  35.9577  36.2700  36.4424
    36.8276  37.1969  37.3666  37.4279  37.6598  37.7217

          k =-0.4919-0.2840-0.3079 (  5804 PWs)   bands (ev):

   -54.6320 -54.6320 -54.5814 -54.5814 -54.5221 -54.5220 -54.5218 -54.5218
   -27.8804 -27.8802 -27.8498 -27.8496 -22.4063 -22.4063 -22.1057 -22.1057
   -21.7765 -21.7764 -21.7239 -21.7239 -21.6709 -21.6709 -21.5783 -21.5783
   -21.5032 -21.5031 -21.4006 -21.4006 -21.2671 -21.2670 -21.2140 -21.2140
   -21.1978 -21.1978 -21.1439 -21.1439  -3.2803  -3.2802  -3.2254  -3.2254
    -3.1637  -3.1636  -3.0218  -3.0217  -2.9370  -2.9370  -2.9273  -2.9272
    15.4963  15.4963  16.6660  16.6660  16.7612  16.7612  17.2167  17.2167
    17.5743  17.5743  17.8811  17.8811  18.3870  18.3870  18.4909  18.4909
    18.6623  18.6623  18.8023  18.8023  19.1053  19.1053  19.3346  19.3347
    19.7255  19.7255  20.2184  20.2184  20.3314  20.3314  20.6246  20.6246
    20.8160  20.8161  20.8510  20.8510  20.9411  20.9411  21.1604  21.1604
    22.1652  22.1653  22.6222  22.6222  24.8093  24.8093  25.6829  25.6829
    25.9149  25.9149  26.3806  26.3807  26.4123  26.4123  26.9809  26.9809
    27.2020  27.2020  27.9309  27.9310  28.4563  28.4564  28.6774  28.6774
    29.6291  29.6292  29.9267  29.9267  30.8322  30.8323  33.0729  33.0729
    34.2650  34.2650  35.0061  35.0061  35.7044  35.7044  36.4861  36.4861
    36.9992  36.9993  37.4086  37.4086  37.5072  37.5072

          k =-0.4919 0.0947 0.0000 (  5827 PWs)   bands (ev):

   -54.6608 -54.6162 -54.5956 -54.5788 -54.5458 -54.5299 -54.5198 -54.4988
   -27.8857 -27.8694 -27.8614 -27.8443 -22.4528 -22.2821 -22.2150 -22.0834
   -21.9036 -21.7723 -21.7512 -21.6769 -21.6391 -21.6208 -21.5197 -21.5192
   -21.4829 -21.4761 -21.4548 -21.4334 -21.3341 -21.3118 -21.2797 -21.2039
   -21.1993 -21.1753 -21.1457 -21.1294  -3.2966  -3.2820  -3.2528  -3.2181
    -3.1470  -3.1141  -3.0694  -3.0285  -2.9480  -2.9343  -2.9189  -2.9134
    15.4390  15.9242  16.2692  16.6233  16.7035  17.0082  17.0189  17.2808
    17.3878  17.7273  17.7832  18.0330  18.0496  18.1913  18.4373  18.5173
    18.6250  18.7233  19.0343  19.0484  19.2677  19.3079  19.3460  19.4394
    19.4871  19.5328  19.6824  20.0252  20.1048  20.3899  20.5712  20.6115
    20.6143  20.6984  20.8035  20.9331  21.1645  21.1766  21.6212  21.7415
    22.1463  22.2943  22.6488  23.1440  24.5213  24.8078  25.3531  25.4551
    25.8143  26.1193  26.1311  26.4716  26.4731  26.6052  26.8298  27.0236
    27.1548  27.1944  27.6185  28.0335  28.1721  28.3164  28.7008  28.8845
    29.0355  29.4617  29.5615  30.0193  30.6322  32.4425  32.9648  33.5737
    33.7533  34.3854  34.8886  35.2377  35.4696  36.2649  36.4342  36.5286
    36.8633  37.1151  37.2536  37.5385  37.5444  38.0576

          k =-0.4919 0.0947 0.1539 (  5825 PWs)   bands (ev):

   -54.6545 -54.6252 -54.5921 -54.5851 -54.5377 -54.5245 -54.5186 -54.5051
   -27.8844 -27.8742 -27.8562 -27.8458 -22.4384 -22.3340 -22.1674 -22.0920
   -21.8772 -21.7543 -21.7392 -21.6893 -21.6797 -21.6299 -21.5913 -21.5615
   -21.4873 -21.4742 -21.3976 -21.3830 -21.3211 -21.2747 -21.2630 -21.2085
   -21.1988 -21.1854 -21.1581 -21.1483  -3.2907  -3.2785  -3.2476  -3.2240
    -3.1531  -3.1332  -3.0505  -3.0261  -2.9429  -2.9353  -2.9224  -2.9177
    15.4815  15.7822  16.4372  16.6063  16.7293  17.0466  17.0819  17.2509
    17.3567  17.5344  17.8241  17.9182  18.1286  18.2164  18.3671  18.5011
    18.6441  18.7726  18.8616  18.9766  19.0114  19.3599  19.4441  19.4957
    19.5409  19.8337  19.9208  19.9350  20.2710  20.3541  20.5078  20.5360
    20.6802  20.8011  20.8273  20.9544  21.1088  21.1871  21.5095  21.5519
    22.2062  22.3077  22.5821  23.1149  24.4908  24.9077  25.0088  25.7038
    25.8117  25.9891  26.0427  26.3100  26.4997  26.5575  26.7574  26.9075
    27.2881  27.6124  27.7554  27.9917  28.2721  28.3364  28.6173  28.8916
    29.1558  29.1777  29.9166  30.0131  30.8401  32.3097  32.9505  33.1704
    33.9441  34.2839  34.6249  34.9557  35.7947  36.0308  36.5138  36.6874
    37.0928  37.1326  37.1783  37.4187  37.6045  37.8258

          k =-0.4919 0.0947-0.3079 (  5824 PWs)   bands (ev):

   -54.6389 -54.6389 -54.5916 -54.5916 -54.5227 -54.5227 -54.5176 -54.5176
   -27.8805 -27.8804 -27.8500 -27.8498 -22.3974 -22.3974 -22.1156 -22.1155
   -21.7979 -21.7979 -21.7271 -21.7271 -21.6597 -21.6597 -21.6095 -21.6095
   -21.4828 -21.4828 -21.3647 -21.3646 -21.2671 -21.2671 -21.2152 -21.2152
   -21.2068 -21.2068 -21.1818 -21.1818  -3.2796  -3.2795  -3.2365  -3.2365
    -3.1531  -3.1530  -3.0297  -3.0295  -2.9339  -2.9339  -2.9284  -2.9283
    15.6021  15.6021  16.5745  16.5745  16.9101  16.9101  17.1913  17.1913
    17.3658  17.3658  17.8487  17.8487  18.2282  18.2282  18.3075  18.3075
    18.7240  18.7241  18.8789  18.8789  19.1260  19.1260  19.4973  19.4973
    19.7227  19.7227  20.2028  20.2028  20.3297  20.3297  20.5205  20.5205
    20.8051  20.8051  20.9015  20.9015  21.0416  21.0416  21.3954  21.3954
    22.2979  22.2980  22.7824  22.7825  24.6004  24.6004  25.3365  25.3365
    25.9772  25.9773  26.2331  26.2332  26.3013  26.3014  26.8450  26.8450
    27.4529  27.4530  28.1880  28.1881  28.3980  28.3981  28.6230  28.6230
    29.2646  29.2646  29.8045  29.8045  31.6684  31.6685  33.2389  33.2389
    33.9695  33.9695  34.2852  34.2852  36.2422  36.2422  36.6101  36.6101
    37.0062  37.0062  37.3485  37.3485  37.7364  37.7365

     the Fermi energy is    29.2811 ev

!    total energy              =   -2689.06903422 Ry
     Harris-Foulkes estimate   =   -2689.06905162 Ry
     estimated scf accuracy    <       0.00001427 Ry

     The total energy is the sum of the following terms:

     one-electron contribution =    -386.08647434 Ry
     hartree contribution      =     384.30228582 Ry
     xc contribution           =    -259.94291288 Ry
     ewald contribution        =   -2426.91604976 Ry
     smearing contrib. (-TS)   =      -0.42588306 Ry

     convergence has been achieved in   8 iterations

     Forces acting on atoms (Ry/au):

     atom    1 type  1   force =     0.00000000    0.00000000    0.00732265
     atom    2 type  1   force =     0.00000000    0.00000000    0.00732265
     atom    3 type  1   force =     0.00000000    0.00000000   -0.00732265
     atom    4 type  1   force =     0.00000000    0.00000000   -0.00732265
     atom    5 type  2   force =     0.00000000    0.00000000    0.00000000
     atom    6 type  2   force =     0.00000000    0.00000000    0.00000000
     atom    7 type  2   force =     0.00000000    0.00840469    0.00000000
     atom    8 type  2   force =    -0.00727868    0.00420235    0.00000000
     atom    9 type  2   force =     0.00727868    0.00420235    0.00000000
     atom   10 type  2   force =    -0.00727868   -0.00420235    0.00000000
     atom   11 type  2   force =     0.00727868   -0.00420235    0.00000000
     atom   12 type  2   force =     0.00000000   -0.00840469    0.00000000

     Total force =     0.025265     Total SCF correction =     0.000000


     entering subroutine stress ...

          total   stress  (Ry/bohr**3)                   (kbar)     P=  485.72
   0.00330437   0.00000000   0.00000000        486.09      0.00      0.00
   0.00000000   0.00330437   0.00000000          0.00    486.09      0.00
   0.00000000   0.00000000   0.00329682          0.00      0.00    484.98


     number of scf cycles    =   3
     number of bfgs steps    =   2

     enthalpy old            =   -2689.1451851684 Ry
     enthalpy new            =   -2689.0690342225 Ry

     CASE: enthalpy_new > enthalpy_old

     new trust radius        =       0.1861281170 bohr

     trust_radius < trust_radius_min

     resetting bfgs history

     Message from routine bfgs:
     history already reset at previous step: stopping
     new conv_thr            =       0.0000223159 Ry

     new unit-cell volume =   1408.33268 a.u.^3 (   208.69337 Ang^3 )

CELL_PARAMETERS (alat=  9.92348860)
   1.013527545   0.000000000   0.000000000
  -0.506763773   0.877740601   0.000000000
   0.000000000   0.000000000   1.619982744

ATOMIC_POSITIONS (crystal)
Mg       0.333333000   0.666667000   0.064420143
Mg       0.666667000   0.333333000   0.564420143
Mg       0.666667000   0.333333000   0.935579857
Mg       0.333333000   0.666667000   0.435579857
Zn       0.000000000   0.000000000   0.000000000
Zn       0.000000000   0.000000000   0.500000000
Zn       0.171398162   0.342796325   0.750000000
Zn       0.828601838   0.171398162   0.250000000
Zn       0.342796325   0.171398162   0.250000000
Zn       0.657203675   0.828601838   0.750000000
Zn       0.171398162   0.828601838   0.750000000
Zn       0.828601838   0.657203675   0.250000000



     Writing output data file Prototype-La-hP12-MgZn2.save
     NEW-OLD atomic charge density approx. for the potential
     NEW k-points:
        k(    1) = (   0.0000000   0.0000000   0.0000000), wk =   0.0833333
        k(    2) = (   0.0000000   0.0000000   0.1543226), wk =   0.1666667
        k(    3) = (   0.0000000   0.0000000  -0.3086453), wk =   0.0833333
        k(    4) = (   0.0000000   0.3797629   0.0000000), wk =   0.1666667
        k(    5) = (   0.0000000   0.3797629   0.1543226), wk =   0.3333333
        k(    6) = (   0.0000000   0.3797629  -0.3086453), wk =   0.1666667
        k(    7) = (  -0.4933265  -0.2848222   0.0000000), wk =   0.0833333
        k(    8) = (  -0.4933265  -0.2848222   0.1543226), wk =   0.1666667
        k(    9) = (  -0.4933265  -0.2848222  -0.3086453), wk =   0.0833333
        k(   10) = (  -0.4933265   0.0949407   0.0000000), wk =   0.1666667
        k(   11) = (  -0.4933265   0.0949407   0.1543226), wk =   0.3333333
        k(   12) = (  -0.4933265   0.0949407  -0.3086453), wk =   0.1666667

     total cpu time spent up to now is      721.7 secs

     Self-consistent Calculation

     iteration #  1     ecut=    40.00 Ry     beta=0.70
     CG style diagonalization
     ethr =  1.00E-06,  avg # of iterations =  6.0

     total cpu time spent up to now is      746.5 secs

     total energy              =   -2688.99748922 Ry
     Harris-Foulkes estimate   =   -2689.05544470 Ry
     estimated scf accuracy    <       0.07195556 Ry

     iteration #  2     ecut=    40.00 Ry     beta=0.70
     CG style diagonalization
     ethr =  3.21E-05,  avg # of iterations =  4.0

     total cpu time spent up to now is      762.5 secs

     total energy              =   -2689.01319051 Ry
     Harris-Foulkes estimate   =   -2689.04403868 Ry
     estimated scf accuracy    <       0.05507688 Ry

     iteration #  3     ecut=    40.00 Ry     beta=0.70
     CG style diagonalization
     ethr =  2.46E-05,  avg # of iterations =  3.6

     total cpu time spent up to now is      775.9 secs

     total energy              =   -2689.02676681 Ry
     Harris-Foulkes estimate   =   -2689.02875131 Ry
     estimated scf accuracy    <       0.00385622 Ry

     iteration #  4     ecut=    40.00 Ry     beta=0.70
     CG style diagonalization
     ethr =  1.72E-06,  avg # of iterations =  3.7

     total cpu time spent up to now is      789.9 secs

     total energy              =   -2689.02788610 Ry
     Harris-Foulkes estimate   =   -2689.02797377 Ry
     estimated scf accuracy    <       0.00014676 Ry

     iteration #  5     ecut=    40.00 Ry     beta=0.70
     CG style diagonalization
     ethr =  6.55E-08,  avg # of iterations =  3.7

     total cpu time spent up to now is      803.6 secs

     total energy              =   -2689.02793148 Ry
     Harris-Foulkes estimate   =   -2689.02796463 Ry
     estimated scf accuracy    <       0.00007093 Ry

     iteration #  6     ecut=    40.00 Ry     beta=0.70
     CG style diagonalization
[...]
     ethr =  1.69E-08,  avg # of iterations =  3.6

     total cpu time spent up to now is     1462.8 secs

     End of self-consistent calculation

          k = 0.0000 0.0000 0.0000 (  5979 PWs)   bands (ev):

   -54.4679 -54.4328 -54.3450 -54.2976 -54.2975 -54.2948 -54.2947 -54.2820
   -27.6211 -27.5972 -27.5709 -27.5445 -22.5695 -22.3544 -22.0130 -21.6917
   -21.6917 -21.6247 -21.6247 -21.5236 -21.5236 -21.4343 -21.3528 -21.2347
   -21.2347 -21.1935 -21.1935 -20.9699 -20.9699 -20.9536 -20.9244 -20.9244
   -20.9176 -20.9002 -20.9001 -20.8933  -3.0049  -2.9997  -2.9570  -2.9570
    -2.9365  -2.9364  -2.7109  -2.7049  -2.7049  -2.6846  -2.6714  -2.6714
    14.3041  15.0107  15.5156  16.4510  16.4510  16.7891  16.7891  17.0232
    17.1085  17.1085  17.5889  17.5890  18.1514  18.2269  18.4925  18.5498
    18.5498  18.9776  18.9776  19.8456  20.0178  20.0178  20.0783  20.0784
    20.1381  21.0223  21.1054  21.1055  21.1271  21.1293  21.1293  21.1710
    21.1710  21.2236  21.2296  21.2296  22.2622  22.4785  22.4786  23.0817
    23.0817  24.0083  24.0102  24.8962  24.9569  24.9570  25.0833  25.0834
    25.7973  25.8077  25.9119  25.9120  26.4260  26.4260  26.6660  26.6661
    27.1562  27.1563  28.4125  28.7928  29.1355  29.1355  29.1392  29.3628
    29.3628  31.3926  31.3927  32.7326  33.0638  33.0639  33.7133  33.9205
    34.1156  34.5266  34.5546  34.5546  34.5674  34.5674  34.8780  34.8781
    35.0574  36.6698  36.7667  36.7672  36.8110  36.8753

          k = 0.0000 0.0000 0.1543 (  6014 PWs)   bands (ev):

   -54.4737 -54.4469 -54.3437 -54.3016 -54.3016 -54.2972 -54.2941 -54.2941
   -27.6190 -27.6032 -27.5647 -27.5476 -22.5529 -22.4136 -21.9521 -21.6838
   -21.6838 -21.6479 -21.6479 -21.6139 -21.4985 -21.4984 -21.3161 -21.3161
   -21.2220 -21.1078 -21.1078 -21.0007 -20.9850 -20.9850 -20.9301 -20.9301
   -20.9149 -20.9149 -20.9126 -20.8964  -3.0081  -3.0009  -2.9545  -2.9544
    -2.9409  -2.9408  -2.7068  -2.6997  -2.6997  -2.6937  -2.6775  -2.6775
    14.3620  14.7944  15.8093  16.4774  16.4775  16.6891  16.6891  16.7670
    17.2370  17.2370  17.5551  17.5552  18.2715  18.3612  18.5408  18.5408
    18.5587  18.8229  18.8229  19.8800  19.9341  20.1861  20.1861  20.3392
    20.3392  20.5227  20.9840  20.9840  21.1093  21.1094  21.1147  21.1147
    21.1409  21.1884  21.1884  21.2091  22.4376  22.4376  22.8436  22.8436
    22.9435  24.0084  24.0099  24.8347  25.1175  25.1175  25.3208  25.3209
    25.6347  26.0946  26.0946  26.2320  26.2320  26.3177  26.7133  26.7133
    26.9429  26.9430  27.4184  28.4991  29.1156  29.1156  29.3186  29.3186
    29.9933  31.5820  31.5820  31.9397  32.8322  32.8323  33.8501  33.9092
    34.2526  34.3810  34.3810  34.4297  34.4297  34.5767  35.4201  35.4202
    35.7753  36.5663  36.5664  36.9001  37.1365  37.5303

          k = 0.0000 0.0000-0.3086 (  6056 PWs)   bands (ev):

   -54.4722 -54.4722 -54.3219 -54.3219 -54.3052 -54.3051 -54.3051 -54.3051
   -27.6130 -27.6129 -27.5551 -27.5550 -22.4979 -22.4979 -21.7914 -21.7914
   -21.6782 -21.6782 -21.6781 -21.6781 -21.4247 -21.4247 -21.4246 -21.4246
   -21.0864 -21.0864 -21.0325 -21.0325 -21.0325 -21.0325 -20.9390 -20.9390
   -20.9389 -20.9389 -20.9215 -20.9214  -3.0035  -3.0033  -2.9492  -2.9492
    -2.9492  -2.9492  -2.7015  -2.7013  -2.6923  -2.6923  -2.6923  -2.6923
    14.5303  14.5303  16.2900  16.2900  16.5582  16.5582  16.5582  16.5582
    17.4309  17.4309  17.4309  17.4309  18.3718  18.3718  18.6149  18.6150
    18.6150  18.6150  19.1318  19.1318  20.1574  20.1574  20.5440  20.5440
    20.5440  20.5440  20.8673  20.8673  20.8673  20.8673  21.1303  21.1304
    21.1304  21.1304  21.1743  21.1743  22.5139  22.5139  22.5140  22.5140
    24.0023  24.0023  24.0089  24.0089  25.4308  25.4308  25.4309  25.4309
    26.2076  26.2076  26.2076  26.2076  26.2175  26.2176  26.6702  26.6702
    26.6703  26.6703  27.5363  27.5364  29.1740  29.1740  29.1741  29.1741
    30.9228  30.9229  32.1825  32.1825  32.1825  32.1825  33.9556  33.9556
    34.3220  34.3220  34.3220  34.3220  34.4614  34.4614  36.3203  36.3203
    36.3204  36.3204  37.1190  37.1194  37.4505  37.4507

          k = 0.0000 0.3798 0.0000 (  6024 PWs)   bands (ev):

   -54.4568 -54.4155 -54.3590 -54.3448 -54.3194 -54.3089 -54.2978 -54.2696
   -27.6115 -27.5872 -27.5826 -27.5559 -22.3677 -22.1811 -22.0052 -21.7784
   -21.6574 -21.5629 -21.5537 -21.5281 -21.4983 -21.4229 -21.3144 -21.2756
   -21.2424 -21.2353 -21.2319 -21.1584 -21.0902 -21.0770 -21.0373 -20.9454
   -20.9439 -20.9243 -20.9142 -20.8979  -3.0415  -3.0171  -2.9744  -2.9459
    -2.9067  -2.8839  -2.7801  -2.7403  -2.6889  -2.6719  -2.6629  -2.6453
    15.1599  15.9138  15.9281  16.7408  16.7997  17.1237  17.2687  17.3078
    17.4800  17.7535  17.8236  18.0057  18.2470  18.3954  18.6775  18.7907
    18.9887  18.9954  19.2591  19.2794  19.4348  19.5819  19.5829  19.7305
    19.8796  20.0630  20.2502  20.4161  20.5156  20.9262  20.9636  20.9666
    21.0450  21.1223  21.1642  21.4215  21.4444  21.5872  21.9145  22.0207
    22.7409  22.8106  23.2422  23.8407  24.3126  25.3276  25.3563  25.8169
    26.0429  26.0837  26.1206  26.2094  26.6942  26.7961  26.9481  27.2937
    27.4354  27.6271  28.1944  28.3720  28.4992  28.9359  29.3103  29.3955
    29.4415  29.5375  30.4653  30.6320  31.8396  32.2867  33.5379  33.6574
    34.1894  34.2537  34.5737  35.2338  35.6728  35.9168  36.2018  36.4295
    36.8766  36.9754  37.5420  37.8023  37.8119  37.9680

          k = 0.0000 0.3798 0.1543 (  6013 PWs)   bands (ev):

   -54.4447 -54.4209 -54.3554 -54.3485 -54.3106 -54.3046 -54.2948 -54.2802
   -27.6098 -27.5957 -27.5734 -27.5580 -22.3502 -22.2289 -21.9494 -21.7963
   -21.6521 -21.5542 -21.5348 -21.5302 -21.5012 -21.4648 -21.3647 -21.3245
   -21.2445 -21.2136 -21.1515 -21.1127 -21.1003 -21.0456 -21.0185 -20.9617
   -20.9473 -20.9285 -20.9254 -20.9063  -3.0332  -3.0150  -2.9702  -2.9497
    -2.9113  -2.8933  -2.7684  -2.7415  -2.6857  -2.6713  -2.6657  -2.6491
    15.2104  15.5959  16.2945  16.7219  16.7984  17.2003  17.2729  17.2998
    17.3966  17.6151  17.8724  18.0133  18.1804  18.3574  18.6924  18.7701
    18.9644  18.9755  19.0651  19.2840  19.4408  19.6572  19.8661  19.8737
    19.9218  20.0857  20.2002  20.4979  20.6831  20.7086  20.9407  20.9783
    21.0739  21.1336  21.1649  21.2630  21.6324  21.6364  21.8189  21.8398
    22.7699  22.7835  23.1222  23.5823  24.4481  25.3544  25.6422  25.8704
    25.9438  26.0833  26.2853  26.3579  26.6517  26.6753  26.8695  27.0159
    27.5334  27.6226  28.1524  28.4537  28.6030  28.9088  29.0495  29.1639
    29.8541  29.9632  30.2337  30.7856  31.6337  31.8696  33.2407  33.6662
    34.6021  34.6220  34.9941  35.3144  35.3518  35.8008  35.9963  36.1944
    37.1168  37.3805  37.4371  37.7161  37.8455  38.0105

          k = 0.0000 0.3798-0.3086 (  6012 PWs)   bands (ev):

   -54.4338 -54.4338 -54.3537 -54.3537 -54.2969 -54.2968 -54.2953 -54.2953
   -27.6044 -27.6043 -27.5642 -27.5641 -22.3024 -22.3024 -21.8538 -21.8538
   -21.6065 -21.6065 -21.5470 -21.5470 -21.4582 -21.4582 -21.4006 -21.4006
   -21.2175 -21.2175 -21.1118 -21.1118 -21.0283 -21.0282 -20.9781 -20.9781
   -20.9777 -20.9777 -20.9209 -20.9209  -3.0200  -3.0198  -2.9595  -2.9595
    -2.9090  -2.9089  -2.7505  -2.7504  -2.6764  -2.6764  -2.6620  -2.6619
    15.3570  15.3570  16.5909  16.5909  16.9792  16.9792  17.2845  17.2845
    17.4728  17.4728  17.9724  17.9724  18.1956  18.1956  18.7817  18.7817
    18.8216  18.8216  19.2428  19.2428  19.5268  19.5268  19.8716  19.8716
    20.1483  20.1483  20.6188  20.6188  20.6240  20.6240  20.9545  20.9545
    21.0137  21.0137  21.1090  21.1090  21.7090  21.7090  21.7374  21.7374
    22.9146  22.9146  23.0358  23.0358  24.9106  24.9107  25.8699  25.8699
    26.1879  26.1879  26.3594  26.3595  26.5500  26.5500  27.0506  27.0506
    27.2647  27.2647  28.4642  28.4643  28.9018  28.9019  29.1521  29.1521
    29.6363  29.6363  30.6075  30.6075  31.5921  31.5921  33.7062  33.7062
    34.3756  34.3756  35.1380  35.1380  35.6508  35.6509  36.5699  36.5701
    36.7580  36.7581  37.7541  37.7543  37.9443  38.0052

          k =-0.4933-0.2848 0.0000 (  6020 PWs)   bands (ev):

   -54.4442 -54.3982 -54.3710 -54.3456 -54.3332 -54.3111 -54.2914 -54.2744
   -27.6060 -27.5887 -27.5808 -27.5624 -22.2636 -22.0833 -22.0022 -21.8770
   -21.6384 -21.5692 -21.5238 -21.4823 -21.4212 -21.4140 -21.3201 -21.2953
   -21.2663 -21.2530 -21.2379 -21.2232 -21.1757 -21.1020 -21.0756 -20.9581
   -20.9411 -20.9294 -20.9112 -20.8927  -3.0446  -3.0227  -2.9796  -2.9474
    -2.8956  -2.8698  -2.7966  -2.7507  -2.6860  -2.6650  -2.6569  -2.6427
    15.5129  16.0548  16.2618  16.9022  16.9643  17.3876  17.4040  17.4800
    17.6761  17.7291  18.0181  18.2046  18.5201  18.7112  18.7248  18.8940
    18.9105  18.9287  19.1994  19.2626  19.3057  19.5225  19.5373  19.6086
    19.7717  19.7795  19.7959  20.2351  20.3059  20.7211  20.7457  20.8275
    20.8321  21.0933  21.1558  21.1932  21.2520  21.4320  21.5501  21.6190
    21.6421  22.8189  23.2302  23.4851  24.8116  25.4463  25.7094  25.8402
    25.8964  26.2356  26.5281  26.7586  26.7991  26.9122  26.9393  27.2458
    27.3041  28.0753  28.0902  28.2604  28.5589  28.8207  28.9629  29.1816
    29.2865  29.3815  29.5955  30.3859  31.4961  31.5292  33.8031  33.8988
    34.2726  34.3242  34.7852  35.6774  36.0029  36.4486  36.6261  36.7314
    37.3490  37.5148  37.8593  37.8957  38.1385  38.2061

          k =-0.4933-0.2848 0.1543 (  6012 PWs)   bands (ev):

   -54.4322 -54.4028 -54.3655 -54.3639 -54.3144 -54.3005 -54.2976 -54.2831
   -27.6049 -27.5939 -27.5751 -27.5639 -22.2507 -22.1340 -21.9540 -21.8776
   -21.6263 -21.5381 -21.5161 -21.4858 -21.4742 -21.4038 -21.3860 -21.3124
   -21.2958 -21.2868 -21.1949 -21.1826 -21.1387 -21.0508 -21.0470 -20.9750
   -20.9483 -20.9256 -20.9183 -20.9038  -3.0361  -3.0182  -2.9736  -2.9525
    -2.9028  -2.8860  -2.7809  -2.7484  -2.6827  -2.6663  -2.6589  -2.6470
    15.5564  15.8709  16.5039  16.9212  16.9647  17.2630  17.4030  17.4162
    17.7110  17.7701  18.0600  18.1590  18.5328  18.7171  18.7256  18.7685
    18.8675  18.9572  19.0973  19.1449  19.1813  19.5487  19.5715  19.5856
    19.8506  19.8841  19.9956  20.4121  20.4441  20.7403  20.7634  20.8424
    20.8700  21.0697  21.1070  21.1669  21.3023  21.4425  21.4444  21.5579
    21.6834  22.8198  23.1090  23.2230  24.8887  25.1131  25.8413  25.9797
    26.2174  26.2640  26.4316  26.4756  26.6746  27.0369  27.0884  27.1159
    27.5513  27.7854  27.8998  28.6171  28.6492  28.7254  28.8035  28.9799
    29.5594  29.7563  29.7708  30.7771  30.9282  31.4659  33.1295  33.8767
    34.5934  34.6551  35.0943  35.6704  35.7251  36.2643  36.5568  36.7535
    37.1275  37.5207  37.6640  37.7095  37.9023  38.0258

          k =-0.4933-0.2848-0.3086 (  6020 PWs)   bands (ev):

   -54.4151 -54.4151 -54.3742 -54.3742 -54.3026 -54.3026 -54.2921 -54.2921
   -27.6006 -27.6004 -27.5684 -27.5683 -22.2085 -22.2085 -21.8983 -21.8983
   -21.5674 -21.5674 -21.5008 -21.5008 -21.4697 -21.4697 -21.3802 -21.3801
   -21.2942 -21.2942 -21.1839 -21.1839 -21.0386 -21.0386 -20.9867 -20.9867
   -20.9812 -20.9812 -20.9159 -20.9158  -3.0216  -3.0214  -2.9631  -2.9631
    -2.9050  -2.9049  -2.7583  -2.7581  -2.6711  -2.6711  -2.6596  -2.6595
    15.6797  15.6797  16.8624  16.8624  16.9620  16.9620  17.4239  17.4239
    17.7852  17.7852  18.0964  18.0965  18.6055  18.6055  18.7065  18.7065
    18.8846  18.8846  19.0345  19.0345  19.3273  19.3273  19.5649  19.5649
    19.9527  19.9528  20.4599  20.4599  20.5764  20.5764  20.8770  20.8771
    21.0508  21.0508  21.1021  21.1021  21.1928  21.1928  21.4197  21.4197
    22.4157  22.4157  22.9042  22.9043  25.0640  25.0640  25.9309  25.9310
    26.1643  26.1643  26.6494  26.6495  26.6707  26.6708  27.2483  27.2483
    27.4800  27.4800  28.2060  28.2061  28.7277  28.7278  28.9650  28.9650
    29.9252  29.9253  30.2285  30.2285  31.1407  31.1408  33.4100  33.4100
    34.5377  34.5377  35.3143  35.3143  36.0002  36.0002  36.7784  36.7784
    37.3172  37.3173  37.6797  37.6798  37.7901  37.7902

          k =-0.4933 0.0949 0.0000 (  6022 PWs)   bands (ev):

   -54.4369 -54.4046 -54.3748 -54.3449 -54.3326 -54.3050 -54.3022 -54.2719
   -27.6060 -27.5890 -27.5805 -27.5625 -22.2547 -22.0770 -22.0056 -21.8812
   -21.6925 -21.5607 -21.5406 -21.4697 -21.4252 -21.4092 -21.3029 -21.3009
   -21.2678 -21.2578 -21.2394 -21.2176 -21.1080 -21.0909 -21.0517 -20.9805
   -20.9753 -20.9415 -20.9119 -20.9029  -3.0395  -3.0235  -2.9930  -2.9561
    -2.8822  -2.8505  -2.8057  -2.7648  -2.6812  -2.6664  -2.6509  -2.6444
    15.6245  16.1076  16.4642  16.8221  16.9036  17.2134  17.2224  17.4880
    17.5945  17.9433  17.9925  18.2479  18.2665  18.4085  18.6580  18.7344
    18.8439  18.9507  19.2633  19.2731  19.4992  19.5323  19.5813  19.6714
    19.7144  19.7642  19.9178  20.2647  20.3376  20.6308  20.8198  20.8512
    20.8670  20.9450  21.0531  21.1776  21.4182  21.4363  21.8901  21.9926
    22.3986  22.5726  22.9328  23.3959  24.7962  25.0593  25.6192  25.7107
    26.0614  26.3728  26.3853  26.7291  26.7367  26.8607  27.0933  27.2938
    27.4179  27.4630  27.8973  28.3069  28.4553  28.5951  28.9845  29.1672
    29.3204  29.7567  29.8590  30.3227  30.9398  32.7711  33.2498  33.8981
    34.0455  34.6781  35.2180  35.5564  35.7860  36.5757  36.7471  36.8454
    37.1728  37.4110  37.5182  37.8430  37.8442  38.1023

          k =-0.4933 0.0949 0.1543 (  6028 PWs)   bands (ev):

   -54.4311 -54.4069 -54.3786 -54.3628 -54.3168 -54.3067 -54.2991 -54.2786
   -27.6047 -27.5942 -27.5753 -27.5640 -22.2424 -22.1367 -21.9589 -21.8886
   -21.6694 -21.5452 -21.5258 -21.4744 -21.4683 -21.4249 -21.3743 -21.3511
   -21.2714 -21.2590 -21.1821 -21.1643 -21.0972 -21.0508 -21.0355 -20.9826
   -20.9789 -20.9557 -20.9309 -20.9161  -3.0328  -3.0190  -2.9892  -2.9627
    -2.8896  -2.8715  -2.7868  -2.7605  -2.6763  -2.6669  -2.6561  -2.6496
    15.6670  15.9664  16.6329  16.8054  16.9290  17.2503  17.2874  17.4582
    17.5640  17.7447  18.0356  18.1302  18.3465  18.4339  18.5867  18.7222
    18.8640  18.9936  19.0866  19.1992  19.2394  19.5857  19.6761  19.7300
    19.7722  20.0724  20.1558  20.1727  20.5069  20.5987  20.7517  20.7793
    20.9260  21.0483  21.0793  21.2060  21.3644  21.4449  21.7708  21.8093
    22.4584  22.5798  22.8649  23.3719  24.7510  25.1691  25.2722  25.9536
    26.0672  26.2390  26.2937  26.5679  26.7544  26.8198  27.0216  27.1770
    27.5566  27.8843  28.0351  28.2647  28.5508  28.6146  28.8958  29.1758
    29.4452  29.4680  30.2159  30.3151  31.1494  32.6332  33.2739  33.4636
    34.2299  34.6039  34.9444  35.2520  36.1038  36.3548  36.8308  36.9843
    37.3801  37.4299  37.4510  37.7157  37.8786  38.0906

          k =-0.4933 0.0949-0.3086 (  6024 PWs)   bands (ev):

   -54.4160 -54.4160 -54.3744 -54.3744 -54.3024 -54.3023 -54.2951 -54.2951
   -27.6006 -27.6005 -27.5686 -27.5684 -22.2009 -22.2009 -21.9121 -21.9121
   -21.5875 -21.5875 -21.5135 -21.5135 -21.4461 -21.4460 -21.4020 -21.4020
   -21.2683 -21.2683 -21.1497 -21.1497 -21.0381 -21.0381 -20.9879 -20.9878
   -20.9766 -20.9766 -20.9522 -20.9522  -3.0200  -3.0198  -2.9767  -2.9767
    -2.8918  -2.8917  -2.7647  -2.7645  -2.6661  -2.6661  -2.6604  -2.6603
    15.7868  15.7868  16.7735  16.7735  17.1105  17.1105  17.3978  17.3978
    17.5745  17.5746  18.0594  18.0594  18.4477  18.4477  18.5249  18.5249
    18.9448  18.9448  19.1036  19.1036  19.3499  19.3500  19.7303  19.7303
    19.9566  19.9566  20.4422  20.4422  20.5728  20.5728  20.7627  20.7627
    21.0538  21.0538  21.1563  21.1563  21.2938  21.2939  21.6570  21.6570
    22.5627  22.5627  23.0490  23.0490  24.8579  24.8579  25.5938  25.5939
    26.2306  26.2306  26.4880  26.4881  26.5570  26.5570  27.1111  27.1111
    27.7257  27.7258  28.4649  28.4649  28.6770  28.6771  28.9021  28.9021
    29.5538  29.5539  30.1055  30.1055  31.9842  31.9842  33.5689  33.5689
    34.2665  34.2666  34.5849  34.5849  36.5426  36.5426  36.9106  36.9107
    37.2983  37.2984  37.6207  37.6208  38.0163  38.0166

     the Fermi energy is    29.5690 ev

!    total energy              =   -2689.22624868 Ry
     Harris-Foulkes estimate   =   -2689.22625174 Ry
     estimated scf accuracy    <       0.00000337 Ry

     The total energy is the sum of the following terms:

     one-electron contribution =    -376.99459121 Ry
     hartree contribution      =     381.83937370 Ry
     xc contribution           =    -260.13491105 Ry
     ewald contribution        =   -2433.51380870 Ry
     smearing contrib. (-TS)   =      -0.42231143 Ry

     convergence has been achieved in  11 iterations

     Forces acting on atoms (Ry/au):

     atom    1 type  1   force =     0.00000000    0.00000000    0.01443163
     atom    2 type  1   force =     0.00000000    0.00000000    0.01443163
     atom    3 type  1   force =     0.00000000    0.00000000   -0.01443163
     atom    4 type  1   force =     0.00000000    0.00000000   -0.01443163
     atom    5 type  2   force =     0.00000000    0.00000000    0.00000000
     atom    6 type  2   force =     0.00000000    0.00000000    0.00000000
     atom    7 type  2   force =     0.00000000    0.03158553    0.00000000
     atom    8 type  2   force =    -0.02735387    0.01579277    0.00000000
     atom    9 type  2   force =     0.02735387    0.01579277    0.00000000
     atom   10 type  2   force =    -0.02735387   -0.01579277    0.00000000
     atom   11 type  2   force =     0.02735387   -0.01579277    0.00000000
     atom   12 type  2   force =     0.00000000   -0.03158553    0.00000000

     Total force =     0.082577     Total SCF correction =     0.000000


     entering subroutine stress ...

          total   stress  (Ry/bohr**3)                   (kbar)     P=  590.97
   0.00404783   0.00000000   0.00000000        595.46      0.00      0.00
   0.00000000   0.00404783   0.00000000          0.00    595.46      0.00
   0.00000000   0.00000000   0.00395635          0.00      0.00    582.00


     Writing output data file Prototype-La-hP12-MgZn2.save
 
     init_run     :      5.53s CPU      6.79s WALL (       2 calls)
     electrons    :   1213.48s CPU   1434.80s WALL (       5 calls)
     update_pot   :      3.15s CPU      3.18s WALL (       3 calls)
     forces       :      5.58s CPU      5.83s WALL (       5 calls)
     stress       :     15.26s CPU     15.66s WALL (       5 calls)

     Called by init_run:
     wfcinit      :      4.40s CPU      5.64s WALL (       2 calls)
     potinit      :      0.54s CPU      0.55s WALL (       2 calls)

     Called by electrons:
     c_bands      :   1186.39s CPU   1392.40s WALL (      43 calls)
     sum_band     :     26.56s CPU     37.13s WALL (      43 calls)
     v_of_rho     :      0.10s CPU      0.12s WALL (      48 calls)
     mix_rho      :      0.08s CPU      0.11s WALL (      43 calls)

     Called by c_bands:
     init_us_2    :      1.69s CPU      2.00s WALL (    1176 calls)
     ccgdiagg     :   1085.91s CPU   1261.83s WALL (     632 calls)
     wfcrot       :    103.10s CPU    132.78s WALL (     644 calls)

     Called by *cgdiagg:
     h_psi        :    762.34s CPU    954.70s WALL (  441724 calls)
     cdiaghg      :      4.72s CPU      5.25s WALL (     644 calls)

     Called by h_psi:
     add_vuspsi   :    127.60s CPU    139.96s WALL (  441724 calls)

     General routines
     calbec       :    320.37s CPU    343.44s WALL (  882924 calls)
     fft          :      0.24s CPU      0.29s WALL (     215 calls)
     fftw         :    430.69s CPU    564.68s WALL ( 1123896 calls)
     davcio       :      1.00s CPU      2.99s WALL (    1692 calls)
 
     Parallel routines
     fft_scatter  :    182.98s CPU    246.26s WALL ( 1124111 calls)
 
     PWSCF        : 20m43.42s CPU    24m26.89s WALL

 
   This run was terminated on:  19: 6:24  22Mar2018            

=------------------------------------------------------------------------------=
   JOB DONE.
=------------------------------------------------------------------------------=
