
     Program PWSCF v.5.0.2 starts on 22Mar2018 at 21:32:28 

     This program is part of the open-source Quantum ESPRESSO suite
     for quantum simulation of materials; please cite
         "P. Giannozzi et al., J. Phys.:Condens. Matter 21 395502 (2009);
          URL http://www.quantum-espresso.org", 
     in publications or presentations arising from this work. More details at
     http://www.quantum-espresso.org/quote.php

     Parallel version (MPI), running on     4 processors
     R & G space division:  proc/nbgrp/npool/nimage =       4

     Current dimensions of program PWSCF are:
     Max number of different atomic species (ntypx) = 10
     Max number of k-points (npk) =  40000
     Max angular momentum in pseudopotentials (lmaxx) =  3
     Waiting for input...
     Reading input from standard input

     Subspace diagonalization in iterative solution of the eigenvalue problem:
     a serial algorithm will be used

 
     Parallelization info
     --------------------
     sticks:   dense  smooth     PW     G-vecs:    dense   smooth      PW
     Min         267     267     77                11587    11587    1762
     Max         268     268     79                11596    11596    1765
     Sum        1069    1069    313                46361    46361    7055
 


     bravais-lattice index     =            0
     lattice parameter (alat)  =       9.9235  a.u.
     unit-cell volume          =    1361.0366 (a.u.)^3
     number of atoms/cell      =           12
     number of atomic types    =            2
     number of electrons       =       268.00
     number of Kohn-Sham states=          161
     kinetic-energy cutoff     =      40.0000  Ry
     charge density cutoff     =     160.0000  Ry
     convergence threshold     =      1.0E-04
     mixing beta               =       0.7000
     number of iterations used =            8  plain     mixing
     Exchange-correlation      = SLA-PZ-NOGX-NOGC ( 1 1 0 0 0)
     EXX-fraction              =        0.00
     nstep                     =           50


     celldm(1)=   9.923489  celldm(2)=   0.000000  celldm(3)=   0.000000
     celldm(4)=   0.000000  celldm(5)=   0.000000  celldm(6)=   0.000000

     crystal axes: (cart. coord. in units of alat)
               a(1) = (   1.000000   0.000000   0.000000 )  
               a(2) = (  -0.500000   0.866025   0.000000 )  
               a(3) = (   0.000000   0.000000   1.608222 )  

     reciprocal axes: (cart. coord. in units 2 pi/alat)
               b(1) = (  1.000000  0.577350  0.000000 )  
               b(2) = (  0.000000  1.154701  0.000000 )  
               b(3) = (  0.000000  0.000000  0.621805 )  


     PseudoPot. # 1 for Tm read from file:
     /home/cwx6513/pp.La/Tm.UPF
     MD5 check sum: 245516e0878b5372ceeb9443ded2c4e1
     Pseudo is Norm-conserving, Zval = 23.0
     Generated in analytical, separable form
     Using radial grid of 1269 points,  6 beta functions with: 
                l(1) =   0
                l(2) =   0
                l(3) =   1
                l(4) =   1
                l(5) =   2
                l(6) =   3

     PseudoPot. # 2 for Er read from file:
     /home/cwx6513/pp.La/Er.UPF
     MD5 check sum: e152ae21b84514339d8526f066caf99b
     Pseudo is Norm-conserving, Zval = 22.0
     Generated in analytical, separable form
     Using radial grid of 1267 points,  6 beta functions with: 
                l(1) =   0
                l(2) =   0
                l(3) =   1
                l(4) =   1
                l(5) =   2
                l(6) =   3

     atomic species   valence    mass     pseudopotential
        Mg            23.00    24.30500     Tm( 1.00)
        Zn            22.00    65.39000     Er( 1.00)

     24 Sym. Ops., with inversion, found (12 have fractional translation)



   Cartesian axes

     site n.     atom                  positions (alat units)
         1           Mg  tau(   1) = (  -0.0000005   0.5773506   0.1003820  )
         2           Mg  tau(   2) = (   0.5000005   0.2886748   0.9044931  )
         3           Mg  tau(   3) = (   0.5000005   0.2886748   1.5078402  )
         4           Mg  tau(   4) = (  -0.0000005   0.5773506   0.7037291  )
         5           Zn  tau(   5) = (   0.0000000   0.0000000   0.0000000  )
         6           Zn  tau(   6) = (   0.0000000   0.0000000   0.8041111  )
         7           Zn  tau(   7) = (   0.0000000   0.2950739   1.2061667  )
         8           Zn  tau(   8) = (   0.7444585   0.1475370   0.4020556  )
         9           Zn  tau(   9) = (   0.2555415   0.1475370   0.4020556  )
        10           Zn  tau(  10) = (   0.2444585   0.7184884   1.2061667  )
        11           Zn  tau(  11) = (  -0.2444585   0.7184884   1.2061667  )
        12           Zn  tau(  12) = (   0.5000000   0.5709515   0.4020556  )

     number of k points=    12  gaussian smearing, width (Ry)=  0.1000
                       cart. coord. in units 2pi/alat
        k(    1) = (   0.0000000   0.0000000   0.0000000), wk =   0.0833333
        k(    2) = (   0.0000000   0.0000000   0.1554512), wk =   0.1666667
        k(    3) = (   0.0000000   0.0000000  -0.3109023), wk =   0.0833333
        k(    4) = (   0.0000000   0.3849002   0.0000000), wk =   0.1666667
        k(    5) = (   0.0000000   0.3849002   0.1554512), wk =   0.3333333
        k(    6) = (   0.0000000   0.3849002  -0.3109023), wk =   0.1666667
        k(    7) = (  -0.5000000  -0.2886751   0.0000000), wk =   0.0833333
        k(    8) = (  -0.5000000  -0.2886751   0.1554512), wk =   0.1666667
        k(    9) = (  -0.5000000  -0.2886751  -0.3109023), wk =   0.0833333
        k(   10) = (  -0.5000000   0.0962250   0.0000000), wk =   0.1666667
        k(   11) = (  -0.5000000   0.0962250   0.1554512), wk =   0.3333333
        k(   12) = (  -0.5000000   0.0962250  -0.3109023), wk =   0.1666667

     Dense  grid:    46361 G-vectors     FFT dimensions: (  40,  40,  72)

     Largest allocated arrays     est. size (Mb)     dimensions
        Kohn-Sham Wavefunctions         3.63 Mb     (   1478,  161)
        NL pseudopotentials             5.41 Mb     (   1478,  240)
        Each V/rho on FFT grid          0.44 Mb     (  28800)
        Each G-vector array             0.09 Mb     (  11589)
        G-vector shells                 0.09 Mb     (  11589)
     Largest temporary arrays     est. size (Mb)     dimensions
        Each subspace H/S matrix        0.40 Mb     ( 161, 161)
        Each <psi_i|beta_j> matrix      0.59 Mb     (    240,  161)
        Arrays for rho mixing           3.52 Mb     (  28800,   8)

     Initial potential from superposition of free atoms

     Starting from uniform charge
     Starting wfc are    0 randomized atomic wfcs

     total cpu time spent up to now is        4.4 secs

     Self-consistent Calculation

     iteration #  1     ecut=    40.00 Ry     beta=0.70
     CG style diagonalization
     ethr =  1.00E-02,  avg # of iterations = 18.1

     total cpu time spent up to now is      128.8 secs

     total energy              =   -3604.81485499 Ry
     Harris-Foulkes estimate   =   -5075.03137810 Ry
     estimated scf accuracy    <    1841.95890707 Ry

     iteration #  2     ecut=    40.00 Ry     beta=0.70
     CG style diagonalization
     c_bands:  3 eigenvalues not converged
     c_bands:  2 eigenvalues not converged
     c_bands:  1 eigenvalues not converged
     c_bands:  4 eigenvalues not converged
     c_bands:  3 eigenvalues not converged
     c_bands:  1 eigenvalues not converged
     c_bands:  2 eigenvalues not converged
     c_bands:  2 eigenvalues not converged
     c_bands:  1 eigenvalues not converged
     c_bands:  4 eigenvalues not converged
     ethr =  1.00E-02,  avg # of iterations = 10.2

     total cpu time spent up to now is      195.7 secs

     total energy              =   -3635.31428031 Ry
     Harris-Foulkes estimate   =   -4280.37996745 Ry
     estimated scf accuracy    <    1024.15562539 Ry

     iteration #  3     ecut=    40.00 Ry     beta=0.70
     CG style diagonalization
     c_bands:  2 eigenvalues not converged
     c_bands:  1 eigenvalues not converged
     c_bands:  2 eigenvalues not converged
     c_bands:  2 eigenvalues not converged
     c_bands:  2 eigenvalues not converged
     c_bands:  2 eigenvalues not converged
     c_bands:  4 eigenvalues not converged
     c_bands:  2 eigenvalues not converged
     c_bands:  2 eigenvalues not converged
     c_bands:  1 eigenvalues not converged
     ethr =  1.00E-02,  avg # of iterations = 12.2

     total cpu time spent up to now is      271.7 secs

     total energy              =   -3985.22029937 Ry
     Harris-Foulkes estimate   =   -4328.22621717 Ry
     estimated scf accuracy    <     936.68667476 Ry

     iteration #  4     ecut=    40.00 Ry     beta=0.70
     CG style diagonalization
     c_bands:  1 eigenvalues not converged
     c_bands:  1 eigenvalues not converged
     ethr =  1.00E-02,  avg # of iterations =  7.2

     total cpu time spent up to now is      318.7 secs

     total energy              =   -4093.91271100 Ry
     Harris-Foulkes estimate   =   -4110.37549135 Ry
     estimated scf accuracy    <      41.73530200 Ry

     iteration #  5     ecut=    40.00 Ry     beta=0.70
     CG style diagonalization
     ethr =  1.00E-02,  avg # of iterations =  3.5

     total cpu time spent up to now is      339.0 secs

     total energy              =   -4096.98854422 Ry
     Harris-Foulkes estimate   =   -4100.10877265 Ry
     estimated scf accuracy    <       6.52416167 Ry

     iteration #  6     ecut=    40.00 Ry     beta=0.70
     CG style diagonalization
     ethr =  2.43E-03,  avg # of iterations =  3.6

     total cpu time spent up to now is      359.8 secs

     total energy              =   -4097.74303162 Ry
     Harris-Foulkes estimate   =   -4098.06118536 Ry
     estimated scf accuracy    <       0.65295238 Ry

     iteration #  7     ecut=    40.00 Ry     beta=0.70
     CG style diagonalization
     ethr =  2.44E-04,  avg # of iterations =  4.0

     total cpu time spent up to now is      383.3 secs

     total energy              =   -4097.85529656 Ry
     Harris-Foulkes estimate   =   -4097.92749035 Ry
     estimated scf accuracy    <       0.17893788 Ry

     iteration #  8     ecut=    40.00 Ry     beta=0.70
     CG style diagonalization
     ethr =  6.68E-05,  avg # of iterations =  3.7

     total cpu time spent up to now is      404.3 secs

     total energy              =   -4097.87871820 Ry
     Harris-Foulkes estimate   =   -4097.89280165 Ry
     estimated scf accuracy    <       0.03065437 Ry

     iteration #  9     ecut=    40.00 Ry     beta=0.70
     CG style diagonalization
     c_bands:  1 eigenvalues not converged
     ethr =  1.14E-05,  avg # of iterations =  3.8

     total cpu time spent up to now is      427.4 secs

     total energy              =   -4097.88421263 Ry
     Harris-Foulkes estimate   =   -4097.88563303 Ry
     estimated scf accuracy    <       0.00302927 Ry

     iteration # 10     ecut=    40.00 Ry     beta=0.70
     CG style diagonalization
     c_bands:  1 eigenvalues not converged
     ethr =  1.13E-06,  avg # of iterations =  4.2

     total cpu time spent up to now is      452.0 secs

     total energy              =   -4097.88492123 Ry
     Harris-Foulkes estimate   =   -4097.88512350 Ry
     estimated scf accuracy    <       0.00039654 Ry

     iteration # 11     ecut=    40.00 Ry     beta=0.70
     CG style diagonalization
     ethr =  1.48E-07,  avg # of iterations =  3.6

     total cpu time spent up to now is      473.2 secs

     End of self-consistent calculation

          k = 0.0000 0.0000 0.0000 (  5769 PWs)   bands (ev):

   -75.5470 -75.5326 -75.5266 -75.4851 -66.9441 -66.9390 -66.8935 -66.8817
   -66.8817 -66.8690 -66.8690 -66.8384 -34.2836 -34.2675 -34.2622 -34.2622
   -34.2422 -34.2417 -34.2417 -34.2182 -34.2182 -34.2176 -34.2095 -34.2095
   -29.8768 -29.7221 -29.4587 -29.2111 -29.2111 -29.1832 -29.1832 -29.1312
   -29.0763 -29.0762 -28.9773 -28.8962 -28.8962 -28.8450 -28.8450 -28.7573
   -28.7573 -28.7361 -28.7078 -28.7078 -28.6575 -28.6574 -28.6568 -28.6409
    13.1469  13.6312  13.9214  14.0394  14.0394  14.1634  14.1635  14.2705
    14.3246  14.3246  14.3253  14.3393  14.3393  14.4667  14.4950  14.4950
    14.6489  14.6489  14.6993  14.6994  14.7230  14.7230  14.7977  15.2166
    15.2166  15.2172  15.2173  15.4092  15.4092  15.6841  15.9667  15.9668
    16.3734  16.6627  16.8703  16.8703  17.1487  17.1487  17.2429  17.5683
    17.6985  17.6985  18.1602  18.1602  18.3653  18.4407  18.4407  18.4869
    18.5246  18.6414  18.6414  18.7287  18.7288  18.9053  18.9054  19.5826
    19.5827  19.9076  19.9076  20.3787  20.4424  20.4434  20.4762  26.2602
    26.4619  27.7185  28.1615  28.1616  28.3419  28.3420  28.5066  28.5318
    29.7063  30.3380  30.3734  30.3736  30.9958  30.9959  31.7343  32.0383
    32.0385  32.3344  32.3345  35.3796  36.3745  36.5125  36.9053  36.9055
    36.9139  36.9140  37.5286  37.6544  37.6546  37.9250  37.9251  38.4032
    38.6469  38.6469  38.8149  40.4348  40.7001  40.7002  40.9448  41.2508
    41.4367  41.6930  41.6930  42.9770  43.1729  43.5919  43.5921  43.6754
    43.6755

          k = 0.0000 0.0000 0.1555 (  5780 PWs)   bands (ev):

   -75.5500 -75.5474 -75.5201 -75.4907 -66.9413 -66.9347 -66.8859 -66.8859
   -66.8772 -66.8772 -66.8759 -66.8649 -34.2768 -34.2737 -34.2539 -34.2539
   -34.2533 -34.2533 -34.2486 -34.2215 -34.2190 -34.2190 -34.2129 -34.2129
   -29.8610 -29.7494 -29.4254 -29.2142 -29.2142 -29.1918 -29.1918 -29.1879
   -29.0610 -29.0610 -28.9534 -28.9534 -28.9146 -28.8063 -28.8062 -28.7510
   -28.7491 -28.7491 -28.7127 -28.7127 -28.6715 -28.6714 -28.6619 -28.6543
    13.1930  13.4714  14.0266  14.0669  14.0669  14.1279  14.1569  14.1570
    14.2988  14.2989  14.3056  14.3056  14.3905  14.5291  14.5292  14.6526
    14.6526  14.6636  14.6941  14.6942  14.6968  14.6968  14.8519  15.1940
    15.1941  15.2106  15.2106  15.4390  15.5569  15.5569  15.9546  15.9546
    16.4638  16.6447  16.8200  16.8200  16.9401  16.9402  17.4189  17.7110
    17.8963  17.8963  18.1645  18.1646  18.2469  18.4695  18.4696  18.4923
    18.5190  18.6123  18.6123  18.7439  18.7439  18.8753  18.8754  19.0359
    19.6305  19.6305  19.8662  19.8663  20.4425  20.4431  22.1809  26.1350
    26.4114  26.5715  28.1546  28.1715  28.1716  28.3053  28.3054  28.3734
    30.2244  30.2246  30.5153  30.5199  30.5200  30.7153  32.8696  32.8897
    32.8899  32.9228  32.9229  34.9507  35.0834  35.7705  35.7706  35.8779
    35.8781  37.1956  37.9248  37.9263  38.3714  38.3714  38.5103  38.5104
    38.9609  38.9609  39.0235  40.5345  40.5393  40.7013  40.7110  40.7111
    41.2747  41.2747  41.6246  42.4071  42.6617  42.6617  44.1408  44.1434
    44.6343

          k = 0.0000 0.0000-0.3109 (  5780 PWs)   bands (ev):

   -75.5439 -75.5438 -75.5085 -75.5084 -66.9534 -66.9533 -66.8862 -66.8862
   -66.8649 -66.8649 -66.8648 -66.8648 -34.2750 -34.2749 -34.2515 -34.2515
   -34.2514 -34.2514 -34.2493 -34.2491 -34.2107 -34.2107 -34.2106 -34.2106
   -29.8052 -29.8052 -29.3391 -29.3391 -29.1964 -29.1964 -29.1964 -29.1964
   -29.0036 -29.0035 -29.0035 -29.0035 -28.8374 -28.8374 -28.7627 -28.7627
   -28.7627 -28.7627 -28.7035 -28.7035 -28.7035 -28.7035 -28.6479 -28.6478
    13.3067  13.3067  14.0095  14.0095  14.1258  14.1258  14.1258  14.1258
    14.2708  14.2708  14.2708  14.2708  14.6061  14.6061  14.6061  14.6061
    14.6850  14.6850  14.6850  14.6851  14.7314  14.7315  14.9984  14.9985
    15.1959  15.1959  15.1959  15.1959  15.8173  15.8173  15.8173  15.8173
    16.5815  16.5815  16.7767  16.7767  16.7768  16.7768  17.9075  17.9075
    18.0978  18.0978  18.1033  18.1033  18.1033  18.1033  18.5059  18.5059
    18.5424  18.5424  18.5424  18.5424  18.7994  18.7994  18.7995  18.7995
    19.7530  19.7530  19.7531  19.7531  20.4429  20.4429  24.2129  24.2129
    26.3272  26.3273  28.1934  28.1934  28.2241  28.2241  28.2241  28.2241
    30.1782  30.1782  30.1783  30.1783  31.0376  31.0376  34.0938  34.0938
    34.0938  34.0939  34.2620  34.2620  34.4902  34.4903  34.4903  34.4903
    35.4068  35.4068  38.2301  38.2301  38.7592  38.7592  38.7592  38.7592
    39.6266  39.6266  39.7848  39.7848  39.7848  39.7848  40.5596  40.5596
    41.7942  41.7942  41.7942  41.7943  41.8571  41.8572  45.1146  45.1147
    45.3385

          k = 0.0000 0.3849 0.0000 (  5787 PWs)   bands (ev):

   -75.5454 -75.5388 -75.5193 -75.5157 -66.9577 -66.9207 -66.8963 -66.8956
   -66.8790 -66.8753 -66.8679 -66.8654 -34.2746 -34.2709 -34.2618 -34.2599
   -34.2565 -34.2487 -34.2399 -34.2271 -34.2264 -34.2222 -34.2201 -34.2092
   -29.7215 -29.5812 -29.4749 -29.3137 -29.2212 -29.1384 -29.0950 -29.0875
   -29.0720 -29.0537 -28.9388 -28.9163 -28.8897 -28.8873 -28.8705 -28.8660
   -28.8198 -28.8005 -28.7715 -28.7295 -28.7005 -28.6933 -28.6865 -28.6509
    13.7964  14.0326  14.0740  14.1029  14.1290  14.2047  14.2506  14.2755
    14.2933  14.3066  14.3221  14.3690  14.4316  14.4546  14.4900  14.5739
    14.6067  14.6159  14.6294  14.6393  14.6954  14.7543  15.0630  15.2360
    15.2899  15.4268  15.6627  15.7257  15.9412  16.0886  16.2236  16.3477
    16.5131  16.8178  17.0310  17.0462  17.1231  17.2047  17.2530  17.4620
    17.5572  17.6363  17.7055  17.8068  17.8134  18.1888  18.2657  18.3624
    18.4633  18.5299  18.5931  18.6513  18.6543  18.6895  18.8683  18.8851
    18.9222  19.0498  19.2007  19.6212  20.0496  21.5418  22.1377  22.1785
    24.7241  25.5454  25.6617  26.2740  27.1888  28.4298  28.5838  29.6093
    29.8301  30.5350  31.5410  32.6555  33.1070  33.5031  33.5338  33.9747
    34.4307  34.4963  35.2000  35.6055  35.8793  36.1525  36.4007  36.6907
    36.7222  36.8964  37.0893  37.8215  38.2788  38.7363  38.8913  38.9606
    39.5115  39.6859  40.1679  40.3872  40.4718  40.6806  40.7588  41.3814
    41.5432  41.6633  42.0957  42.6872  42.8818  43.2841  43.3860  43.4900
    43.6525

          k = 0.0000 0.3849 0.1555 (  5804 PWs)   bands (ev):

   -75.5541 -75.5462 -75.5261 -75.5221 -66.9542 -66.9342 -66.9061 -66.8945
   -66.8895 -66.8812 -66.8768 -66.8689 -34.2812 -34.2758 -34.2643 -34.2608
   -34.2586 -34.2510 -34.2453 -34.2413 -34.2262 -34.2252 -34.2176 -34.2102
   -29.7162 -29.6281 -29.4283 -29.3240 -29.2140 -29.1323 -29.1156 -29.1127
   -29.0765 -29.0538 -28.9803 -28.9458 -28.9077 -28.8938 -28.8393 -28.8315
   -28.8065 -28.7881 -28.7535 -28.7432 -28.7043 -28.6998 -28.6923 -28.6765
    13.8476  13.9483  14.0611  14.1290  14.1631  14.1884  14.2309  14.2486
    14.2506  14.2856  14.3452  14.3470  14.4730  14.4761  14.4968  14.5413
    14.5824  14.6520  14.6667  14.6753  14.7076  14.7465  15.0782  15.1940
    15.3408  15.5326  15.6909  15.7519  15.8288  15.9684  16.1152  16.3086
    16.6665  16.7541  17.0030  17.0231  17.0859  17.2173  17.2612  17.3402
    17.5638  17.7485  17.8639  17.9084  17.9305  18.1391  18.3188  18.3456
    18.4691  18.4944  18.5901  18.6124  18.6820  18.7360  18.7435  18.9532
    18.9927  19.0764  19.1686  19.6975  19.9980  20.4120  22.3387  23.4267
    23.9726  25.6168  26.4446  26.5025  27.0794  27.8052  27.8157  29.2169
    30.7628  30.8701  31.6382  32.4007  32.4793  32.8047  33.8311  34.0698
    34.4507  35.0047  35.1232  35.6464  35.9267  35.9411  36.6875  37.2146
    37.3322  37.3722  37.6426  38.0364  38.1155  38.1908  38.5295  38.5376
    39.1231  39.5218  40.0814  40.1706  40.3918  40.8041  40.9721  41.2073
    41.3224  41.6575  42.0239  42.2808  42.3070  42.6369  43.4040  43.7467
    43.8028

          k = 0.0000 0.3849-0.3109 (  5816 PWs)   bands (ev):

   -75.5529 -75.5528 -75.5323 -75.5322 -66.9451 -66.9451 -66.9040 -66.9040
   -66.8902 -66.8902 -66.8810 -66.8810 -34.2766 -34.2765 -34.2697 -34.2697
   -34.2547 -34.2547 -34.2478 -34.2477 -34.2266 -34.2266 -34.2178 -34.2178
   -29.6864 -29.6863 -29.3676 -29.3676 -29.1829 -29.1829 -29.1300 -29.1300
   -29.0422 -29.0422 -29.0050 -29.0050 -28.8969 -28.8969 -28.8147 -28.8147
   -28.7851 -28.7851 -28.7398 -28.7398 -28.7218 -28.7218 -28.6898 -28.6898
    13.9169  13.9169  14.0726  14.0727  14.1788  14.1789  14.1865  14.1865
    14.2959  14.2959  14.3082  14.3082  14.4890  14.4891  14.5243  14.5243
    14.6606  14.6607  14.6885  14.6886  14.7210  14.7210  15.1311  15.1311
    15.5177  15.5177  15.7477  15.7477  15.7538  15.7538  16.2062  16.2062
    16.6398  16.6398  17.0423  17.0423  17.1565  17.1565  17.3139  17.3139
    17.6256  17.6256  17.9817  17.9817  18.2137  18.2137  18.2368  18.2368
    18.5188  18.5188  18.5222  18.5222  18.6759  18.6759  18.9468  18.9468
    19.0904  19.0904  19.4294  19.4294  19.8595  19.8595  22.8443  22.8443
    25.5384  25.5384  26.0993  26.0993  26.9645  26.9645  28.7055  28.7055
    30.9517  30.9517  32.0578  32.0578  32.4839  32.4839  33.3241  33.3242
    35.0257  35.0257  36.0311  36.0311  36.2337  36.2337  37.0294  37.0294
    37.4988  37.4988  37.7852  37.7852  37.8263  37.8263  38.5907  38.5907
    39.4526  39.4527  39.4851  39.4851  40.7424  40.7424  41.2192  41.2193
    41.4770  41.4771  41.5262  41.5262  42.2427  42.2429  43.5625  43.5632
    43.8357

          k =-0.5000-0.2887 0.0000 (  5800 PWs)   bands (ev):

   -75.5496 -75.5427 -75.5364 -75.5119 -66.9462 -66.9286 -66.9033 -66.8990
   -66.8957 -66.8808 -66.8718 -66.8670 -34.2843 -34.2702 -34.2607 -34.2596
   -34.2530 -34.2493 -34.2444 -34.2399 -34.2306 -34.2301 -34.2217 -34.2054
   -29.6532 -29.5195 -29.4760 -29.3890 -29.2301 -29.1051 -29.0938 -29.0691
   -29.0615 -29.0374 -28.9553 -28.9248 -28.9212 -28.9059 -28.9013 -28.8776
   -28.8387 -28.8218 -28.7926 -28.7211 -28.7102 -28.6975 -28.6971 -28.6536
    13.9514  14.0725  14.0857  14.1465  14.1948  14.2130  14.2156  14.2200
    14.3208  14.3746  14.3782  14.3865  14.4087  14.4244  14.4411  14.6308
    14.6463  14.6467  14.6618  14.6845  14.7726  14.7990  15.0620  15.2544
    15.3873  15.7319  15.7663  15.7845  16.0953  16.2765  16.3451  16.7494
    16.8856  16.9252  16.9297  16.9455  17.1680  17.2299  17.2550  17.2975
    17.3059  17.5452  17.5721  17.5968  17.6174  17.7168  18.0817  18.2191
    18.3512  18.4361  18.4704  18.5499  18.6184  18.7100  18.7161  18.7907
    18.8764  18.8796  19.6412  20.0372  20.0720  20.1463  22.4127  23.5343
    23.5657  23.7220  25.3892  26.0390  26.9329  28.2463  28.4375  29.8014
    30.6875  30.8909  32.2136  32.3614  33.5763  34.2522  34.5309  34.6254
    34.6715  35.0038  35.5641  35.9899  36.1411  36.5649  36.6179  36.8982
    37.0058  37.1067  37.1453  37.2356  37.2808  37.6170  38.3116  39.2567
    39.4470  40.3713  40.5175  40.6684  40.9572  41.0692  41.3141  41.8153
    41.9991  42.1627  42.4536  42.5662  42.6173  42.7463  42.9394  43.0091
    43.4730

          k =-0.5000-0.2887 0.1555 (  5822 PWs)   bands (ev):

   -75.5606 -75.5581 -75.5317 -75.5291 -66.9485 -66.9344 -66.9083 -66.9054
   -66.8976 -66.8880 -66.8861 -66.8855 -34.2807 -34.2804 -34.2651 -34.2617
   -34.2604 -34.2568 -34.2555 -34.2481 -34.2327 -34.2314 -34.2180 -34.2118
   -29.6471 -29.5669 -29.4408 -29.3911 -29.2288 -29.1066 -29.0934 -29.0921
   -29.0842 -29.0377 -28.9953 -28.9487 -28.9307 -28.9236 -28.8631 -28.8491
   -28.8460 -28.8002 -28.7724 -28.7427 -28.7128 -28.7094 -28.7015 -28.6770
    13.9989  14.0056  14.1558  14.1570  14.1873  14.2030  14.2098  14.2416
    14.2417  14.2578  14.3645  14.3753  14.4466  14.5165  14.5787  14.5948
    14.6301  14.6588  14.6708  14.6792  14.7213  14.7370  15.1378  15.2799
    15.3657  15.6279  15.7541  15.7979  16.1384  16.2759  16.4371  16.6844
    16.8086  16.8918  16.9383  16.9573  17.0099  17.0940  17.1735  17.2946
    17.3894  17.5812  17.5887  17.6593  17.8595  17.9262  18.0767  18.2604
    18.3917  18.4071  18.4171  18.5596  18.5757  18.6716  18.7435  18.7713
    18.8176  18.8816  19.7012  19.9836  20.2356  20.3315  21.5469  22.1273
    24.8829  25.1839  25.5755  26.2102  26.4981  27.5592  28.7300  29.0683
    30.0072  30.7552  32.5977  32.6001  33.5111  33.9754  34.7342  34.7597
    35.0912  35.1739  35.2918  35.7107  36.2067  36.3221  36.4580  36.9284
    37.4140  37.4838  37.5210  37.7662  37.8545  38.3860  38.4128  38.7670
    39.1856  39.5096  40.2070  40.3008  40.8349  41.0431  41.1730  41.5058
    41.6017  41.6033  41.8320  42.4903  42.6345  42.9522  43.0828  43.2127
    43.3091

          k =-0.5000-0.2887-0.3109 (  5804 PWs)   bands (ev):

   -75.5448 -75.5446 -75.5295 -75.5294 -66.9321 -66.9321 -66.8908 -66.8908
   -66.8904 -66.8904 -66.8898 -66.8898 -34.2745 -34.2744 -34.2589 -34.2589
   -34.2526 -34.2525 -34.2426 -34.2425 -34.2303 -34.2303 -34.2204 -34.2204
   -29.6170 -29.6169 -29.4043 -29.4043 -29.1725 -29.1725 -29.1058 -29.1058
   -29.0322 -29.0322 -28.9842 -28.9842 -28.9243 -28.9243 -28.8538 -28.8538
   -28.7772 -28.7772 -28.7388 -28.7388 -28.7287 -28.7287 -28.6974 -28.6974
    14.0332  14.0332  14.1176  14.1176  14.1881  14.1881  14.1942  14.1942
    14.3286  14.3286  14.3300  14.3301  14.5088  14.5088  14.5800  14.5801
    14.6421  14.6421  14.6539  14.6539  14.7358  14.7358  15.2797  15.2797
    15.3965  15.3965  15.7938  15.7938  16.2290  16.2290  16.5507  16.5507
    16.7637  16.7637  16.9726  16.9726  17.0408  17.0408  17.1728  17.1728
    17.5169  17.5169  17.6520  17.6520  18.0343  18.0343  18.2404  18.2404
    18.3403  18.3403  18.5350  18.5350  18.6517  18.6517  18.6557  18.6557
    18.8513  18.8513  19.8463  19.8463  20.6360  20.6360  21.0590  21.0590
    25.7405  25.7405  26.7310  26.7310  26.8892  26.8892  27.3233  27.3233
    30.9259  30.9259  32.3667  32.3667  33.2741  33.2741  35.0418  35.0419
    35.3198  35.3198  35.8548  35.8548  36.3252  36.3252  36.9727  36.9727
    37.5251  37.5251  37.8302  37.8302  38.0700  38.0700  38.7059  38.7059
    39.7205  39.7205  39.7397  39.7398  40.6075  40.6076  40.6227  40.6227
    41.5472  41.5472  41.8646  41.8647  42.7930  42.7934  43.1000  43.1005
    43.2751

          k =-0.5000 0.0962 0.0000 (  5827 PWs)   bands (ev):

   -75.5620 -75.5480 -75.5464 -75.5303 -66.9573 -66.9287 -66.9185 -66.9106
   -66.9019 -66.8907 -66.8828 -66.8735 -34.2855 -34.2808 -34.2679 -34.2661
   -34.2623 -34.2534 -34.2486 -34.2364 -34.2357 -34.2276 -34.2247 -34.2232
   -29.6543 -29.5279 -29.4773 -29.3895 -29.2730 -29.0967 -29.0838 -29.0835
   -29.0623 -29.0450 -28.9431 -28.9347 -28.9224 -28.9201 -28.9045 -28.8613
   -28.8271 -28.8150 -28.7970 -28.7314 -28.7305 -28.7301 -28.6979 -28.6725
    13.9868  14.0669  14.1040  14.1703  14.1866  14.1998  14.2161  14.2688
    14.3054  14.3509  14.3834  14.3962  14.4065  14.4282  14.4728  14.5100
    14.5565  14.6577  14.7432  14.7593  14.8260  14.9606  15.0440  15.2862
    15.3591  15.5070  15.6267  15.7899  15.9969  16.1941  16.4159  16.6321
    16.7059  16.8542  16.9248  16.9849  16.9986  17.1988  17.3501  17.3768
    17.5147  17.5758  17.5894  17.6557  17.7375  17.9910  18.0803  18.1794
    18.3433  18.4174  18.4210  18.4772  18.5758  18.7033  18.7306  18.8147
    19.0031  19.0841  19.5113  19.5858  19.7527  21.3756  22.2858  23.0720
    23.2851  24.2728  24.7609  25.8362  26.3533  28.2976  30.2204  30.3696
    30.8529  31.1557  31.6883  32.7681  32.9743  33.1764  33.4273  33.9153
    34.4349  34.6448  35.5418  36.0930  36.2591  36.4295  36.8514  36.9734
    37.4118  37.4431  37.7461  38.0179  38.0843  38.4798  38.6598  39.4370
    39.9766  39.9889  40.1124  40.2453  40.4557  40.9862  41.0592  41.5498
    41.5697  41.9560  42.2882  42.3769  42.6323  42.6393  42.9672  43.0341
    43.5095

          k =-0.5000 0.0962 0.1555 (  5825 PWs)   bands (ev):

   -75.5618 -75.5495 -75.5389 -75.5332 -66.9529 -66.9364 -66.9105 -66.9089
   -66.8958 -66.8905 -66.8833 -66.8804 -34.2813 -34.2789 -34.2678 -34.2666
   -34.2617 -34.2549 -34.2463 -34.2460 -34.2325 -34.2290 -34.2218 -34.2201
   -29.6435 -29.5646 -29.4443 -29.3945 -29.2515 -29.1062 -29.0970 -29.0882
   -29.0741 -29.0372 -28.9841 -28.9565 -28.9308 -28.9208 -28.8595 -28.8416
   -28.8193 -28.7903 -28.7733 -28.7420 -28.7291 -28.7264 -28.7094 -28.6863
    14.0203  14.0413  14.1209  14.1629  14.1981  14.2044  14.2307  14.2440
    14.2841  14.3061  14.3642  14.4020  14.4101  14.4378  14.4780  14.5685
    14.6086  14.6451  14.7358  14.7565  14.7901  14.8329  15.1786  15.2746
    15.3740  15.5778  15.6687  15.7425  15.9775  16.0090  16.5463  16.6375
    16.6931  16.7595  16.8585  16.9094  17.0598  17.2377  17.2442  17.3653
    17.4401  17.5529  17.6928  17.8205  17.9204  18.0162  18.1206  18.1633
    18.3599  18.4017  18.4749  18.4941  18.5865  18.6868  18.7166  18.7876
    18.9370  19.0219  19.5667  19.7257  19.7688  21.2558  21.5359  22.9507
    23.5139  24.4780  24.9087  26.2113  27.5954  28.3871  28.7281  29.8131
    30.1048  31.1312  31.4842  32.1534  32.6164  33.7659  34.3972  34.7745
    35.0960  35.2071  35.7476  35.7707  36.2939  36.5150  36.6653  36.8254
    37.3604  37.5994  37.7921  37.9003  38.3928  38.5043  38.8344  39.3118
    39.4925  39.6958  40.0862  40.2812  40.3626  40.6745  40.6971  40.8730
    41.6334  41.7513  42.1850  42.2651  42.5498  42.7931  42.9105  43.0189
    43.1659

          k =-0.5000 0.0962-0.3109 (  5824 PWs)   bands (ev):

   -75.5527 -75.5526 -75.5385 -75.5384 -66.9408 -66.9408 -66.9112 -66.9112
   -66.8921 -66.8921 -66.8842 -66.8841 -34.2783 -34.2781 -34.2658 -34.2658
   -34.2579 -34.2579 -34.2460 -34.2458 -34.2314 -34.2314 -34.2233 -34.2233
   -29.6123 -29.6123 -29.4077 -29.4076 -29.1885 -29.1885 -29.0963 -29.0963
   -29.0316 -29.0316 -29.0033 -29.0033 -28.9270 -28.9270 -28.8343 -28.8342
   -28.7819 -28.7819 -28.7500 -28.7500 -28.7308 -28.7308 -28.7194 -28.7194
    14.0673  14.0673  14.1182  14.1183  14.1486  14.1486  14.2723  14.2723
    14.3028  14.3029  14.3824  14.3824  14.4385  14.4386  14.5096  14.5097
    14.6337  14.6337  14.7269  14.7270  14.7949  14.7949  15.2603  15.2603
    15.5031  15.5031  15.7320  15.7320  15.9076  15.9076  16.5988  16.5988
    16.6865  16.6865  16.8388  16.8388  17.1653  17.1653  17.3060  17.3061
    17.4860  17.4860  17.7880  17.7880  18.0773  18.0773  18.2133  18.2133
    18.3463  18.3463  18.5303  18.5303  18.6254  18.6254  18.7207  18.7207
    18.9320  18.9320  19.6688  19.6688  20.2888  20.2888  22.0588  22.0588
    23.9536  23.9536  26.5175  26.5175  28.0371  28.0371  28.8812  28.8812
    29.6816  29.6816  31.6089  31.6090  33.7712  33.7712  34.5840  34.5840
    35.5806  35.5806  36.2127  36.2127  36.5716  36.5716  37.0558  37.0558
    37.5548  37.5548  37.8148  37.8148  38.1493  38.1493  38.7788  38.7788
    39.0685  39.0686  40.1128  40.1128  40.5755  40.5756  40.6816  40.6816
    41.6983  41.6983  41.8734  41.8735  42.5727  42.5728  42.9134  42.9135
    43.4869

     the Fermi energy is    36.3778 ev

!    total energy              =   -4097.88497499 Ry
     Harris-Foulkes estimate   =   -4097.88501656 Ry
     estimated scf accuracy    <       0.00004649 Ry

     The total energy is the sum of the following terms:

     one-electron contribution =    -843.13243368 Ry
     hartree contribution      =     635.94953186 Ry
     xc contribution           =    -348.20941756 Ry
     ewald contribution        =   -3542.03527436 Ry
     smearing contrib. (-TS)   =      -0.45738126 Ry

     convergence has been achieved in  11 iterations

     Forces acting on atoms (Ry/au):

     atom    1 type  1   force =     0.00000000    0.00000000    0.01697882
     atom    2 type  1   force =     0.00000000    0.00000000    0.01697882
     atom    3 type  1   force =     0.00000000    0.00000000   -0.01697882
     atom    4 type  1   force =     0.00000000    0.00000000   -0.01697882
     atom    5 type  2   force =     0.00000000    0.00000000    0.00000000
     atom    6 type  2   force =     0.00000000    0.00000000    0.00000000
     atom    7 type  2   force =     0.00000000    0.11520913    0.00000000
     atom    8 type  2   force =    -0.09977404    0.05760457    0.00000000
     atom    9 type  2   force =     0.09977404    0.05760457    0.00000000
     atom   10 type  2   force =    -0.09977404   -0.05760457    0.00000000
     atom   11 type  2   force =     0.09977404   -0.05760457    0.00000000
     atom   12 type  2   force =     0.00000000   -0.11520913    0.00000000

     Total force =     0.284239     Total SCF correction =     0.000000


     entering subroutine stress ...

          total   stress  (Ry/bohr**3)                   (kbar)     P= 1255.30
   0.00857306   0.00000000   0.00000000       1261.14      0.00      0.00
   0.00000000   0.00857306   0.00000000          0.00   1261.14      0.00
   0.00000000   0.00000000   0.00845385          0.00      0.00   1243.60


     BFGS Geometry Optimization

     number of scf cycles    =   1
     number of bfgs steps    =   0

     enthalpy new            =   -4097.8849749905 Ry

     new trust radius        =       0.5000000000 bohr
     new conv_thr            =       0.0001000000 Ry

     new unit-cell volume =   1655.43966 a.u.^3 (   245.31085 Ang^3 )

CELL_PARAMETERS (alat=  9.92348860)
   1.067764947   0.000000000   0.000000000
  -0.533882474   0.924711570   0.000000000
   0.000000000   0.000000000   1.715687867

ATOMIC_POSITIONS (crystal)
Mg       0.333333000   0.666667000   0.062754377
Mg       0.666667000   0.333333000   0.562754377
Mg       0.666667000   0.333333000   0.937245623
Mg       0.333333000   0.666667000   0.437245623
Zn       0.000000000   0.000000000   0.000000000
Zn       0.000000000   0.000000000   0.500000000
Zn       0.172480293   0.344960585   0.750000000
Zn       0.827519707   0.172480293   0.250000000
Zn       0.344960585   0.172480293   0.250000000
Zn       0.655039415   0.827519707   0.750000000
Zn       0.172480293   0.827519707   0.750000000
Zn       0.827519707   0.655039415   0.250000000



     Writing output data file Prototype-La-hP12-MgZn2.save
     NEW-OLD atomic charge density approx. for the potential
     NEW k-points:
        k(    1) = (   0.0000000   0.0000000   0.0000000), wk =   0.0833333
        k(    2) = (   0.0000000   0.0000000   0.1457142), wk =   0.1666667
        k(    3) = (   0.0000000   0.0000000  -0.2914283), wk =   0.0833333
        k(    4) = (   0.0000000   0.3604728   0.0000000), wk =   0.1666667
        k(    5) = (   0.0000000   0.3604728   0.1457142), wk =   0.3333333
        k(    6) = (   0.0000000   0.3604728  -0.2914283), wk =   0.1666667
        k(    7) = (  -0.4682679  -0.2703546   0.0000000), wk =   0.0833333
        k(    8) = (  -0.4682679  -0.2703546   0.1457142), wk =   0.1666667
        k(    9) = (  -0.4682679  -0.2703546  -0.2914283), wk =   0.0833333
        k(   10) = (  -0.4682679   0.0901182   0.0000000), wk =   0.1666667
        k(   11) = (  -0.4682679   0.0901182   0.1457142), wk =   0.3333333
        k(   12) = (  -0.4682679   0.0901182  -0.2914283), wk =   0.1666667

     total cpu time spent up to now is      481.5 secs

     Self-consistent Calculation

     iteration #  1     ecut=    40.00 Ry     beta=0.70
     CG style diagonalization
     c_bands:  1 eigenvalues not converged
     c_bands:  2 eigenvalues not converged
     c_bands:  3 eigenvalues not converged
     c_bands:  2 eigenvalues not converged
     ethr =  1.00E-06,  avg # of iterations = 20.9

     total cpu time spent up to now is      609.3 secs

     total energy              =   -4082.41793281 Ry
     Harris-Foulkes estimate   =   -4117.70546802 Ry
     estimated scf accuracy    <      43.61346539 Ry

     iteration #  2     ecut=    40.00 Ry     beta=0.70
     CG style diagonalization
     ethr =  1.00E-02,  avg # of iterations =  4.0

     total cpu time spent up to now is      633.0 secs

     total energy              =   -4092.29227310 Ry
     Harris-Foulkes estimate   =   -4104.41884597 Ry
     estimated scf accuracy    <      19.54426175 Ry

     iteration #  3     ecut=    40.00 Ry     beta=0.70
     CG style diagonalization
     ethr =  7.29E-03,  avg # of iterations =  3.6

     total cpu time spent up to now is      654.4 secs

     total energy              =   -4097.64269468 Ry
     Harris-Foulkes estimate   =   -4099.65152126 Ry
     estimated scf accuracy    <       4.35533880 Ry

     iteration #  4     ecut=    40.00 Ry     beta=0.70
     CG style diagonalization
     ethr =  1.63E-03,  avg # of iterations =  3.5

     total cpu time spent up to now is      674.5 secs

     total energy              =   -4098.59736288 Ry
     Harris-Foulkes estimate   =   -4098.63886141 Ry
     estimated scf accuracy    <       0.07455124 Ry

     iteration #  5     ecut=    40.00 Ry     beta=0.70
     CG style diagonalization
     c_bands:  1 eigenvalues not converged
     c_bands:  1 eigenvalues not converged
     ethr =  2.78E-05,  avg # of iterations =  4.4

     total cpu time spent up to now is      701.2 secs

     total energy              =   -4098.63111775 Ry
     Harris-Foulkes estimate   =   -4098.63813430 Ry
     estimated scf accuracy    <       0.01222157 Ry

     iteration #  6     ecut=    40.00 Ry     beta=0.70
     CG style diagonalization
     ethr =  4.56E-06,  avg # of iterations =  3.6

     total cpu time spent up to now is      721.6 secs

     total energy              =   -4098.63304444 Ry
     Harris-Foulkes estimate   =   -4098.63350927 Ry
     estimated scf accuracy    <       0.00076921 Ry

     iteration #  7     ecut=    40.00 Ry     beta=0.70
     CG style diagonalization
     c_bands:  1 eigenvalues not converged
     ethr =  2.87E-07,  avg # of iterations =  3.9

     total cpu time spent up to now is      744.5 secs

     End of self-consistent calculation

          k = 0.0000 0.0000 0.0000 (  5769 PWs)   bands (ev):

   -81.8997 -81.8720 -81.8629 -81.7882 -72.7195 -72.6908 -72.6907 -72.6749
   -72.6749 -72.6410 -72.6164 -72.5827 -40.9721 -40.9535 -40.9535 -40.9534
   -40.9412 -40.9338 -40.9338 -40.9235 -40.9235 -40.9160 -40.9140 -40.9140
   -35.4519 -35.3757 -35.1491 -35.0968 -35.0968 -35.0869 -35.0869 -35.0137
   -34.9852 -34.9852 -34.9628 -34.9259 -34.9258 -34.8738 -34.8738 -34.8446
   -34.8446 -34.8236 -34.8149 -34.8148 -34.8002 -34.7837 -34.7536 -34.7536
     7.8060   7.8060   7.8107   7.8243   7.8244   7.8268   7.8932   7.8932
     7.8977   7.8977   8.0124   8.0124   8.0220   8.0541   8.0803   8.0803
     8.0856   8.0856   8.1141   8.1141   8.7639   9.0704   9.4522   9.9009
     9.9009   9.9631   9.9632  10.2383  10.2384  10.2496  10.5914  10.5914
    10.8856  11.0532  11.2408  11.2408  11.2585  11.2586  11.5943  11.7951
    11.7951  12.0152  12.0152  12.1448  12.1713  12.1713  12.2115  12.2292
    12.2904  12.2904  12.3577  12.3577  12.4852  12.4852  12.9316  12.9341
    12.9341  13.1054  13.1054  13.4579  13.4606  15.2554  15.4933  20.0811
    20.2692  21.2689  21.9086  22.1071  22.1072  22.1971  22.1972  22.3885
    22.4990  23.0937  24.1069  24.1070  24.1331  24.1333  24.8281  24.8329
    24.8331  25.3766  25.3768  28.5582  29.2647  29.4122  30.0218  30.0220
    30.0905  30.0906  30.2821  30.5397  30.5399  30.8931  30.8933  31.6426
    32.2862  32.2862  32.9079  34.5028  34.9768  34.9768  35.1110  35.1110
    35.2189  35.4066  35.4372  35.6309  35.9487  36.8390  36.8390  37.0564
    37.0568

          k = 0.0000 0.0000 0.1457 (  5780 PWs)   bands (ev):

   -81.9021 -81.8994 -81.8523 -81.7994 -72.7030 -72.7029 -72.6960 -72.6885
   -72.6884 -72.6517 -72.6123 -72.5999 -40.9678 -40.9612 -40.9457 -40.9457
   -40.9455 -40.9455 -40.9450 -40.9240 -40.9240 -40.9200 -40.9175 -40.9175
   -35.4418 -35.3828 -35.1485 -35.1009 -35.1009 -35.0926 -35.0925 -35.0330
   -34.9843 -34.9843 -34.9470 -34.9469 -34.9285 -34.8614 -34.8614 -34.8551
   -34.8551 -34.8287 -34.8084 -34.8083 -34.8073 -34.7974 -34.7610 -34.7609
     7.7957   7.8174   7.8174   7.8228   7.8323   7.8323   7.8787   7.8787
     7.8859   7.8859   8.0217   8.0217   8.0431   8.0507   8.0703   8.0703
     8.0904   8.0904   8.1089   8.1090   8.7979   8.9916   9.5851   9.9061
     9.9061   9.9474   9.9475  10.1128  10.3020  10.3020  10.5564  10.5564
    10.9400  11.0431  11.2060  11.2060  11.2132  11.2133  11.6849  11.8769
    11.8770  12.0201  12.0201  12.0743  12.1815  12.1815  12.2127  12.2254
    12.2627  12.2627  12.3713  12.3713  12.4643  12.4643  12.9592  12.9592
    13.0697  13.0818  13.0818  13.4578  13.4591  14.2575  16.8105  20.0453
    20.2815  20.4952  21.3415  21.5632  22.1938  22.1939  22.2790  22.2791
    23.5482  23.5483  23.6340  23.6374  23.6375  23.6395  25.7334  25.7335
    25.9233  26.1146  26.1148  27.8149  27.8838  28.7078  28.7079  28.8828
    28.8830  30.2004  30.9770  31.0168  31.6289  31.6290  31.7875  31.7876
    32.5908  32.5908  33.0808  34.2519  34.2520  34.4014  34.7724  35.1973
    35.2185  35.2186  35.6760  35.8456  36.2769  36.2770  36.6617  36.9953
    37.4054

          k = 0.0000 0.0000-0.2914 (  5780 PWs)   bands (ev):

   -81.8935 -81.8934 -81.8303 -81.8302 -72.7269 -72.7269 -72.6674 -72.6674
   -72.6674 -72.6673 -72.6067 -72.6067 -40.9631 -40.9630 -40.9480 -40.9478
   -40.9437 -40.9436 -40.9436 -40.9436 -40.9155 -40.9155 -40.9154 -40.9154
   -35.4052 -35.4052 -35.1320 -35.1320 -35.0887 -35.0887 -35.0887 -35.0887
   -34.9553 -34.9553 -34.9552 -34.9552 -34.8850 -34.8850 -34.8625 -34.8625
   -34.8625 -34.8625 -34.7914 -34.7914 -34.7838 -34.7838 -34.7838 -34.7838
     7.7947   7.7948   7.8479   7.8479   7.8479   7.8479   7.8565   7.8565
     7.8565   7.8565   8.0456   8.0457   8.0512   8.0513   8.0513   8.0513
     8.1036   8.1036   8.1037   8.1037   8.8780   8.8780   9.8448   9.8448
     9.9228   9.9228   9.9228   9.9228  10.4420  10.4420  10.4421  10.4421
    11.0037  11.0037  11.1761  11.1762  11.1762  11.1762  11.8916  11.8916
    11.9891  11.9891  11.9892  11.9892  12.2117  12.2117  12.2117  12.2117
    12.2219  12.2219  12.4144  12.4144  12.4144  12.4144  13.0217  13.0217
    13.0218  13.0218  13.4592  13.4592  13.4960  13.4960  18.5002  18.5002
    20.2541  20.2542  21.2750  21.2751  22.3575  22.3576  22.3576  22.3576
    23.2336  23.2336  23.2336  23.2337  24.1271  24.1271  27.1346  27.1346
    27.1419  27.1420  27.1421  27.1421  27.4270  27.4270  27.4271  27.4272
    28.1483  28.1483  31.5267  31.5267  32.2165  32.2165  32.2166  32.2166
    33.3306  33.3306  33.3306  33.3306  33.5884  33.5884  35.0298  35.0298
    35.5838  35.5838  35.5839  35.5839  35.8548  35.8548  36.8258  36.8258
    37.7767

          k = 0.0000 0.3605 0.0000 (  5787 PWs)   bands (ev):

   -81.8963 -81.8841 -81.8514 -81.8417 -72.7377 -72.7109 -72.6967 -72.6833
   -72.6658 -72.6529 -72.6198 -72.6030 -40.9610 -40.9583 -40.9558 -40.9545
   -40.9465 -40.9398 -40.9379 -40.9309 -40.9298 -40.9254 -40.9221 -40.9158
   -35.3614 -35.3147 -35.1727 -35.1592 -35.1125 -35.0706 -35.0575 -34.9887
   -34.9850 -34.9778 -34.9463 -34.9256 -34.9218 -34.9194 -34.8978 -34.8928
   -34.8721 -34.8337 -34.8322 -34.8256 -34.8233 -34.8126 -34.7791 -34.7481
     7.7648   7.7751   7.7989   7.8511   7.8532   7.8624   7.8654   7.9031
     7.9276   7.9279   7.9579   7.9615   7.9786   8.0451   8.0519   8.0625
     8.0930   8.1089   8.1242   8.1372   9.2581   9.5578   9.6992  10.0422
    10.0712  10.1380  10.3642  10.4012  10.5365  10.5514  10.7051  10.7828
    10.9321  11.0625  11.2757  11.2804  11.3626  11.4448  11.4563  11.5625
    11.6693  11.6714  11.7189  11.7449  11.8909  12.0334  12.0436  12.2138
    12.2146  12.2172  12.2809  12.3486  12.3488  12.4423  12.5240  12.5857
    12.6074  12.7719  12.9601  13.2036  13.8432  16.1564  16.6507  16.7085
    18.7722  19.3848  19.4708  20.2702  20.9594  21.5259  22.6601  22.9549
    23.3019  23.7904  24.5041  25.7476  26.1791  26.5308  26.5784  26.8507
    27.3093  27.3362  28.1815  28.4491  28.8840  28.9341  29.3588  29.4588
    29.5413  29.6792  30.1674  30.7752  31.0544  31.7794  31.8042  32.3891
    32.8426  32.8589  33.2652  33.5141  33.5223  33.8043  34.0063  34.7136
    35.1992  35.2127  35.4068  35.5095  35.9939  36.2254  36.5551  36.5772
    36.6454

          k = 0.0000 0.3605 0.1457 (  5804 PWs)   bands (ev):

   -81.9119 -81.8975 -81.8608 -81.8544 -72.7275 -72.7135 -72.7121 -72.7053
   -72.6870 -72.6816 -72.6290 -72.6021 -40.9684 -40.9636 -40.9573 -40.9525
   -40.9513 -40.9445 -40.9421 -40.9418 -40.9295 -40.9282 -40.9232 -40.9166
   -35.3626 -35.3300 -35.1668 -35.1561 -35.1055 -35.0672 -35.0627 -35.0274
   -34.9881 -34.9835 -34.9627 -34.9422 -34.9329 -34.9262 -34.8880 -34.8804
   -34.8791 -34.8335 -34.8263 -34.8206 -34.8197 -34.8033 -34.7895 -34.7709
     7.7680   7.7785   7.8053   7.8342   7.8392   7.8483   7.8760   7.8859
     7.9147   7.9206   7.9740   7.9748   8.0002   8.0301   8.0485   8.0805
     8.0934   8.0995   8.1206   8.1340   9.2831   9.4561   9.8216  10.0163
    10.0714  10.2234  10.3725  10.4012  10.4318  10.5673  10.5816  10.7479
    11.0366  11.0543  11.2743  11.2973  11.3326  11.4151  11.4369  11.4944
    11.6663  11.7683  11.7741  11.8309  11.9200  11.9790  12.1025  12.1667
    12.1964  12.2389  12.2779  12.3467  12.3513  12.3864  12.5524  12.5668
    12.6267  12.7194  13.0183  13.1777  13.9920  15.2493  16.8512  17.7531
    18.1652  19.3352  20.2098  20.4310  20.7082  21.4006  21.7113  22.5213
    24.0104  24.1404  24.9007  25.3832  25.6327  25.8909  26.7346  26.8749
    27.4985  27.8253  28.0945  28.5149  28.8442  28.9094  29.5308  30.1184
    30.1873  30.2520  30.4673  30.8589  30.8715  31.1516  31.4855  31.6275
    32.2794  32.7448  33.2109  33.5056  33.6625  33.6759  33.9443  34.8933
    34.9182  35.1165  35.2613  35.4946  35.5557  35.8559  36.2465  36.7352
    36.8466

          k = 0.0000 0.3605-0.2914 (  5816 PWs)   bands (ev):

   -81.9094 -81.9093 -81.8716 -81.8715 -72.7241 -72.7241 -72.7118 -72.7118
   -72.7001 -72.7001 -72.6257 -72.6257 -40.9655 -40.9655 -40.9619 -40.9618
   -40.9473 -40.9472 -40.9454 -40.9454 -40.9302 -40.9302 -40.9238 -40.9238
   -35.3543 -35.3543 -35.1636 -35.1636 -35.0774 -35.0774 -35.0706 -35.0706
   -34.9814 -34.9814 -34.9612 -34.9612 -34.9307 -34.9307 -34.8842 -34.8842
   -34.8532 -34.8532 -34.8261 -34.8260 -34.8053 -34.8053 -34.7882 -34.7882
     7.7838   7.7838   7.8159   7.8159   7.8220   7.8220   7.8962   7.8963
     7.8968   7.8969   8.0002   8.0003   8.0044   8.0045   8.0594   8.0594
     8.1116   8.1116   8.1129   8.1129   9.3495   9.3495   9.9500   9.9500
    10.1866  10.1866  10.3914  10.3914  10.4065  10.4065  10.6630  10.6630
    11.0438  11.0438  11.3049  11.3049  11.3475  11.3475  11.4760  11.4760
    11.7029  11.7029  11.8420  11.8420  12.0634  12.0634  12.0713  12.0713
    12.2258  12.2258  12.2805  12.2805  12.3511  12.3511  12.5938  12.5938
    12.6368  12.6368  13.1089  13.1089  14.4555  14.4555  17.2878  17.2878
    19.4257  19.4257  19.8326  19.8326  20.9152  20.9152  22.0807  22.0808
    24.2934  24.2935  25.0698  25.0698  25.5969  25.5969  26.3639  26.3639
    27.9833  27.9833  28.8233  28.8233  29.1556  29.1557  30.0012  30.0013
    30.1209  30.1209  30.7057  30.7057  30.7633  30.7633  31.5850  31.5850
    32.3330  32.3330  32.7704  32.7704  34.0328  34.0328  34.0824  34.0824
    34.7250  34.7251  35.2399  35.2399  35.7065  35.7065  36.5689  36.5689
    36.7904

          k =-0.4683-0.2704 0.0000 (  5800 PWs)   bands (ev):

   -81.9042 -81.8901 -81.8811 -81.8360 -72.7351 -72.7255 -72.7204 -72.6907
   -72.6748 -72.6649 -72.6199 -72.6033 -40.9710 -40.9569 -40.9545 -40.9497
   -40.9493 -40.9416 -40.9412 -40.9398 -40.9354 -40.9314 -40.9290 -40.9109
   -35.3235 -35.2877 -35.2021 -35.1745 -35.1239 -35.0614 -35.0500 -34.9935
   -34.9853 -34.9764 -34.9601 -34.9357 -34.9335 -34.9247 -34.9196 -34.8992
   -34.8805 -34.8373 -34.8322 -34.8296 -34.8215 -34.8200 -34.7853 -34.7501
     7.7608   7.7775   7.8269   7.8332   7.8350   7.8510   7.8554   7.9198
     7.9344   7.9369   7.9425   7.9446   7.9451   8.0412   8.0691   8.0714
     8.1012   8.1147   8.1168   8.1340   9.4557   9.7048   9.7756  10.1465
    10.2079  10.4079  10.4515  10.4754  10.4875  10.6752  10.7043  11.0494
    11.1444  11.1768  11.1956  11.2008  11.3578  11.3884  11.4135  11.4787
    11.5084  11.5751  11.7020  11.7425  11.7630  11.7695  11.8706  12.0869
    12.1547  12.1941  12.2203  12.2683  12.2918  12.3661  12.3927  12.4493
    12.5673  12.5728  12.9737  13.1936  14.9907  15.0744  16.9556  17.6936
    17.8296  17.9534  19.0823  20.0357  20.7284  21.4530  22.3974  22.8134
    24.2024  24.2403  25.1386  25.3425  26.6531  27.3246  27.3584  27.3769
    27.6166  27.9526  28.5331  28.8330  28.8351  29.3912  29.5416  29.7551
    29.7840  29.9738  30.0195  30.1541  30.1903  30.7409  31.5406  31.9968
    32.8051  33.6939  33.7109  33.8334  33.9875  34.3882  34.4857  34.7135
    34.8125  35.0021  35.1130  35.4678  35.7080  35.8409  35.9417  35.9665
    36.2722

          k =-0.4683-0.2704 0.1457 (  5822 PWs)   bands (ev):

   -81.9228 -81.9184 -81.8711 -81.8671 -72.7416 -72.7409 -72.7304 -72.7119
   -72.7036 -72.6720 -72.6310 -72.6172 -40.9678 -40.9672 -40.9574 -40.9563
   -40.9552 -40.9539 -40.9495 -40.9473 -40.9344 -40.9333 -40.9240 -40.9185
   -35.3245 -35.2962 -35.1981 -35.1938 -35.1158 -35.0623 -35.0609 -35.0193
   -34.9956 -34.9760 -34.9708 -34.9514 -34.9431 -34.9347 -34.9000 -34.8926
   -34.8773 -34.8408 -34.8336 -34.8334 -34.8332 -34.8158 -34.7924 -34.7665
     7.7649   7.7826   7.8226   7.8263   7.8367   7.8384   7.8710   7.8732
     7.8768   7.9194   7.9623   7.9971   8.0060   8.0229   8.0669   8.0681
     8.1010   8.1096   8.1116   8.1219   9.4735   9.6134   9.9008  10.1560
    10.2003  10.3013  10.4220  10.4715  10.5159  10.6674  10.8083  11.0622
    11.0647  11.1639  11.2209  11.2233  11.3197  11.3272  11.3503  11.3882
    11.5569  11.6046  11.6815  11.7212  11.8521  11.9094  11.9228  12.1185
    12.1369  12.1675  12.2425  12.2611  12.2929  12.3699  12.4041  12.4201
    12.5293  12.5368  13.0162  13.1667  15.1117  15.2536  16.2447  16.6247
    18.9360  19.0038  19.3393  20.1940  20.1979  21.4916  21.8193  22.5771
    23.4730  23.9564  25.6555  25.7526  26.4016  26.9650  27.6741  27.8280
    27.9214  28.0063  28.0255  28.5558  29.1343  29.1710  29.5046  29.8999
    30.1516  30.2922  30.4807  30.7582  30.8448  31.2677  31.5798  31.7703
    32.0908  32.2815  33.1402  33.3582  33.3592  33.8822  34.1503  34.5414
    34.8429  35.0366  35.3856  35.5257  35.5925  35.7263  36.0826  36.0864
    36.3642

          k =-0.4683-0.2704-0.2914 (  5804 PWs)   bands (ev):

   -81.8958 -81.8956 -81.8667 -81.8665 -72.7256 -72.7256 -72.7121 -72.7121
   -72.6946 -72.6946 -72.5974 -72.5974 -40.9608 -40.9607 -40.9494 -40.9494
   -40.9478 -40.9477 -40.9428 -40.9428 -40.9323 -40.9323 -40.9266 -40.9265
   -35.3147 -35.3147 -35.1945 -35.1945 -35.0679 -35.0679 -35.0640 -35.0640
   -34.9710 -34.9710 -34.9530 -34.9530 -34.9345 -34.9345 -34.8948 -34.8948
   -34.8392 -34.8392 -34.8367 -34.8366 -34.8036 -34.8036 -34.7900 -34.7900
     7.7864   7.7865   7.8198   7.8199   7.8337   7.8337   7.8547   7.8548
     7.8978   7.8978   7.9913   7.9914   8.0386   8.0387   8.0632   8.0632
     8.1053   8.1054   8.1104   8.1104   9.5288   9.5288  10.0888  10.0888
    10.1810  10.1810  10.4532  10.4532  10.5895  10.5895  10.9557  10.9557
    11.1091  11.1091  11.2431  11.2431  11.2885  11.2885  11.3099  11.3099
    11.6333  11.6333  11.6663  11.6663  11.9512  11.9512  12.0861  12.0861
    12.1119  12.1119  12.2681  12.2681  12.3499  12.3499  12.4182  12.4182
    12.4709  12.4709  13.0984  13.0984  15.5196  15.5196  15.7790  15.7790
    19.4592  19.4592  20.6157  20.6157  20.6918  20.6918  20.8696  20.8696
    24.1709  24.1709  25.4568  25.4568  26.2759  26.2759  28.0354  28.0354
    28.0600  28.0600  28.7788  28.7788  29.3150  29.3150  30.0196  30.0196
    30.2111  30.2112  30.7942  30.7942  31.1496  31.1496  31.5881  31.5881
    32.3776  32.3777  32.8373  32.8373  32.9332  32.9332  33.2675  33.2675
    35.3229  35.3234  35.4610  35.4610  35.5864  35.5865  36.0794  36.0794
    36.1971

          k =-0.4683 0.0901 0.0000 (  5827 PWs)   bands (ev):

   -81.9251 -81.9009 -81.8976 -81.8686 -72.7555 -72.7380 -72.7229 -72.7193
   -72.6977 -72.6663 -72.6480 -72.6211 -40.9716 -40.9679 -40.9607 -40.9586
   -40.9536 -40.9499 -40.9452 -40.9402 -40.9383 -40.9314 -40.9292 -40.9289
   -35.3281 -35.3010 -35.2035 -35.1764 -35.1461 -35.0527 -35.0504 -34.9989
   -34.9910 -34.9894 -34.9566 -34.9407 -34.9399 -34.9224 -34.9181 -34.8986
   -34.8909 -34.8498 -34.8427 -34.8364 -34.8331 -34.8256 -34.7893 -34.7698
     7.7613   7.7656   7.8060   7.8144   7.8472   7.8702   7.8765   7.9131
     7.9295   7.9361   7.9436   7.9497   7.9571   8.0092   8.0309   8.0387
     8.1146   8.1269   8.1269   8.1591   9.5441   9.8135   9.8229  10.0927
    10.1329  10.2023  10.3203  10.4699  10.5973  10.6585  10.8462  10.8806
    10.9488  11.0990  11.2314  11.2622  11.2821  11.4302  11.4617  11.5355
    11.6233  11.6529  11.6824  11.6835  11.7954  11.8963  11.9066  11.9839
    12.1806  12.2003  12.2114  12.2788  12.3244  12.4069  12.4494  12.4791
    12.5817  12.6279  12.9003  13.0235  14.5612  16.0096  16.7839  17.4077
    17.4941  18.4031  18.8201  19.7310  20.1557  21.7871  23.4436  23.6741
    24.2829  24.4017  24.7726  25.8870  26.0224  26.1557  26.2938  26.9276
    27.3117  27.5259  28.3531  28.9539  29.0723  29.2411  29.7065  29.9083
    30.3382  30.4193  30.6237  30.8332  31.0648  31.5072  31.6116  32.8040
    32.8488  33.0127  33.1838  33.3831  33.4982  33.9107  34.4043  34.4728
    34.6495  35.1310  35.1390  35.3403  35.3872  35.5683  35.7101  35.8450
    36.1947

          k =-0.4683 0.0901 0.1457 (  5825 PWs)   bands (ev):

   -81.9253 -81.9030 -81.8843 -81.8736 -72.7426 -72.7383 -72.7210 -72.7146
   -72.7028 -72.6832 -72.6347 -72.6214 -40.9677 -40.9662 -40.9610 -40.9593
   -40.9536 -40.9499 -40.9463 -40.9444 -40.9359 -40.9317 -40.9276 -40.9265
   -35.3230 -35.3006 -35.2046 -35.1934 -35.1214 -35.0556 -35.0480 -35.0265
   -34.9954 -34.9813 -34.9634 -34.9451 -34.9431 -34.9365 -34.8999 -34.8941
   -34.8774 -34.8477 -34.8416 -34.8302 -34.8249 -34.8156 -34.7940 -34.7766
     7.7690   7.7725   7.8040   7.8078   7.8479   7.8595   7.8700   7.8919
     7.9092   7.9284   7.9588   7.9800   7.9946   8.0012   8.0265   8.0467
     8.1036   8.1192   8.1318   8.1550   9.5612   9.6983   9.9544  10.0678
    10.1409  10.2692  10.3427  10.4289  10.5436  10.5651  10.8780  10.9171
    10.9544  11.0710  11.2055  11.2324  11.3314  11.4199  11.4426  11.4583
    11.6014  11.6503  11.6951  11.7814  11.8647  11.8889  11.9604  12.0204
    12.1729  12.1858  12.2629  12.2882  12.3344  12.3844  12.4219  12.4569
    12.5358  12.6061  12.9350  13.0193  14.7109  15.9447  16.1643  17.3222
    17.7325  18.5639  18.9388  20.0074  21.1355  21.8960  22.3165  23.0840
    23.4084  24.4430  24.7229  25.2645  25.6674  26.7384  27.3251  27.6475
    27.9628  28.1103  28.5239  28.6624  29.0878  29.3479  29.5577  29.8110
    30.2238  30.4459  30.7343  30.8053  31.2529  31.5154  31.7569  32.2340
    32.5554  32.6843  33.1743  33.2638  33.3909  33.4685  33.6410  33.7818
    34.7724  35.0089  35.2062  35.3157  35.5542  35.6262  35.7373  35.9022
    36.1182

          k =-0.4683 0.0901-0.2914 (  5824 PWs)   bands (ev):

   -81.9089 -81.9088 -81.8832 -81.8831 -72.7296 -72.7296 -72.7149 -72.7149
   -72.7024 -72.7024 -72.6300 -72.6300 -40.9649 -40.9648 -40.9572 -40.9572
   -40.9519 -40.9519 -40.9460 -40.9459 -40.9347 -40.9346 -40.9294 -40.9294
   -35.3133 -35.3133 -35.1982 -35.1982 -35.0764 -35.0764 -35.0533 -35.0533
   -34.9787 -34.9787 -34.9635 -34.9635 -34.9385 -34.9385 -34.8954 -34.8954
   -34.8537 -34.8537 -34.8439 -34.8439 -34.8084 -34.8084 -34.7940 -34.7940
     7.7818   7.7819   7.8013   7.8013   7.8342   7.8343   7.8872   7.8873
     7.9098   7.9098   7.9810   7.9811   8.0035   8.0035   8.0430   8.0431
     8.1034   8.1035   8.1433   8.1433   9.6134   9.6134  10.0377  10.0377
    10.2297  10.2297  10.3989  10.3989  10.4834  10.4834  10.8930  10.8930
    11.0168  11.0168  11.2047  11.2047  11.3934  11.3934  11.4188  11.4188
    11.6259  11.6259  11.7367  11.7368  11.9187  11.9187  12.0740  12.0740
    12.1553  12.1553  12.3075  12.3075  12.3426  12.3426  12.3985  12.3985
    12.5489  12.5489  12.9902  12.9902  15.1681  15.1681  16.6111  16.6111
    18.1186  18.1186  20.2673  20.2673  21.4951  21.4951  22.4244  22.4244
    23.0864  23.0864  24.7752  24.7752  26.8188  26.8188  27.4600  27.4600
    28.4917  28.4917  29.1539  29.1539  29.3458  29.3458  29.8670  29.8670
    30.3883  30.3883  30.7326  30.7326  30.9804  30.9804  31.5056  31.5056
    32.2159  32.2160  33.0624  33.0625  33.4186  33.4186  33.6419  33.6419
    34.8443  34.8443  35.2435  35.2436  35.4059  35.4060  35.7583  35.7587
    36.4175

     the Fermi energy is    29.2708 ev

!    total energy              =   -4098.63330662 Ry
     Harris-Foulkes estimate   =   -4098.63338900 Ry
     estimated scf accuracy    <       0.00009593 Ry

     The total energy is the sum of the following terms:

     one-electron contribution =   -1170.90740363 Ry
     hartree contribution      =     736.15074414 Ry
     xc contribution           =    -343.95239623 Ry
     ewald contribution        =   -3319.47117809 Ry
     smearing contrib. (-TS)   =      -0.45307281 Ry

     convergence has been achieved in   7 iterations

     Forces acting on atoms (Ry/au):

     atom    1 type  1   force =     0.00000000    0.00000000   -0.03764208
     atom    2 type  1   force =     0.00000000    0.00000000   -0.03764208
     atom    3 type  1   force =     0.00000000    0.00000000    0.03764208
     atom    4 type  1   force =     0.00000000    0.00000000    0.03764208
     atom    5 type  2   force =     0.00000000    0.00000000    0.00000000
     atom    6 type  2   force =     0.00000000    0.00000000    0.00000000
     atom    7 type  2   force =     0.00000000    0.00069572    0.00000000
     atom    8 type  2   force =    -0.00060251    0.00034786    0.00000000
     atom    9 type  2   force =     0.00060251    0.00034786    0.00000000
     atom   10 type  2   force =    -0.00060251   -0.00034786    0.00000000
     atom   11 type  2   force =     0.00060251   -0.00034786    0.00000000
     atom   12 type  2   force =     0.00000000   -0.00069572    0.00000000

     Total force =     0.075303     Total SCF correction =     0.000000


     entering subroutine stress ...

          total   stress  (Ry/bohr**3)                   (kbar)     P= -342.77
  -0.00223934   0.00000000   0.00000000       -329.42      0.00      0.00
   0.00000000  -0.00223934   0.00000000          0.00   -329.42      0.00
   0.00000000   0.00000000  -0.00251169          0.00      0.00   -369.48


     number of scf cycles    =   2
     number of bfgs steps    =   1

     enthalpy old            =   -4097.8849749905 Ry
     enthalpy new            =   -4098.6333066248 Ry

     CASE: enthalpy_new < enthalpy_old

     small trust_radius: resetting bfgs history

     new trust radius        =       0.5109660784 bohr
     new conv_thr            =       0.0000376421 Ry

     new unit-cell volume =   1382.63797 a.u.^3 (   204.88581 Ang^3 )

CELL_PARAMETERS (alat=  9.92348860)
   1.007987772   0.000000000   0.000000000
  -0.503993886   0.872943017   0.000000000
   0.000000000   0.000000000   1.607956126

ATOMIC_POSITIONS (crystal)
Mg       0.333333000   0.666667000   0.060543467
Mg       0.666667000   0.333333000   0.560543467
Mg       0.666667000   0.333333000   0.939456533
Mg       0.333333000   0.666667000   0.439456533
Zn       0.000000000   0.000000000   0.000000000
Zn       0.000000000   0.000000000   0.500000000
Zn       0.172518201   0.345036401   0.750000000
Zn       0.827481799   0.172518201   0.250000000
Zn       0.345036401   0.172518201   0.250000000
Zn       0.654963599   0.827481799   0.750000000
Zn       0.172518201   0.827481799   0.750000000
Zn       0.827481799   0.654963599   0.250000000



     Writing output data file Prototype-La-hP12-MgZn2.save
     NEW-OLD atomic charge density approx. for the potential
     NEW k-points:
        k(    1) = (   0.0000000   0.0000000   0.0000000), wk =   0.0833333
        k(    2) = (   0.0000000   0.0000000   0.1554769), wk =   0.1666667
        k(    3) = (   0.0000000   0.0000000  -0.3109538), wk =   0.0833333
        k(    4) = (   0.0000000   0.3818500   0.0000000), wk =   0.1666667
        k(    5) = (   0.0000000   0.3818500   0.1554769), wk =   0.3333333
        k(    6) = (   0.0000000   0.3818500  -0.3109538), wk =   0.1666667
        k(    7) = (  -0.4960378  -0.2863875   0.0000000), wk =   0.0833333
        k(    8) = (  -0.4960378  -0.2863875   0.1554769), wk =   0.1666667
        k(    9) = (  -0.4960378  -0.2863875  -0.3109538), wk =   0.0833333
        k(   10) = (  -0.4960378   0.0954625   0.0000000), wk =   0.1666667
        k(   11) = (  -0.4960378   0.0954625   0.1554769), wk =   0.3333333
        k(   12) = (  -0.4960378   0.0954625  -0.3109538), wk =   0.1666667

     total cpu time spent up to now is      752.9 secs

     Self-consistent Calculation

     iteration #  1     ecut=    40.00 Ry     beta=0.70
     CG style diagonalization
     c_bands:  2 eigenvalues not converged
     c_bands:  1 eigenvalues not converged
     ethr =  1.00E-06,  avg # of iterations = 20.9

     total cpu time spent up to now is      877.1 secs

     total energy              =   -4083.53606783 Ry
     Harris-Foulkes estimate   =   -4114.72410693 Ry
     estimated scf accuracy    <      38.43712202 Ry

     iteration #  2     ecut=    40.00 Ry     beta=0.70
     CG style diagonalization
     ethr =  1.00E-02,  avg # of iterations =  4.2

     total cpu time spent up to now is      902.0 secs

     total energy              =   -4094.96640826 Ry
     Harris-Foulkes estimate   =   -4102.14641093 Ry
     estimated scf accuracy    <      11.10007718 Ry

     iteration #  3     ecut=    40.00 Ry     beta=0.70
     CG style diagonalization
     ethr =  4.14E-03,  avg # of iterations =  3.7

     total cpu time spent up to now is      923.5 secs

     total energy              =   -4097.66596429 Ry
     Harris-Foulkes estimate   =   -4098.53456526 Ry
     estimated scf accuracy    <       1.70745957 Ry

     iteration #  4     ecut=    40.00 Ry     beta=0.70
     CG style diagonalization
     ethr =  6.37E-04,  avg # of iterations =  3.6

     total cpu time spent up to now is      944.5 secs

     total energy              =   -4098.04947442 Ry
     Harris-Foulkes estimate   =   -4098.07734465 Ry
     estimated scf accuracy    <       0.04424740 Ry

     iteration #  5     ecut=    40.00 Ry     beta=0.70
     CG style diagonalization
     c_bands:  1 eigenvalues not converged
     ethr =  1.65E-05,  avg # of iterations =  4.2

     total cpu time spent up to now is      969.6 secs

     total energy              =   -4098.06365722 Ry
     Harris-Foulkes estimate   =   -4098.07340176 Ry
     estimated scf accuracy    <       0.01896049 Ry

     iteration #  6     ecut=    40.00 Ry     beta=0.70
     CG style diagonalization
     ethr =  7.07E-06,  avg # of iterations =  3.5

     total cpu time spent up to now is     1118.2 secs

     total energy              =   -4098.06758101 Ry
     Harris-Foulkes estimate   =   -4098.06797509 Ry
     estimated scf accuracy    <       0.00070852 Ry

     iteration #  7     ecut=    40.00 Ry     beta=0.70
     CG style diagonalization
     ethr =  2.64E-07,  avg # of iterations =  4.0

     total cpu time spent up to now is     1305.8 secs

     total energy              =   -4098.06781151 Ry
     Harris-Foulkes estimate   =   -4098.06784888 Ry
     estimated scf accuracy    <       0.00006180 Ry

     iteration #  8     ecut=    40.00 Ry     beta=0.70
     CG style diagonalization
     ethr =  2.31E-08,  avg # of iterations =  3.7

     total cpu time spent up to now is     1488.6 secs

     End of self-consistent calculation

          k = 0.0000 0.0000 0.0000 (  5769 PWs)   bands (ev):

   -76.1323 -76.1165 -76.1112 -76.0664 -67.4682 -67.4393 -67.3922 -67.3921
   -67.3839 -67.3839 -67.3553 -67.3227 -34.8923 -34.8744 -34.8558 -34.8558
   -34.8544 -34.8375 -34.8375 -34.8314 -34.8141 -34.8141 -34.8028 -34.8028
   -30.3366 -30.1990 -29.8995 -29.7134 -29.7134 -29.6873 -29.6873 -29.5960
   -29.5684 -29.5683 -29.5006 -29.4207 -29.4206 -29.3306 -29.3306 -29.2938
   -29.2938 -29.2628 -29.2377 -29.2377 -29.1881 -29.1728 -29.1681 -29.1680
    12.7774  13.1921  13.5037  13.5154  13.5155  13.5999  13.5999  13.7436
    13.7437  13.7548  13.7668  13.7810  13.7810  13.8634  13.9335  13.9335
    14.0853  14.0853  14.1192  14.1192  14.1291  14.1291  14.2990  14.7402
    14.7402  14.7566  14.7567  14.9932  14.9933  15.2343  15.5686  15.5686
    15.9420  16.2017  16.3946  16.3947  16.6489  16.6490  16.8566  17.0931
    17.2253  17.2253  17.6363  17.6363  17.8034  17.8872  17.8872  17.9485
    17.9859  18.0897  18.0898  18.1808  18.1808  18.3446  18.3447  19.0416
    19.0416  19.2775  19.2776  19.8158  19.8170  19.9954  20.0046  25.6461
    25.8033  27.2715  27.6057  27.6058  27.8065  27.8066  27.8540  27.9477
    29.0805  29.6838  29.7883  29.7885  30.3312  30.3313  31.2358  31.3839
    31.3841  31.6475  31.6476  34.8580  35.8628  35.9230  36.3156  36.3157
    36.3663  36.3665  36.9094  37.0737  37.0738  37.4373  37.4374  37.9728
    38.0747  38.0747  38.2554  39.9739  40.2322  40.2323  40.5192  40.6802
    40.9972  41.1534  41.1534  42.3296  42.5927  43.0030  43.0031  43.2922
    43.2926

          k = 0.0000 0.0000 0.1555 (  5780 PWs)   bands (ev):

   -76.1364 -76.1353 -76.1017 -76.0705 -67.4571 -67.4406 -67.3991 -67.3990
   -67.3912 -67.3912 -67.3438 -67.3438 -34.8882 -34.8823 -34.8583 -34.8499
   -34.8498 -34.8483 -34.8483 -34.8339 -34.8140 -34.8139 -34.8056 -34.8056
   -30.3208 -30.2214 -29.8735 -29.7153 -29.7153 -29.6961 -29.6961 -29.6544
   -29.5562 -29.5562 -29.4633 -29.4632 -29.4349 -29.3129 -29.3128 -29.2832
   -29.2832 -29.2765 -29.2373 -29.2373 -29.1944 -29.1852 -29.1816 -29.1815
    12.8261  13.0689  13.5252  13.5424  13.5424  13.5576  13.6027  13.6027
    13.7205  13.7205  13.7441  13.7441  13.8862  13.9627  13.9627  14.0707
    14.0894  14.0894  14.1047  14.1047  14.1153  14.1153  14.3781  14.7353
    14.7353  14.7366  14.7367  15.0159  15.1301  15.1302  15.5444  15.5444
    16.0159  16.1841  16.3521  16.3521  16.4641  16.4641  17.0203  17.2321
    17.3999  17.3999  17.6406  17.6407  17.6951  17.9193  17.9193  17.9538
    17.9803  18.0632  18.0633  18.1951  18.1952  18.3184  18.3184  18.6253
    19.0728  19.0729  19.2463  19.2463  19.8159  19.8167  21.7390  25.5842
    25.7609  26.0420  27.5126  27.6337  27.6338  27.7630  27.7831  27.7832
    29.5856  29.5857  29.8284  29.8285  29.8898  30.0889  32.2583  32.2585
    32.2715  32.2717  32.3984  34.3588  34.4824  35.1836  35.1838  35.2843
    35.2845  36.7480  37.3754  37.4252  37.8406  37.8407  38.0210  38.0211
    38.3939  38.3939  38.4631  39.9726  40.0797  40.2058  40.2058  40.2958
    40.7393  40.7393  41.1499  41.8099  42.1833  42.1833  43.5577  43.6553
    44.1348

          k = 0.0000 0.0000-0.3110 (  5780 PWs)   bands (ev):

   -76.1281 -76.1281 -76.0910 -76.0910 -67.4704 -67.4704 -67.3790 -67.3789
   -67.3789 -67.3789 -67.3510 -67.3510 -34.8838 -34.8836 -34.8614 -34.8612
   -34.8456 -34.8456 -34.8455 -34.8455 -34.8059 -34.8059 -34.8058 -34.8058
   -30.2690 -30.2690 -29.8023 -29.8023 -29.6993 -29.6993 -29.6993 -29.6993
   -29.5037 -29.5037 -29.5036 -29.5036 -29.3553 -29.3553 -29.2913 -29.2913
   -29.2913 -29.2913 -29.2146 -29.2146 -29.2145 -29.2145 -29.1796 -29.1796
    12.9351  12.9351  13.4542  13.4543  13.5951  13.5952  13.5952  13.5952
    13.6959  13.6959  13.6959  13.6959  14.0320  14.0320  14.0321  14.0321
    14.1086  14.1086  14.1087  14.1087  14.1362  14.1363  14.6089  14.6089
    14.7294  14.7294  14.7294  14.7294  15.3883  15.3883  15.3883  15.3883
    16.1228  16.1229  16.3172  16.3173  16.3173  16.3173  17.4087  17.4087
    17.5861  17.5861  17.5862  17.5862  17.6782  17.6782  17.9673  17.9674
    17.9961  17.9961  17.9961  17.9961  18.2481  18.2481  18.2481  18.2481
    19.1608  19.1608  19.1609  19.1609  19.8164  19.8164  23.7626  23.7626
    25.6871  25.6871  27.5607  27.5607  27.7106  27.7107  27.7107  27.7107
    29.4844  29.4844  29.4845  29.4845  30.4348  30.4348  33.4787  33.4788
    33.4788  33.4788  33.6628  33.6628  33.8784  33.8784  33.8784  33.8784
    34.9065  34.9065  37.7395  37.7395  38.2649  38.2649  38.2649  38.2649
    39.0634  39.0634  39.2170  39.2170  39.2170  39.2170  40.1352  40.1352
    41.3160  41.3161  41.3161  41.3161  41.3300  41.3300  44.5506  44.5506
    44.8345

          k = 0.0000 0.3819 0.0000 (  5787 PWs)   bands (ev):

   -76.1300 -76.1245 -76.1024 -76.1005 -67.4714 -67.4411 -67.4041 -67.3961
   -67.3840 -67.3789 -67.3583 -67.3494 -34.8820 -34.8765 -34.8595 -34.8573
   -34.8515 -34.8507 -34.8450 -34.8336 -34.8235 -34.8212 -34.8132 -34.8036
   -30.1884 -30.0866 -29.9137 -29.8180 -29.7232 -29.6516 -29.6192 -29.5827
   -29.5621 -29.5423 -29.4657 -29.4375 -29.4149 -29.4002 -29.3717 -29.3688
   -29.3202 -29.3073 -29.2709 -29.2513 -29.2286 -29.2225 -29.1987 -29.1624
    13.3530  13.4805  13.5469  13.5496  13.6294  13.6618  13.6865  13.7045
    13.7267  13.7467  13.7901  13.8217  13.8308  13.8766  13.9520  14.0279
    14.0409  14.0565  14.0857  14.1233  14.1422  14.1715  14.5874  14.8022
    14.8423  14.9686  15.2231  15.2920  15.5029  15.5909  15.7971  15.8838
    16.0363  16.2871  16.5131  16.5468  16.6418  16.7246  16.7467  16.9807
    17.0832  17.1093  17.2079  17.2531  17.3409  17.6786  17.7230  17.9130
    17.9311  17.9785  18.0448  18.0988  18.1587  18.2175  18.3343  18.3601
    18.3863  18.4661  18.6690  19.0835  19.4305  21.1361  21.6255  21.6698
    24.1507  24.9804  25.1202  25.7024  26.6372  27.8124  28.0304  29.1157
    29.2524  29.9462  30.9600  31.9647  32.4698  32.9144  32.9801  33.3845
    33.7896  33.8488  34.5192  34.9766  35.2842  35.5084  35.7262  36.0025
    36.1936  36.2193  36.4412  37.2393  37.6632  38.1689  38.2756  38.4909
    38.9876  39.1246  39.5930  39.7741  39.8350  40.1144  40.2126  40.8865
    40.9867  41.1110  41.5085  42.1291  42.2752  42.6702  42.8256  42.8590
    42.9282

          k = 0.0000 0.3819 0.1555 (  5804 PWs)   bands (ev):

   -76.1388 -76.1321 -76.1097 -76.1064 -67.4671 -67.4534 -67.4073 -67.4054
   -67.3928 -67.3904 -67.3673 -67.3477 -34.8897 -34.8835 -34.8644 -34.8567
   -34.8551 -34.8529 -34.8466 -34.8439 -34.8274 -34.8210 -34.8114 -34.8052
   -30.1842 -30.1152 -29.8879 -29.8224 -29.7144 -29.6460 -29.6318 -29.6032
   -29.5733 -29.5531 -29.4966 -29.4586 -29.4247 -29.4070 -29.3502 -29.3458
   -29.3267 -29.2827 -29.2640 -29.2543 -29.2261 -29.2214 -29.2146 -29.1883
    13.4050  13.4370  13.5447  13.5732  13.6104  13.6294  13.6666  13.6889
    13.7172  13.7244  13.7718  13.7810  13.8938  13.9254  13.9766  14.0089
    14.0155  14.0927  14.0972  14.1138  14.1474  14.1713  14.6331  14.7520
    14.8936  15.0838  15.2502  15.3120  15.3885  15.5407  15.6205  15.8380
    16.1834  16.2452  16.5308  16.5361  16.5702  16.7328  16.7447  16.8546
    17.0795  17.2485  17.3055  17.3766  17.4448  17.6204  17.7838  17.8427
    17.9486  17.9750  18.0440  18.0846  18.1557  18.2042  18.2706  18.4107
    18.4632  18.5423  18.6373  19.1456  19.3892  19.9732  21.8251  22.9507
    23.4380  25.0109  25.8750  25.9315  26.5337  27.2564  27.3252  28.6186
    30.1614  30.2930  31.0297  31.7648  31.9143  32.1196  33.1619  33.5028
    33.8719  34.2961  34.4995  35.0459  35.2924  35.3138  36.0161  36.5831
    36.6676  36.7487  37.0766  37.4571  37.5355  37.5545  37.9777  37.9912
    38.5512  39.0096  39.5338  39.6184  39.8097  40.1577  40.3696  40.6944
    40.8084  41.1614  41.4203  41.6975  41.6999  42.0226  42.7728  43.1583
    43.1935

          k = 0.0000 0.3819-0.3110 (  5816 PWs)   bands (ev):

   -76.1394 -76.1393 -76.1157 -76.1156 -67.4606 -67.4606 -67.4079 -67.4079
   -67.4049 -67.4049 -67.3614 -67.3614 -34.8850 -34.8849 -34.8688 -34.8688
   -34.8533 -34.8532 -34.8494 -34.8494 -34.8247 -34.8247 -34.8125 -34.8125
   -30.1602 -30.1602 -29.8507 -29.8507 -29.6764 -29.6764 -29.6450 -29.6450
   -29.5449 -29.5449 -29.5084 -29.5084 -29.4126 -29.4126 -29.3357 -29.3357
   -29.3006 -29.3006 -29.2447 -29.2447 -29.2357 -29.2357 -29.2118 -29.2118
    13.4484  13.4485  13.5265  13.5265  13.6252  13.6252  13.6624  13.6625
    13.7331  13.7332  13.7394  13.7394  13.9256  13.9257  13.9443  13.9444
    14.1060  14.1060  14.1322  14.1322  14.1507  14.1508  14.6972  14.6972
    15.0842  15.0842  15.3038  15.3038  15.3087  15.3087  15.7216  15.7216
    16.1585  16.1585  16.5599  16.5599  16.6545  16.6545  16.8130  16.8130
    17.1316  17.1316  17.4296  17.4296  17.7032  17.7032  17.7103  17.7103
    17.9808  17.9808  18.0098  18.0098  18.1458  18.1458  18.4135  18.4135
    18.5593  18.5593  18.9841  18.9841  19.2775  19.2775  22.3293  22.3293
    25.0180  25.0180  25.5358  25.5358  26.4000  26.4000  28.1616  28.1616
    30.3553  30.3553  31.4016  31.4016  31.8884  31.8884  32.6604  32.6605
    34.3707  34.3707  35.4123  35.4123  35.6807  35.6807  36.4056  36.4056
    36.8313  36.8313  37.1458  37.1458  37.2731  37.2731  38.0092  38.0092
    38.9054  38.9054  38.9658  38.9659  40.1748  40.1749  40.6274  40.6274
    40.8599  40.8600  41.0159  41.0159  41.6531  41.6531  42.9212  42.9212
    43.2015

          k =-0.4960-0.2864 0.0000 (  5800 PWs)   bands (ev):

   -76.1316 -76.1311 -76.1214 -76.0951 -67.4568 -67.4539 -67.4120 -67.4089
   -67.3921 -67.3843 -67.3580 -67.3522 -34.8905 -34.8777 -34.8625 -34.8611
   -34.8546 -34.8453 -34.8404 -34.8366 -34.8365 -34.8297 -34.8162 -34.7986
   -30.1210 -30.0323 -29.9133 -29.8940 -29.7323 -29.6261 -29.5931 -29.5894
   -29.5601 -29.5331 -29.4851 -29.4320 -29.4281 -29.4277 -29.4106 -29.3868
   -29.3466 -29.3047 -29.2813 -29.2424 -29.2398 -29.2294 -29.2078 -29.1649
    13.4314  13.5229  13.5615  13.5847  13.6254  13.6528  13.6598  13.7280
    13.7417  13.7727  13.7914  13.8076  13.8463  13.9092  13.9870  14.0549
    14.0813  14.0879  14.1036  14.1071  14.1547  14.3558  14.6164  14.8589
    14.9903  15.2909  15.3514  15.3742  15.5167  15.7281  15.7860  16.3109
    16.3690  16.3830  16.4182  16.4619  16.6761  16.6965  16.7110  16.8017
    16.8873  16.9809  17.1203  17.1526  17.2367  17.2565  17.5091  17.6843
    17.8997  17.9090  17.9965  18.0331  18.0512  18.1236  18.1715  18.2659
    18.3444  18.3452  19.1051  19.4158  19.5670  19.7288  22.0389  22.9829
    22.9985  23.2242  24.8015  25.4630  26.3875  27.7022  27.7977  29.2033
    30.2356  30.3654  31.6035  31.7915  32.9416  33.5701  33.9146  33.9835
    34.1407  34.3527  34.9307  35.2804  35.4376  35.9486  36.0045  36.2095
    36.3541  36.4166  36.5659  36.6193  36.6303  37.0061  37.7352  38.7469
    38.7605  39.8684  39.9213  40.1258  40.3367  40.5179  40.7727  41.3101
    41.4514  41.5534  41.7551  41.9721  41.9783  42.2406  42.4118  42.5100
    43.0872

          k =-0.4960-0.2864 0.1555 (  5822 PWs)   bands (ev):

   -76.1469 -76.1432 -76.1161 -76.1142 -67.4627 -67.4613 -67.4212 -67.4082
   -67.4004 -67.3974 -67.3723 -67.3601 -34.8886 -34.8885 -34.8647 -34.8625
   -34.8593 -34.8526 -34.8520 -34.8465 -34.8368 -34.8337 -34.8117 -34.8070
   -30.1159 -30.0543 -29.9129 -29.8926 -29.7231 -29.6252 -29.6130 -29.5861
   -29.5832 -29.5438 -29.5106 -29.4651 -29.4400 -29.4326 -29.3769 -29.3576
   -29.3532 -29.2946 -29.2684 -29.2621 -29.2434 -29.2304 -29.2195 -29.1865
    13.4702  13.4774  13.5879  13.5995  13.6213  13.6373  13.6488  13.6769
    13.6889  13.7804  13.7953  13.8481  13.8679  13.9565  14.0094  14.0337
    14.0882  14.0950  14.1054  14.1232  14.1605  14.2407  14.7182  14.8736
    14.9737  15.1890  15.3162  15.3805  15.5586  15.7055  15.9295  16.2315
    16.3237  16.3991  16.4191  16.4461  16.5410  16.6046  16.6221  16.7436
    16.9594  17.0365  17.1380  17.2394  17.3796  17.4510  17.5292  17.7312
    17.8543  17.8965  17.9700  17.9993  18.0781  18.0830  18.2183  18.2359
    18.2938  18.3517  19.1523  19.3738  19.8218  19.8230  21.1445  21.5839
    24.4082  24.5561  25.0511  25.6368  25.9188  27.0015  28.1699  28.5883
    29.4194  30.1666  31.9457  32.0230  32.8995  33.3600  34.0549  34.1891
    34.4372  34.5703  34.6323  35.0090  35.5315  35.7135  35.8243  36.3033
    36.7247  36.8701  36.8720  37.1545  37.2570  37.8294  37.8515  38.2591
    38.5408  38.9830  39.5925  39.6871  40.1848  40.4135  40.6352  40.9621
    41.0269  41.1058  41.2617  41.9647  41.9986  42.2819  42.4570  42.5636
    42.5863

          k =-0.4960-0.2864-0.3110 (  5804 PWs)   bands (ev):

   -76.1287 -76.1285 -76.1157 -76.1156 -67.4510 -67.4510 -67.4053 -67.4053
   -67.4017 -67.4017 -67.3593 -67.3593 -34.8797 -34.8796 -34.8547 -34.8547
   -34.8541 -34.8541 -34.8438 -34.8438 -34.8326 -34.8326 -34.8147 -34.8147
   -30.0924 -30.0924 -29.8966 -29.8966 -29.6616 -29.6615 -29.6255 -29.6255
   -29.5379 -29.5379 -29.4955 -29.4955 -29.4325 -29.4325 -29.3629 -29.3629
   -29.2902 -29.2902 -29.2453 -29.2453 -29.2444 -29.2444 -29.2163 -29.2163
    13.5044  13.5045  13.5450  13.5451  13.6311  13.6312  13.6398  13.6399
    13.7518  13.7518  13.8601  13.8601  13.9282  13.9283  13.9984  13.9985
    14.0858  14.0858  14.0966  14.0966  14.2106  14.2106  14.9142  14.9143
    14.9326  14.9326  15.3643  15.3643  15.6465  15.6465  16.0766  16.0766
    16.3749  16.3749  16.3769  16.3769  16.5593  16.5593  16.6186  16.6186
    17.0734  17.0734  17.1577  17.1577  17.5409  17.5409  17.7348  17.7348
    17.8020  17.8020  17.9707  17.9707  18.1403  18.1403  18.1603  18.1603
    18.3194  18.3194  19.2661  19.2661  20.2428  20.2428  20.5214  20.5214
    25.1389  25.1389  26.1641  26.1641  26.4085  26.4085  26.7888  26.7888
    30.3317  30.3317  31.7755  31.7755  32.6116  32.6116  34.3583  34.3583
    34.6034  34.6034  35.2083  35.2083  35.7750  35.7750  36.4084  36.4084
    36.9813  36.9813  37.1776  37.1776  37.4819  37.4819  38.0984  38.0984
    39.1698  39.1698  39.1783  39.1784  39.8940  39.8940  39.9683  39.9683
    41.0544  41.0545  41.3493  41.3493  42.1249  42.1252  42.3872  42.3872
    42.6947

          k =-0.4960 0.0955 0.0000 (  5827 PWs)   bands (ev):

   -76.1485 -76.1328 -76.1324 -76.1149 -67.4724 -67.4525 -67.4275 -67.4155
   -67.4029 -67.3936 -67.3744 -67.3563 -34.8931 -34.8886 -34.8653 -34.8625
   -34.8580 -34.8575 -34.8490 -34.8385 -34.8320 -34.8306 -34.8205 -34.8177
   -30.1203 -30.0453 -29.9150 -29.8967 -29.7664 -29.6086 -29.5948 -29.5921
   -29.5755 -29.5378 -29.4730 -29.4435 -29.4384 -29.4265 -29.4166 -29.3672
   -29.3391 -29.3082 -29.2903 -29.2555 -29.2544 -29.2531 -29.2095 -29.1839
    13.4521  13.5038  13.5731  13.6076  13.6196  13.6649  13.6678  13.7149
    13.7563  13.7572  13.8194  13.8275  13.8407  13.8953  13.9288  13.9864
    14.0618  14.0820  14.1247  14.1949  14.2521  14.5095  14.6251  14.8475
    14.9300  15.0422  15.1800  15.3714  15.5312  15.6897  15.9877  16.0591
    16.1176  16.3222  16.4722  16.5104  16.5326  16.7687  16.8096  16.8993
    17.0268  17.0761  17.1307  17.1319  17.2663  17.4738  17.5150  17.6266
    17.8627  17.8925  17.9522  17.9745  18.0547  18.1821  18.2058  18.2828
    18.4221  18.5406  18.9748  19.1276  19.1484  20.8753  21.8808  22.5449
    22.7042  23.8042  24.2127  25.3072  25.7862  27.6620  29.6956  29.7646
    30.2993  30.5411  31.1276  32.2316  32.3667  32.5634  32.8424  33.3394
    33.7719  34.0010  34.8479  35.4536  35.5586  35.7346  36.2173  36.3089
    36.7998  36.8322  37.0936  37.4158  37.4613  37.8848  38.0398  38.9425
    39.3465  39.4384  39.5112  39.5964  39.8120  40.4084  40.5270  40.9239
    41.0168  41.4153  41.6574  41.7826  42.0193  42.0417  42.3588  42.3702
    42.9196

          k =-0.4960 0.0955 0.1555 (  5825 PWs)   bands (ev):

   -76.1473 -76.1362 -76.1228 -76.1184 -67.4685 -67.4616 -67.4136 -67.4128
   -67.4069 -67.3922 -67.3720 -67.3618 -34.8879 -34.8861 -34.8658 -34.8633
   -34.8598 -34.8585 -34.8484 -34.8468 -34.8312 -34.8290 -34.8166 -34.8149
   -30.1112 -30.0571 -29.9154 -29.9000 -29.7395 -29.6144 -29.6037 -29.5937
   -29.5786 -29.5503 -29.4986 -29.4689 -29.4373 -29.4306 -29.3754 -29.3581
   -29.3311 -29.2883 -29.2709 -29.2622 -29.2517 -29.2488 -29.2194 -29.1964
    13.4769  13.4925  13.5656  13.5970  13.6313  13.6400  13.6662  13.7076
    13.7398  13.7657  13.8313  13.8390  13.8476  13.8864  13.9587  14.0035
    14.0361  14.0584  14.1923  14.2107  14.2394  14.3537  14.7537  14.8208
[...]
    35.3701  36.8206  37.4468  37.4938  37.9176  37.9176  38.0968  38.0968
    38.4500  38.4500  38.5009  40.0048  40.1463  40.2639  40.2639  40.3515
    40.8074  40.8074  41.1965  41.8760  42.2623  42.2623  43.6228  43.7383
    44.2178

          k = 0.0000 0.0000-0.3110 (  5888 PWs)   bands (ev):

   -76.0765 -76.0764 -76.0550 -76.0549 -67.4018 -67.4018 -67.3431 -67.3431
   -67.3430 -67.3430 -67.2999 -67.2999 -34.8121 -34.8120 -34.7857 -34.7856
   -34.7698 -34.7698 -34.7698 -34.7697 -34.7413 -34.7413 -34.7413 -34.7413
   -30.2077 -30.2077 -29.7350 -29.7350 -29.6461 -29.6461 -29.6461 -29.6461
   -29.4457 -29.4457 -29.4457 -29.4457 -29.2853 -29.2853 -29.2130 -29.2130
   -29.2129 -29.2129 -29.1501 -29.1501 -29.1501 -29.1501 -29.1358 -29.1358
    12.9942  12.9942  13.5315  13.5316  13.6754  13.6755  13.6755  13.6755
    13.7775  13.7775  13.7775  13.7775  14.1160  14.1160  14.1160  14.1160
    14.1943  14.1943  14.1943  14.1944  14.2186  14.2187  14.6785  14.6785
    14.8002  14.8002  14.8003  14.8003  15.4644  15.4644  15.4644  15.4644
    16.1944  16.1945  16.3927  16.3928  16.3928  16.3928  17.4891  17.4891
    17.6691  17.6691  17.6691  17.6691  17.7333  17.7333  18.0503  18.0503
    18.0817  18.0817  18.0817  18.0817  18.3390  18.3390  18.3390  18.3390
    19.2508  19.2508  19.2508  19.2508  19.9200  19.9200  23.8240  23.8240
    25.7638  25.7638  27.6490  27.6491  27.7919  27.7919  27.7919  27.7919
    29.5744  29.5744  29.5744  29.5744  30.5091  30.5091  33.5585  33.5585
    33.5585  33.5585  33.7555  33.7555  33.9624  33.9624  33.9624  33.9625
    34.9850  34.9850  37.8077  37.8077  38.3332  38.3333  38.3333  38.3333
    39.1004  39.1004  39.2706  39.2706  39.2706  39.2706  40.1937  40.1937
    41.3540  41.3540  41.3540  41.3540  41.3880  41.3880  44.6411  44.6415
    44.8799

          k = 0.0000 0.3823 0.0000 (  5878 PWs)   bands (ev):

   -76.0805 -76.0712 -76.0616 -76.0372 -67.4085 -67.3952 -67.3534 -67.3479
   -67.3289 -67.3255 -67.3043 -67.2906 -34.8075 -34.7978 -34.7825 -34.7815
   -34.7766 -34.7730 -34.7727 -34.7533 -34.7493 -34.7490 -34.7443 -34.7339
   -30.1244 -30.0335 -29.8430 -29.7474 -29.6618 -29.5797 -29.5592 -29.5125
   -29.5001 -29.4730 -29.3981 -29.3688 -29.3513 -29.3420 -29.3033 -29.3029
   -29.2635 -29.2362 -29.1960 -29.1811 -29.1621 -29.1513 -29.1286 -29.1069
    13.4232  13.5596  13.6243  13.6305  13.7083  13.7430  13.7682  13.7877
    13.8043  13.8281  13.8720  13.8962  13.9092  13.9622  14.0345  14.1138
    14.1260  14.1406  14.1728  14.2096  14.2272  14.2398  14.6667  14.8751
    14.9143  15.0381  15.2998  15.3660  15.5780  15.6655  15.8705  15.9604
    16.1090  16.3637  16.5874  16.6262  16.7204  16.8000  16.8204  17.0581
    17.1651  17.1928  17.2900  17.3341  17.4170  17.7602  17.8053  17.9956
    18.0141  18.0632  18.1356  18.1833  18.2494  18.2818  18.4203  18.4486
    18.4686  18.5504  18.7604  19.1719  19.5251  21.2051  21.6884  21.7417
    24.2264  25.0504  25.2062  25.7859  26.7184  27.8954  28.1029  29.1892
    29.3451  30.0264  31.0402  32.0581  32.5507  32.9961  33.0634  33.4710
    33.8792  33.9435  34.6092  35.0651  35.3638  35.5949  35.8128  36.0982
    36.2835  36.3128  36.5292  37.3267  37.7530  38.2564  38.3619  38.5600
    39.0567  39.2021  39.6471  39.8620  39.9109  40.2009  40.2834  40.9444
    41.0608  41.1833  41.5940  42.1905  42.3577  42.7395  42.8885  42.8991
    42.9945

          k = 0.0000 0.3823 0.1555 (  5896 PWs)   bands (ev):

   -76.0824 -76.0773 -76.0698 -76.0545 -67.4036 -67.3966 -67.3588 -67.3537
   -67.3458 -67.3405 -67.3083 -67.3003 -34.8083 -34.8040 -34.7875 -34.7827
   -34.7789 -34.7763 -34.7707 -34.7674 -34.7561 -34.7522 -34.7425 -34.7391
   -30.1203 -30.0536 -29.8225 -29.7636 -29.6531 -29.5846 -29.5657 -29.5356
   -29.5124 -29.4862 -29.4254 -29.3958 -29.3550 -29.3352 -29.2876 -29.2801
   -29.2573 -29.2205 -29.1897 -29.1887 -29.1659 -29.1515 -29.1455 -29.1221
    13.4763  13.5125  13.6198  13.6548  13.6908  13.7090  13.7492  13.7697
    13.8001  13.8002  13.8538  13.8638  13.9792  14.0031  14.0609  14.0921
    14.0939  14.1784  14.1835  14.1992  14.2284  14.2525  14.7071  14.8232
    14.9664  15.1549  15.3265  15.3871  15.4630  15.6131  15.6951  15.9143
    16.2559  16.3207  16.6096  16.6133  16.6447  16.8112  16.8208  16.9318
    17.1614  17.3271  17.3864  17.4593  17.5250  17.7021  17.8670  17.9251
    18.0330  18.0595  18.1344  18.1689  18.2458  18.2902  18.3422  18.4899
    18.5521  18.6218  18.7281  19.2352  19.4832  20.0393  21.8952  23.0160
    23.5080  25.0934  25.9566  26.0123  26.6131  27.3348  27.3995  28.6973
    30.2403  30.3799  31.1164  31.8505  31.9975  32.2142  33.2515  33.5851
    33.9589  34.3870  34.5843  35.1288  35.3812  35.4014  36.1009  36.6710
    36.7591  36.8386  37.1584  37.5431  37.6247  37.6389  38.0567  38.0768
    38.6233  39.0781  39.6086  39.6845  39.8677  40.2403  40.4529  40.7562
    40.8695  41.2283  41.4984  41.7522  41.7788  42.1018  42.8510  43.2303
    43.2626

          k = 0.0000 0.3823-0.3110 (  5896 PWs)   bands (ev):

   -76.0765 -76.0764 -76.0655 -76.0654 -67.4023 -67.4022 -67.3564 -67.3564
   -67.3417 -67.3417 -67.3040 -67.3040 -34.8034 -34.8033 -34.7890 -34.7890
   -34.7718 -34.7717 -34.7708 -34.7708 -34.7501 -34.7500 -34.7472 -34.7472
   -30.0919 -30.0919 -29.7835 -29.7835 -29.6078 -29.6078 -29.5766 -29.5766
   -29.4749 -29.4749 -29.4420 -29.4420 -29.3439 -29.3439 -29.2683 -29.2683
   -29.2294 -29.2294 -29.1774 -29.1774 -29.1672 -29.1672 -29.1462 -29.1462
    13.5225  13.5226  13.6037  13.6038  13.7076  13.7076  13.7385  13.7385
    13.8157  13.8157  13.8215  13.8215  14.0086  14.0087  14.0293  14.0293
    14.1918  14.1918  14.2181  14.2181  14.2310  14.2310  14.7676  14.7676
    15.1574  15.1574  15.3800  15.3800  15.3816  15.3816  15.7969  15.7969
    16.2320  16.2320  16.6380  16.6380  16.7311  16.7311  16.8913  16.8913
    17.2106  17.2106  17.5114  17.5114  17.7858  17.7858  17.7940  17.7940
    18.0664  18.0664  18.0940  18.0940  18.2348  18.2348  18.4950  18.4950
    18.6492  18.6492  19.0491  19.0492  19.3695  19.3695  22.3989  22.3989
    25.0923  25.0923  25.6190  25.6190  26.4821  26.4821  28.2375  28.2376
    30.4416  30.4416  31.4922  31.4922  31.9749  31.9749  32.7555  32.7555
    34.4584  34.4584  35.4957  35.4957  35.7653  35.7653  36.4934  36.4934
    36.9275  36.9275  37.2362  37.2362  37.3513  37.3513  38.0933  38.0933
    38.9833  38.9833  39.0374  39.0375  40.2409  40.2410  40.7033  40.7033
    40.9301  40.9302  41.0723  41.0724  41.7273  41.7274  43.0008  43.0014
    43.2587

          k =-0.4966-0.2867 0.0000 (  5904 PWs)   bands (ev):

   -76.0911 -76.0742 -76.0692 -76.0635 -67.4094 -67.4093 -67.3578 -67.3548
   -67.3530 -67.3337 -67.3103 -67.3009 -34.8094 -34.8074 -34.7867 -34.7842
   -34.7840 -34.7783 -34.7698 -34.7638 -34.7628 -34.7601 -34.7411 -34.7388
   -30.0596 -29.9775 -29.8446 -29.8195 -29.6861 -29.5596 -29.5374 -29.5281
   -29.4930 -29.4737 -29.4156 -29.3726 -29.3583 -29.3554 -29.3455 -29.3239
   -29.2952 -29.2473 -29.2086 -29.1803 -29.1703 -29.1676 -29.1497 -29.0996
    13.5084  13.6043  13.6380  13.6647  13.7051  13.7364  13.7422  13.8070
    13.8244  13.8513  13.8711  13.8907  13.9313  13.9846  14.0596  14.1406
    14.1655  14.1730  14.1893  14.1947  14.2388  14.4233  14.6950  14.9307
    15.0621  15.3685  15.4231  15.4488  15.5901  15.8032  15.8601  16.3884
    16.4419  16.4592  16.4955  16.5432  16.7572  16.7779  16.7849  16.8766
    16.9643  17.0575  17.1977  17.2297  17.3171  17.3361  17.5907  17.7638
    17.9875  17.9932  18.0817  18.1198  18.1361  18.2060  18.2609  18.3531
    18.4290  18.4302  19.1936  19.5100  19.6271  19.7976  22.1081  23.0568
    23.0629  23.2921  24.8875  25.5450  26.4636  27.7729  27.8801  29.2963
    30.3109  30.4352  31.6822  31.8690  33.0346  33.6565  34.0000  34.0779
    34.2259  34.4486  35.0125  35.3691  35.5283  36.0345  36.0956  36.3013
    36.4393  36.5095  36.6638  36.7105  36.7180  37.0854  37.8036  38.8237
    38.8251  39.9426  39.9943  40.1925  40.4266  40.5852  40.8314  41.3721
    41.5229  41.6262  41.8415  42.0328  42.0533  42.2952  42.4716  42.5876
    42.8373

          k =-0.4966-0.2867 0.1555 (  5892 PWs)   bands (ev):

   -76.0800 -76.0783 -76.0621 -76.0563 -67.3939 -67.3926 -67.3599 -67.3557
   -67.3468 -67.3416 -67.3106 -67.2943 -34.8048 -34.8042 -34.7847 -34.7822
   -34.7750 -34.7745 -34.7712 -34.7686 -34.7539 -34.7538 -34.7460 -34.7379
   -30.0502 -29.9956 -29.8415 -29.8203 -29.6522 -29.5548 -29.5434 -29.5140
   -29.5125 -29.4811 -29.4375 -29.3946 -29.3684 -29.3675 -29.3114 -29.2872
   -29.2796 -29.2138 -29.1951 -29.1859 -29.1699 -29.1574 -29.1501 -29.1229
    13.5497  13.5559  13.6692  13.6804  13.7032  13.7175  13.7315  13.7598
    13.7710  13.8550  13.8789  13.9277  13.9527  14.0356  14.0952  14.1153
    14.1743  14.1799  14.1931  14.2100  14.2405  14.3118  14.7927  14.9456
    15.0456  15.2610  15.3937  15.4560  15.6330  15.7812  16.0039  16.3071
    16.4013  16.4762  16.4940  16.5265  16.6146  16.6858  16.7027  16.8196
    17.0363  17.1140  17.2158  17.3198  17.4612  17.5312  17.6118  17.8117
    17.9410  17.9813  18.0542  18.0832  18.1654  18.1655  18.3048  18.3249
    18.3773  18.4394  19.2415  19.4674  19.8859  19.8922  21.2124  21.6530
    24.4809  24.6316  25.1370  25.7212  26.0035  27.0792  28.2527  28.6665
    29.5018  30.2563  32.0338  32.1052  32.9875  33.4445  34.1478  34.2760
    34.5354  34.6679  34.7204  35.0980  35.6260  35.8096  35.9092  36.3954
    36.8124  36.9552  36.9580  37.2456  37.3465  37.9119  37.9407  38.3363
    38.6196  39.0610  39.6690  39.7708  40.2717  40.4965  40.7035  41.0198
    41.1078  41.1631  41.3335  42.0207  42.0923  42.3753  42.5430  42.6260
    42.6558

          k =-0.4966-0.2867-0.3110 (  5876 PWs)   bands (ev):

   -76.0701 -76.0700 -76.0538 -76.0537 -67.3955 -67.3955 -67.3451 -67.3451
   -67.3357 -67.3357 -67.2995 -67.2995 -34.7999 -34.7998 -34.7770 -34.7770
   -34.7680 -34.7680 -34.7662 -34.7661 -34.7545 -34.7545 -34.7433 -34.7433
   -30.0213 -30.0213 -29.8266 -29.8266 -29.5901 -29.5901 -29.5501 -29.5501
   -29.4768 -29.4768 -29.4255 -29.4255 -29.3755 -29.3755 -29.2950 -29.2950
   -29.2155 -29.2154 -29.1751 -29.1751 -29.1736 -29.1736 -29.1393 -29.1393
    13.5829  13.5829  13.6254  13.6254  13.7139  13.7139  13.7218  13.7218
    13.8353  13.8353  13.9334  13.9334  14.0132  14.0133  14.0812  14.0813
    14.1713  14.1713  14.1833  14.1833  14.2884  14.2885  14.9852  14.9852
    15.0058  15.0058  15.4413  15.4413  15.7222  15.7222  16.1508  16.1508
    16.4501  16.4501  16.4558  16.4559  16.6400  16.6400  16.6941  16.6941
    17.1507  17.1507  17.2370  17.2370  17.6246  17.6246  17.8180  17.8180
    17.8864  17.8864  18.0524  18.0524  18.2273  18.2273  18.2436  18.2436
    18.4082  18.4082  19.3575  19.3575  20.3106  20.3107  20.5891  20.5891
    25.2223  25.2223  26.2474  26.2474  26.4846  26.4846  26.8653  26.8654
    30.4166  30.4166  31.8638  31.8638  32.7004  32.7004  34.4545  34.4545
    34.7000  34.7000  35.3065  35.3065  35.8555  35.8555  36.4940  36.4940
    37.0644  37.0644  37.2677  37.2677  37.5710  37.5710  38.1780  38.1781
    39.2541  39.2541  39.2589  39.2589  39.9874  39.9874  40.0580  40.0581
    41.1060  41.1060  41.4111  41.4112  42.2220  42.2222  42.4477  42.4478
    42.7710

          k =-0.4966 0.0956 0.0000 (  5909 PWs)   bands (ev):

   -76.0914 -76.0771 -76.0719 -76.0656 -67.4111 -67.4043 -67.3708 -67.3548
   -67.3420 -67.3413 -67.3161 -67.3015 -34.8092 -34.8080 -34.7911 -34.7896
   -34.7837 -34.7787 -34.7726 -34.7615 -34.7581 -34.7562 -34.7445 -34.7441
   -30.0561 -29.9804 -29.8463 -29.8325 -29.6921 -29.5504 -29.5286 -29.5252
   -29.5062 -29.4709 -29.4053 -29.3724 -29.3664 -29.3596 -29.3565 -29.2975
   -29.2750 -29.2392 -29.2152 -29.1948 -29.1840 -29.1812 -29.1341 -29.1196
    13.5307  13.5851  13.6525  13.6897  13.7012  13.7456  13.7500  13.7975
    13.8363  13.8385  13.9015  13.9086  13.9248  13.9744  14.0094  14.0724
    14.1453  14.1552  14.2088  14.2833  14.3407  14.5765  14.7023  14.9219
    15.0020  15.1126  15.2570  15.4445  15.6061  15.7635  16.0619  16.1360
    16.1943  16.3977  16.5488  16.5875  16.6106  16.8469  16.8876  16.9770
    17.1059  17.1564  17.2085  17.2119  17.3443  17.5552  17.5962  17.7085
    17.9487  17.9741  18.0371  18.0615  18.1422  18.2670  18.2917  18.3683
    18.5081  18.6262  19.0619  19.1983  19.2382  20.9474  21.9525  22.6128
    22.7792  23.8810  24.2829  25.3886  25.8592  27.7517  29.7746  29.8452
    30.3796  30.6316  31.2124  32.3144  32.4481  32.6500  32.9251  33.4223
    33.8691  34.0863  34.9437  35.5469  35.6497  35.8226  36.3056  36.3981
    36.8842  36.9184  37.1854  37.5046  37.5449  37.9677  38.1257  39.0115
    39.4348  39.5079  39.5899  39.6761  39.8941  40.4892  40.5884  41.0095
    41.0943  41.4882  41.7343  41.8610  42.1048  42.1154  42.4284  42.4564
    43.0052

          k =-0.4966 0.0956 0.1555 (  5907 PWs)   bands (ev):

   -76.0883 -76.0781 -76.0708 -76.0659 -67.4080 -67.4009 -67.3642 -67.3545
   -67.3502 -67.3429 -67.3125 -67.3039 -34.8079 -34.8046 -34.7901 -34.7890
   -34.7829 -34.7816 -34.7714 -34.7680 -34.7559 -34.7517 -34.7457 -34.7436
   -30.0477 -29.9974 -29.8448 -29.8348 -29.6689 -29.5481 -29.5372 -29.5250
   -29.5097 -29.4888 -29.4299 -29.4067 -29.3676 -29.3609 -29.3071 -29.2906
   -29.2601 -29.2203 -29.2015 -29.1951 -29.1826 -29.1818 -29.1474 -29.1268
    13.5562  13.5725  13.6464  13.6789  13.7123  13.7211  13.7485  13.7893
    13.8218  13.8454  13.9124  13.9192  13.9303  13.9689  14.0396  14.0878
    14.1187  14.1419  14.2757  14.2937  14.3267  14.4261  14.8257  14.8938
    15.0195  15.1940  15.3024  15.3922  15.5708  15.6245  16.1281  16.1542
    16.1962  16.3355  16.4846  16.5303  16.6686  16.8231  16.8413  16.9168
    17.0653  17.1661  17.2334  17.3852  17.4971  17.5587  17.6599  17.7138
    17.9428  17.9698  18.0774  18.0890  18.1609  18.2385  18.2961  18.3512
    18.4494  18.5583  19.1108  19.2343  19.3695  20.8805  21.1074  22.4908
    23.0520  24.0480  24.4554  25.7575  27.1217  27.8661  28.2916  29.2834
    29.6341  30.5924  30.9989  31.6134  32.0818  33.1943  33.9211  34.2473
    34.5324  34.6716  35.1922  35.2736  35.7269  35.9129  36.1419  36.2424
    36.8563  37.0560  37.2460  37.3568  37.8388  37.9707  38.3917  38.8246
    38.9931  39.2009  39.5589  39.7611  39.8356  40.1671  40.1933  40.3225
    41.1246  41.2877  41.6624  41.7231  41.9638  42.2318  42.3474  42.4484
    42.6363

          k =-0.4966 0.0956-0.3110 (  5904 PWs)   bands (ev):

   -76.0814 -76.0813 -76.0673 -76.0672 -67.4038 -67.4038 -67.3584 -67.3584
   -67.3467 -67.3467 -67.3053 -67.3053 -34.8017 -34.8016 -34.7882 -34.7882
   -34.7834 -34.7834 -34.7701 -34.7700 -34.7570 -34.7570 -34.7419 -34.7419
   -30.0248 -30.0248 -29.8361 -29.8361 -29.6040 -29.6040 -29.5434 -29.5434
   -29.4763 -29.4763 -29.4458 -29.4458 -29.3671 -29.3671 -29.2893 -29.2892
   -29.2236 -29.2235 -29.1924 -29.1924 -29.1738 -29.1738 -29.1560 -29.1560
    13.5880  13.5880  13.6413  13.6414  13.6731  13.6731  13.7998  13.7998
    13.8357  13.8358  13.9398  13.9399  13.9682  13.9683  14.0222  14.0223
    14.1424  14.1424  14.2970  14.2970  14.3389  14.3389  14.8822  14.8822
    15.1500  15.1500  15.3708  15.3709  15.5082  15.5082  16.1384  16.1385
    16.2279  16.2279  16.4934  16.4935  16.7776  16.7776  16.8339  16.8339
    17.1129  17.1129  17.3267  17.3268  17.6190  17.6190  17.7725  17.7725
    17.9253  17.9253  18.1101  18.1101  18.1987  18.1987  18.2990  18.2990
    18.4648  18.4648  19.1927  19.1928  19.9076  19.9076  21.6223  21.6223
    23.4811  23.4811  26.1023  26.1023  27.5780  27.5780  28.3678  28.3678
    29.1831  29.1831  31.0399  31.0400  33.2285  33.2285  34.0193  34.0193
    35.0295  35.0295  35.6948  35.6948  36.0494  36.0494  36.5018  36.5018
    37.0507  37.0507  37.3329  37.3329  37.6010  37.6010  38.3138  38.3138
    38.5406  38.5406  39.5783  39.5783  40.0066  40.0066  40.1697  40.1697
    41.1896  41.1897  41.4102  41.4102  41.9791  41.9792  42.3096  42.3096
    42.9517

     the Fermi energy is    35.8423 ev

!    total energy              =   -4098.22169203 Ry
     Harris-Foulkes estimate   =   -4098.22170265 Ry
     estimated scf accuracy    <       0.00001308 Ry

     The total energy is the sum of the following terms:

     one-electron contribution =    -864.51646796 Ry
     hartree contribution      =     641.94752175 Ry
     xc contribution           =    -347.91360235 Ry
     ewald contribution        =   -3527.28578197 Ry
     smearing contrib. (-TS)   =      -0.45336151 Ry

     convergence has been achieved in  11 iterations

     Forces acting on atoms (Ry/au):

     atom    1 type  1   force =     0.00000000    0.00000000    0.04381665
     atom    2 type  1   force =     0.00000000    0.00000000    0.04381665
     atom    3 type  1   force =     0.00000000    0.00000000   -0.04381665
     atom    4 type  1   force =     0.00000000    0.00000000   -0.04381665
     atom    5 type  2   force =     0.00000000    0.00000000    0.00000000
     atom    6 type  2   force =     0.00000000    0.00000000    0.00000000
     atom    7 type  2   force =     0.00000000   -0.01173658    0.00000000
     atom    8 type  2   force =     0.01016417   -0.00586829    0.00000000
     atom    9 type  2   force =    -0.01016417   -0.00586829    0.00000000
     atom   10 type  2   force =     0.01016417    0.00586829    0.00000000
     atom   11 type  2   force =    -0.01016417    0.00586829    0.00000000
     atom   12 type  2   force =     0.00000000    0.01173658    0.00000000

     Total force =     0.092228     Total SCF correction =     0.000000


     entering subroutine stress ...

          total   stress  (Ry/bohr**3)                   (kbar)     P= 1160.15
   0.00794477   0.00000000   0.00000000       1168.72      0.00      0.00
   0.00000000   0.00794477   0.00000000          0.00   1168.72      0.00
   0.00000000   0.00000000   0.00777015          0.00      0.00   1143.03


     Writing output data file Prototype-La-hP12-MgZn2.save
 
     init_run     :      6.99s CPU      8.48s WALL (       2 calls)
     electrons    :   2287.12s CPU   3006.49s WALL (       5 calls)
     update_pot   :      4.04s CPU      5.97s WALL (       3 calls)
     forces       :      8.46s CPU     10.46s WALL (       5 calls)
     stress       :     24.79s CPU     29.98s WALL (       5 calls)

     Called by init_run:
     wfcinit      :      5.93s CPU      7.40s WALL (       2 calls)
     potinit      :      0.48s CPU      0.49s WALL (       2 calls)

     Called by electrons:
     c_bands      :   2225.88s CPU   2902.06s WALL (      41 calls)
     sum_band     :     59.54s CPU     90.72s WALL (      41 calls)
     v_of_rho     :      0.15s CPU      0.24s WALL (      46 calls)
     mix_rho      :      0.11s CPU      0.14s WALL (      41 calls)

     Called by c_bands:
     init_us_2    :      1.80s CPU      2.30s WALL (    1128 calls)
     ccgdiagg     :   2035.41s CPU   2628.68s WALL (     590 calls)
     wfcrot       :    194.35s CPU    276.91s WALL (     602 calls)

     Called by *cgdiagg:
     h_psi        :   1335.94s CPU   1814.94s WALL (  490796 calls)
     cdiaghg      :     11.03s CPU     14.69s WALL (     602 calls)

     Called by h_psi:
     add_vuspsi   :    209.81s CPU    237.45s WALL (  490796 calls)

     General routines
     calbec       :    601.55s CPU    746.80s WALL (  981110 calls)
     fft          :      0.32s CPU      0.48s WALL (     207 calls)
     fftw         :    771.94s CPU   1118.24s WALL ( 1253444 calls)
     davcio       :      1.38s CPU      3.64s WALL (    1620 calls)
 
     Parallel routines
     fft_scatter  :    454.43s CPU    694.95s WALL ( 1253651 calls)
 
     PWSCF        : 38m52.14s CPU    51m 5.31s WALL

 
   This run was terminated on:  22:23:33  22Mar2018            

=------------------------------------------------------------------------------=
   JOB DONE.
=------------------------------------------------------------------------------=
