
     Program PWSCF v.5.0.2 starts on 22Mar2018 at  0:35:23 

     This program is part of the open-source Quantum ESPRESSO suite
     for quantum simulation of materials; please cite
         "P. Giannozzi et al., J. Phys.:Condens. Matter 21 395502 (2009);
          URL http://www.quantum-espresso.org", 
     in publications or presentations arising from this work. More details at
     http://www.quantum-espresso.org/quote.php

     Parallel version (MPI), running on     4 processors
     R & G space division:  proc/nbgrp/npool/nimage =       4

     Current dimensions of program PWSCF are:
     Max number of different atomic species (ntypx) = 10
     Max number of k-points (npk) =  40000
     Max angular momentum in pseudopotentials (lmaxx) =  3
     Waiting for input...
     Reading input from standard input

     Subspace diagonalization in iterative solution of the eigenvalue problem:
     a serial algorithm will be used

 
     Parallelization info
     --------------------
     sticks:   dense  smooth     PW     G-vecs:    dense   smooth      PW
     Min         238     238     75                 4969     4969     869
     Max         239     239     76                 4974     4974     872
     Sum         955     955    301                19891    19891    3479
 


     bravais-lattice index     =            0
     lattice parameter (alat)  =       9.3790  a.u.
     unit-cell volume          =     583.3913 (a.u.)^3
     number of atoms/cell      =            6
     number of atomic types    =            2
     number of electrons       =       108.00
     number of Kohn-Sham states=           65
     kinetic-energy cutoff     =      40.0000  Ry
     charge density cutoff     =     160.0000  Ry
     convergence threshold     =      1.0E-04
     mixing beta               =       0.7000
     number of iterations used =            8  plain     mixing
     Exchange-correlation      = SLA-PZ-NOGX-NOGC ( 1 1 0 0 0)
     EXX-fraction              =        0.00
     nstep                     =           50


     celldm(1)=   9.379038  celldm(2)=   0.000000  celldm(3)=   0.000000
     celldm(4)=   0.000000  celldm(5)=   0.000000  celldm(6)=   0.000000

     crystal axes: (cart. coord. in units of alat)
               a(1) = (   1.000000   0.000000   0.000000 )  
               a(2) = (   0.500000   0.866025   0.000000 )  
               a(3) = (   0.500000   0.288675   0.816497 )  

     reciprocal axes: (cart. coord. in units 2 pi/alat)
               b(1) = (  1.000000 -0.577350 -0.408248 )  
               b(2) = (  0.000000  1.154701 -0.408248 )  
               b(3) = (  0.000000  0.000000  1.224745 )  


     PseudoPot. # 1 for Ce read from file:
     /home/jld5415/pp.La/Ce.UPF
     MD5 check sum: 44451aa79a44a00cf2bc029dc19922f6
     Pseudo is Norm-conserving, Zval = 12.0
     Generated in analytical, separable form
     Using radial grid of 1255 points,  6 beta functions with: 
                l(1) =   0
                l(2) =   0
                l(3) =   1
                l(4) =   1
                l(5) =   2
                l(6) =   3

     PseudoPot. # 2 for Ho read from file:
     /home/jld5415/pp.La/Ho.UPF
     MD5 check sum: f307ee11bce99f5b724fa279e3790763
     Pseudo is Norm-conserving, Zval = 21.0
     Generated in analytical, separable form
     Using radial grid of 1265 points,  6 beta functions with: 
                l(1) =   0
                l(2) =   0
                l(3) =   1
                l(4) =   1
                l(5) =   2
                l(6) =   3

     atomic species   valence    mass     pseudopotential
        Mg            12.00    24.30500     Ce( 1.00)
        Cu            21.00    63.54600     Ho( 1.00)

     12 Sym. Ops., with inversion, found ( 6 have fractional translation)



   Cartesian axes

     site n.     atom                  positions (alat units)
         1           Mg  tau(   1) = (   1.5000000   0.8660254   0.6123724  )
         2           Mg  tau(   2) = (   1.0000000   0.5773503   0.4082483  )
         3           Cu  tau(   3) = (   0.2500000   0.1443376   0.1020621  )
         4           Cu  tau(   4) = (   0.7500000   0.1443376   0.1020621  )
         5           Cu  tau(   5) = (   0.5000000   0.5773503   0.1020621  )
         6           Cu  tau(   6) = (   0.5000000   0.2886751   0.5103104  )

     number of k points=   170  gaussian smearing, width (Ry)=  0.1000

     Number of k-points >= 100: set verbosity='high' to print them.

     Dense  grid:    19891 G-vectors     FFT dimensions: (  40,  40,  40)

     Largest allocated arrays     est. size (Mb)     dimensions
        Kohn-Sham Wavefunctions         0.64 Mb     (    644,   65)
        NL pseudopotentials             1.18 Mb     (    644,  120)
        Each V/rho on FFT grid          0.24 Mb     (  16000)
        Each G-vector array             0.04 Mb     (   4969)
        G-vector shells                 0.04 Mb     (   4969)
     Largest temporary arrays     est. size (Mb)     dimensions
        Each subspace H/S matrix        0.06 Mb     (  65,  65)
        Each <psi_i|beta_j> matrix      0.12 Mb     (    120,   65)
        Arrays for rho mixing           1.95 Mb     (  16000,   8)

     Initial potential from superposition of free atoms

     Starting from uniform charge
     Starting wfc are    0 randomized atomic wfcs

     total cpu time spent up to now is        9.4 secs

     Self-consistent Calculation

     iteration #  1     ecut=    40.00 Ry     beta=0.70
     CG style diagonalization
     c_bands:  1 eigenvalues not converged
     c_bands:  1 eigenvalues not converged
     c_bands:  1 eigenvalues not converged
     c_bands:  1 eigenvalues not converged
     c_bands:  1 eigenvalues not converged
     c_bands:  1 eigenvalues not converged
     c_bands:  1 eigenvalues not converged
     c_bands:  1 eigenvalues not converged
     c_bands:  1 eigenvalues not converged
     c_bands:  1 eigenvalues not converged
     c_bands:  1 eigenvalues not converged
     c_bands:  1 eigenvalues not converged
     c_bands:  1 eigenvalues not converged
     c_bands:  1 eigenvalues not converged
     c_bands:  1 eigenvalues not converged
     c_bands:  1 eigenvalues not converged
     c_bands:  1 eigenvalues not converged
     c_bands:  1 eigenvalues not converged
     c_bands:  1 eigenvalues not converged
     c_bands:  1 eigenvalues not converged
     c_bands:  1 eigenvalues not converged
     ethr =  1.00E-02,  avg # of iterations = 21.3

     total cpu time spent up to now is      222.1 secs

     total energy              =    -947.30752539 Ry
     Harris-Foulkes estimate   =   -1790.75392193 Ry
     estimated scf accuracy    <    1016.44482101 Ry

     iteration #  2     ecut=    40.00 Ry     beta=0.70
     CG style diagonalization
     c_bands:  2 eigenvalues not converged
     c_bands:  4 eigenvalues not converged
     c_bands:  5 eigenvalues not converged
     c_bands:  1 eigenvalues not converged
     c_bands:  1 eigenvalues not converged
     c_bands:  3 eigenvalues not converged
     c_bands:  1 eigenvalues not converged
     c_bands:  4 eigenvalues not converged
     c_bands:  3 eigenvalues not converged
     c_bands:  2 eigenvalues not converged
     c_bands:  3 eigenvalues not converged
     c_bands:  4 eigenvalues not converged
     c_bands:  3 eigenvalues not converged
     c_bands:  2 eigenvalues not converged
     c_bands:  1 eigenvalues not converged
     c_bands:  3 eigenvalues not converged
     c_bands:  2 eigenvalues not converged
     c_bands:  4 eigenvalues not converged
     c_bands:  1 eigenvalues not converged
     c_bands:  1 eigenvalues not converged
     c_bands:  3 eigenvalues not converged
     c_bands:  3 eigenvalues not converged
     c_bands:  4 eigenvalues not converged
     c_bands:  4 eigenvalues not converged
     c_bands:  3 eigenvalues not converged
     c_bands:  1 eigenvalues not converged
     c_bands:  4 eigenvalues not converged
     c_bands:  5 eigenvalues not converged
     c_bands:  2 eigenvalues not converged
     c_bands:  5 eigenvalues not converged
     c_bands:  5 eigenvalues not converged
     c_bands:  3 eigenvalues not converged
     c_bands:  2 eigenvalues not converged
     c_bands:  2 eigenvalues not converged
     c_bands:  3 eigenvalues not converged
     c_bands:  4 eigenvalues not converged
     c_bands:  5 eigenvalues not converged
     c_bands:  4 eigenvalues not converged
     c_bands:  2 eigenvalues not converged
     c_bands:  1 eigenvalues not converged
     c_bands:  3 eigenvalues not converged
     c_bands:  2 eigenvalues not converged
     c_bands:  5 eigenvalues not converged
     c_bands:  4 eigenvalues not converged
     c_bands:  1 eigenvalues not converged
     c_bands:  1 eigenvalues not converged
     c_bands:  1 eigenvalues not converged
     c_bands:  3 eigenvalues not converged
     c_bands:  1 eigenvalues not converged
     c_bands:  1 eigenvalues not converged
     c_bands:  4 eigenvalues not converged
     c_bands:  1 eigenvalues not converged
     c_bands:  1 eigenvalues not converged
     c_bands:  4 eigenvalues not converged
     c_bands:  1 eigenvalues not converged
     c_bands:  2 eigenvalues not converged
     c_bands:  1 eigenvalues not converged
     c_bands:  1 eigenvalues not converged
     c_bands:  3 eigenvalues not converged
     c_bands:  5 eigenvalues not converged
     c_bands:  1 eigenvalues not converged
     c_bands:  1 eigenvalues not converged
     c_bands:  4 eigenvalues not converged
     c_bands:  2 eigenvalues not converged
     c_bands:  1 eigenvalues not converged
     c_bands:  4 eigenvalues not converged
     c_bands:  2 eigenvalues not converged
     c_bands:  1 eigenvalues not converged
     c_bands:  2 eigenvalues not converged
     c_bands:  1 eigenvalues not converged
     c_bands:  2 eigenvalues not converged
     c_bands:  4 eigenvalues not converged
     c_bands:  5 eigenvalues not converged
     c_bands:  5 eigenvalues not converged
     c_bands:  5 eigenvalues not converged
     c_bands:  1 eigenvalues not converged
     c_bands:  1 eigenvalues not converged
     c_bands:  4 eigenvalues not converged
     c_bands:  2 eigenvalues not converged
     c_bands:  1 eigenvalues not converged
     c_bands:  2 eigenvalues not converged
     c_bands:  1 eigenvalues not converged
     c_bands:  1 eigenvalues not converged
     c_bands:  2 eigenvalues not converged
     c_bands:  1 eigenvalues not converged
     c_bands:  1 eigenvalues not converged
     c_bands:  1 eigenvalues not converged
     c_bands:  2 eigenvalues not converged
     c_bands:  2 eigenvalues not converged
     c_bands:  2 eigenvalues not converged
     c_bands:  4 eigenvalues not converged
     c_bands:  3 eigenvalues not converged
     c_bands:  5 eigenvalues not converged
     c_bands:  1 eigenvalues not converged
     c_bands:  1 eigenvalues not converged
     c_bands:  3 eigenvalues not converged
     c_bands:  2 eigenvalues not converged
     c_bands:  1 eigenvalues not converged
     c_bands:  4 eigenvalues not converged
     c_bands:  1 eigenvalues not converged
     c_bands:  2 eigenvalues not converged
     c_bands:  3 eigenvalues not converged
     c_bands:  3 eigenvalues not converged
     c_bands:  1 eigenvalues not converged
     c_bands:  1 eigenvalues not converged
     c_bands:  1 eigenvalues not converged
     c_bands:  1 eigenvalues not converged
     c_bands:  3 eigenvalues not converged
     c_bands:  1 eigenvalues not converged
     c_bands:  2 eigenvalues not converged
     c_bands:  1 eigenvalues not converged
     c_bands:  4 eigenvalues not converged
     c_bands:  3 eigenvalues not converged
     c_bands:  2 eigenvalues not converged
     ethr =  1.00E-02,  avg # of iterations = 14.3

     total cpu time spent up to now is      366.3 secs

     total energy              =    -967.21076506 Ry
     Harris-Foulkes estimate   =   -1612.50408511 Ry
     estimated scf accuracy    <    1246.79203903 Ry

     iteration #  3     ecut=    40.00 Ry     beta=0.70
     CG style diagonalization
     c_bands:  2 eigenvalues not converged
     c_bands:  1 eigenvalues not converged
     c_bands:  1 eigenvalues not converged
     c_bands:  2 eigenvalues not converged
     c_bands:  3 eigenvalues not converged
     c_bands:  1 eigenvalues not converged
     c_bands:  1 eigenvalues not converged
     c_bands:  2 eigenvalues not converged
     c_bands:  2 eigenvalues not converged
     c_bands:  1 eigenvalues not converged
     c_bands:  4 eigenvalues not converged
     c_bands:  1 eigenvalues not converged
     c_bands:  4 eigenvalues not converged
     c_bands:  1 eigenvalues not converged
     c_bands:  1 eigenvalues not converged
     c_bands:  1 eigenvalues not converged
     c_bands:  1 eigenvalues not converged
     c_bands:  1 eigenvalues not converged
     c_bands:  1 eigenvalues not converged
     c_bands:  1 eigenvalues not converged
     c_bands:  2 eigenvalues not converged
     c_bands:  3 eigenvalues not converged
     c_bands:  3 eigenvalues not converged
     c_bands:  1 eigenvalues not converged
     c_bands:  2 eigenvalues not converged
     c_bands:  1 eigenvalues not converged
     c_bands:  1 eigenvalues not converged
     c_bands:  1 eigenvalues not converged
     c_bands:  1 eigenvalues not converged
     c_bands:  1 eigenvalues not converged
     c_bands:  1 eigenvalues not converged
     c_bands:  1 eigenvalues not converged
     c_bands:  1 eigenvalues not converged
     c_bands:  1 eigenvalues not converged
     c_bands:  2 eigenvalues not converged
     c_bands:  3 eigenvalues not converged
     c_bands:  3 eigenvalues not converged
     c_bands:  2 eigenvalues not converged
     c_bands:  1 eigenvalues not converged
     c_bands:  1 eigenvalues not converged
     c_bands:  1 eigenvalues not converged
     c_bands:  2 eigenvalues not converged
     c_bands:  1 eigenvalues not converged
     c_bands:  1 eigenvalues not converged
     c_bands:  1 eigenvalues not converged
     c_bands:  1 eigenvalues not converged
     c_bands:  1 eigenvalues not converged
     c_bands:  2 eigenvalues not converged
     c_bands:  1 eigenvalues not converged
     c_bands:  1 eigenvalues not converged
     c_bands:  1 eigenvalues not converged
     c_bands:  1 eigenvalues not converged
     c_bands:  2 eigenvalues not converged
     c_bands:  1 eigenvalues not converged
     c_bands:  4 eigenvalues not converged
     c_bands:  1 eigenvalues not converged
     c_bands:  1 eigenvalues not converged
     c_bands:  2 eigenvalues not converged
     c_bands:  2 eigenvalues not converged
     c_bands:  1 eigenvalues not converged
     c_bands:  1 eigenvalues not converged
     c_bands:  1 eigenvalues not converged
     c_bands:  1 eigenvalues not converged
     c_bands:  1 eigenvalues not converged
     c_bands:  1 eigenvalues not converged
     c_bands:  1 eigenvalues not converged
     c_bands:  1 eigenvalues not converged
     c_bands:  1 eigenvalues not converged
     c_bands:  2 eigenvalues not converged
     c_bands:  1 eigenvalues not converged
     c_bands:  1 eigenvalues not converged
     c_bands:  2 eigenvalues not converged
     c_bands:  1 eigenvalues not converged
     c_bands:  2 eigenvalues not converged
     c_bands:  3 eigenvalues not converged
     c_bands:  2 eigenvalues not converged
     c_bands:  2 eigenvalues not converged
     c_bands:  1 eigenvalues not converged
     c_bands:  5 eigenvalues not converged
     c_bands:  1 eigenvalues not converged
     c_bands:  1 eigenvalues not converged
     c_bands:  1 eigenvalues not converged
     c_bands:  2 eigenvalues not converged
     c_bands:  1 eigenvalues not converged
     c_bands:  1 eigenvalues not converged
     c_bands:  3 eigenvalues not converged
     c_bands:  1 eigenvalues not converged
     c_bands:  1 eigenvalues not converged
     c_bands:  1 eigenvalues not converged
     c_bands:  2 eigenvalues not converged
     c_bands:  1 eigenvalues not converged
     ethr =  1.00E-02,  avg # of iterations = 12.3

     total cpu time spent up to now is      493.3 secs

     total energy              =   -1312.51267394 Ry
     Harris-Foulkes estimate   =   -1371.88892755 Ry
     estimated scf accuracy    <     160.23574249 Ry

     iteration #  4     ecut=    40.00 Ry     beta=0.70
     CG style diagonalization
     ethr =  1.00E-02,  avg # of iterations =  5.3

     total cpu time spent up to now is      547.3 secs

     total energy              =   -1325.88675291 Ry
     Harris-Foulkes estimate   =   -1329.89221978 Ry
     estimated scf accuracy    <      12.57754801 Ry

     iteration #  5     ecut=    40.00 Ry     beta=0.70
     CG style diagonalization
     ethr =  1.00E-02,  avg # of iterations =  3.1

     total cpu time spent up to now is      578.6 secs

     total energy              =   -1323.74999032 Ry
     Harris-Foulkes estimate   =   -1326.52453425 Ry
     estimated scf accuracy    <       5.20158719 Ry

     iteration #  6     ecut=    40.00 Ry     beta=0.70
     CG style diagonalization
     ethr =  4.82E-03,  avg # of iterations =  4.0

     total cpu time spent up to now is      619.1 secs

     total energy              =   -1325.26562643 Ry
     Harris-Foulkes estimate   =   -1325.31339870 Ry
     estimated scf accuracy    <       0.08961882 Ry

     iteration #  7     ecut=    40.00 Ry     beta=0.70
     CG style diagonalization
     c_bands:  2 eigenvalues not converged
     c_bands:  5 eigenvalues not converged
     c_bands:  1 eigenvalues not converged
     c_bands:  1 eigenvalues not converged
     c_bands:  3 eigenvalues not converged
     c_bands:  3 eigenvalues not converged
     c_bands:  4 eigenvalues not converged
     c_bands:  1 eigenvalues not converged
     c_bands:  3 eigenvalues not converged
     c_bands:  3 eigenvalues not converged
     c_bands:  2 eigenvalues not converged
     c_bands:  1 eigenvalues not converged
     c_bands:  5 eigenvalues not converged
     c_bands:  1 eigenvalues not converged
     c_bands:  1 eigenvalues not converged
     c_bands:  2 eigenvalues not converged
     c_bands:  2 eigenvalues not converged
     c_bands:  1 eigenvalues not converged
     c_bands:  1 eigenvalues not converged
     c_bands:  2 eigenvalues not converged
     c_bands:  1 eigenvalues not converged
     c_bands:  1 eigenvalues not converged
     c_bands:  2 eigenvalues not converged
     c_bands:  1 eigenvalues not converged
     c_bands:  3 eigenvalues not converged
     c_bands:  5 eigenvalues not converged
     c_bands:  4 eigenvalues not converged
     c_bands:  5 eigenvalues not converged
     c_bands:  3 eigenvalues not converged
     c_bands:  2 eigenvalues not converged
     c_bands:  2 eigenvalues not converged
     c_bands:  5 eigenvalues not converged
     c_bands:  4 eigenvalues not converged
     c_bands:  4 eigenvalues not converged
     c_bands:  2 eigenvalues not converged
     c_bands:  1 eigenvalues not converged
     c_bands:  1 eigenvalues not converged
     c_bands:  1 eigenvalues not converged
     c_bands:  3 eigenvalues not converged
     c_bands:  1 eigenvalues not converged
     c_bands:  3 eigenvalues not converged
     c_bands:  3 eigenvalues not converged
     c_bands:  1 eigenvalues not converged
     c_bands:  1 eigenvalues not converged
     c_bands:  3 eigenvalues not converged
     c_bands:  1 eigenvalues not converged
     c_bands:  1 eigenvalues not converged
     c_bands:  1 eigenvalues not converged
     c_bands:  3 eigenvalues not converged
     c_bands:  2 eigenvalues not converged
     c_bands:  1 eigenvalues not converged
     c_bands:  2 eigenvalues not converged
     c_bands:  3 eigenvalues not converged
     c_bands:  2 eigenvalues not converged
     c_bands:  2 eigenvalues not converged
     c_bands:  2 eigenvalues not converged
     c_bands:  2 eigenvalues not converged
     c_bands:  3 eigenvalues not converged
     c_bands:  2 eigenvalues not converged
     c_bands:  1 eigenvalues not converged
     c_bands:  3 eigenvalues not converged
     c_bands:  1 eigenvalues not converged
     c_bands:  1 eigenvalues not converged
     c_bands:  2 eigenvalues not converged
     c_bands:  1 eigenvalues not converged
     c_bands:  2 eigenvalues not converged
     c_bands:  3 eigenvalues not converged
     c_bands:  1 eigenvalues not converged
     c_bands:  3 eigenvalues not converged
     c_bands:  3 eigenvalues not converged
     c_bands:  3 eigenvalues not converged
     c_bands:  2 eigenvalues not converged
     c_bands:  2 eigenvalues not converged
     c_bands:  1 eigenvalues not converged
     c_bands:  2 eigenvalues not converged
     c_bands:  3 eigenvalues not converged
     c_bands:  5 eigenvalues not converged
     c_bands:  1 eigenvalues not converged
     c_bands:  1 eigenvalues not converged
     c_bands:  2 eigenvalues not converged
     c_bands:  2 eigenvalues not converged
     c_bands:  1 eigenvalues not converged
     c_bands:  3 eigenvalues not converged
     c_bands:  3 eigenvalues not converged
     c_bands:  2 eigenvalues not converged
     c_bands:  2 eigenvalues not converged
     c_bands:  2 eigenvalues not converged
     c_bands:  3 eigenvalues not converged
     c_bands:  1 eigenvalues not converged
     c_bands:  1 eigenvalues not converged
     c_bands:  1 eigenvalues not converged
     c_bands:  2 eigenvalues not converged
     c_bands:  2 eigenvalues not converged
     c_bands:  1 eigenvalues not converged
     c_bands:  2 eigenvalues not converged
     c_bands:  1 eigenvalues not converged
     c_bands:  3 eigenvalues not converged
     c_bands:  1 eigenvalues not converged
     c_bands:  1 eigenvalues not converged
     c_bands:  1 eigenvalues not converged
     c_bands:  4 eigenvalues not converged
     c_bands:  3 eigenvalues not converged
     c_bands:  2 eigenvalues not converged
     c_bands:  2 eigenvalues not converged
     c_bands:  1 eigenvalues not converged
     c_bands:  3 eigenvalues not converged
     c_bands:  2 eigenvalues not converged
     c_bands:  2 eigenvalues not converged
     c_bands:  1 eigenvalues not converged
     c_bands:  1 eigenvalues not converged
     c_bands:  2 eigenvalues not converged
     c_bands:  3 eigenvalues not converged
     c_bands:  1 eigenvalues not converged
     c_bands:  1 eigenvalues not converged
     c_bands:  3 eigenvalues not converged
     c_bands:  1 eigenvalues not converged
     c_bands:  1 eigenvalues not converged
     c_bands:  1 eigenvalues not converged
     c_bands:  2 eigenvalues not converged
     c_bands:  1 eigenvalues not converged
     c_bands:  3 eigenvalues not converged
     c_bands:  3 eigenvalues not converged
     c_bands:  2 eigenvalues not converged
     c_bands:  1 eigenvalues not converged
     c_bands:  2 eigenvalues not converged
     c_bands:  2 eigenvalues not converged
     c_bands:  2 eigenvalues not converged
     c_bands:  4 eigenvalues not converged
     c_bands:  3 eigenvalues not converged
     c_bands:  2 eigenvalues not converged
     c_bands:  3 eigenvalues not converged
     c_bands:  5 eigenvalues not converged
     c_bands:  3 eigenvalues not converged
     c_bands:  1 eigenvalues not converged
     c_bands:  1 eigenvalues not converged
     c_bands:  3 eigenvalues not converged
     c_bands:  1 eigenvalues not converged
     c_bands:  3 eigenvalues not converged
     c_bands:  2 eigenvalues not converged
     c_bands:  2 eigenvalues not converged
     c_bands:  3 eigenvalues not converged
     c_bands:  1 eigenvalues not converged
     c_bands:  3 eigenvalues not converged
     c_bands:  1 eigenvalues not converged
     c_bands:  1 eigenvalues not converged
     c_bands:  3 eigenvalues not converged
     c_bands:  1 eigenvalues not converged
     c_bands:  1 eigenvalues not converged
     c_bands:  2 eigenvalues not converged
     ethr =  8.30E-05,  avg # of iterations =  6.1

     total cpu time spent up to now is      680.1 secs

     total energy              =   -1325.33903225 Ry
     Harris-Foulkes estimate   =   -1325.34319896 Ry
     estimated scf accuracy    <       0.00765618 Ry

     iteration #  8     ecut=    40.00 Ry     beta=0.70
     CG style diagonalization
     c_bands:  1 eigenvalues not converged
     c_bands:  1 eigenvalues not converged
     c_bands:  1 eigenvalues not converged
     c_bands:  1 eigenvalues not converged
     c_bands:  1 eigenvalues not converged
     c_bands:  1 eigenvalues not converged
     c_bands:  1 eigenvalues not converged
     c_bands:  1 eigenvalues not converged
     c_bands:  1 eigenvalues not converged
     c_bands:  2 eigenvalues not converged
     c_bands:  1 eigenvalues not converged
     c_bands:  1 eigenvalues not converged
     c_bands:  1 eigenvalues not converged
     c_bands:  1 eigenvalues not converged
     c_bands:  1 eigenvalues not converged
     c_bands:  1 eigenvalues not converged
     c_bands:  1 eigenvalues not converged
     c_bands:  1 eigenvalues not converged
     c_bands:  2 eigenvalues not converged
     c_bands:  1 eigenvalues not converged
     c_bands:  1 eigenvalues not converged
     c_bands:  1 eigenvalues not converged
     c_bands:  3 eigenvalues not converged
     c_bands:  1 eigenvalues not converged
     c_bands:  1 eigenvalues not converged
     c_bands:  1 eigenvalues not converged
     c_bands:  1 eigenvalues not converged
     c_bands:  1 eigenvalues not converged
     c_bands:  2 eigenvalues not converged
     c_bands:  1 eigenvalues not converged
     c_bands:  1 eigenvalues not converged
     c_bands:  1 eigenvalues not converged
     c_bands:  2 eigenvalues not converged
     c_bands:  1 eigenvalues not converged
     c_bands:  1 eigenvalues not converged
     c_bands:  1 eigenvalues not converged
     c_bands:  1 eigenvalues not converged
     c_bands:  1 eigenvalues not converged
     c_bands:  1 eigenvalues not converged
     c_bands:  1 eigenvalues not converged
     c_bands:  1 eigenvalues not converged
     c_bands:  1 eigenvalues not converged
     c_bands:  1 eigenvalues not converged
     c_bands:  1 eigenvalues not converged
     c_bands:  1 eigenvalues not converged
     c_bands:  1 eigenvalues not converged
     c_bands:  1 eigenvalues not converged
     c_bands:  2 eigenvalues not converged
     c_bands:  2 eigenvalues not converged
     c_bands:  2 eigenvalues not converged
     c_bands:  1 eigenvalues not converged
     c_bands:  1 eigenvalues not converged
     c_bands:  1 eigenvalues not converged
     c_bands:  2 eigenvalues not converged
     c_bands:  1 eigenvalues not converged
     c_bands:  1 eigenvalues not converged
     c_bands:  1 eigenvalues not converged
     c_bands:  1 eigenvalues not converged
     c_bands:  1 eigenvalues not converged
     c_bands:  1 eigenvalues not converged
     c_bands:  1 eigenvalues not converged
     c_bands:  1 eigenvalues not converged
     c_bands:  1 eigenvalues not converged
     c_bands:  1 eigenvalues not converged
     c_bands:  1 eigenvalues not converged
     c_bands:  1 eigenvalues not converged
     c_bands:  1 eigenvalues not converged
     c_bands:  1 eigenvalues not converged
     ethr =  7.09E-06,  avg # of iterations =  5.1

     total cpu time spent up to now is      733.0 secs

     total energy              =   -1325.33605902 Ry
     Harris-Foulkes estimate   =   -1325.34875973 Ry
     estimated scf accuracy    <       0.02147064 Ry

     iteration #  9     ecut=    40.00 Ry     beta=0.70
     CG style diagonalization
     c_bands:  1 eigenvalues not converged
     c_bands:  1 eigenvalues not converged
     c_bands:  1 eigenvalues not converged
     c_bands:  1 eigenvalues not converged
     c_bands:  1 eigenvalues not converged
     c_bands:  1 eigenvalues not converged
     c_bands:  1 eigenvalues not converged
     ethr =  7.09E-06,  avg # of iterations =  4.2

     total cpu time spent up to now is      776.6 secs

     total energy              =   -1325.34196095 Ry
     Harris-Foulkes estimate   =   -1325.34234150 Ry
     estimated scf accuracy    <       0.00091752 Ry

     iteration # 10     ecut=    40.00 Ry     beta=0.70
     CG style diagonalization
     c_bands:  1 eigenvalues not converged
     c_bands:  1 eigenvalues not converged
     c_bands:  1 eigenvalues not converged
     c_bands:  1 eigenvalues not converged
     c_bands:  1 eigenvalues not converged
     c_bands:  1 eigenvalues not converged
     c_bands:  1 eigenvalues not converged
     c_bands:  1 eigenvalues not converged
     c_bands:  1 eigenvalues not converged
     c_bands:  1 eigenvalues not converged
     ethr =  8.50E-07,  avg # of iterations =  3.5

     total cpu time spent up to now is      811.2 secs

     End of self-consistent calculation

     Number of k-points >= 100: set verbosity='high' to print the bands.

     the Fermi energy is    38.1811 ev

!    total energy              =   -1325.34203036 Ry
     Harris-Foulkes estimate   =   -1325.34211846 Ry
     estimated scf accuracy    <       0.00009423 Ry

     The total energy is the sum of the following terms:

     one-electron contribution =    -193.41539208 Ry
     hartree contribution      =     209.07493355 Ry
     xc contribution           =    -128.26842668 Ry
     ewald contribution        =   -1212.60709160 Ry
     smearing contrib. (-TS)   =      -0.12605354 Ry

     convergence has been achieved in  10 iterations

     Forces acting on atoms (Ry/au):

     atom    1 type  1   force =     0.00000000    0.00000000    0.00315094
     atom    2 type  1   force =     0.00000000    0.00000000   -0.00315094
     atom    3 type  2   force =     0.00000000    0.00000000    0.00000000
     atom    4 type  2   force =     0.00000000    0.00000000    0.00000000
     atom    5 type  2   force =     0.00000000    0.00000000    0.00000000
     atom    6 type  2   force =     0.00000000    0.00000000    0.00000000

     Total force =     0.004456     Total SCF correction =     0.000000


     entering subroutine stress ...

          total   stress  (Ry/bohr**3)                   (kbar)     P= 2544.49
   0.01729515   0.00000000   0.00000000       2544.20      0.00      0.00
   0.00000000   0.01729515   0.00000000          0.00   2544.20      0.00
   0.00000000   0.00000000   0.01730098          0.00      0.00   2545.06


     BFGS Geometry Optimization

     number of scf cycles    =   1
     number of bfgs steps    =   0

     enthalpy new            =   -1325.3420303576 Ry

     new trust radius        =       0.5000000000 bohr
     new conv_thr            =       0.0001000000 Ry

     new unit-cell volume =    783.88984 a.u.^3 (   116.16049 Ang^3 )

CELL_PARAMETERS (alat=  9.37903830)
   1.103469820   0.000000000   0.000000000
   0.551734910   0.955632896   0.000000000
   0.551734910   0.318544299   0.901007810

ATOMIC_POSITIONS (crystal)
Mg       0.749967179   0.749967179   0.750098464
Mg       0.500032821   0.500032821   0.499901536
Cu       0.125000000   0.125000000   0.125000000
Cu       0.625000000   0.125000000   0.125000000
Cu       0.125000000   0.625000000   0.125000000
Cu       0.125000000   0.125000000   0.625000000



     Writing output data file Prototype-La-cF24-Cu2Mg.save
     NEW-OLD atomic charge density approx. for the potential
     NEW k-points: (use verbosity='high' to print them)

     total cpu time spent up to now is      819.3 secs

     Self-consistent Calculation

     iteration #  1     ecut=    40.00 Ry     beta=0.70
     CG style diagonalization
     c_bands:  2 eigenvalues not converged
     c_bands:  1 eigenvalues not converged
     c_bands:  2 eigenvalues not converged
     c_bands:  1 eigenvalues not converged
     c_bands:  1 eigenvalues not converged
     c_bands:  1 eigenvalues not converged
     c_bands:  1 eigenvalues not converged
     c_bands:  1 eigenvalues not converged
     c_bands:  1 eigenvalues not converged
     c_bands:  1 eigenvalues not converged
     c_bands:  1 eigenvalues not converged
     c_bands:  1 eigenvalues not converged
     c_bands:  1 eigenvalues not converged
     c_bands:  1 eigenvalues not converged
     c_bands:  1 eigenvalues not converged
     c_bands:  2 eigenvalues not converged
     c_bands:  1 eigenvalues not converged
     c_bands:  1 eigenvalues not converged
     c_bands:  1 eigenvalues not converged
     c_bands:  2 eigenvalues not converged
     c_bands:  1 eigenvalues not converged
     c_bands:  2 eigenvalues not converged
     c_bands:  1 eigenvalues not converged
     c_bands:  2 eigenvalues not converged
     c_bands:  1 eigenvalues not converged
     c_bands:  2 eigenvalues not converged
     c_bands:  1 eigenvalues not converged
     c_bands:  1 eigenvalues not converged
     c_bands:  1 eigenvalues not converged
     c_bands:  1 eigenvalues not converged
     c_bands:  1 eigenvalues not converged
     c_bands:  2 eigenvalues not converged
     c_bands:  1 eigenvalues not converged
     c_bands:  2 eigenvalues not converged
     c_bands:  1 eigenvalues not converged
     c_bands:  2 eigenvalues not converged
     c_bands:  1 eigenvalues not converged
     c_bands:  1 eigenvalues not converged
     c_bands:  1 eigenvalues not converged
     c_bands:  1 eigenvalues not converged
     c_bands:  1 eigenvalues not converged
     c_bands:  1 eigenvalues not converged
     c_bands:  2 eigenvalues not converged
     c_bands:  3 eigenvalues not converged
     c_bands:  2 eigenvalues not converged
     c_bands:  1 eigenvalues not converged
     c_bands:  1 eigenvalues not converged
     c_bands:  2 eigenvalues not converged
     c_bands:  2 eigenvalues not converged
     c_bands:  1 eigenvalues not converged
     c_bands:  2 eigenvalues not converged
     c_bands:  1 eigenvalues not converged
     c_bands:  1 eigenvalues not converged
     c_bands:  1 eigenvalues not converged
     c_bands:  1 eigenvalues not converged
     c_bands:  1 eigenvalues not converged
     c_bands:  1 eigenvalues not converged
     c_bands:  1 eigenvalues not converged
     c_bands:  2 eigenvalues not converged
     c_bands:  1 eigenvalues not converged
     c_bands:  1 eigenvalues not converged
     c_bands:  1 eigenvalues not converged
     c_bands:  1 eigenvalues not converged
     c_bands:  1 eigenvalues not converged
     c_bands:  1 eigenvalues not converged
     c_bands:  2 eigenvalues not converged
     c_bands:  1 eigenvalues not converged
     c_bands:  1 eigenvalues not converged
     c_bands:  1 eigenvalues not converged
     c_bands:  2 eigenvalues not converged
     c_bands:  1 eigenvalues not converged
     c_bands:  1 eigenvalues not converged
     c_bands:  1 eigenvalues not converged
     c_bands:  1 eigenvalues not converged
     c_bands:  1 eigenvalues not converged
     c_bands:  1 eigenvalues not converged
     c_bands:  1 eigenvalues not converged
     c_bands:  1 eigenvalues not converged
     c_bands:  1 eigenvalues not converged
     c_bands:  1 eigenvalues not converged
     c_bands:  1 eigenvalues not converged
     c_bands:  2 eigenvalues not converged
     c_bands:  1 eigenvalues not converged
     c_bands:  1 eigenvalues not converged
     c_bands:  1 eigenvalues not converged
     c_bands:  1 eigenvalues not converged
     c_bands:  2 eigenvalues not converged
     c_bands:  1 eigenvalues not converged
     c_bands:  1 eigenvalues not converged
     c_bands:  3 eigenvalues not converged
     c_bands:  1 eigenvalues not converged
     c_bands:  1 eigenvalues not converged
     c_bands:  1 eigenvalues not converged
     c_bands:  1 eigenvalues not converged
     c_bands:  1 eigenvalues not converged
     c_bands:  1 eigenvalues not converged
     c_bands:  1 eigenvalues not converged
     c_bands:  1 eigenvalues not converged
     c_bands:  1 eigenvalues not converged
     ethr =  1.00E-06,  avg # of iterations = 24.4

     total cpu time spent up to now is     1041.6 secs

     total energy              =   -1315.49485410 Ry
     Harris-Foulkes estimate   =   -1339.40901635 Ry
     estimated scf accuracy    <      29.82698607 Ry

     iteration #  2     ecut=    40.00 Ry     beta=0.70
     CG style diagonalization
     ethr =  1.00E-02,  avg # of iterations =  4.1

     total cpu time spent up to now is     1085.9 secs

     total energy              =   -1318.85426899 Ry
     Harris-Foulkes estimate   =   -1332.46379000 Ry
     estimated scf accuracy    <      23.65653020 Ry

     iteration #  3     ecut=    40.00 Ry     beta=0.70
     CG style diagonalization
     ethr =  1.00E-02,  avg # of iterations =  4.1

     total cpu time spent up to now is     1126.1 secs

     total energy              =   -1326.24855744 Ry
     Harris-Foulkes estimate   =   -1327.48664244 Ry
     estimated scf accuracy    <       2.63619168 Ry

     iteration #  4     ecut=    40.00 Ry     beta=0.70
     CG style diagonalization
     ethr =  2.44E-03,  avg # of iterations =  3.5

     total cpu time spent up to now is     1161.6 secs

     total energy              =   -1326.69089182 Ry
     Harris-Foulkes estimate   =   -1326.72223285 Ry
     estimated scf accuracy    <       0.10646197 Ry

     iteration #  5     ecut=    40.00 Ry     beta=0.70
     CG style diagonalization
     c_bands:  1 eigenvalues not converged
     c_bands:  1 eigenvalues not converged
     c_bands:  1 eigenvalues not converged
     c_bands:  1 eigenvalues not converged
     c_bands:  1 eigenvalues not converged
     ethr =  9.86E-05,  avg # of iterations =  4.3

     total cpu time spent up to now is     1204.6 secs

     total energy              =   -1326.71451881 Ry
     Harris-Foulkes estimate   =   -1326.72595155 Ry
     estimated scf accuracy    <       0.02504404 Ry

     iteration #  6     ecut=    40.00 Ry     beta=0.70
     CG style diagonalization
     c_bands:  1 eigenvalues not converged
     c_bands:  1 eigenvalues not converged
     c_bands:  1 eigenvalues not converged
     c_bands:  1 eigenvalues not converged
     c_bands:  1 eigenvalues not converged
     c_bands:  1 eigenvalues not converged
     c_bands:  1 eigenvalues not converged
     c_bands:  1 eigenvalues not converged
     c_bands:  1 eigenvalues not converged
     c_bands:  1 eigenvalues not converged
     c_bands:  1 eigenvalues not converged
     c_bands:  1 eigenvalues not converged
     c_bands:  1 eigenvalues not converged
     ethr =  2.32E-05,  avg # of iterations =  3.8

     total cpu time spent up to now is     1243.4 secs

     total energy              =   -1326.71664394 Ry
     Harris-Foulkes estimate   =   -1326.72056768 Ry
     estimated scf accuracy    <       0.01170075 Ry

     iteration #  7     ecut=    40.00 Ry     beta=0.70
     CG style diagonalization
     c_bands:  1 eigenvalues not converged
     c_bands:  1 eigenvalues not converged
     c_bands:  1 eigenvalues not converged
     c_bands:  1 eigenvalues not converged
     c_bands:  1 eigenvalues not converged
     ethr =  1.08E-05,  avg # of iterations =  3.3

     total cpu time spent up to now is     1277.6 secs

     total energy              =   -1326.71679242 Ry
     Harris-Foulkes estimate   =   -1326.71793804 Ry
     estimated scf accuracy    <       0.00216912 Ry

     iteration #  8     ecut=    40.00 Ry     beta=0.70
     CG style diagonalization
     c_bands:  2 eigenvalues not converged
     c_bands:  1 eigenvalues not converged
     c_bands:  1 eigenvalues not converged
     c_bands:  1 eigenvalues not converged
     c_bands:  1 eigenvalues not converged
     c_bands:  1 eigenvalues not converged
     c_bands:  1 eigenvalues not converged
     c_bands:  1 eigenvalues not converged
     c_bands:  1 eigenvalues not converged
     c_bands:  1 eigenvalues not converged
     c_bands:  1 eigenvalues not converged
     c_bands:  1 eigenvalues not converged
     c_bands:  1 eigenvalues not converged
     c_bands:  1 eigenvalues not converged
     c_bands:  1 eigenvalues not converged
     c_bands:  1 eigenvalues not converged
     c_bands:  1 eigenvalues not converged
     c_bands:  1 eigenvalues not converged
     ethr =  2.01E-06,  avg # of iterations =  4.0

     total cpu time spent up to now is     1317.1 secs

     End of self-consistent calculation

     Number of k-points >= 100: set verbosity='high' to print the bands.

     the Fermi energy is    27.6757 ev

!    total energy              =   -1326.71711631 Ry
     Harris-Foulkes estimate   =   -1326.71719540 Ry
     estimated scf accuracy    <       0.00009233 Ry

     The total energy is the sum of the following terms:

     one-electron contribution =    -356.02224551 Ry
     hartree contribution      =     253.34765023 Ry
     xc contribution           =    -124.99415008 Ry
     ewald contribution        =   -1098.89213455 Ry
     smearing contrib. (-TS)   =      -0.15623639 Ry

     convergence has been achieved in   8 iterations

     Forces acting on atoms (Ry/au):

     atom    1 type  1   force =     0.00000000    0.00000000    0.00011035
     atom    2 type  1   force =     0.00000000    0.00000000   -0.00011035
     atom    3 type  2   force =     0.00000000    0.00000000    0.00000000
     atom    4 type  2   force =     0.00000000    0.00000000    0.00000000
     atom    5 type  2   force =     0.00000000    0.00000000    0.00000000
     atom    6 type  2   force =     0.00000000    0.00000000    0.00000000

     Total force =     0.000156     Total SCF correction =     0.000000


     entering subroutine stress ...

          total   stress  (Ry/bohr**3)                   (kbar)     P=  -55.72
  -0.00037840   0.00000000   0.00000000        -55.66      0.00      0.00
   0.00000000  -0.00037840   0.00000000          0.00    -55.66      0.00
   0.00000000   0.00000000  -0.00037950          0.00      0.00    -55.83


     number of scf cycles    =   2
     number of bfgs steps    =   1

     enthalpy old            =   -1325.3420303576 Ry
     enthalpy new            =   -1326.7171163066 Ry

     CASE: enthalpy_new < enthalpy_old

     small trust_radius: resetting bfgs history

     new trust radius        =       0.0531260822 bohr
     new conv_thr            =       0.0000010000 Ry

     new unit-cell volume =    761.83175 a.u.^3 (   112.89182 Ang^3 )

CELL_PARAMETERS (alat=  9.37903830)
   1.093031022   0.000000000   0.000000000
   0.546515511   0.946592632   0.000000000
   0.546515511   0.315530877   0.892459528

ATOMIC_POSITIONS (crystal)
Mg       0.749962826   0.749962826   0.750111522
Mg       0.500037174   0.500037174   0.499888478
Cu       0.125000000   0.125000000   0.125000000
Cu       0.625000000   0.125000000   0.125000000
Cu       0.125000000   0.625000000   0.125000000
Cu       0.125000000   0.125000000   0.625000000



     Writing output data file Prototype-La-cF24-Cu2Mg.save
     NEW-OLD atomic charge density approx. for the potential
     NEW k-points: (use verbosity='high' to print them)

     total cpu time spent up to now is     1327.3 secs

     Self-consistent Calculation

     iteration #  1     ecut=    40.00 Ry     beta=0.70
     CG style diagonalization
     c_bands:  1 eigenvalues not converged
     c_bands:  1 eigenvalues not converged
     c_bands:  1 eigenvalues not converged
     c_bands:  1 eigenvalues not converged
     c_bands:  1 eigenvalues not converged
     c_bands:  1 eigenvalues not converged
     c_bands:  1 eigenvalues not converged
     c_bands:  1 eigenvalues not converged
     c_bands:  1 eigenvalues not converged
     c_bands:  1 eigenvalues not converged
     c_bands:  1 eigenvalues not converged
     c_bands:  1 eigenvalues not converged
     c_bands:  1 eigenvalues not converged
     c_bands:  1 eigenvalues not converged
     c_bands:  1 eigenvalues not converged
     c_bands:  1 eigenvalues not converged
     c_bands:  1 eigenvalues not converged
     c_bands:  1 eigenvalues not converged
     c_bands:  1 eigenvalues not converged
     c_bands:  1 eigenvalues not converged
     c_bands:  1 eigenvalues not converged
     c_bands:  1 eigenvalues not converged
     c_bands:  1 eigenvalues not converged
     c_bands:  1 eigenvalues not converged
     c_bands:  1 eigenvalues not converged
     c_bands:  1 eigenvalues not converged
     c_bands:  1 eigenvalues not converged
     c_bands:  1 eigenvalues not converged
     c_bands:  1 eigenvalues not converged
     c_bands:  1 eigenvalues not converged
     c_bands:  1 eigenvalues not converged
     c_bands:  1 eigenvalues not converged
     c_bands:  2 eigenvalues not converged
     c_bands:  1 eigenvalues not converged
     c_bands:  1 eigenvalues not converged
     c_bands:  1 eigenvalues not converged
     c_bands:  2 eigenvalues not converged
     c_bands:  1 eigenvalues not converged
     c_bands:  1 eigenvalues not converged
     c_bands:  1 eigenvalues not converged
     c_bands:  1 eigenvalues not converged
     c_bands:  1 eigenvalues not converged
     c_bands:  1 eigenvalues not converged
     c_bands:  1 eigenvalues not converged
     c_bands:  1 eigenvalues not converged
     c_bands:  1 eigenvalues not converged
     c_bands:  1 eigenvalues not converged
     c_bands:  2 eigenvalues not converged
     c_bands:  2 eigenvalues not converged
     c_bands:  1 eigenvalues not converged
     c_bands:  1 eigenvalues not converged
     c_bands:  1 eigenvalues not converged
     c_bands:  1 eigenvalues not converged
     c_bands:  2 eigenvalues not converged
     c_bands:  1 eigenvalues not converged
     c_bands:  1 eigenvalues not converged
     c_bands:  1 eigenvalues not converged
     c_bands:  1 eigenvalues not converged
     c_bands:  1 eigenvalues not converged
     c_bands:  1 eigenvalues not converged
     ethr =  1.00E-06,  avg # of iterations =  7.9

     total cpu time spent up to now is     1403.9 secs

     total energy              =   -1326.57943869 Ry
     Harris-Foulkes estimate   =   -1326.83899835 Ry
     estimated scf accuracy    <       0.32029980 Ry

     iteration #  2     ecut=    40.00 Ry     beta=0.70
     CG style diagonalization
     ethr =  2.97E-04,  avg # of iterations =  3.9

     total cpu time spent up to now is     1442.8 secs

     total energy              =   -1326.64658781 Ry
     Harris-Foulkes estimate   =   -1326.77925189 Ry
     estimated scf accuracy    <       0.22634786 Ry

     iteration #  3     ecut=    40.00 Ry     beta=0.70
     CG style diagonalization
     ethr =  2.10E-04,  avg # of iterations =  3.6

     total cpu time spent up to now is     1480.1 secs

     total energy              =   -1326.70552551 Ry
     Harris-Foulkes estimate   =   -1326.71470532 Ry
     estimated scf accuracy    <       0.01792692 Ry

     iteration #  4     ecut=    40.00 Ry     beta=0.70
     CG style diagonalization
     c_bands:  1 eigenvalues not converged
     ethr =  1.66E-05,  avg # of iterations =  3.7

     total cpu time spent up to now is     1522.8 secs

     total energy              =   -1326.71017866 Ry
     Harris-Foulkes estimate   =   -1326.71023423 Ry
     estimated scf accuracy    <       0.00009910 Ry

     iteration #  5     ecut=    40.00 Ry     beta=0.70
     CG style diagonalization
     c_bands:  1 eigenvalues not converged
     c_bands:  1 eigenvalues not converged
     c_bands:  2 eigenvalues not converged
     c_bands:  1 eigenvalues not converged
     c_bands:  1 eigenvalues not converged
     c_bands:  1 eigenvalues not converged
     c_bands:  1 eigenvalues not converged
     c_bands:  1 eigenvalues not converged
     ethr =  9.18E-08,  avg # of iterations =  4.9

     total cpu time spent up to now is     1572.4 secs

     total energy              =   -1326.71032816 Ry
     Harris-Foulkes estimate   =   -1326.71035174 Ry
     estimated scf accuracy    <       0.00003769 Ry

     iteration #  6     ecut=    40.00 Ry     beta=0.70
     CG style diagonalization
     c_bands:  1 eigenvalues not converged
     ethr =  3.49E-08,  avg # of iterations =  3.5

     total cpu time spent up to now is     1606.7 secs

     total energy              =   -1326.71033295 Ry
     Harris-Foulkes estimate   =   -1326.71033393 Ry
     estimated scf accuracy    <       0.00000139 Ry

     iteration #  7     ecut=    40.00 Ry     beta=0.70
     CG style diagonalization
     ethr =  1.29E-09,  avg # of iterations =  4.5

     total cpu time spent up to now is     1650.8 secs

     End of self-consistent calculation

     Number of k-points >= 100: set verbosity='high' to print the bands.

     the Fermi energy is    28.5653 ev

!    total energy              =   -1326.71033412 Ry
     Harris-Foulkes estimate   =   -1326.71033435 Ry
     estimated scf accuracy    <       0.00000027 Ry

     The total energy is the sum of the following terms:

     one-electron contribution =    -340.80466079 Ry
     hartree contribution      =     248.91906170 Ry
     xc contribution           =    -125.27640755 Ry
     ewald contribution        =   -1109.39716938 Ry
     smearing contrib. (-TS)   =      -0.15115810 Ry

     convergence has been achieved in   7 iterations

     Forces acting on atoms (Ry/au):

     atom    1 type  1   force =     0.00000000    0.00000000   -0.00037307
     atom    2 type  1   force =     0.00000000    0.00000000    0.00037307
     atom    3 type  2   force =     0.00000000    0.00000000    0.00000000
     atom    4 type  2   force =     0.00000000    0.00000000    0.00000000
     atom    5 type  2   force =     0.00000000    0.00000000    0.00000000
     atom    6 type  2   force =     0.00000000    0.00000000    0.00000000

     Total force =     0.000528     Total SCF correction =     0.000000


     entering subroutine stress ...

          total   stress  (Ry/bohr**3)                   (kbar)     P=  128.53
   0.00087415   0.00000000   0.00000000        128.59      0.00      0.00
   0.00000000   0.00087415   0.00000000          0.00    128.59      0.00
   0.00000000   0.00000000   0.00087283          0.00      0.00    128.40


     number of scf cycles    =   3
     number of bfgs steps    =   2

     enthalpy old            =   -1326.7171163066 Ry
     enthalpy new            =   -1326.7103341176 Ry

     CASE: enthalpy_new > enthalpy_old

     new trust radius        =       0.0146540954 bohr

     trust_radius < trust_radius_min

     resetting bfgs history

     Message from routine bfgs:
     history already reset at previous step: stopping
     new conv_thr            =       0.0000010000 Ry

     new unit-cell volume =    761.62290 a.u.^3 (   112.86087 Ang^3 )

CELL_PARAMETERS (alat=  9.37903830)
   1.092931036   0.000000000   0.000000000
   0.546465518   0.946506042   0.000000000
   0.546465518   0.315502014   0.892378129

ATOMIC_POSITIONS (crystal)
Mg       0.749962742   0.749962742   0.750111774
Mg       0.500037258   0.500037258   0.499888226
Cu       0.125000000   0.125000000   0.125000000
Cu       0.625000000   0.125000000   0.125000000
Cu       0.125000000   0.625000000   0.125000000
Cu       0.125000000   0.125000000   0.625000000



     Writing output data file Prototype-La-cF24-Cu2Mg.save
     NEW-OLD atomic charge density approx. for the potential
     NEW k-points: (use verbosity='high' to print them)

     total cpu time spent up to now is     1660.8 secs

     Self-consistent Calculation

     iteration #  1     ecut=    40.00 Ry     beta=0.70
     CG style diagonalization
     ethr =  1.00E-06,  avg # of iterations =  3.0

     Threshold (ethr) on eigenvalues was too large:
     Diagonalizing with lowered threshold

     CG style diagonalization
     ethr =  2.27E-08,  avg # of iterations =  3.1

     total cpu time spent up to now is     1719.5 secs

     total energy              =   -1326.71014229 Ry
     Harris-Foulkes estimate   =   -1326.71016624 Ry
     estimated scf accuracy    <       0.00002974 Ry

     iteration #  2     ecut=    40.00 Ry     beta=0.70
     CG style diagonalization
     ethr =  2.75E-08,  avg # of iterations =  3.7

     total cpu time spent up to now is     1756.0 secs

     total energy              =   -1326.71014826 Ry
     Harris-Foulkes estimate   =   -1326.71015721 Ry
     estimated scf accuracy    <       0.00001417 Ry

     iteration #  3     ecut=    40.00 Ry     beta=0.70
     CG style diagonalization
     ethr =  1.31E-08,  avg # of iterations =  3.5

     total cpu time spent up to now is     1790.7 secs

     total energy              =   -1326.71015236 Ry
     Harris-Foulkes estimate   =   -1326.71015328 Ry
     estimated scf accuracy    <       0.00000180 Ry

     iteration #  4     ecut=    40.00 Ry     beta=0.70
     CG style diagonalization
     ethr =  1.67E-09,  avg # of iterations =  3.5

     total cpu time spent up to now is     1825.0 secs

     End of self-consistent calculation

     Number of k-points >= 100: set verbosity='high' to print the bands.

     the Fermi energy is    28.5743 ev

!    total energy              =   -1326.71015278 Ry
     Harris-Foulkes estimate   =   -1326.71015279 Ry
     estimated scf accuracy    <       0.00000001 Ry

     The total energy is the sum of the following terms:

     one-electron contribution =    -340.65317504 Ry
     hartree contribution      =     248.87101253 Ry
     xc contribution           =    -125.27831714 Ry
     ewald contribution        =   -1109.49856280 Ry
     smearing contrib. (-TS)   =      -0.15111032 Ry

     convergence has been achieved in   4 iterations

     Forces acting on atoms (Ry/au):

     atom    1 type  1   force =     0.00000000    0.00000000   -0.00041578
     atom    2 type  1   force =     0.00000000    0.00000000    0.00041578
     atom    3 type  2   force =     0.00000000    0.00000000    0.00000000
     atom    4 type  2   force =     0.00000000    0.00000000    0.00000000
     atom    5 type  2   force =     0.00000000    0.00000000    0.00000000
     atom    6 type  2   force =     0.00000000    0.00000000    0.00000000

     Total force =     0.000588     Total SCF correction =     0.000000


     entering subroutine stress ...

          total   stress  (Ry/bohr**3)                   (kbar)     P=  128.72
   0.00087547   0.00000000   0.00000000        128.79      0.00      0.00
   0.00000000   0.00087547   0.00000000          0.00    128.79      0.00
   0.00000000   0.00000000   0.00087409          0.00      0.00    128.58


     The maximum number of steps has been reached.

     End of BFGS Geometry Optimization
Begin final coordinates
     new unit-cell volume =    761.62290 a.u.^3 (   112.86087 Ang^3 )

CELL_PARAMETERS (alat=  9.37903830)
   1.092931036   0.000000000   0.000000000
   0.546465518   0.946506042   0.000000000
   0.546465518   0.315502014   0.892378129

ATOMIC_POSITIONS (crystal)
Mg       0.749962742   0.749962742   0.750111774
Mg       0.500037258   0.500037258   0.499888226
Cu       0.125000000   0.125000000   0.125000000
Cu       0.625000000   0.125000000   0.125000000
Cu       0.125000000   0.625000000   0.125000000
Cu       0.125000000   0.125000000   0.625000000
End final coordinates



     A final scf calculation at the relaxed structure.
     The G-vectors are recalculated for the final unit cell
     Results may differ from those at the preceding step.
 
     Parallelization info
     --------------------
     sticks:   dense  smooth     PW     G-vecs:    dense   smooth      PW
     Min         289     289     90                 6531     6531    1118
     Max         290     290     91                 6534     6534    1120
     Sum        1159    1159    361                26133    26133    4477
 


     bravais-lattice index     =            0
     lattice parameter (alat)  =       9.3790  a.u.
     unit-cell volume          =     761.6229 (a.u.)^3
     number of atoms/cell      =            6
     number of atomic types    =            2
     number of electrons       =       108.00
     number of Kohn-Sham states=           65
     kinetic-energy cutoff     =      40.0000  Ry
     charge density cutoff     =     160.0000  Ry
     convergence threshold     =      1.0E-06
     mixing beta               =       0.7000
     number of iterations used =            8  plain     mixing
     Exchange-correlation      = SLA-PZ-NOGX-NOGC ( 1 1 0 0 0)
     EXX-fraction              =        0.00

     celldm(1)=   9.379038  celldm(2)=   0.000000  celldm(3)=   0.000000
     celldm(4)=   0.000000  celldm(5)=   0.000000  celldm(6)=   0.000000

     crystal axes: (cart. coord. in units of alat)
               a(1) = (   1.092931   0.000000   0.000000 )  
               a(2) = (   0.546466   0.946506   0.000000 )  
               a(3) = (   0.546466   0.315502   0.892378 )  

     reciprocal axes: (cart. coord. in units 2 pi/alat)
               b(1) = (  0.914971 -0.528259 -0.373534 )  
               b(2) = (  0.000000  1.056517 -0.373534 )  
               b(3) = (  0.000000  0.000000  1.120601 )  


     PseudoPot. # 1 for Ce read from file:
     /home/jld5415/pp.La/Ce.UPF
     MD5 check sum: 44451aa79a44a00cf2bc029dc19922f6
     Pseudo is Norm-conserving, Zval = 12.0
     Generated in analytical, separable form
     Using radial grid of 1255 points,  6 beta functions with: 
                l(1) =   0
                l(2) =   0
                l(3) =   1
                l(4) =   1
                l(5) =   2
                l(6) =   3

     PseudoPot. # 2 for Ho read from file:
     /home/jld5415/pp.La/Ho.UPF
     MD5 check sum: f307ee11bce99f5b724fa279e3790763
     Pseudo is Norm-conserving, Zval = 21.0
     Generated in analytical, separable form
     Using radial grid of 1265 points,  6 beta functions with: 
                l(1) =   0
                l(2) =   0
                l(3) =   1
                l(4) =   1
                l(5) =   2
                l(6) =   3

     atomic species   valence    mass     pseudopotential
        Mg            12.00    24.30500     Ce( 1.00)
        Cu            21.00    63.54600     Ho( 1.00)

     12 Sym. Ops., with inversion, found ( 6 have fractional translation)



   Cartesian axes

     site n.     atom                  positions (alat units)
         1           Mg  tau(   1) = (   1.6393966   0.9465060   0.6693833  )
         2           Mg  tau(   2) = (   1.0929310   0.6310040   0.4460893  )
         3           Cu  tau(   3) = (   0.2732328   0.1577510   0.1115473  )
         4           Cu  tau(   4) = (   0.8196983   0.1577510   0.1115473  )
         5           Cu  tau(   5) = (   0.5464655   0.6310040   0.1115473  )
         6           Cu  tau(   6) = (   0.5464655   0.3155020   0.5577363  )

     number of k points=   170  gaussian smearing, width (Ry)=  0.1000

     Number of k-points >= 100: set verbosity='high' to print them.

     Dense  grid:    26133 G-vectors     FFT dimensions: (  45,  45,  45)

     Largest allocated arrays     est. size (Mb)     dimensions
        Kohn-Sham Wavefunctions         0.82 Mb     (    830,   65)
        NL pseudopotentials             1.52 Mb     (    830,  120)
        Each V/rho on FFT grid          0.37 Mb     (  24300)
        Each G-vector array             0.05 Mb     (   6531)
        G-vector shells                 0.01 Mb     (   1876)
     Largest temporary arrays     est. size (Mb)     dimensions
        Each subspace H/S matrix        0.06 Mb     (  65,  65)
        Each <psi_i|beta_j> matrix      0.12 Mb     (    120,   65)
        Arrays for rho mixing           2.97 Mb     (  24300,   8)

     Initial potential from superposition of free atoms

     Starting from uniform charge
     Starting wfc are    0 randomized atomic wfcs

     Writing output data file Prototype-La-cF24-Cu2Mg.save

     total cpu time spent up to now is     1846.0 secs

     Self-consistent Calculation

     iteration #  1     ecut=    40.00 Ry     beta=0.70
     CG style diagonalization
     c_bands:  2 eigenvalues not converged
     c_bands:  4 eigenvalues not converged
     c_bands:  5 eigenvalues not converged
     c_bands:  4 eigenvalues not converged
     c_bands:  3 eigenvalues not converged
     c_bands:  4 eigenvalues not converged
     c_bands:  5 eigenvalues not converged
     c_bands:  3 eigenvalues not converged
     c_bands:  6 eigenvalues not converged
     c_bands:  5 eigenvalues not converged
     c_bands:  4 eigenvalues not converged
     c_bands:  4 eigenvalues not converged
     c_bands:  4 eigenvalues not converged
     c_bands:  3 eigenvalues not converged
     c_bands:  4 eigenvalues not converged
     c_bands:  4 eigenvalues not converged
     c_bands:  5 eigenvalues not converged
     c_bands:  5 eigenvalues not converged
     c_bands:  5 eigenvalues not converged
     c_bands:  4 eigenvalues not converged
     c_bands:  3 eigenvalues not converged
     c_bands:  5 eigenvalues not converged
     c_bands:  5 eigenvalues not converged
     c_bands:  6 eigenvalues not converged
     c_bands:  4 eigenvalues not converged
     c_bands:  5 eigenvalues not converged
     c_bands:  5 eigenvalues not converged
     c_bands:  6 eigenvalues not converged
     c_bands:  4 eigenvalues not converged
     c_bands:  3 eigenvalues not converged
     c_bands:  2 eigenvalues not converged
     c_bands:  5 eigenvalues not converged
     c_bands:  6 eigenvalues not converged
     c_bands:  3 eigenvalues not converged
     c_bands:  5 eigenvalues not converged
     c_bands:  5 eigenvalues not converged
     c_bands:  6 eigenvalues not converged
     c_bands:  5 eigenvalues not converged
     c_bands:  5 eigenvalues not converged
     c_bands:  4 eigenvalues not converged
     c_bands:  7 eigenvalues not converged
     c_bands:  4 eigenvalues not converged
     c_bands:  5 eigenvalues not converged
     c_bands:  7 eigenvalues not converged
     c_bands:  7 eigenvalues not converged
     c_bands:  7 eigenvalues not converged
     c_bands:  8 eigenvalues not converged
     c_bands:  7 eigenvalues not converged
     c_bands:  6 eigenvalues not converged
     c_bands:  5 eigenvalues not converged
     c_bands:  5 eigenvalues not converged
     c_bands:  4 eigenvalues not converged
     c_bands:  5 eigenvalues not converged
     c_bands:  5 eigenvalues not converged
     c_bands:  4 eigenvalues not converged
     c_bands:  7 eigenvalues not converged
     c_bands:  6 eigenvalues not converged
     c_bands:  6 eigenvalues not converged
     c_bands:  1 eigenvalues not converged
     c_bands:  4 eigenvalues not converged
     c_bands:  4 eigenvalues not converged
     c_bands:  5 eigenvalues not converged
     c_bands:  6 eigenvalues not converged
     c_bands:  5 eigenvalues not converged
     c_bands:  3 eigenvalues not converged
     c_bands:  4 eigenvalues not converged
     c_bands:  6 eigenvalues not converged
     c_bands:  5 eigenvalues not converged
     c_bands:  6 eigenvalues not converged
     c_bands:  8 eigenvalues not converged
     c_bands:  6 eigenvalues not converged
     c_bands:  6 eigenvalues not converged
     c_bands:  6 eigenvalues not converged
     c_bands:  5 eigenvalues not converged
     c_bands:  7 eigenvalues not converged
     c_bands:  1 eigenvalues not converged
     c_bands:  5 eigenvalues not converged
     c_bands:  5 eigenvalues not converged
     c_bands:  3 eigenvalues not converged
     c_bands:  2 eigenvalues not converged
     c_bands:  6 eigenvalues not converged
     c_bands:  5 eigenvalues not converged
     c_bands:  5 eigenvalues not converged
     c_bands:  5 eigenvalues not converged
     c_bands:  5 eigenvalues not converged
     c_bands:  3 eigenvalues not converged
     c_bands:  4 eigenvalues not converged
     c_bands:  3 eigenvalues not converged
     c_bands:  2 eigenvalues not converged
     c_bands:  3 eigenvalues not converged
     c_bands:  2 eigenvalues not converged
     c_bands:  4 eigenvalues not converged
     c_bands:  5 eigenvalues not converged
     c_bands:  5 eigenvalues not converged
     c_bands:  5 eigenvalues not converged
     c_bands:  4 eigenvalues not converged
     c_bands:  5 eigenvalues not converged
     c_bands:  5 eigenvalues not converged
     c_bands:  6 eigenvalues not converged
     c_bands:  4 eigenvalues not converged
     c_bands:  6 eigenvalues not converged
     c_bands:  5 eigenvalues not converged
     c_bands:  3 eigenvalues not converged
     c_bands:  5 eigenvalues not converged
     c_bands:  5 eigenvalues not converged
     c_bands:  6 eigenvalues not converged
     c_bands:  6 eigenvalues not converged
     c_bands:  7 eigenvalues not converged
     c_bands:  7 eigenvalues not converged
     c_bands:  4 eigenvalues not converged
     c_bands:  5 eigenvalues not converged
     c_bands:  5 eigenvalues not converged
     c_bands:  5 eigenvalues not converged
     c_bands:  5 eigenvalues not converged
     c_bands:  4 eigenvalues not converged
     c_bands:  5 eigenvalues not converged
     c_bands:  4 eigenvalues not converged
     c_bands:  4 eigenvalues not converged
     c_bands:  5 eigenvalues not converged
     c_bands:  3 eigenvalues not converged
     c_bands:  6 eigenvalues not converged
     c_bands:  5 eigenvalues not converged
     c_bands:  4 eigenvalues not converged
     c_bands:  5 eigenvalues not converged
     c_bands:  1 eigenvalues not converged
     c_bands:  5 eigenvalues not converged
     c_bands:  6 eigenvalues not converged
     c_bands:  5 eigenvalues not converged
     c_bands:  5 eigenvalues not converged
     c_bands:  5 eigenvalues not converged
     c_bands:  3 eigenvalues not converged
     c_bands:  6 eigenvalues not converged
     c_bands:  5 eigenvalues not converged
     c_bands:  2 eigenvalues not converged
     c_bands:  7 eigenvalues not converged
     c_bands:  4 eigenvalues not converged
     c_bands:  7 eigenvalues not converged
     c_bands:  5 eigenvalues not converged
     c_bands:  5 eigenvalues not converged
     c_bands:  5 eigenvalues not converged
     c_bands:  5 eigenvalues not converged
     c_bands:  5 eigenvalues not converged
     c_bands:  2 eigenvalues not converged
     c_bands:  5 eigenvalues not converged
     c_bands:  5 eigenvalues not converged
     c_bands:  5 eigenvalues not converged
     c_bands:  4 eigenvalues not converged
     c_bands:  5 eigenvalues not converged
     c_bands:  5 eigenvalues not converged
     c_bands:  6 eigenvalues not converged
     c_bands:  5 eigenvalues not converged
     c_bands:  4 eigenvalues not converged
     c_bands:  5 eigenvalues not converged
     c_bands:  5 eigenvalues not converged
     c_bands:  3 eigenvalues not converged
     c_bands:  5 eigenvalues not converged
     c_bands:  4 eigenvalues not converged
     c_bands:  5 eigenvalues not converged
     c_bands:  5 eigenvalues not converged
     c_bands:  6 eigenvalues not converged
     c_bands:  5 eigenvalues not converged
     c_bands:  4 eigenvalues not converged
     c_bands:  3 eigenvalues not converged
     c_bands:  5 eigenvalues not converged
     c_bands:  4 eigenvalues not converged
     c_bands:  5 eigenvalues not converged
     c_bands:  3 eigenvalues not converged
     c_bands:  6 eigenvalues not converged
     c_bands:  5 eigenvalues not converged
     c_bands:  5 eigenvalues not converged
     ethr =  1.00E-06,  avg # of iterations = 66.8

     total cpu time spent up to now is     2759.1 secs

     total energy              =    -903.45210951 Ry
     Harris-Foulkes estimate   =   -1856.79966152 Ry
     estimated scf accuracy    <    1156.21955788 Ry

     iteration #  2     ecut=    40.00 Ry     beta=0.70
     CG style diagonalization
     c_bands:  2 eigenvalues not converged
     c_bands:  2 eigenvalues not converged
     c_bands:  3 eigenvalues not converged
     c_bands:  3 eigenvalues not converged
     c_bands:  2 eigenvalues not converged
     c_bands:  2 eigenvalues not converged
     c_bands:  5 eigenvalues not converged
     c_bands:  1 eigenvalues not converged
     c_bands:  2 eigenvalues not converged
     c_bands:  4 eigenvalues not converged
     c_bands:  1 eigenvalues not converged
     c_bands:  2 eigenvalues not converged
     c_bands:  4 eigenvalues not converged
     c_bands:  2 eigenvalues not converged
     c_bands:  3 eigenvalues not converged
     c_bands:  1 eigenvalues not converged
     c_bands:  1 eigenvalues not converged
     c_bands:  2 eigenvalues not converged
     c_bands:  2 eigenvalues not converged
     c_bands:  4 eigenvalues not converged
     c_bands:  2 eigenvalues not converged
     c_bands:  2 eigenvalues not converged
     c_bands:  2 eigenvalues not converged
     c_bands:  5 eigenvalues not converged
     c_bands:  3 eigenvalues not converged
     c_bands:  1 eigenvalues not converged
     c_bands:  3 eigenvalues not converged
     c_bands:  3 eigenvalues not converged
     c_bands:  1 eigenvalues not converged
     c_bands:  2 eigenvalues not converged
     c_bands:  5 eigenvalues not converged
     c_bands:  1 eigenvalues not converged
     c_bands:  2 eigenvalues not converged
     c_bands:  1 eigenvalues not converged
     c_bands:  2 eigenvalues not converged
     c_bands:  2 eigenvalues not converged
     c_bands:  2 eigenvalues not converged
     c_bands:  2 eigenvalues not converged
     c_bands:  1 eigenvalues not converged
     c_bands:  2 eigenvalues not converged
     c_bands:  2 eigenvalues not converged
     c_bands:  3 eigenvalues not converged
     c_bands:  1 eigenvalues not converged
     c_bands:  1 eigenvalues not converged
     c_bands:  2 eigenvalues not converged
     c_bands:  2 eigenvalues not converged
     c_bands:  5 eigenvalues not converged
     c_bands:  1 eigenvalues not converged
     c_bands:  1 eigenvalues not converged
     c_bands:  4 eigenvalues not converged
     c_bands:  5 eigenvalues not converged
     c_bands:  1 eigenvalues not converged
     c_bands:  1 eigenvalues not converged
     c_bands:  1 eigenvalues not converged
     c_bands:  2 eigenvalues not converged
     c_bands:  5 eigenvalues not converged
     c_bands:  3 eigenvalues not converged
     c_bands:  2 eigenvalues not converged
     c_bands:  1 eigenvalues not converged
     c_bands:  2 eigenvalues not converged
     c_bands:  5 eigenvalues not converged
     c_bands:  3 eigenvalues not converged
     c_bands:  1 eigenvalues not converged
     c_bands:  2 eigenvalues not converged
     c_bands:  1 eigenvalues not converged
     c_bands:  1 eigenvalues not converged
     c_bands:  4 eigenvalues not converged
     c_bands:  4 eigenvalues not converged
     c_bands:  1 eigenvalues not converged
     c_bands:  1 eigenvalues not converged
     c_bands:  2 eigenvalues not converged
     c_bands:  1 eigenvalues not converged
     c_bands:  1 eigenvalues not converged
     c_bands:  1 eigenvalues not converged
     c_bands:  1 eigenvalues not converged
     c_bands:  1 eigenvalues not converged
     c_bands:  1 eigenvalues not converged
     c_bands:  1 eigenvalues not converged
     c_bands:  2 eigenvalues not converged
     c_bands:  1 eigenvalues not converged
     c_bands:  1 eigenvalues not converged
     c_bands:  1 eigenvalues not converged
     c_bands:  4 eigenvalues not converged
     c_bands:  1 eigenvalues not converged
     c_bands:  1 eigenvalues not converged
     c_bands:  2 eigenvalues not converged
     c_bands:  1 eigenvalues not converged
     c_bands:  1 eigenvalues not converged
     c_bands:  1 eigenvalues not converged
     c_bands:  1 eigenvalues not converged
     c_bands:  2 eigenvalues not converged
     c_bands:  2 eigenvalues not converged
     c_bands:  1 eigenvalues not converged
     c_bands:  1 eigenvalues not converged
     c_bands:  2 eigenvalues not converged
     c_bands:  4 eigenvalues not converged
     c_bands:  1 eigenvalues not converged
     c_bands:  3 eigenvalues not converged
     c_bands:  1 eigenvalues not converged
     ethr =  1.00E-02,  avg # of iterations = 14.0

     total cpu time spent up to now is     2953.8 secs

     total energy              =    -908.29602414 Ry
     Harris-Foulkes estimate   =   -1652.54239745 Ry
     estimated scf accuracy    <    1444.25018035 Ry

     iteration #  3     ecut=    40.00 Ry     beta=0.70
     CG style diagonalization
     c_bands:  4 eigenvalues not converged
     c_bands:  2 eigenvalues not converged
     c_bands:  2 eigenvalues not converged
     c_bands:  4 eigenvalues not converged
     c_bands:  4 eigenvalues not converged
     c_bands:  1 eigenvalues not converged
     c_bands:  2 eigenvalues not converged
     c_bands:  1 eigenvalues not converged
     c_bands:  3 eigenvalues not converged
     c_bands:  1 eigenvalues not converged
     c_bands:  4 eigenvalues not converged
     c_bands:  3 eigenvalues not converged
     c_bands:  3 eigenvalues not converged
     c_bands:  3 eigenvalues not converged
     c_bands:  3 eigenvalues not converged
     c_bands:  2 eigenvalues not converged
     c_bands:  3 eigenvalues not converged
     c_bands:  1 eigenvalues not converged
     c_bands:  4 eigenvalues not converged
     c_bands:  3 eigenvalues not converged
     c_bands:  3 eigenvalues not converged
     c_bands:  2 eigenvalues not converged
     c_bands:  2 eigenvalues not converged
     c_bands:  2 eigenvalues not converged
     c_bands:  2 eigenvalues not converged
     c_bands:  1 eigenvalues not converged
     c_bands:  1 eigenvalues not converged
     c_bands:  5 eigenvalues not converged
     c_bands:  4 eigenvalues not converged
     c_bands:  1 eigenvalues not converged
     c_bands:  1 eigenvalues not converged
     c_bands:  1 eigenvalues not converged
     c_bands:  2 eigenvalues not converged
     c_bands:  2 eigenvalues not converged
     c_bands:  2 eigenvalues not converged
     c_bands:  3 eigenvalues not converged
     c_bands:  2 eigenvalues not converged
     c_bands:  1 eigenvalues not converged
     c_bands:  1 eigenvalues not converged
     c_bands:  1 eigenvalues not converged
     c_bands:  2 eigenvalues not converged
     c_bands:  2 eigenvalues not converged
     c_bands:  2 eigenvalues not converged
     c_bands:  2 eigenvalues not converged
     c_bands:  3 eigenvalues not converged
     c_bands:  2 eigenvalues not converged
     c_bands:  1 eigenvalues not converged
     c_bands:  3 eigenvalues not converged
     c_bands:  2 eigenvalues not converged
     c_bands:  4 eigenvalues not converged
     c_bands:  1 eigenvalues not converged
     c_bands:  2 eigenvalues not converged
     c_bands:  2 eigenvalues not converged
     c_bands:  2 eigenvalues not converged
     c_bands:  4 eigenvalues not converged
     c_bands:  2 eigenvalues not converged
     c_bands:  3 eigenvalues not converged
     c_bands:  4 eigenvalues not converged
     c_bands:  2 eigenvalues not converged
     c_bands:  4 eigenvalues not converged
     c_bands:  2 eigenvalues not converged
     c_bands:  3 eigenvalues not converged
     c_bands:  1 eigenvalues not converged
     c_bands:  2 eigenvalues not converged
     c_bands:  2 eigenvalues not converged
     c_bands:  1 eigenvalues not converged
     c_bands:  2 eigenvalues not converged
     c_bands:  1 eigenvalues not converged
     c_bands:  5 eigenvalues not converged
     c_bands:  4 eigenvalues not converged
     c_bands:  1 eigenvalues not converged
     c_bands:  1 eigenvalues not converged
     c_bands:  1 eigenvalues not converged
     c_bands:  3 eigenvalues not converged
     c_bands:  1 eigenvalues not converged
     c_bands:  2 eigenvalues not converged
     c_bands:  3 eigenvalues not converged
     c_bands:  3 eigenvalues not converged
     c_bands:  1 eigenvalues not converged
     c_bands:  1 eigenvalues not converged
     c_bands:  1 eigenvalues not converged
     c_bands:  1 eigenvalues not converged
     c_bands:  2 eigenvalues not converged
     c_bands:  1 eigenvalues not converged
     c_bands:  2 eigenvalues not converged
     c_bands:  4 eigenvalues not converged
     c_bands:  5 eigenvalues not converged
     c_bands:  2 eigenvalues not converged
     c_bands:  3 eigenvalues not converged
     c_bands:  3 eigenvalues not converged
     c_bands:  3 eigenvalues not converged
     c_bands:  1 eigenvalues not converged
     c_bands:  1 eigenvalues not converged
     c_bands:  3 eigenvalues not converged
     c_bands:  2 eigenvalues not converged
     c_bands:  1 eigenvalues not converged
     c_bands:  2 eigenvalues not converged
     c_bands:  4 eigenvalues not converged
     c_bands:  3 eigenvalues not converged
     c_bands:  1 eigenvalues not converged
     c_bands:  3 eigenvalues not converged
     c_bands:  1 eigenvalues not converged
     c_bands:  1 eigenvalues not converged
     c_bands:  3 eigenvalues not converged
     c_bands:  2 eigenvalues not converged
     c_bands:  2 eigenvalues not converged
     c_bands:  2 eigenvalues not converged
     c_bands:  1 eigenvalues not converged
     c_bands:  2 eigenvalues not converged
     c_bands:  1 eigenvalues not converged
     c_bands:  3 eigenvalues not converged
     c_bands:  3 eigenvalues not converged
     c_bands:  1 eigenvalues not converged
     c_bands:  1 eigenvalues not converged
     c_bands:  2 eigenvalues not converged
     c_bands:  3 eigenvalues not converged
     c_bands:  2 eigenvalues not converged
     c_bands:  1 eigenvalues not converged
     c_bands:  1 eigenvalues not converged
     c_bands:  3 eigenvalues not converged
     c_bands:  2 eigenvalues not converged
     c_bands:  1 eigenvalues not converged
     c_bands:  3 eigenvalues not converged
     c_bands:  1 eigenvalues not converged
     c_bands:  1 eigenvalues not converged
     c_bands:  3 eigenvalues not converged
     c_bands:  2 eigenvalues not converged
     c_bands:  4 eigenvalues not converged
     c_bands:  1 eigenvalues not converged
     c_bands:  3 eigenvalues not converged
     c_bands:  4 eigenvalues not converged
     c_bands:  2 eigenvalues not converged
     c_bands:  4 eigenvalues not converged
     c_bands:  2 eigenvalues not converged
     c_bands:  1 eigenvalues not converged
     c_bands:  2 eigenvalues not converged
     c_bands:  3 eigenvalues not converged
     c_bands:  1 eigenvalues not converged
     c_bands:  1 eigenvalues not converged
     c_bands:  3 eigenvalues not converged
     c_bands:  4 eigenvalues not converged
     c_bands:  3 eigenvalues not converged
     c_bands:  2 eigenvalues not converged
     c_bands:  2 eigenvalues not converged
     ethr =  1.00E-02,  avg # of iterations = 13.1

     total cpu time spent up to now is     3138.4 secs

     total energy              =   -1310.87782139 Ry
     Harris-Foulkes estimate   =   -1395.83465627 Ry
     estimated scf accuracy    <     233.37791326 Ry

     iteration #  4     ecut=    40.00 Ry     beta=0.70
     CG style diagonalization
     ethr =  1.00E-02,  avg # of iterations =  6.3

     total cpu time spent up to now is     3229.3 secs

     total energy              =   -1328.77955909 Ry
     Harris-Foulkes estimate   =   -1335.00755624 Ry
     estimated scf accuracy    <      18.94049982 Ry

     iteration #  5     ecut=    40.00 Ry     beta=0.70
     CG style diagonalization
     ethr =  1.00E-02,  avg # of iterations =  3.3

     total cpu time spent up to now is     3277.2 secs

     total energy              =   -1325.91107304 Ry
     Harris-Foulkes estimate   =   -1329.73617110 Ry
     estimated scf accuracy    <       7.02524023 Ry

     iteration #  6     ecut=    40.00 Ry     beta=0.70
     CG style diagonalization
     ethr =  6.50E-03,  avg # of iterations =  4.0

     total cpu time spent up to now is     3335.6 secs

     total energy              =   -1327.81361564 Ry
     Harris-Foulkes estimate   =   -1327.88833289 Ry
     estimated scf accuracy    <       0.22385184 Ry

     iteration #  7     ecut=    40.00 Ry     beta=0.70
     CG style diagonalization
     c_bands:  4 eigenvalues not converged
     c_bands:  2 eigenvalues not converged
     c_bands:  1 eigenvalues not converged
     c_bands:  4 eigenvalues not converged
     c_bands:  1 eigenvalues not converged
     c_bands:  1 eigenvalues not converged
     c_bands:  1 eigenvalues not converged
     c_bands:  1 eigenvalues not converged
     c_bands:  1 eigenvalues not converged
     c_bands:  1 eigenvalues not converged
     c_bands:  1 eigenvalues not converged
     c_bands:  1 eigenvalues not converged
     c_bands:  1 eigenvalues not converged
     c_bands:  2 eigenvalues not converged
     c_bands:  2 eigenvalues not converged
     c_bands:  1 eigenvalues not converged
     c_bands:  2 eigenvalues not converged
     c_bands:  1 eigenvalues not converged
     c_bands:  2 eigenvalues not converged
     c_bands:  1 eigenvalues not converged
     c_bands:  3 eigenvalues not converged
     c_bands:  1 eigenvalues not converged
     c_bands:  1 eigenvalues not converged
     c_bands:  1 eigenvalues not converged
     c_bands:  1 eigenvalues not converged
     c_bands:  1 eigenvalues not converged
     c_bands:  2 eigenvalues not converged
     c_bands:  1 eigenvalues not converged
     c_bands:  1 eigenvalues not converged
     c_bands:  1 eigenvalues not converged
     c_bands:  1 eigenvalues not converged
     c_bands:  2 eigenvalues not converged
     c_bands:  1 eigenvalues not converged
     c_bands:  1 eigenvalues not converged
     c_bands:  1 eigenvalues not converged
     c_bands:  2 eigenvalues not converged
     c_bands:  1 eigenvalues not converged
     c_bands:  1 eigenvalues not converged
     c_bands:  1 eigenvalues not converged
     c_bands:  1 eigenvalues not converged
     c_bands:  1 eigenvalues not converged
     c_bands:  1 eigenvalues not converged
     c_bands:  2 eigenvalues not converged
     c_bands:  1 eigenvalues not converged
     c_bands:  1 eigenvalues not converged
     c_bands:  1 eigenvalues not converged
     c_bands:  1 eigenvalues not converged
     c_bands:  1 eigenvalues not converged
     c_bands:  1 eigenvalues not converged
     c_bands:  1 eigenvalues not converged
     c_bands:  1 eigenvalues not converged
     c_bands:  1 eigenvalues not converged
     c_bands:  1 eigenvalues not converged
     c_bands:  1 eigenvalues not converged
     c_bands:  1 eigenvalues not converged
     c_bands:  1 eigenvalues not converged
     c_bands:  2 eigenvalues not converged
     c_bands:  1 eigenvalues not converged
     c_bands:  1 eigenvalues not converged
     c_bands:  1 eigenvalues not converged
     c_bands:  2 eigenvalues not converged
     c_bands:  1 eigenvalues not converged
     c_bands:  1 eigenvalues not converged
     ethr =  2.07E-04,  avg # of iterations =  5.1

     negative rho (up, down):  0.120E-05 0.000E+00

     total cpu time spent up to now is     3409.3 secs

     total energy              =   -1327.84960486 Ry
     Harris-Foulkes estimate   =   -1327.90760829 Ry
     estimated scf accuracy    <       0.08313468 Ry

     iteration #  8     ecut=    40.00 Ry     beta=0.70
     CG style diagonalization
     c_bands:  1 eigenvalues not converged
     c_bands:  1 eigenvalues not converged
     c_bands:  1 eigenvalues not converged
     c_bands:  1 eigenvalues not converged
     c_bands:  1 eigenvalues not converged
     c_bands:  1 eigenvalues not converged
     c_bands:  1 eigenvalues not converged
     c_bands:  1 eigenvalues not converged
     c_bands:  1 eigenvalues not converged
     c_bands:  1 eigenvalues not converged
     c_bands:  1 eigenvalues not converged
     c_bands:  1 eigenvalues not converged
     c_bands:  1 eigenvalues not converged
     c_bands:  1 eigenvalues not converged
     c_bands:  1 eigenvalues not converged
     c_bands:  1 eigenvalues not converged
     c_bands:  1 eigenvalues not converged
     ethr =  7.70E-05,  avg # of iterations =  4.6

     negative rho (up, down):  0.182E-04 0.000E+00

     total cpu time spent up to now is     3475.3 secs

     total energy              =   -1327.82829446 Ry
     Harris-Foulkes estimate   =   -1327.98122283 Ry
     estimated scf accuracy    <       0.33439946 Ry

     iteration #  9     ecut=    40.00 Ry     beta=0.70
     CG style diagonalization
     ethr =  7.70E-05,  avg # of iterations =  3.9

     negative rho (up, down):  0.134E-05 0.000E+00

     total cpu time spent up to now is     3531.9 secs

     total energy              =   -1327.88313297 Ry
     Harris-Foulkes estimate   =   -1327.88396605 Ry
     estimated scf accuracy    <       0.00319951 Ry

     iteration # 10     ecut=    40.00 Ry     beta=0.70
     CG style diagonalization
     c_bands:  1 eigenvalues not converged
     c_bands:  1 eigenvalues not converged
     c_bands:  1 eigenvalues not converged
     c_bands:  1 eigenvalues not converged
     c_bands:  1 eigenvalues not converged
     c_bands:  1 eigenvalues not converged
     c_bands:  3 eigenvalues not converged
     c_bands:  1 eigenvalues not converged
     c_bands:  1 eigenvalues not converged
     c_bands:  1 eigenvalues not converged
     c_bands:  1 eigenvalues not converged
     c_bands:  1 eigenvalues not converged
     c_bands:  1 eigenvalues not converged
     c_bands:  3 eigenvalues not converged
     c_bands:  2 eigenvalues not converged
     c_bands:  1 eigenvalues not converged
     c_bands:  1 eigenvalues not converged
     c_bands:  1 eigenvalues not converged
     c_bands:  1 eigenvalues not converged
     c_bands:  1 eigenvalues not converged
     c_bands:  1 eigenvalues not converged
     c_bands:  2 eigenvalues not converged
     c_bands:  1 eigenvalues not converged
     c_bands:  1 eigenvalues not converged
     c_bands:  1 eigenvalues not converged
     c_bands:  1 eigenvalues not converged
     c_bands:  1 eigenvalues not converged
     c_bands:  1 eigenvalues not converged
     c_bands:  1 eigenvalues not converged
     c_bands:  1 eigenvalues not converged
     c_bands:  1 eigenvalues not converged
     c_bands:  1 eigenvalues not converged
     c_bands:  1 eigenvalues not converged
     c_bands:  1 eigenvalues not converged
     c_bands:  1 eigenvalues not converged
     c_bands:  1 eigenvalues not converged
     c_bands:  1 eigenvalues not converged
     c_bands:  1 eigenvalues not converged
     c_bands:  1 eigenvalues not converged
     c_bands:  1 eigenvalues not converged
     c_bands:  1 eigenvalues not converged
     c_bands:  1 eigenvalues not converged
     c_bands:  1 eigenvalues not converged
     c_bands:  1 eigenvalues not converged
     c_bands:  1 eigenvalues not converged
     c_bands:  2 eigenvalues not converged
     c_bands:  1 eigenvalues not converged
     c_bands:  1 eigenvalues not converged
     c_bands:  1 eigenvalues not converged
     c_bands:  1 eigenvalues not converged
     c_bands:  1 eigenvalues not converged
     c_bands:  2 eigenvalues not converged
     c_bands:  1 eigenvalues not converged
     ethr =  2.96E-06,  avg # of iterations =  5.1

     total cpu time spent up to now is     3604.9 secs

     total energy              =   -1327.88438580 Ry
     Harris-Foulkes estimate   =   -1327.88468664 Ry
     estimated scf accuracy    <       0.00079117 Ry

     iteration # 11     ecut=    40.00 Ry     beta=0.70
     CG style diagonalization
     c_bands:  1 eigenvalues not converged
     c_bands:  1 eigenvalues not converged
     c_bands:  1 eigenvalues not converged
     c_bands:  1 eigenvalues not converged
     c_bands:  1 eigenvalues not converged
     c_bands:  1 eigenvalues not converged
     c_bands:  1 eigenvalues not converged
     c_bands:  1 eigenvalues not converged
     c_bands:  1 eigenvalues not converged
     c_bands:  1 eigenvalues not converged
     c_bands:  1 eigenvalues not converged
     c_bands:  1 eigenvalues not converged
     ethr =  7.33E-07,  avg # of iterations =  3.5

     total cpu time spent up to now is     3656.1 secs

     total energy              =   -1327.88452669 Ry
     Harris-Foulkes estimate   =   -1327.88454366 Ry
     estimated scf accuracy    <       0.00003771 Ry

     iteration # 12     ecut=    40.00 Ry     beta=0.70
     CG style diagonalization
     c_bands:  1 eigenvalues not converged
     c_bands:  1 eigenvalues not converged
     c_bands:  1 eigenvalues not converged
     ethr =  3.49E-08,  avg # of iterations =  4.5

     total cpu time spent up to now is     3720.1 secs

     total energy              =   -1327.88454688 Ry
     Harris-Foulkes estimate   =   -1327.88455069 Ry
     estimated scf accuracy    <       0.00000666 Ry

     iteration # 13     ecut=    40.00 Ry     beta=0.70
     CG style diagonalization
     ethr =  6.17E-09,  avg # of iterations =  3.9

     total cpu time spent up to now is     3777.9 secs

     total energy              =   -1327.88454854 Ry
     Harris-Foulkes estimate   =   -1327.88454919 Ry
     estimated scf accuracy    <       0.00000101 Ry

     iteration # 14     ecut=    40.00 Ry     beta=0.70
     CG style diagonalization
     ethr =  9.32E-10,  avg # of iterations =  3.8

     total cpu time spent up to now is     3837.4 secs

     End of self-consistent calculation

     Number of k-points >= 100: set verbosity='high' to print the bands.

     the Fermi energy is    28.5267 ev

!    total energy              =   -1327.88454869 Ry
     Harris-Foulkes estimate   =   -1327.88454907 Ry
     estimated scf accuracy    <       0.00000041 Ry

     The total energy is the sum of the following terms:

     one-electron contribution =    -342.35323547 Ry
     hartree contribution      =     249.53288354 Ry
     xc contribution           =    -125.41329569 Ry
     ewald contribution        =   -1109.49856247 Ry
     smearing contrib. (-TS)   =      -0.15233860 Ry

     convergence has been achieved in  14 iterations

     Forces acting on atoms (Ry/au):

     atom    1 type  1   force =     0.00000000    0.00000000   -0.00075893
     atom    2 type  1   force =     0.00000000    0.00000000    0.00075893
     atom    3 type  2   force =     0.00000000    0.00000000    0.00000000
     atom    4 type  2   force =     0.00000000    0.00000000    0.00000000
     atom    5 type  2   force =     0.00000000    0.00000000    0.00000000
     atom    6 type  2   force =     0.00000000    0.00000000    0.00000000

     Total force =     0.001073     Total SCF correction =     0.000000


     entering subroutine stress ...

          total   stress  (Ry/bohr**3)                   (kbar)     P=  540.22
   0.00367262   0.00000000   0.00000000        540.26      0.00      0.00
   0.00000000   0.00367262   0.00000000          0.00    540.26      0.00
   0.00000000   0.00000000   0.00367183          0.00      0.00    540.14


     Writing output data file Prototype-La-cF24-Cu2Mg.save
 
     init_run     :     16.85s CPU     21.91s WALL (       2 calls)
     electrons    :   3066.21s CPU   3778.77s WALL (       5 calls)
     update_pot   :      1.28s CPU      1.30s WALL (       3 calls)
     forces       :      9.82s CPU     10.44s WALL (       5 calls)
     stress       :     27.82s CPU     28.54s WALL (       5 calls)

     Called by init_run:
     wfcinit      :     16.27s CPU     21.30s WALL (       2 calls)
     potinit      :      0.26s CPU      0.26s WALL (       2 calls)

     Called by electrons:
     c_bands      :   2940.89s CPU   3589.12s WALL (      44 calls)
     sum_band     :    125.01s CPU    164.44s WALL (      44 calls)
     v_of_rho     :      0.07s CPU      0.08s WALL (      48 calls)
     mix_rho      :      0.05s CPU      0.06s WALL (      44 calls)

     Called by c_bands:
     init_us_2    :      6.34s CPU      8.07s WALL (   17000 calls)
     ccgdiagg     :   2588.64s CPU   3117.03s WALL (    8651 calls)
     wfcrot       :    362.00s CPU    479.66s WALL (    8821 calls)

     Called by *cgdiagg:
     h_psi        :   2273.19s CPU   2836.28s WALL ( 2974216 calls)
     cdiaghg      :     14.81s CPU     15.71s WALL (    8821 calls)

     Called by h_psi:
     add_vuspsi   :    220.74s CPU    242.29s WALL ( 2974216 calls)

     General routines
     calbec       :    423.80s CPU    467.65s WALL ( 5941311 calls)
     fft          :      0.11s CPU      0.13s WALL (     217 calls)
     fftw         :   1843.96s CPU   2277.75s WALL ( 7563720 calls)
     davcio       :      4.49s CPU     11.32s WALL (   24480 calls)
 
     Parallel routines
     fft_scatter  :    656.25s CPU    866.06s WALL ( 7563937 calls)
 
     PWSCF        :     0h52m CPU        1h 4m WALL

 
   This run was terminated on:   1:39:31  22Mar2018            

=------------------------------------------------------------------------------=
   JOB DONE.
=------------------------------------------------------------------------------=
