
     Program PWSCF v.5.0.2 starts on 23Mar2018 at  2:19:43 

     This program is part of the open-source Quantum ESPRESSO suite
     for quantum simulation of materials; please cite
         "P. Giannozzi et al., J. Phys.:Condens. Matter 21 395502 (2009);
          URL http://www.quantum-espresso.org", 
     in publications or presentations arising from this work. More details at
     http://www.quantum-espresso.org/quote.php

     Parallel version (MPI), running on     4 processors
     R & G space division:  proc/nbgrp/npool/nimage =       4

     Current dimensions of program PWSCF are:
     Max number of different atomic species (ntypx) = 10
     Max number of k-points (npk) =  40000
     Max angular momentum in pseudopotentials (lmaxx) =  3
     Waiting for input...
     Reading input from standard input

     Subspace diagonalization in iterative solution of the eigenvalue problem:
     a serial algorithm will be used

 
     Parallelization info
     --------------------
     sticks:   dense  smooth     PW     G-vecs:    dense   smooth      PW
     Min         207     207     61                 7381     7381    1191
     Max         208     208     62                 7386     7386    1192
     Sum         829     829    247                29529    29529    4767
 


     bravais-lattice index     =            0
     lattice parameter (alat)  =       7.0151  a.u.
     unit-cell volume          =     862.2778 (a.u.)^3
     number of atoms/cell      =           12
     number of atomic types    =            2
     number of electrons       =       212.00
     number of Kohn-Sham states=          127
     kinetic-energy cutoff     =      40.0000  Ry
     charge density cutoff     =     160.0000  Ry
     convergence threshold     =      1.0E-04
     mixing beta               =       0.7000
     number of iterations used =            8  plain     mixing
     Exchange-correlation      = SLA-PZ-NOGX-NOGC ( 1 1 0 0 0)
     EXX-fraction              =        0.00
     nstep                     =           50


     celldm(1)=   7.015105  celldm(2)=   0.000000  celldm(3)=   0.000000
     celldm(4)=   0.000000  celldm(5)=   0.000000  celldm(6)=   0.000000

     crystal axes: (cart. coord. in units of alat)
               a(1) = (   1.000000   0.000000   0.000000 )  
               a(2) = (   0.000000   1.315963   0.000000 )  
               a(3) = (   0.000000   0.000000   1.898020 )  

     reciprocal axes: (cart. coord. in units 2 pi/alat)
               b(1) = (  1.000000  0.000000  0.000000 )  
               b(2) = (  0.000000  0.759900  0.000000 )  
               b(3) = (  0.000000  0.000000  0.526865 )  


     PseudoPot. # 1 for Dy read from file:
     /home/cwx6513/pp.La/Dy.UPF
     MD5 check sum: 9597327bec62616a94a14d07f3fd9936
     Pseudo is Norm-conserving, Zval = 20.0
     Generated in analytical, separable form
     Using radial grid of 1265 points,  6 beta functions with: 
                l(1) =   0
                l(2) =   0
                l(3) =   1
                l(4) =   1
                l(5) =   2
                l(6) =   3

     PseudoPot. # 2 for Pr read from file:
     /home/cwx6513/pp.La/Pr.UPF
     MD5 check sum: 70e2b4b153859e92c8c91247dfc63203
     Pseudo is Norm-conserving, Zval = 13.0
     Generated in analytical, separable form
     Using radial grid of 1255 points,  6 beta functions with: 
                l(1) =   0
                l(2) =   0
                l(3) =   1
                l(4) =   1
                l(5) =   2
                l(6) =   3

     atomic species   valence    mass     pseudopotential
        Co            20.00    58.93320     Dy( 1.00)
        Si            13.00    28.08550     Pr( 1.00)

      8 Sym. Ops., with inversion, found ( 6 have fractional translation)



   Cartesian axes

     site n.     atom                  positions (alat units)
         1           Co  tau(   1) = (   0.7500000   1.0875135   0.8270358  )
         2           Co  tau(   2) = (   0.2500000   0.2284499   1.0709846  )
         3           Co  tau(   3) = (   0.7500000   0.4295318   0.1219744  )
         4           Co  tau(   4) = (   0.2500000   0.8864316   1.7760460  )
         5           Co  tau(   5) = (   0.2500000   0.7067855   0.5358966  )
         6           Co  tau(   6) = (   0.7500000   0.6091779   1.3621238  )
         7           Co  tau(   7) = (   0.2500000   0.0488038   0.4131136  )
         8           Co  tau(   8) = (   0.7500000   1.2671596   1.4849068  )
         9           Si  tau(   9) = (   0.2500000   0.2669484   1.6960710  )
        10           Si  tau(  10) = (   0.7500000   1.0490149   0.2019494  )
        11           Si  tau(  11) = (   0.2500000   0.9249301   1.1509596  )
        12           Si  tau(  12) = (   0.7500000   0.3910333   0.7470608  )

     number of k points=    12  gaussian smearing, width (Ry)=  0.1000
                       cart. coord. in units 2pi/alat
        k(    1) = (   0.0000000   0.0000000   0.0000000), wk =   0.0833333
        k(    2) = (   0.0000000   0.0000000   0.1317162), wk =   0.1666667
        k(    3) = (   0.0000000   0.0000000  -0.2634324), wk =   0.0833333
        k(    4) = (   0.0000000   0.2532999   0.0000000), wk =   0.1666667
        k(    5) = (   0.0000000   0.2532999   0.1317162), wk =   0.3333333
        k(    6) = (   0.0000000   0.2532999  -0.2634324), wk =   0.1666667
        k(    7) = (  -0.5000000   0.0000000   0.0000000), wk =   0.0833333
        k(    8) = (  -0.5000000   0.0000000   0.1317162), wk =   0.1666667
        k(    9) = (  -0.5000000   0.0000000  -0.2634324), wk =   0.0833333
        k(   10) = (  -0.5000000   0.2532999   0.0000000), wk =   0.1666667
        k(   11) = (  -0.5000000   0.2532999   0.1317162), wk =   0.3333333
        k(   12) = (  -0.5000000   0.2532999  -0.2634324), wk =   0.1666667

     Dense  grid:    29529 G-vectors     FFT dimensions: (  30,  40,  54)

     Largest allocated arrays     est. size (Mb)     dimensions
        Kohn-Sham Wavefunctions         1.79 Mb     (    922,  127)
        NL pseudopotentials             3.38 Mb     (    922,  240)
        Each V/rho on FFT grid          0.26 Mb     (  16800)
        Each G-vector array             0.06 Mb     (   7386)
        G-vector shells                 0.06 Mb     (   7386)
     Largest temporary arrays     est. size (Mb)     dimensions
        Each subspace H/S matrix        0.25 Mb     ( 127, 127)
        Each <psi_i|beta_j> matrix      0.47 Mb     (    240,  127)
        Arrays for rho mixing           2.05 Mb     (  16800,   8)

     Initial potential from superposition of free atoms
     Check: negative starting charge=   -0.001196

     starting charge   51.96217, renormalised to  212.00000

     negative rho (up, down):  0.488E-02 0.000E+00
     Starting wfc are   80 randomized atomic wfcs

     total cpu time spent up to now is        2.5 secs

     Self-consistent Calculation

     iteration #  1     ecut=    40.00 Ry     beta=0.70
     CG style diagonalization
     c_bands:  2 eigenvalues not converged
     c_bands:  2 eigenvalues not converged
     c_bands:  1 eigenvalues not converged
     c_bands:  1 eigenvalues not converged
     c_bands:  1 eigenvalues not converged
     c_bands:  1 eigenvalues not converged
     c_bands:  1 eigenvalues not converged
     c_bands:  1 eigenvalues not converged
     ethr =  1.00E-02,  avg # of iterations = 31.9

     negative rho (up, down):  0.144E-02 0.000E+00

     total cpu time spent up to now is      117.1 secs

     total energy              =   -1702.61348674 Ry
     Harris-Foulkes estimate   =   -5058.27268690 Ry
     estimated scf accuracy    <    3984.43899756 Ry

     iteration #  2     ecut=    40.00 Ry     beta=0.70
     CG style diagonalization
     c_bands:  2 eigenvalues not converged
     c_bands:  4 eigenvalues not converged
     c_bands:  1 eigenvalues not converged
     c_bands:  2 eigenvalues not converged
     c_bands:  3 eigenvalues not converged
     c_bands:  3 eigenvalues not converged
     c_bands:  1 eigenvalues not converged
     c_bands:  1 eigenvalues not converged
     c_bands:  1 eigenvalues not converged
     ethr =  1.00E-02,  avg # of iterations = 13.1

     negative rho (up, down):  0.617E-03 0.000E+00

     total cpu time spent up to now is      165.8 secs

     total energy              =   -2120.70230694 Ry
     Harris-Foulkes estimate   =   -2800.29378037 Ry
     estimated scf accuracy    <     971.56229876 Ry

     iteration #  3     ecut=    40.00 Ry     beta=0.70
     CG style diagonalization
     c_bands:  1 eigenvalues not converged
     c_bands:  3 eigenvalues not converged
     c_bands:  3 eigenvalues not converged
     c_bands:  1 eigenvalues not converged
     c_bands:  1 eigenvalues not converged
     c_bands:  1 eigenvalues not converged
     ethr =  1.00E-02,  avg # of iterations = 13.2

     negative rho (up, down):  0.142E-03 0.000E+00

     total cpu time spent up to now is      216.9 secs

     total energy              =   -2312.50167769 Ry
     Harris-Foulkes estimate   =   -2542.19534686 Ry
     estimated scf accuracy    <     465.29109945 Ry

     iteration #  4     ecut=    40.00 Ry     beta=0.70
     CG style diagonalization
     c_bands:  1 eigenvalues not converged
     ethr =  1.00E-02,  avg # of iterations =  8.7

     total cpu time spent up to now is      251.9 secs

     total energy              =   -2431.87262178 Ry
     Harris-Foulkes estimate   =   -2448.37067858 Ry
     estimated scf accuracy    <      32.56634204 Ry

     iteration #  5     ecut=    40.00 Ry     beta=0.70
     CG style diagonalization
     ethr =  1.00E-02,  avg # of iterations =  4.0

     total cpu time spent up to now is      267.6 secs

     total energy              =   -2438.17551283 Ry
     Harris-Foulkes estimate   =   -2443.63484593 Ry
     estimated scf accuracy    <      11.83808329 Ry

     iteration #  6     ecut=    40.00 Ry     beta=0.70
     CG style diagonalization
     ethr =  5.58E-03,  avg # of iterations =  3.6

     total cpu time spent up to now is      281.6 secs

     total energy              =   -2440.52137991 Ry
     Harris-Foulkes estimate   =   -2440.66161283 Ry
     estimated scf accuracy    <       0.28635023 Ry

     iteration #  7     ecut=    40.00 Ry     beta=0.70
     CG style diagonalization
     c_bands:  4 eigenvalues not converged
     c_bands:  3 eigenvalues not converged
     c_bands:  3 eigenvalues not converged
     c_bands:  1 eigenvalues not converged
     c_bands:  2 eigenvalues not converged
     c_bands:  1 eigenvalues not converged
     c_bands:  2 eigenvalues not converged
     ethr =  1.35E-04,  avg # of iterations =  5.5

     total cpu time spent up to now is      303.4 secs

     total energy              =   -2440.67722933 Ry
     Harris-Foulkes estimate   =   -2440.70983360 Ry
     estimated scf accuracy    <       0.06690469 Ry

     iteration #  8     ecut=    40.00 Ry     beta=0.70
     CG style diagonalization
     c_bands:  1 eigenvalues not converged
     c_bands:  1 eigenvalues not converged
     ethr =  3.16E-05,  avg # of iterations =  4.0

     total cpu time spent up to now is      319.0 secs

     total energy              =   -2440.68946216 Ry
     Harris-Foulkes estimate   =   -2440.69476619 Ry
     estimated scf accuracy    <       0.01041457 Ry

     iteration #  9     ecut=    40.00 Ry     beta=0.70
     CG style diagonalization
     c_bands:  1 eigenvalues not converged
     c_bands:  1 eigenvalues not converged
     c_bands:  1 eigenvalues not converged
     ethr =  4.91E-06,  avg # of iterations =  4.2

     total cpu time spent up to now is      335.1 secs

     total energy              =   -2440.69199919 Ry
     Harris-Foulkes estimate   =   -2440.69251234 Ry
     estimated scf accuracy    <       0.00097309 Ry

     iteration # 10     ecut=    40.00 Ry     beta=0.70
     CG style diagonalization
     ethr =  4.59E-07,  avg # of iterations =  4.5

     total cpu time spent up to now is      350.6 secs

     total energy              =   -2440.69251183 Ry
     Harris-Foulkes estimate   =   -2440.69258864 Ry
     estimated scf accuracy    <       0.00016373 Ry

     iteration # 11     ecut=    40.00 Ry     beta=0.70
     CG style diagonalization
     ethr =  7.72E-08,  avg # of iterations =  3.7

     total cpu time spent up to now is      363.3 secs

     End of self-consistent calculation

          k = 0.0000 0.0000 0.0000 (  3675 PWs)   bands (ev):

   -36.6126 -36.4591 -36.3761 -36.3091 -36.2727 -36.2032 -36.2012 -36.1809
    -5.1644  -4.8290  -4.6874  -4.5149  -4.4036  -4.3747  -4.2532  -4.0740
    -3.9567  -3.9414  -3.9086  -3.6991  -3.6479  -3.5682  -3.5554  -3.5369
    -3.4048  -3.3680  -3.2614  -3.2387  -3.1794  -3.0161  -2.8527  -2.7621
     4.9809   5.5841   5.6006   5.6879  22.0533  22.5051  22.6714  22.7508
    23.0907  23.2857  23.3551  23.6802  23.6872  23.9066  24.5085  25.1623
    31.1917  31.4975  31.7991  31.8165  31.9256  32.0984  32.3212  32.9113
    33.5815  33.9925  34.2232  34.5879  34.7266  34.7882  35.1588  36.0968
    36.1489  36.1818  36.3403  36.4421  36.5288  36.6302  37.2360  37.2741
    37.3461  37.6691  37.7545  38.5943  39.0014  39.0754  39.3654  39.8573
    39.9487  40.3102  40.5209  40.5547  40.7875  40.7967  40.9910  41.1136
    41.8408  42.0194  44.1141  44.6330  45.7550  46.2963  46.3457  47.2658
    47.3414  47.5786  47.7126  48.0585  49.1507  49.4597  50.3078  50.3516
    50.3703  51.2643  51.3684  51.9659  52.2581  52.4413  52.8354  53.1989
    53.4446  53.4783  53.9325  54.9688  55.0714  55.2361  55.5552  56.1335
    56.4431  57.3287  57.4975  57.6543  57.7497  58.2082  58.6739

          k = 0.0000 0.0000 0.1317 (  3675 PWs)   bands (ev):

   -36.6001 -36.4971 -36.3444 -36.3144 -36.2680 -36.2208 -36.1879 -36.1847
    -5.1305  -4.8924  -4.6456  -4.5178  -4.4331  -4.3826  -4.3010  -3.9864
    -3.9539  -3.9194  -3.8987  -3.7067  -3.6464  -3.5765  -3.5614  -3.5256
    -3.4351  -3.2870  -3.2526  -3.2349  -3.2168  -3.0872  -2.8424  -2.7808
     5.0770   5.5044   5.6085   5.6911  22.1359  22.5588  22.6179  22.6887
    23.1466  23.2282  23.4218  23.5611  23.6626  23.7887  24.5903  25.0399
    31.1938  31.3352  31.7333  31.8014  31.9575  32.1018  32.4804  33.2941
    33.6016  33.8964  34.2381  34.6565  34.8517  35.2936  35.4903  35.9941
    36.0304  36.4433  36.6363  36.6543  36.6846  36.7736  37.0377  37.1147
    37.2981  37.5727  37.7303  38.5684  38.6892  38.6936  39.2463  39.4741
    39.6689  39.9834  40.2996  40.3197  40.6757  40.8242  41.1821  41.7909
    41.8184  42.0226  42.6438  45.3894  45.4290  45.8180  47.0761  47.1649
    47.1953  47.8681  48.3445  48.6496  48.8420  48.9139  50.2075  50.2579
    50.9090  51.1151  51.2065  51.9581  52.0375  52.3375  52.6983  53.3600
    53.6273  54.4737  54.8224  54.9452  55.4638  55.7881  55.8082  56.0408
    56.4371  56.7575  56.9703  57.8807  58.4149  58.4958  58.5896

          k = 0.0000 0.0000-0.2634 (  3690 PWs)   bands (ev):

   -36.5642 -36.5642 -36.3145 -36.3145 -36.2573 -36.2573 -36.1857 -36.1857
    -5.0370  -5.0370  -4.5349  -4.5349  -4.4780  -4.4780  -4.1486  -4.1486
    -3.8676  -3.8676  -3.7892  -3.7892  -3.6238  -3.6238  -3.5527  -3.5527
    -3.3495  -3.3495  -3.2434  -3.2434  -3.2121  -3.2121  -2.8182  -2.8182
     5.2957   5.2957   5.6579   5.6579  22.3545  22.3545  22.6780  22.6780
    23.1417  23.1417  23.5643  23.5643  23.5835  23.5835  24.7904  24.7904
    31.2673  31.2673  31.4738  31.4738  32.0510  32.0510  33.4264  33.4264
    33.9886  33.9886  34.2580  34.2580  35.3883  35.3883  35.7420  35.7420
    36.1766  36.1766  36.4798  36.4798  36.8176  36.8176  36.9926  36.9926
    37.8767  37.8767  38.3571  38.3571  38.5273  38.5273  39.0929  39.0929
    39.3419  39.3419  39.9706  39.9706  40.5787  40.5787  41.5128  41.5128
    41.9342  41.9342  43.4998  43.4998  45.8114  45.8114  47.0378  47.0378
    48.2246  48.2246  48.9800  48.9800  49.3061  49.3061  49.6395  49.6395
    50.0143  50.0143  51.4554  51.4554  52.6725  52.6725  54.0129  54.0130
    54.0508  54.0509  54.9055  54.9056  55.7997  55.7997  56.0767  56.0768
    57.0879  57.0881  57.4815  57.4817  58.0479  58.0483  58.2682

          k = 0.0000 0.2533 0.0000 (  3664 PWs)   bands (ev):

   -36.5484 -36.4190 -36.3938 -36.3391 -36.2864 -36.2508 -36.1859 -36.1730
    -4.9259  -4.6383  -4.5387  -4.4412  -4.3631  -4.2716  -4.2136  -4.1889
    -4.0885  -4.0027  -3.9555  -3.8182  -3.7968  -3.5753  -3.4566  -3.4156
    -3.3504  -3.2953  -3.2934  -3.2787  -3.1894  -3.1656  -3.0662  -2.9974
     5.2519   5.5463   5.7235   5.7755  22.1977  22.4564  22.5973  22.7205
    22.7361  22.7482  23.1512  23.2186  23.4483  23.7186  24.3063  24.6535
    31.8228  32.0434  32.0502  32.5431  32.6002  32.7756  33.1327  33.4461
    33.4529  33.7890  34.2175  34.3606  34.6289  35.0652  35.1254  35.5195
    36.0587  36.1641  36.2714  36.3902  37.0711  37.0716  37.3056  37.5979
    37.7130  38.3806  38.4649  38.8589  39.0070  39.2706  39.3120  39.4827
    39.7755  40.1473  40.4194  40.4607  40.6324  40.8196  40.8329  41.5594
    42.1790  42.6583  43.2459  43.6573  45.0913  45.8699  46.2362  46.6937
    46.7547  47.2164  48.1381  48.1418  48.1630  48.7175  49.7924  50.0183
    50.2331  50.3194  50.7275  50.8470  50.9555  51.7818  52.8856  53.2576
    53.4491  53.5548  55.1387  55.2957  55.6277  56.2070  56.2273  56.4634
    56.7036  56.9929  57.3096  57.6026  57.7109  57.9616  58.1847

          k = 0.0000 0.2533 0.1317 (  3669 PWs)   bands (ev):

   -36.5372 -36.4566 -36.3877 -36.3396 -36.2748 -36.2301 -36.2004 -36.1833
    -4.8961  -4.6677  -4.5091  -4.4904  -4.3944  -4.3169  -4.1928  -4.1081
    -4.0652  -4.0093  -3.9211  -3.8761  -3.7504  -3.5400  -3.5027  -3.4362
    -3.4313  -3.4093  -3.2790  -3.2024  -3.1909  -3.1554  -3.0284  -2.9985
     5.3223   5.5668   5.6750   5.7544  22.2704  22.4317  22.6103  22.6368
    22.6604  22.7298  23.2286  23.2587  23.3915  23.6328  24.3262  24.6104
    31.7951  31.9226  32.1684  32.3103  32.8737  32.9104  33.0427  33.4659
    33.7863  33.9465  34.2046  34.4332  34.6613  35.0762  35.2513  35.6618
    35.9221  36.2630  36.4200  36.7946  36.7992  37.0890  37.3023  37.5157
    37.7341  37.8202  38.4950  38.7573  38.9383  39.0025  39.4465  39.4522
    39.9269  40.0586  40.3073  40.4482  40.6389  40.7431  41.0308  41.3952
    42.0942  42.3461  42.8350  43.6491  45.0818  45.5685  46.5469  46.8544
    47.1319  47.3512  47.4047  48.1046  48.6712  49.0191  49.2865  49.8078
    50.0934  50.3952  50.9591  51.2448  51.2858  51.8483  52.0783  53.6409
    53.7474  54.0351  54.9256  55.5017  55.5954  56.1106  56.2501  56.2537
    56.5476  56.8360  57.4385  57.5108  57.9933  58.1333  58.3403

          k = 0.0000 0.2533-0.2634 (  3666 PWs)   bands (ev):

   -36.5027 -36.5027 -36.3690 -36.3690 -36.2323 -36.2323 -36.1988 -36.1988
    -4.7839  -4.7839  -4.4569  -4.4569  -4.4239  -4.4239  -4.0822  -4.0822
    -4.0506  -4.0506  -3.8915  -3.8915  -3.6221  -3.6221  -3.5012  -3.5012
    -3.4807  -3.4807  -3.2370  -3.2370  -3.1577  -3.1577  -2.9962  -2.9962
     5.4798   5.4798   5.6914   5.6914  22.4571  22.4571  22.4636  22.4636
    22.6992  22.6992  23.3061  23.3061  23.4262  23.4262  24.4616  24.4616
    31.8374  31.8374  32.0744  32.0744  33.1420  33.1420  33.2705  33.2705
    33.9573  33.9573  34.7731  34.7731  34.9102  34.9102  35.3796  35.3796
    36.0302  36.0302  36.4009  36.4009  36.9141  36.9141  37.5121  37.5121
    37.7061  37.7061  38.4444  38.4444  39.1875  39.1875  39.3080  39.3080
    39.9854  39.9854  40.2558  40.2558  40.7844  40.7844  41.2592  41.2592
    41.7885  41.7885  43.2247  43.2247  45.0696  45.0696  46.6543  46.6543
    47.4235  47.4235  48.2293  48.2293  48.3975  48.3975  49.5917  49.5917
    50.6467  50.6467  50.9751  50.9751  51.6794  51.6794  52.4497  52.4497
    54.2199  54.2199  55.4700  55.4701  55.9364  55.9365  56.0834  56.0834
    56.5970  56.5970  57.7385  57.7386  58.5701  58.5705  58.7021

          k =-0.5000 0.0000 0.0000 (  3722 PWs)   bands (ev):

   -36.4736 -36.4736 -36.3463 -36.3463 -36.3163 -36.3163 -36.2092 -36.2092
    -5.0174  -5.0174  -4.7018  -4.7018  -4.6940  -4.6940  -4.2312  -4.2312
    -4.2276  -4.2276  -3.7477  -3.7477  -3.5802  -3.5802  -3.5434  -3.5434
    -3.2760  -3.2760  -3.1155  -3.1155  -3.0089  -3.0089  -2.8575  -2.8575
     5.4777   5.4777   5.7521   5.7521  22.5557  22.5557  23.2726  23.2726
    23.5028  23.5028  24.0280  24.0280  24.0961  24.0961  24.3212  24.3212
    32.2437  32.2437  32.3286  32.3286  33.0885  33.0885  33.3276  33.3276
    33.8689  33.8689  34.7533  34.7533  34.7839  34.7839  34.8468  34.8468
    35.0699  35.0699  35.3791  35.3791  35.8016  35.8016  36.1960  36.1960
    37.0109  37.0109  37.4329  37.4329  38.2747  38.2747  38.3151  38.3151
    39.0483  39.0483  40.2801  40.2801  41.2212  41.2212  41.2218  41.2218
    44.1238  44.1238  45.5812  45.5812  45.6264  45.6264  47.0164  47.0164
    47.2635  47.2635  47.5265  47.5265  49.1275  49.1275  49.5223  49.5223
    50.2675  50.2675  50.4340  50.4340  52.0040  52.0040  52.1143  52.1143
    52.4655  52.4655  52.6646  52.6646  55.0884  55.0886  56.1871  56.1872
    56.7968  56.7970  57.5215  57.5216  57.7080  57.7082  58.8444

          k =-0.5000 0.0000 0.1317 (  3710 PWs)   bands (ev):

   -36.4716 -36.4716 -36.3415 -36.3415 -36.3117 -36.3117 -36.2090 -36.2090
    -5.0451  -5.0451  -4.7519  -4.7519  -4.4996  -4.4996  -4.3492  -4.3492
    -4.1224  -4.1224  -3.7670  -3.7670  -3.7637  -3.7637  -3.4804  -3.4804
    -3.1985  -3.1985  -3.1236  -3.1236  -3.0115  -3.0115  -2.8602  -2.8602
     5.4892   5.4892   5.7547   5.7547  22.5603  22.5603  23.2886  23.2886
    23.5285  23.5285  23.9150  23.9150  24.0800  24.0800  24.3021  24.3021
    32.0597  32.0597  32.6429  32.6429  32.9754  32.9754  33.4931  33.4931
    34.0147  34.0147  34.3278  34.3278  34.8346  34.8346  35.0443  35.0443
    35.2501  35.2501  35.5850  35.5850  35.9661  35.9661  36.2874  36.2874
    36.9608  36.9608  37.0464  37.0464  38.0990  38.0990  38.3446  38.3446
    39.3302  39.3302  40.2826  40.2826  41.0027  41.0027  41.2391  41.2391
    43.2368  43.2368  44.8319  44.8319  46.3819  46.3819  47.1870  47.1870
    47.4593  47.4593  48.0739  48.0739  48.6353  48.6353  49.2606  49.2606
    50.4698  50.4698  50.7907  50.7907  51.7462  51.7462  52.0695  52.0695
    52.7325  52.7325  53.2384  53.2385  55.2406  55.2406  55.9533  55.9533
    56.2413  56.2415  57.3738  57.3743  57.5308  57.5313  58.3100

          k =-0.5000 0.0000-0.2634 (  3680 PWs)   bands (ev):

   -36.4578 -36.4578 -36.3398 -36.3398 -36.3023 -36.3023 -36.2081 -36.2081
    -5.0728  -5.0728  -4.7314  -4.7314  -4.3928  -4.3928  -4.3003  -4.3003
    -4.1482  -4.1482  -3.8781  -3.8781  -3.7743  -3.7743  -3.4864  -3.4864
    -3.1603  -3.1603  -3.0779  -3.0779  -3.0229  -3.0229  -2.8526  -2.8526
     5.5011   5.5011   5.7580   5.7580  22.5585  22.5585  23.3589  23.3589
    23.5395  23.5395  23.7515  23.7515  24.0891  24.0891  24.2779  24.2779
    31.9231  31.9231  32.8143  32.8143  33.2201  33.2201  33.5243  33.5243
    34.0545  34.0545  34.0582  34.0582  34.8362  34.8362  35.3257  35.3257
    35.3540  35.3540  35.6883  35.6883  35.9483  35.9483  36.2117  36.2117
    37.0075  37.0075  37.1603  37.1603  38.0123  38.0123  38.4006  38.4006
    38.9451  38.9451  40.5052  40.5052  40.9723  40.9723  41.2378  41.2378
    42.4238  42.4238  44.6076  44.6076  46.5193  46.5193  47.0532  47.0532
    48.0269  48.0269  48.1193  48.1193  48.6327  48.6327  48.8790  48.8790
    50.9246  50.9246  51.0116  51.0116  51.7035  51.7035  52.5816  52.5816
    52.6254  52.6254  53.8013  53.8013  54.4280  54.4281  55.2642  55.2642
    56.4967  56.4968  56.6390  56.6391  57.9408  57.9417  58.2337

          k =-0.5000 0.2533 0.0000 (  3686 PWs)   bands (ev):

   -36.4163 -36.4163 -36.3565 -36.3565 -36.2980 -36.2980 -36.2474 -36.2474
    -4.8494  -4.8494  -4.8039  -4.8039  -4.6202  -4.6202  -4.2063  -4.2063
    -3.9739  -3.9739  -3.8025  -3.8025  -3.6956  -3.6956  -3.5662  -3.5662
    -3.2196  -3.2196  -3.1674  -3.1674  -3.0774  -3.0774  -2.9988  -2.9988
     5.6360   5.6360   5.7746   5.7746  22.6068  22.6068  22.8915  22.8915
    23.4402  23.4402  23.5706  23.5706  23.9259  23.9259  24.0440  24.0440
    32.6979  32.6979  32.8256  32.8256  33.3879  33.3879  33.7087  33.7087
    33.9102  33.9102  34.0993  34.0993  34.9618  34.9618  35.0568  35.0568
    35.5198  35.5198  36.1227  36.1227  36.4087  36.4087  36.4684  36.4684
    37.3974  37.3974  37.5114  37.5114  38.4145  38.4145  38.6804  38.6804
    39.5697  39.5697  39.7149  39.7149  40.5991  40.5991  40.9617  40.9617
    43.4037  43.4037  45.1145  45.1145  45.2328  45.2328  45.8705  45.8705
    46.9463  46.9463  47.4204  47.4204  48.8410  48.8410  49.5948  49.5948
    50.0534  50.0534  50.2737  50.2737  50.7281  50.7281  51.7234  51.7234
    52.5892  52.5892  54.2783  54.2784  55.3299  55.3300  55.8317  55.8318
    56.2813  56.2815  56.9839  56.9840  57.8450  57.8452  57.9464

          k =-0.5000 0.2533 0.1317 (  3692 PWs)   bands (ev):

   -36.4218 -36.4218 -36.3575 -36.3575 -36.2974 -36.2974 -36.2465 -36.2465
    -4.8667  -4.8667  -4.7468  -4.7468  -4.5315  -4.5315  -4.3510  -4.3510
    -4.0613  -4.0613  -3.8369  -3.8369  -3.5936  -3.5936  -3.4673  -3.4673
    -3.2705  -3.2705  -3.1674  -3.1674  -3.1018  -3.1018  -3.0056  -3.0056
     5.6436   5.6436   5.7787   5.7787  22.6136  22.6136  22.9415  22.9415
    23.4252  23.4252  23.5313  23.5313  23.8617  23.8617  24.0067  24.0067
    32.5241  32.5241  32.9479  32.9479  33.4004  33.4004  33.7004  33.7004
    33.9566  33.9566  34.4686  34.4686  34.8820  34.8820  35.4062  35.4062
    35.5270  35.5270  36.0712  36.0712  36.2841  36.2841  36.6591  36.6591
    37.1197  37.1197  37.7115  37.7115  38.1897  38.1897  38.6171  38.6171
    39.3190  39.3190  40.0292  40.0292  40.5115  40.5115  40.8919  40.8919
    43.2057  43.2057  44.1766  44.1766  45.7201  45.7201  46.4785  46.4785
    46.8511  46.8511  47.2287  47.2287  48.3995  48.3995  49.5982  49.5982
    50.0409  50.0409  50.2083  50.2083  50.8523  50.8523  51.6639  51.6639
    53.3489  53.3490  54.5259  54.5259  54.8892  54.8893  55.7522  55.7523
    56.6266  56.6267  57.6394  57.6396  58.0802  58.0807  58.3786

          k =-0.5000 0.2533-0.2634 (  3704 PWs)   bands (ev):

   -36.4222 -36.4222 -36.3597 -36.3597 -36.3030 -36.3030 -36.2493 -36.2493
    -4.8852  -4.8852  -4.6241  -4.6241  -4.5422  -4.5422  -4.3154  -4.3154
    -4.3122  -4.3122  -3.8280  -3.8280  -3.4965  -3.4965  -3.3629  -3.3629
    -3.3074  -3.3074  -3.2740  -3.2740  -3.0606  -3.0606  -3.0267  -3.0267
     5.6510   5.6510   5.7817   5.7817  22.6154  22.6154  23.0104  23.0104
    23.4409  23.4409  23.4418  23.4418  23.8030  23.8030  23.9683  23.9683
    32.3882  32.3882  33.0111  33.0111  33.4152  33.4152  33.7325  33.7325
    34.2096  34.2096  34.7046  34.7046  34.7730  34.7730  35.4327  35.4327
    35.7321  35.7321  36.1210  36.1210  36.4059  36.4059  36.7959  36.7959
    36.8491  36.8491  37.7175  37.7175  37.8766  37.8766  38.6751  38.6751
    38.9214  38.9214  40.3620  40.3620  40.6318  40.6318  40.7502  40.7502
    42.9267  42.9267  43.7855  43.7855  45.7367  45.7367  46.6022  46.6022
    46.8648  46.8648  47.1175  47.1175  48.7905  48.7905  48.9099  48.9099
    49.7952  49.7952  50.3716  50.3716  51.4233  51.4233  51.4470  51.4470
    53.7036  53.7036  55.0084  55.0085  55.4170  55.4171  55.6518  55.6520
    56.1202  56.1203  57.1680  57.1683  58.3224  58.3229  58.9861

     the Fermi energy is    50.5233 ev

!    total energy              =   -2440.69254086 Ry
     Harris-Foulkes estimate   =   -2440.69255701 Ry
     estimated scf accuracy    <       0.00001849 Ry

     The total energy is the sum of the following terms:

     one-electron contribution =     266.43905754 Ry
     hartree contribution      =     197.08434343 Ry
     xc contribution           =    -254.30836143 Ry
     ewald contribution        =   -2649.51265082 Ry
     smearing contrib. (-TS)   =      -0.39492957 Ry

     convergence has been achieved in  11 iterations

     Forces acting on atoms (Ry/au):

     atom    1 type  1   force =     0.00000000   -0.10138024   -0.06743988
     atom    2 type  1   force =     0.00000000    0.10138024    0.06743988
     atom    3 type  1   force =     0.00000000   -0.10138024    0.06743988
     atom    4 type  1   force =     0.00000000    0.10138024   -0.06743988
     atom    5 type  1   force =     0.00000000    0.16908801   -0.24308311
     atom    6 type  1   force =     0.00000000   -0.16908801    0.24308311
     atom    7 type  1   force =     0.00000000    0.16908801    0.24308311
     atom    8 type  1   force =     0.00000000   -0.16908801   -0.24308311
     atom    9 type  2   force =     0.00000000   -0.17471852    0.01578513
     atom   10 type  2   force =     0.00000000    0.17471852   -0.01578513
     atom   11 type  2   force =     0.00000000   -0.17471852   -0.01578513
     atom   12 type  2   force =     0.00000000    0.17471852    0.01578513

     Total force =     0.730156     Total SCF correction =     0.012649


     entering subroutine stress ...

          total   stress  (Ry/bohr**3)                   (kbar)     P= 7204.91
   0.05211334   0.00000000   0.00000000       7666.14      0.00      0.00
   0.00000000   0.04639416   0.00000000          0.00   6824.82      0.00
   0.00000000   0.00000000   0.04842640          0.00      0.00   7123.77


     BFGS Geometry Optimization

     number of scf cycles    =   1
     number of bfgs steps    =   0

     enthalpy new            =   -2440.6925408553 Ry

     new trust radius        =       0.5000000000 bohr
     new conv_thr            =       0.0001000000 Ry

     new unit-cell volume =   1086.24436 a.u.^3 (   160.96481 Ang^3 )

CELL_PARAMETERS (alat=  7.01510508)
   1.085136619   0.000000000   0.000000000
   0.000000000   1.415704589   0.000000000
   0.000000000   0.000000000   2.048179121

ATOMIC_POSITIONS (crystal)
Co       0.750000000   0.825683366   0.435405014
Co       0.250000000   0.174316634   0.564594986
Co       0.750000000   0.325683366   0.064594986
Co       0.250000000   0.674316634   0.935405014
Co       0.250000000   0.538282912   0.281151981
Co       0.750000000   0.461717088   0.718848019
Co       0.250000000   0.038282912   0.218848019
Co       0.750000000   0.961717088   0.781151981
Si       0.250000000   0.201617231   0.893677471
Si       0.750000000   0.798382769   0.106322529
Si       0.250000000   0.701617231   0.606322529
Si       0.750000000   0.298382769   0.393677471



     Writing output data file Prototype-La-oP12-Co2Si.save
     Check: negative starting charge=   -0.001196
     NEW-OLD atomic charge density approx. for the potential
     NEW k-points:
        k(    1) = (   0.0000000   0.0000000   0.0000000), wk =   0.0833333
        k(    2) = (   0.0000000   0.0000000   0.1220596), wk =   0.1666667
        k(    3) = (   0.0000000   0.0000000  -0.2441193), wk =   0.0833333
        k(    4) = (   0.0000000   0.2354540   0.0000000), wk =   0.1666667
        k(    5) = (   0.0000000   0.2354540   0.1220596), wk =   0.3333333
        k(    6) = (   0.0000000   0.2354540  -0.2441193), wk =   0.1666667
        k(    7) = (  -0.4607715   0.0000000   0.0000000), wk =   0.0833333
        k(    8) = (  -0.4607715   0.0000000   0.1220596), wk =   0.1666667
        k(    9) = (  -0.4607715   0.0000000  -0.2441193), wk =   0.0833333
        k(   10) = (  -0.4607715   0.2354540   0.0000000), wk =   0.1666667
        k(   11) = (  -0.4607715   0.2354540   0.1220596), wk =   0.3333333
        k(   12) = (  -0.4607715   0.2354540  -0.2441193), wk =   0.1666667
     Check: negative starting charge=   -0.006204

     negative rho (up, down):  0.513E-02 0.000E+00
     extrapolated charge  222.71378, renormalised to  212.00000

     total cpu time spent up to now is      369.0 secs

     Self-consistent Calculation

     iteration #  1     ecut=    40.00 Ry     beta=0.70
     CG style diagonalization
     c_bands:  4 eigenvalues not converged
     c_bands:  5 eigenvalues not converged
     c_bands:  2 eigenvalues not converged
     c_bands:  3 eigenvalues not converged
     c_bands:  1 eigenvalues not converged
     c_bands:  1 eigenvalues not converged
     c_bands:  1 eigenvalues not converged
     c_bands:  1 eigenvalues not converged
     ethr =  1.00E-06,  avg # of iterations = 24.3

     negative rho (up, down):  0.140E-02 0.000E+00

     total cpu time spent up to now is      457.6 secs

     total energy              =   -2414.81801499 Ry
     Harris-Foulkes estimate   =   -2473.48374583 Ry
     estimated scf accuracy    <      80.22629928 Ry

     iteration #  2     ecut=    40.00 Ry     beta=0.70
     CG style diagonalization
     ethr =  1.00E-02,  avg # of iterations =  5.9

     negative rho (up, down):  0.721E-03 0.000E+00

     total cpu time spent up to now is      481.4 secs

     total energy              =   -2424.30122432 Ry
     Harris-Foulkes estimate   =   -2466.72263674 Ry
     estimated scf accuracy    <      78.18038693 Ry

     iteration #  3     ecut=    40.00 Ry     beta=0.70
     CG style diagonalization
     ethr =  1.00E-02,  avg # of iterations =  4.3

     negative rho (up, down):  0.257E-03 0.000E+00

     total cpu time spent up to now is      495.8 secs

     total energy              =   -2446.67593839 Ry
     Harris-Foulkes estimate   =   -2448.75817496 Ry
     estimated scf accuracy    <       4.90151288 Ry

     iteration #  4     ecut=    40.00 Ry     beta=0.70
     CG style diagonalization
     ethr =  2.31E-03,  avg # of iterations =  3.7

     negative rho (up, down):  0.245E-04 0.000E+00

     total cpu time spent up to now is      509.0 secs

     total energy              =   -2447.56602715 Ry
     Harris-Foulkes estimate   =   -2447.83551313 Ry
     estimated scf accuracy    <       0.64471886 Ry

     iteration #  5     ecut=    40.00 Ry     beta=0.70
     CG style diagonalization
     ethr =  3.04E-04,  avg # of iterations =  3.7

     total cpu time spent up to now is      522.0 secs

     total energy              =   -2447.63474428 Ry
     Harris-Foulkes estimate   =   -2447.67551934 Ry
     estimated scf accuracy    <       0.09329545 Ry

     iteration #  6     ecut=    40.00 Ry     beta=0.70
     CG style diagonalization
     c_bands:  1 eigenvalues not converged
     c_bands:  1 eigenvalues not converged
     ethr =  4.40E-05,  avg # of iterations =  4.0

     total cpu time spent up to now is      537.0 secs

     total energy              =   -2447.65432029 Ry
     Harris-Foulkes estimate   =   -2447.65716318 Ry
     estimated scf accuracy    <       0.00504115 Ry

     iteration #  7     ecut=    40.00 Ry     beta=0.70
     CG style diagonalization
     c_bands:  1 eigenvalues not converged
     c_bands:  1 eigenvalues not converged
     c_bands:  1 eigenvalues not converged
     ethr =  2.38E-06,  avg # of iterations =  4.6

     total cpu time spent up to now is      555.0 secs

     total energy              =   -2447.65660259 Ry
     Harris-Foulkes estimate   =   -2447.65702727 Ry
     estimated scf accuracy    <       0.00087028 Ry

     iteration #  8     ecut=    40.00 Ry     beta=0.70
     CG style diagonalization
     ethr =  4.11E-07,  avg # of iterations =  3.7

     total cpu time spent up to now is      568.1 secs

     End of self-consistent calculation

          k = 0.0000 0.0000 0.0000 (  3675 PWs)   bands (ev):

   -45.4380 -45.3951 -45.3936 -45.3830 -45.3743 -45.3207 -45.2624 -45.2578
   -13.2585 -13.0824 -13.0429 -12.9903 -12.9031 -12.8807 -12.8361 -12.7661
   -12.7279 -12.6797 -12.6526 -12.5766 -12.5146 -12.5052 -12.4890 -12.4824
   -12.4630 -12.4008 -12.3435 -12.3385 -12.3155 -12.2362 -12.1520 -12.0986
    -4.4442  -4.1954  -4.1862  -4.1818  13.9856  14.1620  14.1796  14.3985
    14.4141  14.5458  14.6251  14.6517  14.6979  15.0734  15.1848  15.6686
    24.0068  24.3624  24.5045  24.5152  24.5971  24.6863  24.7779  25.2187
    25.5974  25.7693  26.1284  26.4188  26.4363  26.5382  26.8298  27.1532
    27.2929  27.5096  27.6413  27.6483  27.7199  27.7477  28.2313  28.3903
    28.4303  28.4364  28.5859  28.8697  28.8800  29.2845  29.4044  29.7460
    29.7776  30.0592  30.0870  30.1002  30.6001  30.6375  30.6609  30.7925
    31.1938  31.7398  32.7635  33.1888  35.0302  35.6751  35.9077  36.3746
    36.6691  37.2433  37.7111  38.1328  38.1605  38.2177  39.0536  39.1261
    39.3792  39.5654  40.0020  40.3743  41.3647  41.3975  41.4956  41.7024
    41.7875  41.8374  42.5001  43.6415  44.7312  44.9731  45.1479  45.2903
    46.0069  46.5079  47.0498  47.3696  47.4290  47.6850  47.6991

          k = 0.0000 0.0000 0.1221 (  3675 PWs)   bands (ev):

   -45.4336 -45.4059 -45.3955 -45.3804 -45.3704 -45.3439 -45.2685 -45.2296
   -13.2430 -13.1130 -13.0200 -12.9884 -12.9307 -12.8999 -12.8486 -12.7144
   -12.7123 -12.7044 -12.6613 -12.5829 -12.5166 -12.5015 -12.5011 -12.4797
   -12.4362 -12.3525 -12.3373 -12.3319 -12.3314 -12.2708 -12.1476 -12.1144
    -4.4126  -4.2519  -4.1753  -4.1632  14.0378  14.1705  14.1859  14.3244
    14.4314  14.5102  14.6434  14.6749  14.6987  14.9484  15.3013  15.6060
    24.1236  24.1553  24.4399  24.4623  24.6262  24.6340  24.9615  25.3409
    25.6848  25.8031  26.1425  26.4731  26.5704  26.9483  26.9875  27.2288
    27.3417  27.5408  27.6684  27.7002  27.8134  27.9205  28.1119  28.1209
    28.2444  28.2895  28.6583  28.7545  28.8158  29.1090  29.3307  29.3470
    29.8009  29.9152  30.0021  30.1182  30.4978  30.5914  30.7163  31.0890
    31.2541  31.5778  31.8996  34.0007  34.7225  34.9485  36.4003  36.7064
    37.2882  37.3146  37.4297  37.5980  38.0431  38.5669  38.8850  38.8959
    39.2402  39.4031  40.2843  40.6856  41.1700  41.2535  41.7397  41.7523
    42.2458  43.0417  43.0802  44.2960  44.5917  44.7804  44.8972  45.4229
    46.1361  46.4591  46.6764  46.7322  46.9401  47.1870  47.5884

          k = 0.0000 0.0000-0.2441 (  3690 PWs)   bands (ev):

   -45.4378 -45.4378 -45.4046 -45.4046 -45.3484 -45.3484 -45.2551 -45.2551
   -13.2029 -13.2029 -12.9661 -12.9661 -12.9542 -12.9542 -12.7826 -12.7826
   -12.6811 -12.6811 -12.6263 -12.6263 -12.5098 -12.5098 -12.5029 -12.5029
   -12.3868 -12.3868 -12.3419 -12.3419 -12.3338 -12.3338 -12.1399 -12.1399
    -4.3360  -4.3360  -4.1637  -4.1637  14.1682  14.1682  14.1896  14.1896
    14.4548  14.4548  14.6751  14.6751  14.7825  14.7825  15.4595  15.4595
    24.1851  24.1851  24.2374  24.2374  24.6209  24.6209  25.5849  25.5849
    25.7934  25.7934  26.1842  26.1842  26.9974  26.9974  27.1500  27.1500
    27.3645  27.3645  27.5743  27.5743  27.9557  27.9557  28.0780  28.0780
    28.5904  28.5904  28.8226  28.8226  28.8770  28.8770  29.0473  29.0473
    29.4015  29.4015  30.0628  30.0628  30.2920  30.2920  30.9606  30.9606
    31.2899  31.2899  33.0231  33.0231  34.6714  34.6714  37.1985  37.1985
    37.2271  37.2271  37.8096  37.8096  37.8964  37.8964  38.5036  38.5036
    39.0995  39.0995  40.7669  40.7669  41.4515  41.4515  42.4373  42.4373
    42.5918  42.5919  44.4743  44.4744  44.4783  44.4784  45.6785  45.6787
    46.2469  46.2470  46.2738  46.2738  46.5935  46.5936  46.9404

          k = 0.0000 0.2355 0.0000 (  3664 PWs)   bands (ev):

   -45.4134 -45.3975 -45.3805 -45.3676 -45.3431 -45.3139 -45.2842 -45.2697
   -13.1230 -12.9870 -12.9718 -12.9323 -12.8789 -12.8522 -12.8330 -12.8119
   -12.7313 -12.7178 -12.7113 -12.6159 -12.6039 -12.4813 -12.4806 -12.4080
   -12.3862 -12.3658 -12.3653 -12.3600 -12.2999 -12.2930 -12.2646 -12.2302
    -4.3426  -4.2113  -4.1611  -4.1558  14.0485  14.1344  14.1373  14.2462
    14.2670  14.2987  14.5638  14.6611  14.6940  14.7461  15.2233  15.4066
    24.6090  24.6288  24.7782  24.9727  25.0921  25.1210  25.3857  25.5136
    25.7478  25.8225  26.1110  26.2241  26.4444  26.5870  26.6665  27.0078
    27.3149  27.3562  27.4821  27.6436  27.8966  28.1850  28.2870  28.4977
    28.5789  28.7054  29.0075  29.1540  29.2195  29.2457  29.3196  29.4280
    29.6129  29.9223  30.0126  30.3221  30.3288  30.3942  30.5653  31.0556
    31.4209  31.8043  32.6273  32.7729  34.4637  35.2381  35.6659  35.7816
    36.4647  36.5274  36.8538  37.4687  37.4731  38.0726  38.7504  38.9533
    39.3660  39.4626  39.7716  40.1066  40.1180  40.5946  41.3195  41.4479
    41.7973  42.1650  43.3611  43.5531  44.5344  45.2103  45.7842  45.8065
    45.9242  46.3240  46.8487  47.0257  47.2096  47.8677  47.8970

          k = 0.0000 0.2355 0.1221 (  3669 PWs)   bands (ev):

   -45.4133 -45.3988 -45.3915 -45.3729 -45.3408 -45.3281 -45.2786 -45.2755
   -13.1253 -13.0184 -12.9598 -12.9298 -12.9218 -12.8797 -12.7955 -12.7646
   -12.7285 -12.7116 -12.7080 -12.6474 -12.5917 -12.4938 -12.4574 -12.4297
   -12.4156 -12.4150 -12.3576 -12.3131 -12.3126 -12.2929 -12.2491 -12.2346
    -4.3180  -4.2004  -4.1963  -4.1526  14.0846  14.1182  14.1581  14.1872
    14.2657  14.2911  14.5864  14.6439  14.6788  14.7206  15.2540  15.3914
    24.5678  24.5728  24.7053  24.9156  25.1121  25.2381  25.3941  25.6778
    25.7334  25.9901  26.2550  26.2690  26.3636  26.6270  26.7917  27.0603
    27.4138  27.4649  27.6973  27.7201  27.9702  28.0374  28.2257  28.2881
    28.4490  28.6107  28.9284  28.9684  29.0317  29.2148  29.4450  29.5596
    29.6068  29.8944  29.9807  30.2493  30.3365  30.4875  30.6505  31.0335
    31.3609  31.5262  31.9535  32.9488  34.3281  34.9485  36.1108  36.2789
    36.5207  36.5539  36.7074  37.1749  37.4150  37.9742  38.5248  38.9452
    39.4007  39.5245  39.9135  40.3955  40.4542  40.7288  40.8291  41.9642
    42.3315  42.5618  43.3515  43.8527  44.1569  45.1476  45.4664  45.8069
    45.8703  46.5400  46.6671  46.8318  47.3245  47.4252  47.6241

          k = 0.0000 0.2355-0.2441 (  3666 PWs)   bands (ev):

   -45.4011 -45.4011 -45.3894 -45.3894 -45.3215 -45.3215 -45.2821 -45.2821
   -13.0773 -13.0773 -12.9268 -12.9268 -12.9202 -12.9202 -12.7375 -12.7375
   -12.7357 -12.7357 -12.6723 -12.6723 -12.5366 -12.5366 -12.4512 -12.4512
   -12.4339 -12.4339 -12.3389 -12.3389 -12.3044 -12.3044 -12.2315 -12.2315
    -4.2589  -4.2589  -4.1726  -4.1726  14.1229  14.1229  14.1753  14.1753
    14.2400  14.2400  14.6509  14.6509  14.6510  14.6510  15.3299  15.3299
    24.5007  24.5007  24.7075  24.7075  25.4132  25.4132  25.4718  25.4718
    25.9170  25.9170  26.5276  26.5276  26.6015  26.6015  26.8717  26.8717
    27.5555  27.5555  27.5948  27.5948  27.8612  27.8612  28.3061  28.3061
    28.4475  28.4475  28.9022  28.9022  29.2077  29.2077  29.3119  29.3119
    30.0122  30.0122  30.1051  30.1051  30.2773  30.2773  30.7423  30.7423
    31.1930  31.1930  32.3565  32.3565  34.4936  34.4936  36.5362  36.5362
    36.5954  36.5954  37.1198  37.1198  37.2138  37.2138  38.7137  38.7137
    39.7779  39.7779  39.9747  39.9747  40.6906  40.6906  41.4562  41.4562
    43.0692  43.0692  44.1959  44.1959  44.6021  44.6021  44.8146  44.8146
    45.6283  45.6283  47.2275  47.2277  47.6009  47.6011  48.2444

          k =-0.4608 0.0000 0.0000 (  3722 PWs)   bands (ev):

   -45.4194 -45.4194 -45.4074 -45.4074 -45.3957 -45.3957 -45.3060 -45.3060
   -13.2075 -13.2075 -13.0635 -13.0635 -13.0240 -13.0240 -12.8152 -12.8152
   -12.8137 -12.8137 -12.6006 -12.6006 -12.5339 -12.5339 -12.5085 -12.5085
   -12.3543 -12.3543 -12.3109 -12.3109 -12.2593 -12.2593 -12.1488 -12.1488
    -4.2202  -4.2202  -4.1739  -4.1739  14.1198  14.1198  14.4554  14.4554
    14.5340  14.5340  14.7932  14.7932  15.0619  15.0619  15.2419  15.2418
    24.6926  24.6926  24.7858  24.7858  25.3720  25.3720  25.5180  25.5180
    25.9653  25.9653  26.3244  26.3244  26.5233  26.5233  26.7116  26.7116
    26.7185  26.7185  27.0571  27.0571  27.3324  27.3324  27.5687  27.5687
    27.9224  27.9224  28.2097  28.2097  28.9157  28.9157  28.9704  28.9704
    29.0950  29.0950  30.2672  30.2672  30.9210  30.9210  31.0028  31.0028
    32.6478  32.6478  34.8272  34.8272  34.9461  34.9461  36.0893  36.0893
    37.0859  37.0859  37.3661  37.3661  37.8968  37.8968  38.5968  38.5968
    38.7985  38.7985  40.0089  40.0089  40.4451  40.4451  40.5756  40.5756
    41.5830  41.5830  41.9490  41.9490  44.2111  44.2111  45.3259  45.3260
    45.7601  45.7602  46.3926  46.3928  46.5700  46.5702  47.7626

          k =-0.4608 0.0000 0.1221 (  3710 PWs)   bands (ev):

   -45.4212 -45.4212 -45.3942 -45.3942 -45.3825 -45.3825 -45.3002 -45.3002
   -13.2126 -13.2126 -13.0792 -13.0792 -12.9328 -12.9328 -12.8658 -12.8658
   -12.7668 -12.7668 -12.6153 -12.6153 -12.6004 -12.6004 -12.4650 -12.4650
   -12.3422 -12.3422 -12.3020 -12.3020 -12.2584 -12.2584 -12.1532 -12.1532
    -4.2189  -4.2189  -4.1726  -4.1726  14.0956  14.0956  14.5003  14.5003
    14.5620  14.5620  14.7648  14.7648  15.0327  15.0327  15.2317  15.2317
    24.5687  24.5687  24.9943  24.9943  25.2973  25.2973  25.6125  25.6125
    26.0536  26.0536  26.2863  26.2863  26.4452  26.4452  26.6684  26.6684
    26.8920  26.8920  27.1516  27.1516  27.4085  27.4085  27.5166  27.5166
    27.9307  27.9307  28.1194  28.1194  28.7973  28.7973  28.9099  28.9099
    29.4380  29.4380  30.1697  30.1697  30.8155  30.8155  30.9676  30.9676
    32.2437  32.2437  33.8913  33.8913  35.4662  35.4662  36.8114  36.8114
    37.1911  37.1911  37.5061  37.5061  37.8349  37.8349  38.0161  38.0161
    39.0656  39.0656  40.0125  40.0125  40.3359  40.3359  41.0162  41.0162
    41.6380  41.6380  42.2601  42.2602  44.0407  44.0407  44.8189  44.8189
    45.8585  45.8586  46.3181  46.3182  46.7961  46.7964  47.6552

          k =-0.4608 0.0000-0.2441 (  3680 PWs)   bands (ev):

   -45.3919 -45.3919 -45.3828 -45.3828 -45.3545 -45.3545 -45.2997 -45.2997
   -13.2243 -13.2243 -13.0604 -13.0604 -12.8815 -12.8815 -12.7921 -12.7921
   -12.7908 -12.7908 -12.6661 -12.6661 -12.6080 -12.6080 -12.4498 -12.4498
   -12.3481 -12.3481 -12.2747 -12.2747 -12.2405 -12.2405 -12.1419 -12.1419
    -4.2174  -4.2174  -4.1710  -4.1710  14.0744  14.0744  14.5407  14.5407
    14.6412  14.6412  14.6851  14.6851  15.0110  15.0110  15.2228  15.2228
    24.4733  24.4733  25.1741  25.1741  25.4152  25.4152  25.5601  25.5601
    26.0864  26.0864  26.1470  26.1470  26.5613  26.5613  26.6643  26.6643
    26.9700  26.9700  27.1538  27.1538  27.4342  27.4342  27.4481  27.4481
    28.0997  28.0997  28.2845  28.2845  28.6591  28.6591  28.7073  28.7073
    29.5248  29.5248  30.4622  30.4622  30.4777  30.4777  30.9560  30.9560
    31.7923  31.7923  33.5155  33.5155  35.8770  35.8770  36.8242  36.8242
    37.2966  37.2966  37.5419  37.5419  37.6355  37.6355  37.8969  37.8969
    39.8136  39.8136  39.8827  39.8827  40.1576  40.1576  41.6024  41.6024
    41.7868  41.7868  42.6533  42.6533  42.8294  42.8295  45.1611  45.1611
    45.6789  45.6789  45.9003  45.9005  46.9615  46.9615  47.6855

          k =-0.4608 0.2355 0.0000 (  3686 PWs)   bands (ev):

   -45.3990 -45.3990 -45.3912 -45.3912 -45.3520 -45.3520 -45.3113 -45.3113
   -13.1055 -13.1055 -13.0616 -13.0616 -12.9983 -12.9983 -12.8188 -12.8188
   -12.6965 -12.6965 -12.6078 -12.6078 -12.5768 -12.5768 -12.4959 -12.4959
   -12.3353 -12.3353 -12.3351 -12.3351 -12.2681 -12.2681 -12.2339 -12.2339
    -4.1781  -4.1781  -4.1547  -4.1547  14.1150  14.1150  14.2350  14.2350
    14.6083  14.6083  14.6874  14.6874  14.9944  14.9944  15.0151  15.0151
    25.0862  25.0862  25.2148  25.2148  25.6245  25.6245  25.7493  25.7493
    25.9760  25.9760  26.0561  26.0561  26.7439  26.7439  26.7795  26.7795
    27.0974  27.0974  27.3997  27.3997  27.6862  27.6862  27.7084  27.7084
    28.0846  28.0846  28.3288  28.3288  28.8040  28.8040  29.1153  29.1153
    29.5289  29.5289  29.7778  29.7778  30.3670  30.3670  30.7190  30.7190
    32.6442  32.6442  34.0202  34.0202  34.8478  34.8478  35.6035  35.6035
    36.3757  36.3757  36.6923  36.6923  38.3134  38.3134  38.5395  38.5395
    38.9779  38.9779  39.4983  39.4983  39.8207  39.8207  40.1814  40.1814
    41.7477  41.7477  42.5736  42.5736  43.9407  43.9407  44.6115  44.6115
    45.8782  45.8783  46.5593  46.5595  47.4120  47.4121  47.5464

          k =-0.4608 0.2355 0.1221 (  3692 PWs)   bands (ev):

   -45.4051 -45.4051 -45.3965 -45.3965 -45.3530 -45.3530 -45.3102 -45.3102
   -13.1109 -13.1109 -13.0383 -13.0383 -12.9593 -12.9593 -12.8733 -12.8733
   -12.7282 -12.7282 -12.6437 -12.6437 -12.5248 -12.5248 -12.4590 -12.4590
   -12.3610 -12.3610 -12.3279 -12.3279 -12.2849 -12.2849 -12.2436 -12.2436
    -4.1769  -4.1769  -4.1536  -4.1536  14.1015  14.1015  14.2702  14.2702
    14.6008  14.6008  14.6482  14.6482  14.9793  14.9793  15.0281  15.0281
    24.9656  24.9656  25.3091  25.3091  25.5782  25.5782  25.8537  25.8537
    26.0246  26.0246  26.2700  26.2700  26.5919  26.5919  26.9601  26.9601
    27.0852  27.0852  27.3842  27.3842  27.6162  27.6162  27.8243  27.8243
    28.0150  28.0150  28.4599  28.4599  28.6297  28.6297  29.0481  29.0481
    29.4941  29.4941  29.8506  29.8506  30.3359  30.3359  30.6737  30.6737
    32.4870  32.4870  33.3346  33.3346  35.0460  35.0460  36.0168  36.0168
    36.5225  36.5225  36.8173  36.8173  37.7375  37.7375  38.7651  38.7651
    38.9439  38.9439  39.4553  39.4553  39.8266  39.8266  40.2406  40.2406
    42.0981  42.0981  42.9834  42.9835  43.6833  43.6833  44.4773  44.4773
    45.9752  45.9753  46.8503  46.8505  47.3557  47.3561  47.7859

          k =-0.4608 0.2355-0.2441 (  3704 PWs)   bands (ev):

   -45.4104 -45.4104 -45.4018 -45.4018 -45.3641 -45.3641 -45.3161 -45.3161
   -13.1225 -13.1225 -12.9819 -12.9819 -12.9698 -12.9698 -12.8678 -12.8678
   -12.8295 -12.8295 -12.6520 -12.6520 -12.4906 -12.4906 -12.4059 -12.4059
   -12.3817 -12.3817 -12.3774 -12.3774 -12.2699 -12.2699 -12.2519 -12.2519
    -4.1760  -4.1760  -4.1528  -4.1528  14.0868  14.0868  14.3116  14.3116
    14.5845  14.5845  14.6103  14.6103  14.9753  14.9753  15.0282  15.0282
    24.8664  24.8664  25.3481  25.3481  25.6418  25.6418  25.9046  25.9046
    26.1857  26.1857  26.4056  26.4056  26.4404  26.4404  27.0447  27.0447
    27.1366  27.1366  27.4101  27.4101  27.5312  27.5312  27.9427  27.9427
    28.0461  28.0461  28.4592  28.4592  28.4860  28.4860  29.0194  29.0194
    29.1792  29.1792  30.1667  30.1667  30.2963  30.2963  30.6081  30.6081
    32.3060  32.3060  32.9173  32.9173  35.0960  35.0960  36.1425  36.1425
    36.6773  36.6773  36.9206  36.9206  37.7083  37.7083  38.3779  38.3779
    39.2330  39.2330  39.2927  39.2927  40.0994  40.0994  40.2173  40.2173
    42.1530  42.1530  43.1961  43.1961  43.9434  43.9435  44.7968  44.7968
    45.1641  45.1641  47.1408  47.1409  47.4067  47.4069  47.9395

     the Fermi energy is    39.5060 ev

!    total energy              =   -2447.65679194 Ry
     Harris-Foulkes estimate   =   -2447.65683959 Ry
     estimated scf accuracy    <       0.00005440 Ry

     The total energy is the sum of the following terms:

     one-electron contribution =      -1.13871092 Ry
     hartree contribution      =     254.39755444 Ry
     xc contribution           =    -247.10179922 Ry
     ewald contribution        =   -2453.38211053 Ry
     smearing contrib. (-TS)   =      -0.43172570 Ry

     convergence has been achieved in   8 iterations

     Forces acting on atoms (Ry/au):

     atom    1 type  1   force =     0.00000000   -0.03907755   -0.03108018
     atom    2 type  1   force =     0.00000000    0.03907755    0.03108018
     atom    3 type  1   force =     0.00000000   -0.03907755    0.03108018
     atom    4 type  1   force =     0.00000000    0.03907755   -0.03108018
     atom    5 type  1   force =     0.00000000    0.09212923   -0.16937184
     atom    6 type  1   force =     0.00000000   -0.09212923    0.16937184
     atom    7 type  1   force =     0.00000000    0.09212923    0.16937184
     atom    8 type  1   force =     0.00000000   -0.09212923   -0.16937184
     atom    9 type  2   force =     0.00000000   -0.10213777    0.03154541
     atom   10 type  2   force =     0.00000000    0.10213777   -0.03154541
     atom   11 type  2   force =     0.00000000   -0.10213777   -0.03154541
     atom   12 type  2   force =     0.00000000    0.10213777    0.03154541

     Total force =     0.452084     Total SCF correction =     0.029182


     entering subroutine stress ...

          total   stress  (Ry/bohr**3)                   (kbar)     P= 2518.87
   0.01853693   0.00000000   0.00000000       2726.88      0.00      0.00
   0.00000000   0.01597344   0.00000000          0.00   2349.77      0.00
   0.00000000   0.00000000   0.01685837          0.00      0.00   2479.95


     number of scf cycles    =   2
     number of bfgs steps    =   1

     enthalpy old            =   -2440.6925408553 Ry
     enthalpy new            =   -2447.6567919364 Ry

     CASE: enthalpy_new < enthalpy_old

     small trust_radius: resetting bfgs history

     new trust radius        =       3.0547210109 bohr
     new conv_thr            =       0.0001000000 Ry

     new unit-cell volume =   3161.94163 a.u.^3 (   468.55140 Ang^3 )

CELL_PARAMETERS (alat=  7.01510508)
   1.588014129   0.000000000   0.000000000
   0.000000000   1.981046310   0.000000000
   0.000000000   0.000000000   2.911402941

ATOMIC_POSITIONS (crystal)
Co       0.750000000   0.821748586   0.433241891
Co       0.250000000   0.178251414   0.566758109
Co       0.750000000   0.321748586   0.066758109
Co       0.250000000   0.678251414   0.933241891
Co       0.250000000   0.547559550   0.269364010
Co       0.750000000   0.452440450   0.730635990
Co       0.250000000   0.047559550   0.230635990
Co       0.750000000   0.952440450   0.769364010
Si       0.250000000   0.191332818   0.895872974
Si       0.750000000   0.808667182   0.104127026
Si       0.250000000   0.691332818   0.604127026
Si       0.750000000   0.308667182   0.395872974



     Writing output data file Prototype-La-oP12-Co2Si.save
     Check: negative starting charge=   -0.006204
     NEW-OLD atomic charge density approx. for the potential
     NEW k-points:
        k(    1) = (   0.0000000   0.0000000   0.0000000), wk =   0.0833333
        k(    2) = (   0.0000000   0.0000000   0.0858693), wk =   0.1666667
        k(    3) = (   0.0000000   0.0000000  -0.1717385), wk =   0.0833333
        k(    4) = (   0.0000000   0.1682613   0.0000000), wk =   0.1666667
        k(    5) = (   0.0000000   0.1682613   0.0858693), wk =   0.3333333
        k(    6) = (   0.0000000   0.1682613  -0.1717385), wk =   0.1666667
        k(    7) = (  -0.3148587   0.0000000   0.0000000), wk =   0.0833333
        k(    8) = (  -0.3148587   0.0000000   0.0858693), wk =   0.1666667
        k(    9) = (  -0.3148587   0.0000000  -0.1717385), wk =   0.0833333
        k(   10) = (  -0.3148587   0.1682613   0.0000000), wk =   0.1666667
        k(   11) = (  -0.3148587   0.1682613   0.0858693), wk =   0.3333333
        k(   12) = (  -0.3148587   0.1682613  -0.1717385), wk =   0.1666667
     extrapolated charge  246.11124, renormalised to  212.00000

     total cpu time spent up to now is      574.3 secs

     Self-consistent Calculation

     iteration #  1     ecut=    40.00 Ry     beta=0.70
     CG style diagonalization
     c_bands:  3 eigenvalues not converged
     c_bands:  1 eigenvalues not converged
     c_bands:  1 eigenvalues not converged
     c_bands:  2 eigenvalues not converged
     c_bands:  1 eigenvalues not converged
     c_bands:  2 eigenvalues not converged
     c_bands:  3 eigenvalues not converged
     c_bands:  3 eigenvalues not converged
     c_bands:  1 eigenvalues not converged
     c_bands:  3 eigenvalues not converged
     c_bands:  3 eigenvalues not converged
     ethr =  1.00E-06,  avg # of iterations = 39.7

     total cpu time spent up to now is      729.6 secs

     total energy              =   -1982.29595166 Ry
     Harris-Foulkes estimate   =   -2791.25514065 Ry
     estimated scf accuracy    <    1028.14642453 Ry

     iteration #  2     ecut=    40.00 Ry     beta=0.70
     CG style diagonalization
     c_bands:  2 eigenvalues not converged
     c_bands:  2 eigenvalues not converged
     c_bands:  1 eigenvalues not converged
     c_bands:  2 eigenvalues not converged
     c_bands:  1 eigenvalues not converged
     c_bands:  1 eigenvalues not converged
     c_bands:  2 eigenvalues not converged
     ethr =  1.00E-02,  avg # of iterations = 12.7

     total cpu time spent up to now is      779.6 secs

     total energy              =   -1917.94525297 Ry
     Harris-Foulkes estimate   =   -2873.54946462 Ry
     estimated scf accuracy    <    2070.49349969 Ry

     iteration #  3     ecut=    40.00 Ry     beta=0.70
     CG style diagonalization
     ethr =  1.00E-02,  avg # of iterations = 10.4

     total cpu time spent up to now is      819.0 secs

     total energy              =   -2433.94995835 Ry
     Harris-Foulkes estimate   =   -2465.69349368 Ry
     estimated scf accuracy    <      77.42315830 Ry

     iteration #  4     ecut=    40.00 Ry     beta=0.70
     CG style diagonalization
     ethr =  1.00E-02,  avg # of iterations =  3.8

     total cpu time spent up to now is      833.2 secs

     total energy              =   -2431.24356925 Ry
     Harris-Foulkes estimate   =   -2439.42376037 Ry
     estimated scf accuracy    <      27.11724652 Ry

     iteration #  5     ecut=    40.00 Ry     beta=0.70
     CG style diagonalization
     ethr =  1.00E-02,  avg # of iterations =  3.3

     total cpu time spent up to now is      844.6 secs

     total energy              =   -2430.17871809 Ry
     Harris-Foulkes estimate   =   -2433.46033998 Ry
     estimated scf accuracy    <       9.71435469 Ry

     iteration #  6     ecut=    40.00 Ry     beta=0.70
     CG style diagonalization
     ethr =  4.58E-03,  avg # of iterations =  3.8

     total cpu time spent up to now is      858.7 secs

     total energy              =   -2431.53114105 Ry
     Harris-Foulkes estimate   =   -2431.84398284 Ry
     estimated scf accuracy    <       0.69845245 Ry

     iteration #  7     ecut=    40.00 Ry     beta=0.70
     CG style diagonalization
     c_bands:  1 eigenvalues not converged
     c_bands:  2 eigenvalues not converged
     ethr =  3.29E-04,  avg # of iterations =  4.5

     total cpu time spent up to now is      875.1 secs

     total energy              =   -2431.57607525 Ry
     Harris-Foulkes estimate   =   -2431.85260022 Ry
     estimated scf accuracy    <       0.50544948 Ry

     iteration #  8     ecut=    40.00 Ry     beta=0.70
     CG style diagonalization
     ethr =  2.38E-04,  avg # of iterations =  3.5

     total cpu time spent up to now is      888.2 secs

     total energy              =   -2431.77167316 Ry
     Harris-Foulkes estimate   =   -2431.85410407 Ry
     estimated scf accuracy    <       0.49597005 Ry

     iteration #  9     ecut=    40.00 Ry     beta=0.70
     CG style diagonalization
     ethr =  2.34E-04,  avg # of iterations =  3.0

     total cpu time spent up to now is      897.7 secs

     total energy              =   -2431.71087408 Ry
     Harris-Foulkes estimate   =   -2431.78411047 Ry
     estimated scf accuracy    <       0.24817129 Ry

     iteration # 10     ecut=    40.00 Ry     beta=0.70
     CG style diagonalization
     ethr =  1.17E-04,  avg # of iterations =  3.3

     total cpu time spent up to now is      909.2 secs

     total energy              =   -2431.73810128 Ry
     Harris-Foulkes estimate   =   -2431.74011250 Ry
     estimated scf accuracy    <       0.00962919 Ry

     iteration # 11     ecut=    40.00 Ry     beta=0.70
     CG style diagonalization
     c_bands:  1 eigenvalues not converged
     c_bands:  2 eigenvalues not converged
     ethr =  4.54E-06,  avg # of iterations =  4.1

     total cpu time spent up to now is      925.0 secs

     total energy              =   -2431.74006482 Ry
     Harris-Foulkes estimate   =   -2431.74043680 Ry
     estimated scf accuracy    <       0.00184012 Ry

     iteration # 12     ecut=    40.00 Ry     beta=0.70
     CG style diagonalization
     c_bands:  1 eigenvalues not converged
     ethr =  8.68E-07,  avg # of iterations =  3.3

     total cpu time spent up to now is      937.0 secs

     total energy              =   -2431.74010052 Ry
     Harris-Foulkes estimate   =   -2431.74024283 Ry
     estimated scf accuracy    <       0.00035167 Ry

     iteration # 13     ecut=    40.00 Ry     beta=0.70
     CG style diagonalization
     ethr =  1.66E-07,  avg # of iterations =  3.5

     total cpu time spent up to now is      949.1 secs

     End of self-consistent calculation

          k = 0.0000 0.0000 0.0000 (  3675 PWs)   bands (ev):

   -66.5472 -66.4974 -66.4541 -66.4014 -66.3343 -66.2717 -66.2310 -66.1720
   -39.6000 -39.5957 -39.5948 -39.5898 -39.5717 -39.5690 -39.5636 -39.5623
   -39.5610 -39.5587 -39.5569 -39.5530 -39.5496 -39.5473 -39.5455 -39.5381
   -39.5050 -39.4973 -39.4958 -39.4931 -39.4756 -39.4750 -39.4673 -39.4667
   -32.4092 -32.3926 -32.3711 -32.3625 -11.4068 -11.3555 -11.3539 -11.3495
   -11.3479 -11.3433 -11.3369 -11.3349 -11.2676 -11.2558 -11.2521 -11.2221
     2.9105   2.9962   3.1276   3.1760   3.1965   3.2622   3.3106   3.3176
     3.3205   3.3435   3.3618   3.3642   3.3731   3.4095   3.4518   3.4666
     3.5038   3.5294   3.5571   3.5572   3.5857   3.5878   3.5916   3.6019
     3.6214   3.6377   3.6441   3.6528   3.6917   3.7115   3.7402   3.7701
     3.8116   3.8303   3.8304   3.8383   3.8928   3.9290   3.9346   3.9536
     5.5240   6.9758   7.0789   7.8621   8.7527   8.9505   9.3335   9.6517
     9.7351   9.7559   9.8985  10.2890  10.4474  10.4589  10.6700  10.6759
    10.7883  10.8017  10.9228  11.0557  11.0678  11.0989  11.3546  11.4365
    11.5784  11.7842  11.8239  12.0268  12.2951  12.5393  12.6070  13.4583
    13.5760  13.9950  14.0025  14.0311  14.2747  14.4906  14.6140

          k = 0.0000 0.0000 0.0859 (  3675 PWs)   bands (ev):

   -66.5665 -66.5294 -66.4750 -66.3662 -66.3091 -66.2761 -66.2338 -66.1610
   -39.6011 -39.5952 -39.5938 -39.5932 -39.5713 -39.5678 -39.5648 -39.5640
   -39.5625 -39.5565 -39.5551 -39.5528 -39.5510 -39.5463 -39.5433 -39.5417
   -39.5018 -39.4990 -39.4970 -39.4797 -39.4753 -39.4746 -39.4665 -39.4614
   -32.4055 -32.3991 -32.3767 -32.3485 -11.4060 -11.3842 -11.3615 -11.3611
   -11.3540 -11.3492 -11.3311 -11.3056 -11.2590 -11.2460 -11.2414 -11.2305
     2.9362   2.9510   3.1050   3.1651   3.1979   3.2748   3.3272   3.3341
     3.3394   3.3471   3.3657   3.3708   3.4249   3.4341   3.4423   3.4596
     3.4906   3.5030   3.5105   3.5304   3.5501   3.5625   3.5875   3.6041
     3.6135   3.6448   3.6633   3.6680   3.6803   3.7146   3.7328   3.7860
     3.8089   3.8161   3.8298   3.8509   3.8894   3.9360   3.9676   4.0218
     5.6266   6.4020   7.6862   7.9341   8.5810   9.0537   9.0849   9.3471
     9.7206   9.9351  10.0283  10.3330  10.3668  10.3993  10.4849  10.7230
    10.7346  10.7984  11.0964  11.1615  11.2241  11.2593  11.4626  11.5188
    11.7991  11.8018  11.8766  12.0707  12.2740  12.5519  12.5562  13.2638
    13.2681  13.3129  13.6601  14.0229  14.2201  14.7147  14.7637

          k = 0.0000 0.0000-0.1717 (  3690 PWs)   bands (ev):

   -66.6155 -66.6155 -66.4331 -66.4331 -66.3348 -66.3348 -66.2190 -66.2190
   -39.5995 -39.5995 -39.5964 -39.5964 -39.5686 -39.5686 -39.5668 -39.5668
   -39.5625 -39.5625 -39.5553 -39.5553 -39.5484 -39.5484 -39.5417 -39.5417
   -39.4957 -39.4957 -39.4871 -39.4871 -39.4710 -39.4710 -39.4639 -39.4639
   -32.4197 -32.4197 -32.3701 -32.3701 -11.4086 -11.4086 -11.3907 -11.3907
   -11.3598 -11.3598 -11.3322 -11.3322 -11.2457 -11.2457 -11.2316 -11.2316
     2.9416   2.9416   3.1077   3.1077   3.1986   3.1986   3.3231   3.3231
     3.3453   3.3453   3.3523   3.3523   3.3614   3.3614   3.4291   3.4291
     3.4329   3.4329   3.5372   3.5372   3.5640   3.5640   3.5976   3.5976
     3.6375   3.6375   3.6903   3.6903   3.7244   3.7244   3.7800   3.7800
     3.7873   3.7873   3.8193   3.8193   3.8927   3.8927   3.9935   3.9935
     5.9169   5.9169   8.0824   8.0824   8.5346   8.5346   9.1934   9.1934
     9.8766   9.8766  10.0721  10.0721  10.5585  10.5585  10.5596  10.5596
    10.6010  10.6010  11.3466  11.3466  11.3600  11.3600  11.6177  11.6177
    11.7403  11.7403  12.2206  12.2206  12.4692  12.4692  12.5447  12.5447
    13.0331  13.0331  13.9628  13.9628  14.0466  14.0466  15.0184

          k = 0.0000 0.1683 0.0000 (  3664 PWs)   bands (ev):

   -66.5226 -66.4784 -66.4485 -66.4090 -66.2531 -66.2433 -66.1919 -66.1649
   -39.5978 -39.5950 -39.5939 -39.5894 -39.5689 -39.5681 -39.5639 -39.5623
   -39.5594 -39.5555 -39.5543 -39.5527 -39.5492 -39.5482 -39.5380 -39.5371
   -39.4975 -39.4974 -39.4959 -39.4846 -39.4798 -39.4747 -39.4595 -39.4568
   -32.4265 -32.3941 -32.3386 -32.3209 -11.3817 -11.3806 -11.3592 -11.3588
   -11.3521 -11.3456 -11.3073 -11.2982 -11.2756 -11.2446 -11.2385 -11.2158
     3.0318   3.1022   3.1704   3.2250   3.2339   3.2730   3.3216   3.3559
     3.3702   3.3883   3.4029   3.4065   3.4157   3.4433   3.4595   3.4653
     3.4953   3.5036   3.5043   3.5140   3.5248   3.5638   3.5855   3.6076
     3.6316   3.6433   3.6904   3.7066   3.7068   3.7083   3.7211   3.7398
     3.7775   3.8249   3.8355   3.8358   3.8692   3.8959   3.9869   4.0090
     5.9047   6.9015   7.2846   7.5146   8.2341   8.3857   9.4219   9.6796
     9.7094   9.7933   9.9482  10.1198  10.3112  10.4527  10.4910  10.5522
    10.8849  10.9143  10.9759  10.9844  11.0586  11.0928  11.2263  11.4157
    11.5730  11.6722  11.9173  12.1063  12.4160  12.9669  13.1928  13.2372
    13.7226  13.8919  13.9780  14.0549  14.2066  14.3065  14.5229

          k = 0.0000 0.1683 0.0859 (  3669 PWs)   bands (ev):

   -66.5714 -66.5003 -66.4315 -66.3719 -66.2927 -66.2736 -66.2015 -66.1729
   -39.5985 -39.5962 -39.5955 -39.5909 -39.5685 -39.5661 -39.5653 -39.5644
   -39.5631 -39.5582 -39.5551 -39.5542 -39.5501 -39.5463 -39.5423 -39.5393
   -39.5002 -39.4967 -39.4856 -39.4830 -39.4780 -39.4729 -39.4599 -39.4554
   -32.4182 -32.3835 -32.3632 -32.3376 -11.3954 -11.3795 -11.3732 -11.3659
   -11.3540 -11.3401 -11.3346 -11.2984 -11.2669 -11.2486 -11.2221 -11.2201
     3.0486   3.0896   3.1717   3.2139   3.2449   3.2690   3.3027   3.3281
     3.3549   3.3655   3.4090   3.4151   3.4292   3.4392   3.4541   3.4623
     3.4829   3.4922   3.5076   3.5218   3.5235   3.5798   3.5847   3.6205
     3.6210   3.6327   3.6663   3.6886   3.6902   3.6940   3.7200   3.7247
     3.7653   3.8137   3.8180   3.8623   3.8659   3.8980   3.9825   4.0147
     6.0013   6.7457   7.0511   7.7526   8.0643   8.7892   9.2462   9.5129
     9.8018   9.8234   9.9454  10.0199  10.2893  10.3816  10.4856  10.6553
    10.8888  10.9063  11.0013  11.0442  11.1182  11.2461  11.3541  11.4669
    11.5996  11.7956  11.9570  12.1915  12.4956  12.7740  13.0548  13.2075
    13.3711  13.4297  13.5757  13.8532  14.1511  14.4590  14.7869

          k = 0.0000 0.1683-0.1717 (  3666 PWs)   bands (ev):

   -66.4884 -66.4884 -66.3559 -66.3559 -66.3188 -66.3188 -66.2140 -66.2140
   -39.5969 -39.5969 -39.5928 -39.5928 -39.5674 -39.5674 -39.5650 -39.5650
   -39.5601 -39.5601 -39.5537 -39.5537 -39.5466 -39.5466 -39.5439 -39.5439
   -39.4966 -39.4966 -39.4864 -39.4864 -39.4747 -39.4747 -39.4603 -39.4603
   -32.3930 -32.3930 -32.3531 -32.3531 -11.3889 -11.3889 -11.3621 -11.3621
   -11.3468 -11.3468 -11.3125 -11.3125 -11.2465 -11.2465 -11.2319 -11.2319
     3.0521   3.0521   3.1942   3.1942   3.2651   3.2651   3.3516   3.3516
     3.3699   3.3699   3.3931   3.3931   3.4248   3.4248   3.4624   3.4624
     3.4925   3.4925   3.5054   3.5054   3.5734   3.5734   3.5795   3.5795
     3.6201   3.6201   3.6721   3.6721   3.7010   3.7010   3.7640   3.7640
     3.7691   3.7691   3.8578   3.8578   3.8927   3.8927   4.0001   4.0001
     6.2929   6.2929   7.3180   7.3180   8.6402   8.6402   9.2685   9.2685
     9.8998   9.8998   9.9106   9.9106  10.2791  10.2791  10.5969  10.5969
    10.9562  10.9562  11.0205  11.0205  11.2847  11.2847  11.4918  11.4918
    11.8502  11.8502  12.1454  12.1454  12.4924  12.4924  12.8312  12.8312
    13.2318  13.2318  13.8093  13.8094  14.1587  14.1591  14.8286

          k =-0.3149 0.0000 0.0000 (  3722 PWs)   bands (ev):

   -66.5489 -66.5489 -66.5059 -66.5059 -66.4380 -66.4380 -66.4215 -66.4215
   -39.6038 -39.6038 -39.5879 -39.5879 -39.5702 -39.5702 -39.5668 -39.5668
   -39.5622 -39.5622 -39.5592 -39.5592 -39.5528 -39.5528 -39.5483 -39.5483
   -39.5114 -39.5114 -39.5066 -39.5066 -39.4976 -39.4976 -39.4958 -39.4958
   -32.4471 -32.4471 -32.4406 -32.4406 -11.4009 -11.4009 -11.3866 -11.3866
   -11.3690 -11.3690 -11.3520 -11.3520 -11.2981 -11.2981 -11.2735 -11.2735
     2.9357   2.9357   3.1355   3.1355   3.1413   3.1413   3.2395   3.2395
     3.2963   3.2963   3.3266   3.3266   3.3795   3.3795   3.4312   3.4312
     3.4678   3.4678   3.4928   3.4928   3.5182   3.5182   3.5317   3.5317
     3.5617   3.5617   3.5883   3.5883   3.6403   3.6403   3.6826   3.6826
     3.7455   3.7455   3.7800   3.7800   3.8519   3.8519   3.8743   3.8743
     6.8115   6.8115   8.0255   8.0255   8.0744   8.0744   9.2698   9.2698
     9.7256   9.7256  10.0984  10.0984  10.3111  10.3111  10.4812  10.4812
    10.6246  10.6246  10.9097  10.9097  11.1979  11.1979  11.3378  11.3378
    11.3656  11.3656  11.5262  11.5262  12.7852  12.7852  12.9510  12.9510
    13.2743  13.2743  13.5666  13.5667  13.6040  13.6043  14.4423

          k =-0.3149 0.0000 0.0859 (  3710 PWs)   bands (ev):

   -66.5188 -66.5188 -66.4820 -66.4820 -66.4348 -66.4348 -66.3621 -66.3621
   -39.6020 -39.6020 -39.5887 -39.5887 -39.5678 -39.5678 -39.5635 -39.5635
   -39.5607 -39.5607 -39.5589 -39.5589 -39.5504 -39.5504 -39.5462 -39.5462
   -39.5128 -39.5128 -39.5016 -39.5016 -39.4938 -39.4938 -39.4914 -39.4914
   -32.4315 -32.4315 -32.4260 -32.4260 -11.3977 -11.3977 -11.3732 -11.3732
   -11.3692 -11.3692 -11.3408 -11.3408 -11.2888 -11.2888 -11.2691 -11.2691
     2.9486   2.9486   3.1217   3.1217   3.1868   3.1868   3.2651   3.2651
     3.3103   3.3103   3.3424   3.3424   3.4163   3.4163   3.4580   3.4580
     3.4727   3.4727   3.5026   3.5026   3.5165   3.5165   3.5564   3.5564
     3.5657   3.5657   3.5795   3.5795   3.6618   3.6618   3.7164   3.7164
     3.7453   3.7453   3.7913   3.7913   3.8364   3.8364   3.8865   3.8865
     6.8922   6.8922   7.5854   7.5854   8.3878   8.3878   9.2692   9.2692
     9.8418   9.8418  10.1564  10.1564  10.3681  10.3681  10.3844  10.3844
    10.7242  10.7242  10.8876  10.8876  11.1105  11.1105  11.3203  11.3203
    11.4453  11.4453  11.6269  11.6269  12.5140  12.5140  12.8790  12.8790
    13.2745  13.2747  13.6432  13.6436  13.7412  13.7412  14.0392

          k =-0.3149 0.0000-0.1717 (  3680 PWs)   bands (ev):

   -66.4520 -66.4520 -66.3901 -66.3901 -66.3451 -66.3451 -66.3232 -66.3232
   -39.6026 -39.6026 -39.5876 -39.5876 -39.5634 -39.5634 -39.5618 -39.5618
   -39.5573 -39.5573 -39.5564 -39.5564 -39.5454 -39.5454 -39.5407 -39.5407
   -39.5085 -39.5085 -39.4970 -39.4970 -39.4870 -39.4870 -39.4830 -39.4830
   -32.4036 -32.4036 -32.3841 -32.3841 -11.3919 -11.3919 -11.3720 -11.3720
   -11.3423 -11.3423 -11.3031 -11.3031 -11.2658 -11.2658 -11.2594 -11.2594
     2.9758   2.9758   3.1399   3.1399   3.2212   3.2212   3.2535   3.2535
     3.3324   3.3324   3.3650   3.3650   3.4373   3.4373   3.4779   3.4779
     3.4915   3.4915   3.5487   3.5487   3.5812   3.5812   3.5827   3.5827
     3.5876   3.5876   3.5925   3.5925   3.7574   3.7574   3.7715   3.7715
     3.7998   3.7998   3.8318   3.8318   3.8485   3.8485   3.8981   3.8981
     7.0829   7.0829   7.2542   7.2542   8.5058   8.5058   9.2147   9.2147
     9.9547   9.9547  10.2987  10.2987  10.3583  10.3583  10.4309  10.4309
    10.7926  10.7926  10.9278  10.9278  10.9466  10.9466  11.3038  11.3038
    11.4482  11.4482  11.7959  11.7959  12.1542  12.1542  12.9435  12.9435
    13.1566  13.1567  13.5323  13.5324  13.9319  13.9325  14.2710

          k =-0.3149 0.1683 0.0000 (  3686 PWs)   bands (ev):

   -66.4227 -66.4227 -66.4161 -66.4161 -66.3938 -66.3938 -66.3463 -66.3463
   -39.5971 -39.5971 -39.5916 -39.5916 -39.5646 -39.5646 -39.5643 -39.5643
   -39.5595 -39.5595 -39.5577 -39.5577 -39.5475 -39.5475 -39.5450 -39.5450
   -39.5128 -39.5128 -39.5051 -39.5051 -39.4987 -39.4987 -39.4915 -39.4915
   -32.4140 -32.4140 -32.4033 -32.4033 -11.3769 -11.3769 -11.3621 -11.3621
   -11.3291 -11.3291 -11.3234 -11.3234 -11.2928 -11.2928 -11.2726 -11.2726
     3.0807   3.0807   3.1827   3.1827   3.2446   3.2446   3.3419   3.3419
     3.3527   3.3527   3.3861   3.3861   3.4282   3.4282   3.4376   3.4376
     3.4933   3.4933   3.4982   3.4982   3.5391   3.5391   3.5519   3.5519
     3.5971   3.5971   3.6085   3.6085   3.6569   3.6569   3.6792   3.6792
     3.7187   3.7187   3.7786   3.7786   3.8284   3.8284   3.8333   3.8333
     7.1302   7.1302   7.9272   7.9272   8.3280   8.3280   8.5940   8.5940
     9.5563   9.5563   9.5727   9.5727  10.3628  10.3628  10.6153  10.6153
    10.7493  10.7493  10.9712  10.9712  11.0064  11.0064  11.1854  11.1854
    11.2874  11.2874  11.6410  11.6410  12.3583  12.3583  12.4209  12.4209
    13.7984  13.7985  14.2914  14.2915  14.8986  14.8986  15.3899

          k =-0.3149 0.1683 0.0859 (  3692 PWs)   bands (ev):

   -66.4625 -66.4625 -66.4113 -66.4113 -66.3965 -66.3965 -66.3631 -66.3631
   -39.5995 -39.5995 -39.5934 -39.5934 -39.5653 -39.5653 -39.5633 -39.5633
   -39.5609 -39.5609 -39.5589 -39.5589 -39.5468 -39.5468 -39.5459 -39.5459
   -39.5089 -39.5089 -39.5002 -39.5002 -39.4945 -39.4945 -39.4885 -39.4885
   -32.4305 -32.4305 -32.3943 -32.3943 -11.3999 -11.3999 -11.3661 -11.3661
   -11.3435 -11.3435 -11.3206 -11.3206 -11.2766 -11.2766 -11.2721 -11.2721
     3.0751   3.0751   3.1826   3.1826   3.2225   3.2225   3.3278   3.3278
     3.3534   3.3534   3.3974   3.3974   3.4275   3.4275   3.4480   3.4480
     3.4701   3.4701   3.4753   3.4753   3.5161   3.5161   3.5661   3.5661
     3.5887   3.5887   3.6236   3.6236   3.6608   3.6608   3.6959   3.6959
     3.7214   3.7214   3.7785   3.7785   3.8148   3.8148   3.8489   3.8489
     7.1921   7.1921   7.8251   7.8251   8.1740   8.1740   8.5893   8.5893
     9.5971   9.5971   9.9222   9.9222  10.3168  10.3168  10.5546  10.5546
    10.7558  10.7558  10.9568  10.9568  10.9977  10.9977  11.1615  11.1615
    11.3749  11.3749  11.6636  11.6636  12.2477  12.2477  12.6320  12.6320
    13.6957  13.6958  13.7917  13.7918  14.5665  14.5670  15.0813

          k =-0.3149 0.1683-0.1717 (  3704 PWs)   bands (ev):

   -66.4862 -66.4862 -66.4563 -66.4563 -66.4378 -66.4378 -66.3696 -66.3696
   -39.6010 -39.6010 -39.5967 -39.5967 -39.5656 -39.5656 -39.5641 -39.5641
   -39.5612 -39.5612 -39.5600 -39.5600 -39.5463 -39.5463 -39.5419 -39.5419
   -39.5094 -39.5094 -39.5034 -39.5034 -39.4940 -39.4940 -39.4908 -39.4908
   -32.4467 -32.4467 -32.4030 -32.4030 -11.4159 -11.4159 -11.3800 -11.3800
   -11.3480 -11.3480 -11.3222 -11.3222 -11.2812 -11.2812 -11.2761 -11.2761
     3.0573   3.0573   3.1965   3.1965   3.2018   3.2018   3.3090   3.3090
     3.3245   3.3245   3.4087   3.4087   3.4184   3.4184   3.4225   3.4225
     3.4563   3.4563   3.4634   3.4634   3.5082   3.5082   3.5468   3.5468
     3.5567   3.5567   3.6091   3.6091   3.6453   3.6453   3.7240   3.7240
     3.7342   3.7342   3.7729   3.7729   3.8134   3.8134   3.8258   3.8258
     7.3178   7.3178   7.6053   7.6053   8.2249   8.2249   8.4358   8.4358
     9.8503   9.8503  10.0928  10.0928  10.2757  10.2757  10.4793  10.4793
    10.8096  10.8096  10.8832  10.8832  11.0089  11.0089  11.1455  11.1455
    11.4495  11.4495  11.6315  11.6315  12.2186  12.2186  12.9513  12.9513
    13.2685  13.2685  13.6098  13.6099  14.2210  14.2210  14.9439

     the Fermi energy is    10.8280 ev

!    total energy              =   -2431.74017327 Ry
     Harris-Foulkes estimate   =   -2431.74020766 Ry
     estimated scf accuracy    <       0.00003751 Ry

     The total energy is the sum of the following terms:

     one-electron contribution =   -1056.78375348 Ry
     hartree contribution      =     572.87055245 Ry
     xc contribution           =    -228.90500679 Ry
     ewald contribution        =   -1717.92102823 Ry
     smearing contrib. (-TS)   =      -1.00093721 Ry

     convergence has been achieved in  13 iterations

     Forces acting on atoms (Ry/au):

     atom    1 type  1   force =     0.00000000   -0.00767207   -0.00788095
     atom    2 type  1   force =     0.00000000    0.00767207    0.00788095
     atom    3 type  1   force =     0.00000000   -0.00767207    0.00788095
     atom    4 type  1   force =     0.00000000    0.00767207   -0.00788095
     atom    5 type  1   force =     0.00000000   -0.00000927    0.00923385
     atom    6 type  1   force =     0.00000000    0.00000927   -0.00923385
     atom    7 type  1   force =     0.00000000   -0.00000927   -0.00923385
     atom    8 type  1   force =     0.00000000    0.00000927    0.00923385
     atom    9 type  2   force =     0.00000000   -0.00363003   -0.00477069
     atom   10 type  2   force =     0.00000000    0.00363003    0.00477069
     atom   11 type  2   force =     0.00000000   -0.00363003    0.00477069
     atom   12 type  2   force =     0.00000000    0.00363003   -0.00477069

     Total force =     0.031124     Total SCF correction =     0.006905
     SCF correction compared to forces is large: reduce conv_thr to get better values


     entering subroutine stress ...

          total   stress  (Ry/bohr**3)                   (kbar)     P=-2053.09
  -0.01513099   0.00000000   0.00000000      -2225.84      0.00      0.00
   0.00000000  -0.01307125   0.00000000          0.00  -1922.85      0.00
   0.00000000   0.00000000  -0.01366760          0.00      0.00  -2010.57


     number of scf cycles    =   3
     number of bfgs steps    =   2

     enthalpy old            =   -2447.6567919364 Ry
     enthalpy new            =   -2431.7401732652 Ry

     CASE: enthalpy_new > enthalpy_old

     new trust radius        =       1.0738683845 bohr

     trust_radius < trust_radius_min

     resetting bfgs history

     Message from routine bfgs:
     history already reset at previous step: stopping
     new conv_thr            =       0.0001000000 Ry

     new unit-cell volume =   1284.12221 a.u.^3 (   190.28728 Ang^3 )

CELL_PARAMETERS (alat=  7.01510508)
   1.155738692   0.000000000   0.000000000
   0.000000000   1.488276802   0.000000000
   0.000000000   0.000000000   2.162521581

ATOMIC_POSITIONS (crystal)
Co       0.750000000   0.825299908   0.435200721
Co       0.250000000   0.174700092   0.564799279
Co       0.750000000   0.325299908   0.064799279
Co       0.250000000   0.674700092   0.935200721
Co       0.250000000   0.539186954   0.280038682
Co       0.750000000   0.460813046   0.719961318
Co       0.250000000   0.039186954   0.219961318
Co       0.750000000   0.960813046   0.780038682
Si       0.250000000   0.200614979   0.893884823
Si       0.750000000   0.799385021   0.106115177
Si       0.250000000   0.700614979   0.606115177
Si       0.750000000   0.299385021   0.393884823



     Writing output data file Prototype-La-oP12-Co2Si.save
     NEW-OLD atomic charge density approx. for the potential
     NEW k-points:
        k(    1) = (   0.0000000   0.0000000   0.0000000), wk =   0.0833333
        k(    2) = (   0.0000000   0.0000000   0.1156058), wk =   0.1666667
        k(    3) = (   0.0000000   0.0000000  -0.2312116), wk =   0.0833333
        k(    4) = (   0.0000000   0.2239727   0.0000000), wk =   0.1666667
        k(    5) = (   0.0000000   0.2239727   0.1156058), wk =   0.3333333
        k(    6) = (   0.0000000   0.2239727  -0.2312116), wk =   0.1666667
        k(    7) = (  -0.4326237   0.0000000   0.0000000), wk =   0.0833333
        k(    8) = (  -0.4326237   0.0000000   0.1156058), wk =   0.1666667
        k(    9) = (  -0.4326237   0.0000000  -0.2312116), wk =   0.0833333
        k(   10) = (  -0.4326237   0.2239727   0.0000000), wk =   0.1666667
        k(   11) = (  -0.4326237   0.2239727   0.1156058), wk =   0.3333333
        k(   12) = (  -0.4326237   0.2239727  -0.2312116), wk =   0.1666667
     Check: negative starting charge=   -0.011358

     negative rho (up, down):  0.324E+02 0.000E+00
     extrapolated charge  136.01380, renormalised to  212.00000

[...]

     total cpu time spent up to now is     2277.1 secs

     total energy              =   -2452.96328022 Ry
     Harris-Foulkes estimate   =   -2452.96340610 Ry
     estimated scf accuracy    <       0.00021086 Ry

     iteration # 10     ecut=    40.00 Ry     beta=0.70
     CG style diagonalization
     c_bands:  1 eigenvalues not converged
     c_bands:  1 eigenvalues not converged
     ethr =  9.95E-08,  avg # of iterations =  6.0

     total cpu time spent up to now is     2307.8 secs

     total energy              =   -2452.96398601 Ry
     Harris-Foulkes estimate   =   -2452.96423301 Ry
     estimated scf accuracy    <       0.00048694 Ry

     iteration # 11     ecut=    40.00 Ry     beta=0.70
     CG style diagonalization
     c_bands:  1 eigenvalues not converged
     ethr =  9.95E-08,  avg # of iterations =  3.7

     total cpu time spent up to now is     2325.1 secs

     End of self-consistent calculation

          k = 0.0000 0.0000 0.0000 (  5479 PWs)   bands (ev):

   -51.3777 -51.3566 -51.3530 -51.3492 -51.2882 -51.2789 -51.2556 -51.2526
   -18.6943 -18.6116 -18.5609 -18.5531 -18.5172 -18.4798 -18.4578 -18.4429
   -18.4429 -18.4043 -18.3840 -18.3394 -18.3010 -18.2990 -18.2723 -18.2690
   -18.2364 -18.2244 -18.2087 -18.2082 -18.1834 -18.1586 -18.0590 -18.0556
   -10.5818 -10.4713 -10.4669 -10.4530   8.5001   8.5461   8.5617   8.6706
     8.7642   8.7646   8.7730   8.8390   8.8429   9.1335   9.1559   9.4515
    19.6059  19.9309  19.9499  20.0510  20.1350  20.1401  20.1879  20.5033
    20.7555  20.7980  21.1997  21.3760  21.4335  21.5322  21.5919  21.7847
    21.9764  22.2651  22.2785  22.2846  22.4273  22.5382  22.7687  22.8966
    22.9012  23.0187  23.0451  23.0933  23.1325  23.4844  23.5085  23.7793
    23.7815  23.8506  23.9059  24.0805  24.5605  24.6198  24.6964  24.7784
    24.9402  25.7581  26.0769  26.4592  28.7083  29.1763  29.5778  29.8200
    29.9015  30.9708  31.1296  31.4370  31.5460  31.8204  32.2023  32.3820
    32.4309  32.7461  32.8752  33.1825  34.1486  34.3495  34.4977  34.5455
    34.7258  35.0160  35.1268  36.2858  37.5065  37.7010  37.7902  38.3434
    38.8445  39.7068  39.7799  39.8456  40.0933  40.3659  40.3987

          k = 0.0000 0.0000 0.1156 (  5493 PWs)   bands (ev):

   -51.3752 -51.3660 -51.3533 -51.3502 -51.2937 -51.2874 -51.2544 -51.2533
   -18.6829 -18.6303 -18.5530 -18.5481 -18.5239 -18.4959 -18.4679 -18.4307
   -18.4129 -18.4088 -18.3941 -18.3524 -18.3089 -18.3078 -18.2771 -18.2729
   -18.2399 -18.2242 -18.2120 -18.2020 -18.1856 -18.1666 -18.0640 -18.0615
   -10.5689 -10.4992 -10.4527 -10.4510   8.5266   8.5477   8.5624   8.6864
     8.6908   8.7435   8.8209   8.8411   8.8565   9.0371   9.2451   9.4211
    19.6973  19.7968  19.9128  19.9880  20.0505  20.1061  20.3713  20.5614
    20.8478  20.9109  21.2217  21.4550  21.5305  21.7981  21.8211  21.8647
    21.9554  22.1331  22.3136  22.3392  22.4728  22.5619  22.6293  22.7154
    22.7286  22.8561  23.0584  23.1109  23.1617  23.3679  23.4146  23.4190
    23.8459  23.8511  24.0557  24.1228  24.4822  24.5304  24.6723  24.8856
    25.0011  25.1417  25.9348  27.2359  28.3062  28.5228  29.9020  30.1349
    30.3783  30.8288  31.0466  31.2989  31.3437  31.8520  31.9959  32.1620
    32.2823  32.3728  33.5286  33.7673  34.1448  34.3539  34.6163  34.8625
    35.1354  35.6032  35.6267  36.7550  37.1753  37.2125  38.1012  38.2153
    38.9169  39.1791  39.4546  39.6955  39.8516  39.9140  40.3090

          k = 0.0000 0.0000-0.2312 (  5514 PWs)   bands (ev):

   -51.3760 -51.3760 -51.3559 -51.3559 -51.2923 -51.2923 -51.2566 -51.2566
   -18.6616 -18.6616 -18.5376 -18.5376 -18.5299 -18.5299 -18.4431 -18.4431
   -18.4168 -18.4168 -18.3803 -18.3803 -18.3097 -18.3096 -18.2751 -18.2751
   -18.2223 -18.2223 -18.2187 -18.2187 -18.1907 -18.1907 -18.0674 -18.0674
   -10.5367 -10.5367 -10.4488 -10.4488   8.5572   8.5572   8.5959   8.5959
     8.7126   8.7126   8.8412   8.8412   8.9263   8.9263   9.3430   9.3430
    19.7841  19.7841  19.8074  19.8074  20.0467  20.0467  20.8208  20.8208
    20.8739  20.8739  21.2839  21.2839  21.8537  21.8537  21.8572  21.8572
    22.0818  22.0818  22.2164  22.2164  22.5966  22.5966  22.6161  22.6161
    22.8444  22.8444  23.1295  23.1295  23.1458  23.1458  23.3702  23.3702
    23.5195  23.5195  24.2156  24.2156  24.2574  24.2574  24.7781  24.7781
    25.0109  25.0109  26.7936  26.7936  28.1031  28.1031  30.3722  30.3722
    30.8024  30.8024  31.1269  31.1269  31.2072  31.2072  31.8168  31.8168
    32.3183  32.3183  34.0523  34.0523  34.4647  34.4647  35.2173  35.2175
    35.3994  35.3995  36.8554  36.8554  37.2192  37.2193  37.9159  37.9160
    38.7506  38.7508  39.0878  39.0883  39.6205  39.6251  39.6259

          k = 0.0000 0.2240 0.0000 (  5471 PWs)   bands (ev):

   -51.3717 -51.3624 -51.3518 -51.3410 -51.2823 -51.2735 -51.2701 -51.2541
   -18.6243 -18.5595 -18.5335 -18.5099 -18.4868 -18.4818 -18.4702 -18.4384
   -18.4161 -18.3984 -18.3854 -18.3644 -18.3395 -18.3051 -18.2617 -18.2401
   -18.2365 -18.2289 -18.2130 -18.2086 -18.2071 -18.1610 -18.1608 -18.1344
   -10.5357 -10.4732 -10.4549 -10.4547   8.5011   8.5207   8.5248   8.6117
     8.6274   8.6375   8.8218   8.8752   8.8806   8.8925   9.2139   9.3111
    20.0981  20.1579  20.2805  20.3110  20.3973  20.5339  20.6601  20.7100
    20.9778  21.0124  21.1496  21.3387  21.4233  21.4561  21.5624  21.8438
    21.9975  22.0166  22.3077  22.3345  22.3652  22.8123  22.8142  22.9268
    22.9711  23.0457  23.2070  23.2323  23.2662  23.4000  23.5501  23.5835
    23.7801  23.8900  23.9271  24.2417  24.3399  24.3938  24.4872  24.8710
    25.0851  25.4163  26.2589  26.3305  27.9746  28.8696  28.9115  29.4920
    29.9907  30.1155  30.1988  30.7583  30.9989  31.6286  32.0894  32.1698
    32.7145  32.7388  33.0391  33.3528  33.4993  33.7006  34.1635  34.1969
    34.7002  35.0575  35.9308  36.0076  37.0650  37.8047  38.2444  38.5235
    38.6243  39.6873  39.7387  39.7847  39.9937  40.3834  40.8995

          k = 0.0000 0.2240 0.1156 (  5489 PWs)   bands (ev):

   -51.3735 -51.3647 -51.3556 -51.3491 -51.2831 -51.2776 -51.2687 -51.2591
   -18.6227 -18.5656 -18.5258 -18.5196 -18.5183 -18.4892 -18.4469 -18.4285
   -18.4149 -18.4007 -18.3977 -18.3760 -18.3362 -18.3129 -18.2649 -18.2490
   -18.2343 -18.2318 -18.2313 -18.2141 -18.1967 -18.1686 -18.1539 -18.1359
   -10.5257 -10.4772 -10.4638 -10.4505   8.5011   8.5405   8.5447   8.5633
     8.6215   8.6421   8.8282   8.8609   8.8706   8.8862   9.2352   9.3042
    20.0531  20.1113  20.1295  20.3517  20.4178  20.5751  20.7167  20.8058
    20.9957  21.1120  21.2598  21.3568  21.3983  21.5301  21.6447  21.8520
    22.0881  22.2471  22.3049  22.3859  22.5420  22.6512  22.6869  22.7820
    22.8827  23.0134  23.0981  23.1805  23.2636  23.3727  23.5212  23.5962
    23.7161  23.9145  23.9887  24.2406  24.2934  24.4543  24.5571  24.8759
    25.0498  25.1561  25.5570  26.6104  27.7834  28.5829  29.5688  29.7088
    29.9983  30.0100  30.2223  30.6868  30.8549  31.3106  31.9111  32.2807
    32.7471  32.8354  33.1711  33.5765  33.6711  33.8221  34.0092  34.7449
    35.1173  35.3690  35.9647  36.3820  36.8323  37.7400  38.0375  38.3490
    38.6411  38.9426  39.2437  39.5769  40.2497  40.4350  40.4952

          k = 0.0000 0.2240-0.2312 (  5482 PWs)   bands (ev):

   -51.3704 -51.3704 -51.3506 -51.3506 -51.2795 -51.2795 -51.2625 -51.2625
   -18.5924 -18.5924 -18.5212 -18.5212 -18.5074 -18.5074 -18.4172 -18.4172
   -18.4111 -18.4111 -18.3922 -18.3922 -18.3259 -18.3259 -18.2526 -18.2526
   -18.2431 -18.2431 -18.2195 -18.2195 -18.1791 -18.1791 -18.1456 -18.1456
   -10.5014 -10.5013 -10.4566 -10.4566   8.5186   8.5186   8.5813   8.5813
     8.6008   8.6008   8.8490   8.8490   8.8659   8.8659   9.2767   9.2767
    19.9887  19.9887  20.1854  20.1854  20.6530  20.6530  20.7828  20.7828
    21.0503  21.0503  21.4564  21.4564  21.5981  21.5981  21.7062  21.7062
    22.2676  22.2676  22.3713  22.3713  22.4292  22.4292  22.7441  22.7441
    22.8628  22.8628  23.1476  23.1476  23.3458  23.3458  23.4785  23.4785
    24.0558  24.0558  24.0891  24.0891  24.1268  24.1268  24.6435  24.6435
    24.9579  24.9579  25.9577  25.9577  28.1192  28.1192  29.9361  29.9361
    30.1512  30.1512  30.3469  30.3469  30.7824  30.7825  32.0765  32.0765
    33.0828  33.0828  33.1507  33.1507  33.9027  33.9027  34.5849  34.5849
    35.8885  35.8885  36.5930  36.5931  37.2117  37.2118  37.4383  37.4384
    38.2550  38.2551  39.7323  39.7324  39.9406  39.9409  40.6174

          k =-0.4326 0.0000 0.0000 (  5508 PWs)   bands (ev):

   -51.3640 -51.3640 -51.3585 -51.3585 -51.3020 -51.3020 -51.2586 -51.2586
   -18.6587 -18.6587 -18.5710 -18.5710 -18.5520 -18.5520 -18.4629 -18.4629
   -18.4321 -18.4321 -18.3621 -18.3621 -18.3301 -18.3301 -18.2808 -18.2808
   -18.2017 -18.2017 -18.1863 -18.1863 -18.1813 -18.1813 -18.0661 -18.0661
   -10.4713 -10.4713 -10.4702 -10.4702   8.5277   8.5277   8.6909   8.6909
     8.7179   8.7179   8.8579   8.8579   9.1058   9.1058   9.2298   9.2298
    20.0807  20.0807  20.1660  20.1660  20.6168  20.6168  20.7528  20.7528
    21.1379  21.1379  21.2092  21.2092  21.4894  21.4894  21.6689  21.6689
    21.7099  21.7099  21.9459  21.9458  22.1711  22.1711  22.2734  22.2734
    22.4314  22.4314  22.7469  22.7469  23.2908  23.2908  23.3735  23.3735
    23.3777  23.3777  24.2828  24.2828  24.7881  24.7881  24.9372  24.9372
    25.8486  25.8486  28.1143  28.1143  28.2789  28.2789  29.5919  29.5919
    30.6641  30.6641  30.8911  30.8911  31.0991  31.0991  31.8386  31.8386
    32.2268  32.2268  33.2133  33.2133  33.5477  33.5477  33.5997  33.5997
    34.6918  34.6918  34.8785  34.8785  37.2427  37.2428  38.2230  38.2230
    38.2339  38.2339  39.1615  39.1616  39.7982  39.7983  40.6525

          k =-0.4326 0.0000 0.1156 (  5490 PWs)   bands (ev):

   -51.3608 -51.3608 -51.3538 -51.3538 -51.2987 -51.2987 -51.2563 -51.2563
   -18.6587 -18.6587 -18.5748 -18.5748 -18.5161 -18.5161 -18.4695 -18.4695
   -18.4258 -18.4258 -18.3572 -18.3572 -18.3553 -18.3553 -18.2649 -18.2649
   -18.2104 -18.2104 -18.1813 -18.1813 -18.1685 -18.1685 -18.0678 -18.0678
   -10.4711 -10.4711 -10.4696 -10.4696   8.5038   8.5038   8.7240   8.7240
     8.7311   8.7311   8.8490   8.8490   9.0910   9.0910   9.2268   9.2268
    19.9991  19.9991  20.3158  20.3158  20.5548  20.5548  20.8084  20.8084
    21.1682  21.1682  21.2800  21.2800  21.3695  21.3695  21.6511  21.6511
    21.8081  21.8081  22.0135  22.0135  22.1252  22.1252  22.2993  22.2993
    22.4997  22.4997  22.7233  22.7233  23.2521  23.2521  23.2602  23.2602
    23.6150  23.6150  24.2063  24.2063  24.7044  24.7044  24.8938  24.8938
    25.7046  25.7046  27.1592  27.1592  28.8434  28.8434  30.1279  30.1279
    30.5415  30.5415  31.0233  31.0233  31.2391  31.2391  31.7247  31.7247
    32.0457  32.0457  32.9354  32.9354  33.6184  33.6184  34.1897  34.1897
    34.6344  34.6344  35.1943  35.1943  36.7408  36.7410  37.8871  37.8872
    38.7301  38.7301  39.1317  39.1318  40.1157  40.1164  40.4077

          k =-0.4326 0.0000-0.2312 (  5480 PWs)   bands (ev):

   -51.3566 -51.3566 -51.3538 -51.3538 -51.2967 -51.2967 -51.2546 -51.2546
   -18.6599 -18.6599 -18.5852 -18.5852 -18.4831 -18.4831 -18.4658 -18.4658
   -18.4337 -18.4337 -18.3752 -18.3752 -18.3497 -18.3497 -18.2401 -18.2401
   -18.2318 -18.2318 -18.1756 -18.1756 -18.1689 -18.1689 -18.0584 -18.0584
   -10.4709 -10.4709 -10.4691 -10.4691   8.4834   8.4834   8.7314   8.7314
     8.7787   8.7787   8.8249   8.8249   9.0754   9.0754   9.2249   9.2249
    19.9314  19.9314  20.4759  20.4759  20.6583  20.6583  20.6776  20.6776
    21.1650  21.1650  21.2677  21.2677  21.3828  21.3828  21.6597  21.6597
    21.8840  21.8840  21.9976  21.9976  22.1533  22.1533  22.2687  22.2687
    22.6964  22.6964  22.9042  22.9042  22.9082  22.9082  23.1716  23.1716
    23.8230  23.8230  24.2996  24.2996  24.4619  24.4619  24.8746  24.8746
    25.5139  25.5139  26.7473  26.7473  29.0912  29.0912  30.2763  30.2763
    30.4693  30.4693  31.1110  31.1110  31.3449  31.3449  31.4656  31.4656
    32.3840  32.3840  33.0530  33.0530  33.3469  33.3469  34.6383  34.6383
    34.8955  34.8955  35.4875  35.4876  35.7449  35.7450  38.1041  38.1042
    38.9218  38.9218  39.0422  39.0423  40.0304  40.0620  40.0634

          k =-0.4326 0.2240 0.0000 (  5490 PWs)   bands (ev):

   -51.3609 -51.3609 -51.3551 -51.3551 -51.2845 -51.2845 -51.2679 -51.2679
   -18.5964 -18.5964 -18.5741 -18.5741 -18.5429 -18.5429 -18.4651 -18.4651
   -18.3884 -18.3884 -18.3420 -18.3420 -18.3377 -18.3377 -18.2837 -18.2837
   -18.2131 -18.2131 -18.1975 -18.1975 -18.1738 -18.1738 -18.1420 -18.1420
   -10.4580 -10.4580 -10.4577 -10.4577   8.5094   8.5094   8.5576   8.5576
     8.7616   8.7616   8.8235   8.8235   9.0913   9.0913   9.1053   9.1053
    20.4207  20.4207  20.5326  20.5326  20.8687  20.8687  20.8772  20.8772
    21.1472  21.1472  21.1511  21.1511  21.7185  21.7185  21.7336  21.7336
    21.9614  21.9614  22.1360  22.1360  22.3305  22.3305  22.4162  22.4162
    22.5914  22.5914  22.7984  22.7984  23.0800  23.0800  23.3823  23.3823
    23.6304  23.6304  23.8972  23.8972  24.3359  24.3359  24.6572  24.6572
    26.1562  26.1562  27.4558  27.4558  28.3294  28.3294  29.0505  29.0505
    29.8523  29.8523  30.1076  30.1076  31.6947  31.6947  31.9790  31.9790
    32.2251  32.2251  32.7970  32.7970  33.1000  33.1000  33.3352  33.3352
    34.6612  34.6612  35.2529  35.2530  36.7329  36.7329  37.2064  37.2065
    38.7898  38.7899  39.6148  39.6148  40.3795  40.3800  40.6855

          k =-0.4326 0.2240 0.1156 (  5496 PWs)   bands (ev):

   -51.3614 -51.3614 -51.3564 -51.3564 -51.2874 -51.2874 -51.2677 -51.2677
   -18.6017 -18.6017 -18.5611 -18.5611 -18.5262 -18.5262 -18.4850 -18.4850
   -18.4111 -18.4111 -18.3604 -18.3604 -18.3162 -18.3162 -18.2636 -18.2636
   -18.2186 -18.2186 -18.2079 -18.2079 -18.1727 -18.1727 -18.1456 -18.1456
   -10.4580 -10.4580 -10.4573 -10.4573   8.4914   8.4914   8.5814   8.5814
     8.7664   8.7664   8.8035   8.8035   9.0823   9.0823   9.1153   9.1153
    20.3290  20.3290  20.6262  20.6262  20.7760  20.7760  21.0442  21.0442
    21.1728  21.1728  21.2793  21.2793  21.5490  21.5490  21.8038  21.8038
    21.9522  21.9522  22.1393  22.1393  22.3450  22.3450  22.4908  22.4908
    22.5774  22.5774  22.8899  22.8899  23.0279  23.0279  23.2921  23.2921
    23.6613  23.6613  23.8699  23.8699  24.2981  24.2981  24.6299  24.6299
    26.0980  26.0980  26.8613  26.8613  28.3837  28.3837  29.2756  29.2756
    30.0274  30.0274  30.4950  30.4950  31.2076  31.2076  31.9853  31.9853
    32.3105  32.3105  32.8659  32.8659  33.0325  33.0325  33.3943  33.3943
    34.8216  34.8216  35.5914  35.5915  36.5191  36.5192  37.1750  37.1750
    38.9129  38.9130  39.6582  39.6584  40.4352  40.4359  40.6453

          k =-0.4326 0.2240-0.2312 (  5520 PWs)   bands (ev):

   -51.3639 -51.3639 -51.3623 -51.3623 -51.2908 -51.2908 -51.2730 -51.2730
   -18.6124 -18.6124 -18.5395 -18.5395 -18.5279 -18.5279 -18.4934 -18.4934
   -18.4485 -18.4485 -18.3690 -18.3690 -18.3037 -18.3037 -18.2419 -18.2419
   -18.2381 -18.2381 -18.2161 -18.2161 -18.1804 -18.1804 -18.1480 -18.1480
   -10.4581 -10.4581 -10.4573 -10.4573   8.4774   8.4774   8.6017   8.6017
     8.7739   8.7739   8.7774   8.7774   9.0785   9.0785   9.1197   9.1197
    20.2533  20.2533  20.6581  20.6581  20.8663  20.8663  21.1053  21.1053
    21.2558  21.2558  21.3242  21.3242  21.4117  21.4117  21.9071  21.9071
    21.9327  21.9327  22.1627  22.1627  22.2220  22.2220  22.6230  22.6230
    22.7038  22.7038  22.8905  22.8905  22.9723  22.9723  23.1916  23.1916
    23.4705  23.4705  24.1135  24.1135  24.1957  24.1957  24.5861  24.5861
    26.0777  26.0777  26.4065  26.4065  28.3846  28.3846  29.2934  29.2934
    30.5002  30.5002  30.5392  30.5392  31.0404  31.0404  31.7962  31.7962
    32.5058  32.5058  32.7650  32.7650  33.1681  33.1681  33.4146  33.4146
    34.7927  34.7927  35.7443  35.7444  36.5127  36.5128  37.6370  37.6370
    38.3276  38.3276  39.9779  39.9780  40.2647  40.2649  40.7725

     the Fermi energy is    32.7510 ev

!    total energy              =   -2452.96406573 Ry
     Harris-Foulkes estimate   =   -2452.96407399 Ry
     estimated scf accuracy    <       0.00000977 Ry

     The total energy is the sum of the following terms:

     one-electron contribution =    -190.70961884 Ry
     hartree contribution      =     301.80652443 Ry
     xc contribution           =    -243.24084481 Ry
     ewald contribution        =   -2320.34493002 Ry
     smearing contrib. (-TS)   =      -0.47519649 Ry

     convergence has been achieved in  11 iterations

     Forces acting on atoms (Ry/au):

     atom    1 type  1   force =     0.00000000   -0.04323148    0.00250199
     atom    2 type  1   force =     0.00000000    0.04323148   -0.00250199
     atom    3 type  1   force =     0.00000000   -0.04323148   -0.00250199
     atom    4 type  1   force =     0.00000000    0.04323148    0.00250199
     atom    5 type  1   force =     0.00000000    0.05859456   -0.10475787
     atom    6 type  1   force =     0.00000000   -0.05859456    0.10475787
     atom    7 type  1   force =     0.00000000    0.05859456    0.10475787
     atom    8 type  1   force =     0.00000000   -0.05859456   -0.10475787
     atom    9 type  2   force =     0.00000000   -0.06523199    0.02444707
     atom   10 type  2   force =     0.00000000    0.06523199   -0.02444707
     atom   11 type  2   force =     0.00000000   -0.06523199   -0.02444707
     atom   12 type  2   force =     0.00000000    0.06523199    0.02444707

     Total force =     0.290762     Total SCF correction =     0.005462


     entering subroutine stress ...

          total   stress  (Ry/bohr**3)                   (kbar)     P= 1319.68
   0.00980802   0.00000000   0.00000000       1442.81      0.00      0.00
   0.00000000   0.00837152   0.00000000          0.00   1231.49      0.00
   0.00000000   0.00000000   0.00873343          0.00      0.00   1284.73


     Writing output data file Prototype-La-oP12-Co2Si.save
 
     init_run     :      4.31s CPU      5.41s WALL (       2 calls)
     electrons    :   2064.63s CPU   2297.53s WALL (       5 calls)
     update_pot   :      1.96s CPU      2.59s WALL (       3 calls)
     forces       :      4.73s CPU      4.99s WALL (       5 calls)
     stress       :     17.34s CPU     17.68s WALL (       5 calls)

     Called by init_run:
     wfcinit      :      3.37s CPU      4.42s WALL (       2 calls)
     potinit      :      0.41s CPU      0.42s WALL (       2 calls)

     Called by electrons:
     c_bands      :   2039.72s CPU   2244.22s WALL (      54 calls)
     sum_band     :     24.40s CPU     31.29s WALL (      54 calls)
     v_of_rho     :      0.10s CPU      0.12s WALL (      59 calls)
     mix_rho      :      0.12s CPU      0.14s WALL (      54 calls)

     Called by c_bands:
     init_us_2    :      1.99s CPU      2.29s WALL (    1440 calls)
     ccgdiagg     :   1936.83s CPU   2115.00s WALL (     820 calls)
     wfcrot       :    104.26s CPU    129.87s WALL (     832 calls)

     Called by *cgdiagg:
     h_psi        :   1260.16s CPU   1451.34s WALL (  666261 calls)
     cdiaghg      :      6.75s CPU      7.46s WALL (     832 calls)

     Called by h_psi:
     add_vuspsi   :    314.15s CPU    325.71s WALL (  666261 calls)

     General routines
     calbec       :    710.03s CPU    762.51s WALL ( 1331810 calls)
     fft          :      0.17s CPU      0.20s WALL (     259 calls)
     fftw         :    502.60s CPU    609.37s WALL ( 1624482 calls)
     davcio       :      1.22s CPU      3.36s WALL (    2088 calls)
 
     Parallel routines
     fft_scatter  :    225.13s CPU    278.23s WALL ( 1624741 calls)
 
     PWSCF        : 34m53.38s CPU    38m51.16s WALL

 
   This run was terminated on:   2:58:34  23Mar2018            

=------------------------------------------------------------------------------=
   JOB DONE.
=------------------------------------------------------------------------------=
