
     Program PWSCF v.5.0.2 starts on 23Mar2018 at  0:56: 1 

     This program is part of the open-source Quantum ESPRESSO suite
     for quantum simulation of materials; please cite
         "P. Giannozzi et al., J. Phys.:Condens. Matter 21 395502 (2009);
          URL http://www.quantum-espresso.org", 
     in publications or presentations arising from this work. More details at
     http://www.quantum-espresso.org/quote.php

     Parallel version (MPI), running on     4 processors
     R & G space division:  proc/nbgrp/npool/nimage =       4

     Current dimensions of program PWSCF are:
     Max number of different atomic species (ntypx) = 10
     Max number of k-points (npk) =  40000
     Max angular momentum in pseudopotentials (lmaxx) =  3
     Waiting for input...
     Reading input from standard input

     Subspace diagonalization in iterative solution of the eigenvalue problem:
     a serial algorithm will be used

 
     Parallelization info
     --------------------
     sticks:   dense  smooth     PW     G-vecs:    dense   smooth      PW
     Min         207     207     61                 7381     7381    1191
     Max         208     208     62                 7386     7386    1192
     Sum         829     829    247                29529    29529    4767
 


     bravais-lattice index     =            0
     lattice parameter (alat)  =       7.0151  a.u.
     unit-cell volume          =     862.2778 (a.u.)^3
     number of atoms/cell      =           12
     number of atomic types    =            2
     number of electrons       =       240.00
     number of Kohn-Sham states=          144
     kinetic-energy cutoff     =      40.0000  Ry
     charge density cutoff     =     160.0000  Ry
     convergence threshold     =      1.0E-04
     mixing beta               =       0.7000
     number of iterations used =            8  plain     mixing
     Exchange-correlation      = SLA-PZ-NOGX-NOGC ( 1 1 0 0 0)
     EXX-fraction              =        0.00
     nstep                     =           50


     celldm(1)=   7.015105  celldm(2)=   0.000000  celldm(3)=   0.000000
     celldm(4)=   0.000000  celldm(5)=   0.000000  celldm(6)=   0.000000

     crystal axes: (cart. coord. in units of alat)
               a(1) = (   1.000000   0.000000   0.000000 )  
               a(2) = (   0.000000   1.315963   0.000000 )  
               a(3) = (   0.000000   0.000000   1.898020 )  

     reciprocal axes: (cart. coord. in units 2 pi/alat)
               b(1) = (  1.000000  0.000000  0.000000 )  
               b(2) = (  0.000000  0.759900  0.000000 )  
               b(3) = (  0.000000  0.000000  0.526865 )  


     PseudoPot. # 1 for Ho read from file:
     /home/cwx6513/pp.La/Ho.UPF
     MD5 check sum: f307ee11bce99f5b724fa279e3790763
     Pseudo is Norm-conserving, Zval = 21.0
     Generated in analytical, separable form
     Using radial grid of 1265 points,  6 beta functions with: 
                l(1) =   0
                l(2) =   0
                l(3) =   1
                l(4) =   1
                l(5) =   2
                l(6) =   3

     PseudoPot. # 2 for Gd read from file:
     /home/cwx6513/pp.La/Gd.UPF
     MD5 check sum: 09a8be538722f05520810cb6aac0efd2
     Pseudo is Norm-conserving, Zval = 18.0
     Generated in analytical, separable form
     Using radial grid of 1263 points,  6 beta functions with: 
                l(1) =   0
                l(2) =   0
                l(3) =   1
                l(4) =   1
                l(5) =   2
                l(6) =   3

     atomic species   valence    mass     pseudopotential
        Co            21.00    58.93320     Ho( 1.00)
        Si            18.00    28.08550     Gd( 1.00)

      8 Sym. Ops., with inversion, found ( 6 have fractional translation)



   Cartesian axes

     site n.     atom                  positions (alat units)
         1           Co  tau(   1) = (   0.7500000   1.0875135   0.8270358  )
         2           Co  tau(   2) = (   0.2500000   0.2284499   1.0709846  )
         3           Co  tau(   3) = (   0.7500000   0.4295318   0.1219744  )
         4           Co  tau(   4) = (   0.2500000   0.8864316   1.7760460  )
         5           Co  tau(   5) = (   0.2500000   0.7067855   0.5358966  )
         6           Co  tau(   6) = (   0.7500000   0.6091779   1.3621238  )
         7           Co  tau(   7) = (   0.2500000   0.0488038   0.4131136  )
         8           Co  tau(   8) = (   0.7500000   1.2671596   1.4849068  )
         9           Si  tau(   9) = (   0.2500000   0.2669484   1.6960710  )
        10           Si  tau(  10) = (   0.7500000   1.0490149   0.2019494  )
        11           Si  tau(  11) = (   0.2500000   0.9249301   1.1509596  )
        12           Si  tau(  12) = (   0.7500000   0.3910333   0.7470608  )

     number of k points=    12  gaussian smearing, width (Ry)=  0.1000
                       cart. coord. in units 2pi/alat
        k(    1) = (   0.0000000   0.0000000   0.0000000), wk =   0.0833333
        k(    2) = (   0.0000000   0.0000000   0.1317162), wk =   0.1666667
        k(    3) = (   0.0000000   0.0000000  -0.2634324), wk =   0.0833333
        k(    4) = (   0.0000000   0.2532999   0.0000000), wk =   0.1666667
        k(    5) = (   0.0000000   0.2532999   0.1317162), wk =   0.3333333
        k(    6) = (   0.0000000   0.2532999  -0.2634324), wk =   0.1666667
        k(    7) = (  -0.5000000   0.0000000   0.0000000), wk =   0.0833333
        k(    8) = (  -0.5000000   0.0000000   0.1317162), wk =   0.1666667
        k(    9) = (  -0.5000000   0.0000000  -0.2634324), wk =   0.0833333
        k(   10) = (  -0.5000000   0.2532999   0.0000000), wk =   0.1666667
        k(   11) = (  -0.5000000   0.2532999   0.1317162), wk =   0.3333333
        k(   12) = (  -0.5000000   0.2532999  -0.2634324), wk =   0.1666667

     Dense  grid:    29529 G-vectors     FFT dimensions: (  30,  40,  54)

     Largest allocated arrays     est. size (Mb)     dimensions
        Kohn-Sham Wavefunctions         2.03 Mb     (    922,  144)
        NL pseudopotentials             3.38 Mb     (    922,  240)
        Each V/rho on FFT grid          0.26 Mb     (  16800)
        Each G-vector array             0.06 Mb     (   7386)
        G-vector shells                 0.06 Mb     (   7386)
     Largest temporary arrays     est. size (Mb)     dimensions
        Each subspace H/S matrix        0.32 Mb     ( 144, 144)
        Each <psi_i|beta_j> matrix      0.53 Mb     (    240,  144)
        Arrays for rho mixing           2.05 Mb     (  16800,   8)

     Initial potential from superposition of free atoms

     Starting from uniform charge
     Starting wfc are    0 randomized atomic wfcs

     total cpu time spent up to now is        3.4 secs

     Self-consistent Calculation

     iteration #  1     ecut=    40.00 Ry     beta=0.70
     CG style diagonalization
     c_bands:  1 eigenvalues not converged
     c_bands:  4 eigenvalues not converged
     c_bands:  2 eigenvalues not converged
     c_bands:  1 eigenvalues not converged
     ethr =  1.00E-02,  avg # of iterations = 11.8

     total cpu time spent up to now is       36.0 secs

     total energy              =   -2874.46139066 Ry
     Harris-Foulkes estimate   =   -3498.03275835 Ry
     estimated scf accuracy    <     805.05637296 Ry

     iteration #  2     ecut=    40.00 Ry     beta=0.70
     CG style diagonalization
     ethr =  1.00E-02,  avg # of iterations =  9.3

     total cpu time spent up to now is       60.4 secs

     total energy              =   -3050.85027143 Ry
     Harris-Foulkes estimate   =   -3206.50290064 Ry
     estimated scf accuracy    <     229.40560233 Ry

     iteration #  3     ecut=    40.00 Ry     beta=0.70
     CG style diagonalization
     ethr =  1.00E-02,  avg # of iterations =  7.4

     total cpu time spent up to now is       79.3 secs

     total energy              =   -3119.03586745 Ry
     Harris-Foulkes estimate   =   -3158.19212195 Ry
     estimated scf accuracy    <      82.04787213 Ry

     iteration #  4     ecut=    40.00 Ry     beta=0.70
     CG style diagonalization
     ethr =  1.00E-02,  avg # of iterations =  4.1

     total cpu time spent up to now is       90.1 secs

     total energy              =   -3136.81089968 Ry
     Harris-Foulkes estimate   =   -3138.91112029 Ry
     estimated scf accuracy    <       4.41157350 Ry

     iteration #  5     ecut=    40.00 Ry     beta=0.70
     CG style diagonalization
     ethr =  1.84E-03,  avg # of iterations =  3.9

     total cpu time spent up to now is      100.2 secs

     total energy              =   -3137.78123211 Ry
     Harris-Foulkes estimate   =   -3137.94234102 Ry
     estimated scf accuracy    <       0.27242639 Ry

     iteration #  6     ecut=    40.00 Ry     beta=0.70
     CG style diagonalization
     c_bands:  1 eigenvalues not converged
     c_bands:  2 eigenvalues not converged
     c_bands:  2 eigenvalues not converged
     c_bands:  2 eigenvalues not converged
     c_bands:  1 eigenvalues not converged
     c_bands:  2 eigenvalues not converged
     c_bands:  2 eigenvalues not converged
     ethr =  1.14E-04,  avg # of iterations =  4.5

     total cpu time spent up to now is      112.7 secs

     total energy              =   -3137.84987216 Ry
     Harris-Foulkes estimate   =   -3137.89053319 Ry
     estimated scf accuracy    <       0.07221855 Ry

     iteration #  7     ecut=    40.00 Ry     beta=0.70
     CG style diagonalization
     c_bands:  1 eigenvalues not converged
     ethr =  3.01E-05,  avg # of iterations =  3.8

     total cpu time spent up to now is      123.0 secs

     total energy              =   -3137.86267481 Ry
     Harris-Foulkes estimate   =   -3137.86646291 Ry
     estimated scf accuracy    <       0.00658528 Ry

     iteration #  8     ecut=    40.00 Ry     beta=0.70
     CG style diagonalization
     c_bands:  1 eigenvalues not converged
     c_bands:  1 eigenvalues not converged
     ethr =  2.74E-06,  avg # of iterations =  4.3

     total cpu time spent up to now is      133.6 secs

     total energy              =   -3137.86429664 Ry
     Harris-Foulkes estimate   =   -3137.86459143 Ry
     estimated scf accuracy    <       0.00045821 Ry

     iteration #  9     ecut=    40.00 Ry     beta=0.70
     CG style diagonalization
     c_bands:  1 eigenvalues not converged
     ethr =  1.91E-07,  avg # of iterations =  4.2

     total cpu time spent up to now is      144.3 secs

     total energy              =   -3137.86451642 Ry
     Harris-Foulkes estimate   =   -3137.86460128 Ry
     estimated scf accuracy    <       0.00016932 Ry

     iteration # 10     ecut=    40.00 Ry     beta=0.70
     CG style diagonalization
     ethr =  7.06E-08,  avg # of iterations =  3.5

     total cpu time spent up to now is      152.8 secs

     End of self-consistent calculation

          k = 0.0000 0.0000 0.0000 (  3675 PWs)   bands (ev):

   -41.9448 -41.8261 -41.8059 -41.7733 -41.7471 -41.6709 -41.6303 -41.6195
   -19.3728 -19.3700 -19.3268 -19.3196  -7.2706  -7.1837  -7.0379  -6.9898
    -6.8923  -6.7832  -6.6908  -6.6163  -6.5851  -6.5670  -6.3592  -6.3578
    -6.2938  -6.2611  -6.2533  -6.2383  -6.1378  -6.0592  -6.0338  -6.0012
    -5.9244  -5.8081  -5.6682  -5.5900   8.5222   8.6781   8.6999   8.7666
     8.7777   8.8045   8.8636   8.9072   9.0881   9.2004   9.2653   9.4025
    31.2273  31.5567  31.8318  31.8681  31.8773  31.9378  32.2241  32.5666
    32.7520  33.1263  33.3794  33.8824  33.9832  34.2146  34.4139  34.4988
    34.9016  35.1183  35.1298  35.5633  35.7815  36.0057  36.0809  36.2050
    36.3086  36.5318  36.7912  36.9965  37.2217  37.4332  37.5161  37.5201
    37.7554  37.9766  38.1217  38.1308  39.0808  39.2833  39.3330  39.8275
    40.2773  40.5248  40.6660  41.3043  42.6338  42.8602  43.5116  43.6272
    43.9465  43.9798  44.0618  45.1420  45.4469  45.7341  45.8771  46.0528
    46.7455  47.0308  47.5294  47.5353  47.5491  48.0492  48.1163  48.3173
    49.1307  51.9287  52.0329  52.6107  52.7378  53.5845  54.4398  55.9212
    55.9578  56.4334  57.0078  57.2843  57.5077  57.5489  57.6775  58.0482
    58.3149  58.3970  58.4957  58.5051  59.0997  59.1729  59.2663  59.5439
    60.1482  60.3081  60.4176  60.5094  60.5932  60.8898  60.9131  60.9402

          k = 0.0000 0.0000 0.1317 (  3675 PWs)   bands (ev):

   -41.9348 -41.8579 -41.7847 -41.7820 -41.7363 -41.6894 -41.6273 -41.6088
   -19.3663 -19.3618 -19.3343 -19.3271  -7.2516  -7.1448  -7.0799  -6.9937
    -6.9121  -6.8310  -6.7707  -6.5805  -6.5785  -6.5474  -6.4007  -6.3722
    -6.2940  -6.2522  -6.2386  -6.2099  -6.1310  -6.0236  -6.0043  -5.9702
    -5.9354  -5.8075  -5.6598  -5.6091   8.5468   8.6488   8.7138   8.7512
     8.7931   8.8170   8.8623   8.8839   9.0967   9.1692   9.2943   9.3814
    31.3370  31.3396  31.6546  31.6627  31.8424  32.0659  32.4020  32.6146
    33.1195  33.1920  33.7496  34.0970  34.1833  34.5335  34.5335  34.5595
    34.7129  34.7907  35.2968  35.5622  35.7775  35.8308  35.9269  35.9383
    36.2381  36.4831  36.6242  36.6565  36.7964  37.0597  37.2340  37.4525
    37.9813  38.0306  38.4411  38.7977  38.9694  39.3669  39.5168  39.7854
    39.8630  40.0457  40.5923  41.7162  42.4364  42.5451  43.5988  43.6767
    43.8457  44.2452  44.5886  45.2375  45.3888  45.6025  45.8847  45.9213
    46.5965  46.6567  46.8679  47.2944  47.5940  47.9823  48.6612  48.9331
    51.1569  51.3902  52.2289  52.7128  52.7288  54.3600  54.6498  55.3944
    55.9564  56.1510  56.6942  56.8104  56.9085  56.9875  57.7983  57.8424
    57.9356  58.0871  58.2191  58.6925  59.0837  59.1826  59.1910  59.2188
    59.2822  59.8122  60.3402  60.5650  60.7688  61.0695  61.1476  61.4520

          k = 0.0000 0.0000-0.2634 (  3690 PWs)   bands (ev):

   -41.9147 -41.9147 -41.7800 -41.7800 -41.7136 -41.7136 -41.6222 -41.6222
   -19.3520 -19.3520 -19.3446 -19.3446  -7.1925  -7.1925  -7.0454  -7.0454
    -6.9146  -6.9146  -6.7144  -6.7144  -6.4687  -6.4687  -6.4420  -6.4420
    -6.2760  -6.2760  -6.2129  -6.2129  -6.0689  -6.0689  -6.0178  -6.0178
    -5.8573  -5.8573  -5.6422  -5.6422   8.5979   8.5979   8.7341   8.7341
     8.8245   8.8245   8.8447   8.8447   9.1222   9.1222   9.3368   9.3368
    31.3538  31.3538  31.3962  31.3962  31.9826  31.9826  33.0760  33.0760
    33.2262  33.2262  33.7314  33.7314  34.5612  34.5612  34.6495  34.6495
    34.9168  34.9168  35.2946  35.2946  35.6318  35.6318  35.8255  35.8255
    36.0069  36.0069  36.7128  36.7128  37.0365  37.0365  37.2511  37.2511
    37.7053  37.7053  38.6639  38.6639  38.9652  38.9652  39.6781  39.6781
    40.4135  40.4135  40.9011  40.9011  42.1613  42.1613  43.6689  43.6689
    44.9432  44.9432  44.9460  44.9460  45.0579  45.0579  45.8101  45.8101
    46.1864  46.1864  46.8774  46.8774  47.7844  47.7844  50.0197  50.0197
    51.3766  51.3766  52.7235  52.7235  53.5861  53.5861  54.6270  54.6270
    56.0798  56.0798  56.3773  56.3773  57.1733  57.1733  57.2724  57.2724
    57.6269  57.6269  58.2956  58.2957  58.8930  58.8930  59.1528  59.1529
    60.1409  60.1409  60.4449  60.4450  60.7915  60.7916  61.1847  61.1848

          k = 0.0000 0.2533 0.0000 (  3664 PWs)   bands (ev):

   -41.9005 -41.8295 -41.7818 -41.7792 -41.7356 -41.6665 -41.6627 -41.6314
   -19.3896 -19.3893 -19.3163 -19.3158  -7.0545  -7.0465  -6.8689  -6.8255
    -6.8133  -6.7818  -6.7424  -6.7322  -6.6187  -6.5532  -6.5023  -6.4034
    -6.3516  -6.2623  -6.1542  -6.1503  -6.0702  -6.0336  -6.0303  -5.9999
    -5.9298  -5.8604  -5.8502  -5.7717   8.5597   8.6821   8.6852   8.7004
     8.7648   8.7763   8.7875   8.8694   9.0278   9.0501   9.2495   9.3163
    31.9175  31.9441  32.2284  32.2963  32.4246  32.4540  32.8990  32.9705
    33.0435  33.1778  33.5434  33.8897  34.0110  34.0625  34.2448  34.7226
    34.7624  35.0060  35.1420  35.3757  35.4055  35.8906  36.1328  36.3620
    36.4422  36.7386  36.8167  36.8244  36.8662  37.4200  37.5599  37.5875
    38.0124  38.0127  38.3882  38.5975  38.8712  38.9517  39.1175  40.2689
    40.3472  40.6206  40.6991  40.7622  42.1581  42.5957  43.0276  43.1447
    43.4153  43.8580  44.3945  44.7029  44.7611  45.2084  45.5503  45.5919
    45.8945  45.9482  46.3497  46.5780  46.8529  46.9400  47.9424  48.1581
    48.4796  49.1176  53.3059  53.8399  54.2329  55.0841  55.9054  55.9896
    56.5243  56.7774  56.8259  57.0219  57.8951  58.1364  58.2204  58.2345
    58.7053  58.7418  58.7630  58.7785  58.9189  59.1850  59.2228  59.3959
    59.4105  59.8917  60.1481  60.3455  60.5332  60.5770  61.0753  61.2561

          k = 0.0000 0.2533 0.1317 (  3669 PWs)   bands (ev):

   -41.8941 -41.8429 -41.8024 -41.7760 -41.7184 -41.6744 -41.6578 -41.6402
   -19.3878 -19.3854 -19.3212 -19.3195  -7.0673  -7.0277  -6.9551  -6.8613
    -6.8595  -6.7442  -6.7166  -6.6873  -6.6171  -6.5519  -6.5253  -6.3935
    -6.3335  -6.2293  -6.1646  -6.1560  -6.1258  -6.0728  -6.0264  -5.9572
    -5.9225  -5.8557  -5.8185  -5.7792   8.5754   8.6627   8.6917   8.7051
     8.7615   8.7781   8.7836   8.8593   9.0177   9.0315   9.2631   9.3123
    31.8074  31.8642  31.9540  32.2610  32.3992  32.7892  32.8232  32.9876
    33.4023  33.4297  33.8120  33.9009  33.9017  34.1313  34.2549  34.6779
    35.0109  35.0634  35.2598  35.4519  35.7116  35.7770  35.9858  36.1201
    36.1925  36.3536  36.7852  36.8274  36.9318  37.2812  37.4864  37.6901
    37.9144  38.0624  38.3558  38.7179  38.9089  38.9464  39.1125  39.6702
    40.1740  40.4351  40.5830  40.7725  41.9296  42.5285  43.3317  43.5477
    43.6300  43.9819  43.9906  44.3897  44.6466  45.0936  45.3514  45.7376
    46.0425  46.1054  46.4508  46.5247  46.7918  47.2095  47.5109  48.1332
    49.3804  50.2985  53.7189  53.7287  54.2237  54.8824  55.4413  55.8431
    56.1100  56.6458  56.7575  56.8476  57.3994  58.0859  58.1172  58.3802
    58.4519  58.6879  58.7541  58.8584  59.0852  59.1921  59.3374  59.4830
    59.5271  60.1368  60.3846  60.4490  60.5021  60.9788  61.3435  61.7192

          k = 0.0000 0.2533-0.2634 (  3666 PWs)   bands (ev):

   -41.8707 -41.8707 -41.7948 -41.7948 -41.6857 -41.6857 -41.6489 -41.6489
   -19.3821 -19.3821 -19.3246 -19.3246  -7.0431  -7.0431  -6.9510  -6.9510
    -6.8088  -6.8088  -6.6481  -6.6481  -6.6192  -6.6192  -6.4503  -6.4503
    -6.2190  -6.2190  -6.1822  -6.1822  -6.1320  -6.1320  -5.9995  -5.9995
    -5.8715  -5.8715  -5.7859  -5.7859   8.6175   8.6175   8.7129   8.7129
     8.7533   8.7533   8.8228   8.8228   9.0142   9.0142   9.2924   9.2924
    31.7071  31.7071  31.9688  31.9688  32.7301  32.7301  33.2031  33.2031
    33.3441  33.3441  34.0555  34.0555  34.0708  34.0708  34.6023  34.6023
    35.1179  35.1179  35.3181  35.3181  35.6001  35.6001  35.9870  35.9870
    36.1486  36.1486  36.7537  36.7537  37.1925  37.1925  37.4531  37.4531
    37.9964  37.9964  38.4694  38.4694  38.8433  38.8433  39.4718  39.4718
    40.1940  40.1940  40.3183  40.3183  42.1651  42.1651  43.5484  43.5484
    43.9587  43.9587  44.3936  44.3936  44.4153  44.4153  45.4671  45.4671
    46.2852  46.2852  46.7971  46.7971  46.8901  46.8901  47.5474  47.5474
    51.3463  51.3463  53.0505  53.0505  54.8236  54.8236  55.2129  55.2129
    55.7473  55.7473  57.2766  57.2766  57.4250  57.4250  58.0393  58.0393
    58.6497  58.6498  59.1218  59.1218  59.2510  59.2511  59.5694  59.5694
    59.9182  59.9183  60.1553  60.1553  60.6309  60.6309  61.5602  61.5604

          k =-0.5000 0.0000 0.0000 (  3722 PWs)   bands (ev):

   -41.8478 -41.8478 -41.8023 -41.8023 -41.7712 -41.7712 -41.6485 -41.6485
   -19.4014 -19.4014 -19.3613 -19.3613  -7.3711  -7.3711  -7.0101  -7.0101
    -6.9718  -6.9718  -6.8050  -6.8050  -6.6067  -6.6067  -6.3543  -6.3543
    -6.2565  -6.2565  -6.2364  -6.2364  -5.9533  -5.9533  -5.8971  -5.8971
    -5.8212  -5.8212  -5.6679  -5.6679   8.5751   8.5751   8.7561   8.7561
     8.9398   8.9398   9.0022   9.0022   9.2212   9.2212   9.2478   9.2478
    31.9961  31.9961  32.2764  32.2764  32.9996  32.9996  33.0558  33.0558
    33.5628  33.5628  33.7241  33.7241  34.1959  34.1959  34.3594  34.3594
    34.5829  34.5829  34.6089  34.6089  35.1333  35.1333  35.2369  35.2369
    35.7466  35.7466  36.3953  36.3953  36.8973  36.8973  37.2221  37.2221
    37.3054  37.3054  38.7518  38.7518  40.0552  40.0552  40.1079  40.1079
    40.3164  40.3164  42.2608  42.2608  42.4030  42.4030  43.6533  43.6533
    43.7561  43.7561  44.3968  44.3968  44.6859  44.6859  45.9790  45.9790
    46.3788  46.3788  46.4318  46.4318  47.6612  47.6612  48.1271  48.1271
    48.5760  48.5760  49.0721  49.0721  53.7092  53.7092  54.1381  54.1381
    55.5698  55.5698  56.3645  56.3645  56.4442  56.4442  57.7537  57.7538
    58.2435  58.2435  59.1009  59.1009  59.4444  59.4444  60.0581  60.0581
    60.4884  60.4884  61.2789  61.2791  61.3570  61.3571  61.8205  61.8207

          k =-0.5000 0.0000 0.1317 (  3710 PWs)   bands (ev):

   -41.8473 -41.8473 -41.7941 -41.7941 -41.7640 -41.7640 -41.6473 -41.6473
   -19.4009 -19.4009 -19.3596 -19.3596  -7.3487  -7.3487  -7.1415  -7.1415
    -6.8870  -6.8870  -6.7718  -6.7718  -6.5175  -6.5175  -6.3965  -6.3965
    -6.3647  -6.3647  -6.1640  -6.1640  -5.9522  -5.9522  -5.8697  -5.8697
    -5.8189  -5.8189  -5.6709  -5.6709   8.5745   8.5745   8.7792   8.7792
     8.9387   8.9387   8.9827   8.9827   9.2217   9.2217   9.2453   9.2453
    32.0793  32.0793  32.2274  32.2274  32.8425  32.8425  33.1513  33.1513
    33.6337  33.6337  33.8871  33.8871  34.0161  34.0161  34.3191  34.3191
    34.6917  34.6917  34.8428  34.8428  35.0983  35.0983  35.4254  35.4254
    35.7328  35.7328  36.1232  36.1232  36.9327  36.9327  37.0712  37.0712
    37.6502  37.6502  38.7067  38.7067  39.5282  39.5282  39.9774  39.9774
    40.0239  40.0239  41.6831  41.6831  42.9613  42.9613  43.7801  43.7801
    44.0992  44.0992  44.4175  44.4175  44.7847  44.7847  45.5396  45.5396
    46.3615  46.3615  47.1865  47.1865  47.5589  47.5589  47.7729  47.7729
    48.5286  48.5286  49.9179  49.9179  52.5168  52.5168  54.2658  54.2658
    56.1332  56.1332  56.6056  56.6056  57.2045  57.2045  57.5466  57.5466
    57.8109  57.8110  58.6218  58.6218  59.3096  59.3097  60.2984  60.2985
    60.5828  60.5829  61.0720  61.0722  61.3266  61.3267  62.0485  62.0486

          k =-0.5000 0.0000-0.2634 (  3680 PWs)   bands (ev):

   -41.8269 -41.8269 -41.7899 -41.7899 -41.7506 -41.7506 -41.6460 -41.6460
   -19.3983 -19.3983 -19.3580 -19.3580  -7.3316  -7.3316  -7.1827  -7.1827
    -6.9229  -6.9229  -6.6328  -6.6328  -6.4957  -6.4957  -6.4133  -6.4133
    -6.3933  -6.3933  -6.1772  -6.1772  -5.9445  -5.9445  -5.8286  -5.8286
    -5.8069  -5.8069  -5.6610  -5.6610   8.5767   8.5767   8.8058   8.8058
     8.9412   8.9412   8.9599   8.9599   9.2246   9.2246   9.2430   9.2430
    31.9418  31.9418  32.6044  32.6044  32.7890  32.7890  32.9095  32.9095
    33.6177  33.6177  33.9152  33.9152  34.1335  34.1335  34.5749  34.5749
    34.7065  34.7065  34.8193  34.8193  35.1009  35.1009  35.2466  35.2466
    36.1201  36.1201  36.4106  36.4106  36.4366  36.4366  36.7813  36.7813
    38.1240  38.1240  38.8652  38.8652  38.8932  38.8932  39.5236  39.5236
    39.9911  39.9911  41.4144  41.4144  43.4893  43.4893  43.5330  43.5330
    44.1193  44.1193  44.7438  44.7438  44.9254  44.9254  45.0743  45.0743
    46.9341  46.9341  47.0044  47.0044  47.5375  47.5375  47.8335  47.8335
    48.9419  48.9419  50.8347  50.8347  50.8554  50.8554  54.8015  54.8015
    56.2777  56.2777  56.3721  56.3721  56.8477  56.8477  58.0854  58.0855
    58.3896  58.3897  58.5135  58.5135  59.5299  59.5300  59.6896  59.6896
    60.3563  60.3563  61.2069  61.2070  61.2517  61.2517  62.5159  62.5188

          k =-0.5000 0.2533 0.0000 (  3686 PWs)   bands (ev):

   -41.8127 -41.8127 -41.8008 -41.8008 -41.7377 -41.7377 -41.6756 -41.6756
   -19.3976 -19.3976 -19.3763 -19.3763  -7.1411  -7.1411  -6.9573  -6.9573
    -6.9277  -6.9277  -6.6706  -6.6706  -6.5567  -6.5567  -6.4263  -6.4263
    -6.3550  -6.3550  -6.2165  -6.2165  -5.9556  -5.9556  -5.9348  -5.9348
    -5.8430  -5.8430  -5.7966  -5.7966   8.6041   8.6041   8.6901   8.6901
     8.9357   8.9357   8.9603   8.9603   9.1636   9.1636   9.1641   9.1641
    32.6263  32.6263  32.6974  32.6974  33.1933  33.1933  33.2916  33.2916
    33.6911  33.6911  33.7419  33.7419  34.4147  34.4147  34.6029  34.6029
    35.0000  35.0000  35.1609  35.1609  35.2054  35.2054  35.4816  35.4816
    35.8968  35.8968  36.0190  36.0190  36.7533  36.7533  37.2190  37.2190
    37.6616  37.6616  38.2466  38.2466  39.0145  39.0145  39.6949  39.6949
    40.1668  40.1668  42.0391  42.0391  42.4729  42.4729  42.6971  42.6971
    43.8101  43.8101  44.0369  44.0369  44.6666  44.6666  45.3261  45.3261
    45.9435  45.9435  45.9716  45.9716  46.3031  46.3031  47.3791  47.3791
    50.0865  50.0865  50.3370  50.3370  51.8727  51.8727  52.9181  52.9181
    55.7274  55.7274  56.5003  56.5003  57.8464  57.8465  58.0826  58.0827
    58.6450  58.6451  59.3095  59.3095  59.8159  59.8159  60.5720  60.5720
    60.7212  60.7212  61.5258  61.5259  61.8717  61.8719  62.3534  62.3536

          k =-0.5000 0.2533 0.1317 (  3692 PWs)   bands (ev):

   -41.8218 -41.8218 -41.8006 -41.8006 -41.7371 -41.7371 -41.6748 -41.6748
   -19.3962 -19.3962 -19.3779 -19.3779  -7.1600  -7.1600  -6.9801  -6.9801
    -6.8706  -6.8706  -6.7457  -6.7457  -6.5587  -6.5587  -6.4548  -6.4548
    -6.2863  -6.2863  -6.1469  -6.1469  -5.9832  -5.9832  -5.9453  -5.9453
    -5.8630  -5.8630  -5.8038  -5.8038   8.6076   8.6076   8.7042   8.7042
     8.9274   8.9274   8.9433   8.9433   9.1555   9.1555   9.1659   9.1659
    32.4667  32.4667  32.8324  32.8324  33.0841  33.0841  33.5807  33.5807
    33.6124  33.6124  33.9160  33.9160  34.3206  34.3206  34.6548  34.6548
    34.8408  34.8408  35.1003  35.1003  35.3485  35.3485  35.6945  35.6945
    35.7268  35.7268  36.2342  36.2342  36.8287  36.8287  37.0647  37.0647
    37.8040  37.8040  38.1094  38.1094  38.8956  38.8956  39.5015  39.5015
    40.1470  40.1470  41.0991  41.0991  42.7413  42.7413  43.2520  43.2520
    43.6493  43.6493  43.9605  43.9605  44.4705  44.4705  45.3140  45.3140
    45.7669  45.7669  46.2472  46.2472  46.4698  46.4698  47.6639  47.6639
    49.8472  49.8472  50.9247  50.9247  51.4637  51.4637  53.6238  53.6238
    55.8169  55.8169  56.6236  56.6236  57.5980  57.5980  58.2651  58.2651
    58.5059  58.5059  59.1261  59.1261  59.9644  59.9644  60.3745  60.3745
    60.8266  60.8266  61.3073  61.3074  61.7146  61.7149  61.9751  61.9755

          k =-0.5000 0.2533-0.2634 (  3704 PWs)   bands (ev):

   -41.8224 -41.8224 -41.8040 -41.8040 -41.7460 -41.7460 -41.6784 -41.6784
   -19.3964 -19.3964 -19.3790 -19.3790  -7.1842  -7.1842  -6.9424  -6.9424
    -6.8848  -6.8848  -6.8008  -6.8008  -6.6017  -6.6017  -6.4510  -6.4510
    -6.2145  -6.2145  -6.0768  -6.0768  -6.0209  -6.0209  -5.9995  -5.9995
    -5.8419  -5.8419  -5.8199  -5.8199   8.6071   8.6071   8.7194   8.7194
     8.9188   8.9188   8.9251   8.9251   9.1519   9.1519   9.1618   9.1618
    32.3091  32.3091  32.9882  32.9882  33.1937  33.1937  33.6139  33.6139
    33.6311  33.6311  33.9926  33.9926  34.1570  34.1570  34.7452  34.7452
    34.9364  34.9364  35.0819  35.0819  35.1196  35.1196  35.8282  35.8282
    35.9942  35.9942  36.4439  36.4439  36.6196  36.6196  37.0076  37.0076
    37.5223  37.5223  38.5321  38.5321  38.6500  38.6500  39.3393  39.3393
    40.0722  40.0722  40.6117  40.6117  42.7886  42.7886  43.2484  43.2484
    43.6239  43.6239  43.8218  43.8218  44.6905  44.6905  44.9835  44.9835
    45.6862  45.6862  46.3463  46.3463  47.3017  47.3017  47.5324  47.5324
    50.0189  50.0189  50.4699  50.4699  51.7021  51.7021  54.9278  54.9278
    55.2212  55.2212  57.0196  57.0196  57.3068  57.3068  58.1050  58.1050
    58.2024  58.2025  59.3008  59.3009  59.8487  59.8488  60.4733  60.4734
    60.4833  60.4833  61.0558  61.0559  61.4136  61.4137  61.9125  61.9128

     the Fermi energy is    55.4030 ev

!    total energy              =   -3137.86453975 Ry
     Harris-Foulkes estimate   =   -3137.86455319 Ry
     estimated scf accuracy    <       0.00001337 Ry

     The total energy is the sum of the following terms:

     one-electron contribution =     250.06413699 Ry
     hartree contribution      =     254.16544366 Ry
     xc contribution           =    -303.92755028 Ry
     ewald contribution        =   -3337.90217355 Ry
     smearing contrib. (-TS)   =      -0.26439656 Ry

     convergence has been achieved in  10 iterations

     Forces acting on atoms (Ry/au):

     atom    1 type  1   force =     0.00000000   -0.11512472   -0.10252628
     atom    2 type  1   force =     0.00000000    0.11512472    0.10252628
     atom    3 type  1   force =     0.00000000   -0.11512472    0.10252628
     atom    4 type  1   force =     0.00000000    0.11512472   -0.10252628
     atom    5 type  1   force =     0.00000000    0.14286505   -0.15121533
     atom    6 type  1   force =     0.00000000   -0.14286505    0.15121533
     atom    7 type  1   force =     0.00000000    0.14286505    0.15121533
     atom    8 type  1   force =     0.00000000   -0.14286505   -0.15121533
     atom    9 type  2   force =     0.00000000   -0.20384194   -0.02451445
     atom   10 type  2   force =     0.00000000    0.20384194    0.02451445
     atom   11 type  2   force =     0.00000000   -0.20384194    0.02451445
     atom   12 type  2   force =     0.00000000    0.20384194   -0.02451445

     Total force =     0.660891     Total SCF correction =     0.000000


     entering subroutine stress ...

          total   stress  (Ry/bohr**3)                   (kbar)     P= 7465.41
   0.05349335   0.00000000   0.00000000       7869.14      0.00      0.00
   0.00000000   0.04795839   0.00000000          0.00   7054.92      0.00
   0.00000000   0.00000000   0.05079484          0.00      0.00   7472.18


     BFGS Geometry Optimization

     number of scf cycles    =   1
     number of bfgs steps    =   0

     enthalpy new            =   -3137.8645397454 Ry

     new trust radius        =       0.5000000000 bohr
     new conv_thr            =       0.0001000000 Ry

     new unit-cell volume =   1088.52458 a.u.^3 (   161.30270 Ang^3 )

CELL_PARAMETERS (alat=  7.01510508)
   1.085136619   0.000000000   0.000000000
   0.000000000   1.416407617   0.000000000
   0.000000000   0.000000000   2.051459868

ATOMIC_POSITIONS (crystal)
Co       0.750000000   0.825607097   0.435245796
Co       0.250000000   0.174392903   0.564754204
Co       0.750000000   0.325607097   0.064754204
Co       0.250000000   0.674392903   0.935245796
Co       0.250000000   0.538071200   0.281622002
Co       0.750000000   0.461928800   0.718377998
Co       0.250000000   0.038071200   0.218377998
Co       0.750000000   0.961928800   0.781622002
Si       0.250000000   0.201448302   0.893482790
Si       0.750000000   0.798551698   0.106517210
Si       0.250000000   0.701448302   0.606517210
Si       0.750000000   0.298551698   0.393482790



     Writing output data file Prototype-La-oP12-Co2Si.save
     NEW-OLD atomic charge density approx. for the potential
     NEW k-points:
        k(    1) = (   0.0000000   0.0000000   0.0000000), wk =   0.0833333
        k(    2) = (   0.0000000   0.0000000   0.1218644), wk =   0.1666667
        k(    3) = (   0.0000000   0.0000000  -0.2437289), wk =   0.0833333
        k(    4) = (   0.0000000   0.2353372   0.0000000), wk =   0.1666667
        k(    5) = (   0.0000000   0.2353372   0.1218644), wk =   0.3333333
        k(    6) = (   0.0000000   0.2353372  -0.2437289), wk =   0.1666667
        k(    7) = (  -0.4607715   0.0000000   0.0000000), wk =   0.0833333
        k(    8) = (  -0.4607715   0.0000000   0.1218644), wk =   0.1666667
        k(    9) = (  -0.4607715   0.0000000  -0.2437289), wk =   0.0833333
        k(   10) = (  -0.4607715   0.2353372   0.0000000), wk =   0.1666667
        k(   11) = (  -0.4607715   0.2353372   0.1218644), wk =   0.3333333
        k(   12) = (  -0.4607715   0.2353372  -0.2437289), wk =   0.1666667

     total cpu time spent up to now is      156.8 secs

     Self-consistent Calculation

     iteration #  1     ecut=    40.00 Ry     beta=0.70
     CG style diagonalization
     c_bands:  1 eigenvalues not converged
     c_bands:  1 eigenvalues not converged
     c_bands:  2 eigenvalues not converged
     c_bands:  2 eigenvalues not converged
     ethr =  1.00E-06,  avg # of iterations = 22.7

     total cpu time spent up to now is      210.4 secs

     total energy              =   -3132.84440305 Ry
     Harris-Foulkes estimate   =   -3162.08411015 Ry
     estimated scf accuracy    <      37.42500847 Ry

     iteration #  2     ecut=    40.00 Ry     beta=0.70
     CG style diagonalization
     ethr =  1.00E-02,  avg # of iterations =  3.9

     total cpu time spent up to now is      220.2 secs

     total energy              =   -3143.71950065 Ry
     Harris-Foulkes estimate   =   -3146.67484150 Ry
     estimated scf accuracy    <       4.41117827 Ry

     iteration #  3     ecut=    40.00 Ry     beta=0.70
     CG style diagonalization
     ethr =  1.84E-03,  avg # of iterations =  3.7

     total cpu time spent up to now is      229.3 secs

     total energy              =   -3144.75135185 Ry
     Harris-Foulkes estimate   =   -3144.94826753 Ry
     estimated scf accuracy    <       0.37577164 Ry

     iteration #  4     ecut=    40.00 Ry     beta=0.70
     CG style diagonalization
     ethr =  1.57E-04,  avg # of iterations =  3.7

     total cpu time spent up to now is      238.8 secs

     total energy              =   -3144.85352857 Ry
     Harris-Foulkes estimate   =   -3144.85966717 Ry
     estimated scf accuracy    <       0.01132482 Ry

     iteration #  5     ecut=    40.00 Ry     beta=0.70
     CG style diagonalization
     ethr =  4.72E-06,  avg # of iterations =  4.4

     total cpu time spent up to now is      250.5 secs

     total energy              =   -3144.85722333 Ry
     Harris-Foulkes estimate   =   -3144.85852489 Ry
     estimated scf accuracy    <       0.00241633 Ry

     iteration #  6     ecut=    40.00 Ry     beta=0.70
     CG style diagonalization
     c_bands:  2 eigenvalues not converged
     ethr =  1.01E-06,  avg # of iterations =  3.6

     total cpu time spent up to now is      259.7 secs

     total energy              =   -3144.85769422 Ry
     Harris-Foulkes estimate   =   -3144.85775553 Ry
     estimated scf accuracy    <       0.00011732 Ry

     iteration #  7     ecut=    40.00 Ry     beta=0.70
     CG style diagonalization
     ethr =  4.89E-08,  avg # of iterations =  3.9

     total cpu time spent up to now is      269.9 secs

     End of self-consistent calculation

          k = 0.0000 0.0000 0.0000 (  3675 PWs)   bands (ev):

   -51.7476 -51.7275 -51.7198 -51.7016 -51.6798 -51.6773 -51.6240 -51.6158
   -29.1399 -29.1354 -29.1338 -29.1337 -16.6777 -16.5700 -16.5655 -16.4964
   -16.4356 -16.4021 -16.3421 -16.3324 -16.2920 -16.2662 -16.2236 -16.2035
   -16.1684 -16.1536 -16.1353 -16.1273 -16.1232 -16.0763 -16.0280 -16.0175
   -16.0165 -15.9357 -15.9214 -15.8714  -0.7198  -0.6263  -0.6217  -0.6193
    -0.6165  -0.6061  -0.5980  -0.5621  -0.4070  -0.3330  -0.3234  -0.2313
    23.4247  23.7555  23.7615  23.8550  23.8701  23.9898  24.0578  24.2558
    24.5088  24.5200  24.8746  25.1591  25.2072  25.2673  25.5808  25.6677
    25.8795  25.9929  26.1170  26.2099  26.3737  26.5200  26.6003  26.6291
    26.6686  27.0376  27.1417  27.2051  27.2966  27.4257  27.5043  27.5226
    27.6848  27.7984  27.9487  27.9930  28.7058  28.9077  29.0323  29.0355
    29.3912  29.8156  30.0238  30.4472  32.2421  32.8880  32.9491  33.2994
    33.3563  33.8784  34.0546  34.6932  34.7987  34.8478  35.0529  35.3195
    35.4599  35.6486  36.3238  36.4039  36.4402  36.4802  36.5661  36.6400
    37.2879  39.7345  40.0108  40.0268  40.3233  41.3507  41.9367  44.4235
    44.5706  44.9638  45.2527  45.5570  45.5775  45.7802  46.2835  46.6617
    46.8016  46.8999  47.2618  47.3774  47.5289  47.7582  47.9240  47.9710
    48.1556  48.1804  48.2516  48.2554  48.5211  49.0492  49.5513  49.7679

          k = 0.0000 0.0000 0.1219 (  3675 PWs)   bands (ev):

   -51.7555 -51.7397 -51.7301 -51.6978 -51.6836 -51.6760 -51.6300 -51.5845
   -29.1386 -29.1384 -29.1354 -29.1314 -16.6728 -16.5822 -16.5451 -16.5006
   -16.4517 -16.4085 -16.4027 -16.2995 -16.2957 -16.2884 -16.2258 -16.1962
   -16.1711 -16.1447 -16.1396 -16.1299 -16.0972 -16.0401 -16.0150 -16.0106
   -16.0076 -15.9540 -15.9176 -15.8862  -0.7038  -0.6508  -0.6199  -0.6197
    -0.6115  -0.6056  -0.5853  -0.5645  -0.4001  -0.3644  -0.2945  -0.2462
    23.5078  23.5851  23.6668  23.7267  23.8606  23.9284  24.2279  24.3245
    24.6914  24.7394  24.9927  25.2615  25.4353  25.4402  25.6167  25.6492
    25.7242  25.8407  26.1994  26.2212  26.3949  26.3975  26.4915  26.5617
    26.8023  26.8842  26.9204  27.0548  27.0998  27.2661  27.3396  27.4888
    27.7835  27.8708  28.0313  28.3970  28.7506  28.7895  28.8405  29.0893
    29.1543  29.4249  30.1066  31.0380  32.1275  32.1573  33.3518  33.4687
    33.8727  33.9132  33.9771  34.5233  34.6962  34.8512  34.9317  35.0578
    35.2889  35.4346  35.9241  36.3258  36.4353  36.5249  36.9751  37.2202
    38.9060  39.2172  39.9807  40.1436  40.4723  41.5616  41.9823  43.1159
    43.9262  44.8711  45.0371  45.1321  46.0381  46.0839  46.1134  46.4194
    46.6329  46.8661  47.0833  47.1955  47.4962  47.8224  47.9199  48.0222
    48.3748  48.3984  48.5967  48.6963  48.8212  48.8862  49.0841  49.0948

          k = 0.0000 0.0000-0.2437 (  3690 PWs)   bands (ev):

   -51.7490 -51.7490 -51.7467 -51.7467 -51.6884 -51.6884 -51.6086 -51.6086
   -29.1414 -29.1414 -29.1371 -29.1371 -16.6546 -16.6546 -16.5002 -16.5002
   -16.4528 -16.4528 -16.3599 -16.3599 -16.2635 -16.2635 -16.2257 -16.2257
   -16.1564 -16.1564 -16.1454 -16.1454 -16.0757 -16.0757 -16.0094 -16.0094
   -16.0063 -16.0063 -15.9123 -15.9123  -0.6770  -0.6770  -0.6237  -0.6237
    -0.6018  -0.6018  -0.5843  -0.5843  -0.3931  -0.3931  -0.2744  -0.2744
    23.5399  23.5399  23.5723  23.5723  23.8736  23.8736  24.6080  24.6080
    24.7222  24.7222  25.1637  25.1637  25.5220  25.5220  25.6251  25.6251
    25.9528  25.9528  26.0917  26.0917  26.3595  26.3595  26.4874  26.4874
    26.5632  26.5632  27.0569  27.0569  27.2113  27.2113  27.2787  27.2787
    27.6919  27.6919  28.4500  28.4500  28.4593  28.4593  28.9214  28.9214
    29.3538  29.3538  30.7776  30.7776  31.8348  31.8348  33.8669  33.8669
    34.0815  34.0815  34.1529  34.1529  34.3656  34.3656  34.8687  34.8687
    35.2307  35.2307  36.0623  36.0623  36.4475  36.4475  38.1177  38.1177
    39.0707  39.0707  40.2046  40.2046  41.0084  41.0084  41.8616  41.8616
    44.3983  44.3983  45.2148  45.2148  45.6022  45.6022  45.9758  45.9758
    46.7700  46.7700  47.1590  47.1590  47.3578  47.3578  48.0034  48.0034
    48.6341  48.6342  48.9248  48.9248  49.0891  49.0893  49.6045  49.6047

          k = 0.0000 0.2353 0.0000 (  3664 PWs)   bands (ev):

   -51.7266 -51.7151 -51.7012 -51.6993 -51.6869 -51.6351 -51.6325 -51.6235
   -29.1436 -29.1427 -29.1299 -29.1191 -16.5482 -16.5058 -16.4533 -16.4369
   -16.4172 -16.3914 -16.3890 -16.3736 -16.3098 -16.2917 -16.2783 -16.2362
   -16.2067 -16.1391 -16.1244 -16.0855 -16.0726 -16.0426 -16.0411 -16.0294
   -15.9957 -15.9673 -15.9648 -15.9502  -0.6993  -0.6708  -0.6269  -0.6219
    -0.6079  -0.6018  -0.5937  -0.5785  -0.4217  -0.3951  -0.2951  -0.2685
    23.8923  23.9682  24.0484  24.1704  24.1895  24.3393  24.4846  24.5613
    24.6937  24.7657  24.9101  25.2135  25.3005  25.3436  25.3656  25.6241
    25.7349  25.9509  25.9808  26.0296  26.2915  26.3478  26.6348  26.7771
    26.8970  26.9170  27.0117  27.1245  27.1706  27.4725  27.5065  27.7273
    27.8113  27.8774  28.1043  28.4486  28.5025  28.5036  28.5641  29.2924
    29.4743  29.5999  30.1999  30.3063  31.9390  32.4250  32.5935  32.9592
    33.3110  33.4013  33.7773  34.0250  34.0368  34.6860  34.8514  35.0416
    35.1349  35.2470  35.6975  35.7069  35.7878  35.9298  36.3805  36.5468
    37.1393  37.5520  40.6647  41.6588  42.1896  42.8423  43.7156  44.2141
    44.5857  44.6314  45.0810  45.3696  45.4467  45.6727  45.9515  46.4613
    46.5145  46.6736  46.9643  46.9774  47.3585  47.5651  48.1575  48.2698
    48.4236  48.6619  48.7949  48.9441  49.4762  49.5294  49.5381  49.7726

          k = 0.0000 0.2353 0.1219 (  3669 PWs)   bands (ev):

   -51.7336 -51.7145 -51.7122 -51.6902 -51.6819 -51.6771 -51.6312 -51.6187
   -29.1453 -29.1420 -29.1301 -29.1258 -16.5664 -16.5034 -16.4956 -16.4442
   -16.4345 -16.3980 -16.3602 -16.3439 -16.3074 -16.2998 -16.2832 -16.2333
   -16.2102 -16.1315 -16.1171 -16.1128 -16.0781 -16.0725 -16.0232 -15.9982
   -15.9920 -15.9876 -15.9597 -15.9527  -0.6946  -0.6693  -0.6333  -0.6211
    -0.6082  -0.6025  -0.5915  -0.5869  -0.4212  -0.4045  -0.2961  -0.2715
    23.8087  23.8688  23.9147  24.1309  24.1866  24.4956  24.5067  24.5741
    24.9090  24.9179  25.0614  25.2020  25.2336  25.3434  25.3934  25.6248
    25.9038  26.0308  26.0897  26.2652  26.3479  26.3923  26.4133  26.6392
    26.7432  26.7993  26.9285  27.1158  27.1321  27.4106  27.4427  27.6887
    27.7994  27.8928  28.2270  28.4289  28.4834  28.5521  28.6642  29.1371
    29.2854  29.4375  29.6522  30.5846  31.6345  32.2789  33.1504  33.1560
    33.3915  33.4392  33.5799  33.8561  33.9685  34.3700  34.7660  35.0217
    35.3213  35.3228  35.6675  35.8190  35.9506  36.0907  36.1764  36.6303
    37.6600  38.4180  41.1084  41.4022  41.9750  42.7514  43.2303  43.6950
    43.8805  44.3652  44.6241  44.8131  45.4710  45.8099  46.5980  46.7391
    46.8652  46.9278  47.0704  47.1773  47.3603  47.7361  48.0362  48.0967
    48.5322  48.8827  49.0801  49.1052  49.3972  49.5071  49.6366  49.8703

          k = 0.0000 0.2353-0.2437 (  3666 PWs)   bands (ev):

   -51.7120 -51.7120 -51.7065 -51.7065 -51.6671 -51.6671 -51.6362 -51.6362
   -29.1444 -29.1444 -29.1263 -29.1263 -16.5470 -16.5470 -16.4621 -16.4621
   -16.4191 -16.4191 -16.3260 -16.3260 -16.3164 -16.3164 -16.2539 -16.2539
   -16.1546 -16.1546 -16.1069 -16.1069 -16.0923 -16.0923 -16.0104 -16.0104
   -16.0034 -16.0034 -15.9457 -15.9457  -0.6797  -0.6797  -0.6257  -0.6257
    -0.6022  -0.6022  -0.5953  -0.5953  -0.4124  -0.4124  -0.2833  -0.2833
    23.7319  23.7319  23.9524  23.9524  24.3817  24.3817  24.7457  24.7457
    24.8527  24.8527  25.2714  25.2714  25.3190  25.3190  25.5789  25.5789
    26.1423  26.1423  26.1640  26.1640  26.2905  26.2905  26.5364  26.5364
    26.6004  26.6004  26.9986  26.9986  27.2527  27.2527  27.5642  27.5642
    27.9253  27.9253  28.1618  28.1618  28.4140  28.4140  28.8784  28.8784
    29.3472  29.3472  29.9073  29.9073  31.9040  31.9040  33.4573  33.4573
    33.5241  33.5241  33.7061  33.7061  33.7790  33.7790  34.8712  34.8712
    35.5098  35.5098  35.7147  35.7147  36.0433  36.0433  36.3779  36.3779
    39.2178  39.2178  40.6650  40.6650  42.3033  42.3033  42.9620  42.9620
    43.8676  43.8676  45.0768  45.0768  45.1746  45.1746  46.4224  46.4224
    47.3075  47.3075  47.4422  47.4422  47.7176  47.7176  48.2079  48.2080
    48.2971  48.2971  49.1705  49.1705  49.6355  49.6357  49.7783  49.7784

          k =-0.4608 0.0000 0.0000 (  3722 PWs)   bands (ev):

   -51.7551 -51.7551 -51.7337 -51.7337 -51.7280 -51.7280 -51.6867 -51.6867
   -29.1592 -29.1592 -29.1483 -29.1483 -16.7020 -16.7020 -16.5312 -16.5312
   -16.4887 -16.4887 -16.4051 -16.4051 -16.3209 -16.3209 -16.2115 -16.2115
   -16.1625 -16.1625 -16.1588 -16.1588 -16.0327 -16.0327 -16.0139 -16.0139
   -15.9663 -15.9663 -15.9218 -15.9218  -0.7219  -0.7219  -0.6562  -0.6562
    -0.5733  -0.5733  -0.5404  -0.5404  -0.3457  -0.3457  -0.3092  -0.3092
    23.8866  23.8866  24.0090  24.0090  24.4982  24.4982  24.6553  24.6553
    24.9353  24.9353  25.2080  25.2080  25.4674  25.4674  25.6121  25.6121
    25.6437  25.6437  25.8866  25.8866  25.9874  25.9874  26.1373  26.1373
    26.3899  26.3899  26.8328  26.8328  27.1837  27.1837  27.4349  27.4349
    27.4378  27.4378  28.3641  28.3641  29.2135  29.2135  29.2623  29.2623
    29.5764  29.5764  31.8721  31.8721  32.0446  32.0446  33.3107  33.3107
    33.6407  33.6407  34.1346  34.1346  34.5368  34.5368  34.6225  34.6225
    35.1730  35.1730  35.6997  35.6997  36.2801  36.2801  36.6810  36.6810
    36.9879  36.9879  37.3598  37.3598  41.3123  41.3123  42.6683  42.6683
    43.3854  43.3854  44.0943  44.0943  44.8195  44.8195  46.1580  46.1580
    47.2614  47.2614  47.6216  47.6216  47.9232  47.9232  48.0201  48.0201
    48.4414  48.4414  49.2677  49.2677  49.8860  49.8860  50.5318  50.5318

          k =-0.4608 0.0000 0.1219 (  3710 PWs)   bands (ev):

   -51.7408 -51.7408 -51.7392 -51.7392 -51.7090 -51.7090 -51.6738 -51.6738
   -29.1570 -29.1570 -29.1439 -29.1439 -16.6946 -16.6946 -16.5601 -16.5601
   -16.4372 -16.4372 -16.4017 -16.4017 -16.2913 -16.2913 -16.2204 -16.2204
   -16.2101 -16.2101 -16.1249 -16.1249 -16.0312 -16.0312 -15.9954 -15.9954
   -15.9655 -15.9655 -15.9261 -15.9261  -0.7193  -0.7193  -0.6446  -0.6446
    -0.5687  -0.5687  -0.5423  -0.5423  -0.3438  -0.3438  -0.3115  -0.3115
    23.9005  23.9005  24.0496  24.0496  24.3847  24.3847  24.7385  24.7385
    24.9438  24.9438  25.2810  25.2810  25.3057  25.3057  25.6134  25.6134
    25.7362  25.7362  25.9675  25.9675  25.9883  25.9883  26.2441  26.2441
    26.4475  26.4475  26.7597  26.7597  27.2288  27.2288  27.2762  27.2762
    27.6077  27.6077  28.3230  28.3230  28.9979  28.9979  29.2139  29.2139
    29.4920  29.4920  31.0762  31.0762  32.4923  32.4923  33.6695  33.6695
    33.9768  33.9768  34.1654  34.1654  34.3090  34.3090  34.4132  34.4132
    35.2375  35.2375  35.9207  35.9207  36.3151  36.3151  36.4755  36.4755
    36.9704  36.9704  38.0346  38.0346  40.3621  40.3621  42.8311  42.8311
    44.0246  44.0246  44.3996  44.3996  44.6820  44.6820  45.7902  45.7902
    46.9035  46.9035  47.2797  47.2797  47.6828  47.6828  48.3610  48.3610
    48.6709  48.6709  49.3487  49.3487  49.8546  49.8547  50.4616  50.4616

          k =-0.4608 0.0000-0.2437 (  3680 PWs)   bands (ev):

   -51.7104 -51.7104 -51.6956 -51.6956 -51.6865 -51.6865 -51.6765 -51.6765
   -29.1464 -29.1464 -29.1396 -29.1396 -16.6974 -16.6974 -16.5529 -16.5529
   -16.4379 -16.4379 -16.3129 -16.3129 -16.2685 -16.2685 -16.2349 -16.2349
   -16.2332 -16.2332 -16.1204 -16.1204 -16.0334 -16.0334 -15.9734 -15.9734
   -15.9386 -15.9386 -15.9131 -15.9131  -0.7114  -0.7114  -0.6329  -0.6329
    -0.5633  -0.5633  -0.5355  -0.5355  -0.3367  -0.3367  -0.3118  -0.3118
    23.8345  23.8345  24.2800  24.2800  24.3437  24.3437  24.5332  24.5332
    25.0572  25.0572  25.1465  25.1465  25.4079  25.4079  25.6862  25.6862
    25.8708  25.8708  25.9173  25.9173  25.9894  25.9894  26.2311  26.2311
    26.6868  26.6868  26.8059  26.8059  26.9378  26.9378  27.1487  27.1487
    27.9708  27.9708  28.3280  28.3280  28.6321  28.6321  29.1893  29.1893
    29.3697  29.3697  30.7182  30.7182  32.7730  32.7730  33.7661  33.7661
    33.9949  33.9949  34.1234  34.1234  34.2016  34.2016  34.3446  34.3446
    35.7908  35.7908  35.7971  35.7971  36.1345  36.1345  36.5734  36.5734
    37.2305  37.2305  38.9763  38.9763  39.0056  39.0056  43.0860  43.0860
    44.1386  44.1386  44.5969  44.5969  44.6400  44.6400  46.1328  46.1328
    46.5565  46.5565  46.9358  46.9358  47.1540  47.1540  48.4382  48.4382
    48.8757  48.8757  49.6360  49.6360  49.7158  49.7159  50.7116  50.7116

          k =-0.4608 0.2353 0.0000 (  3686 PWs)   bands (ev):

   -51.7180 -51.7180 -51.7142 -51.7142 -51.6923 -51.6923 -51.6764 -51.6764
   -29.1526 -29.1526 -29.1424 -29.1424 -16.5748 -16.5748 -16.4896 -16.4896
   -16.4830 -16.4830 -16.3466 -16.3466 -16.3024 -16.3024 -16.2294 -16.2294
   -16.2004 -16.2004 -16.1415 -16.1415 -16.0296 -16.0296 -16.0243 -16.0243
   -15.9665 -15.9665 -15.9549 -15.9549  -0.7093  -0.7093  -0.6758  -0.6758
    -0.5582  -0.5582  -0.5488  -0.5488  -0.3460  -0.3460  -0.3330  -0.3330
    24.3047  24.3047  24.3275  24.3275  24.6909  24.6909  24.8177  24.8177
    25.1338  25.1338  25.1488  25.1488  25.5935  25.5935  25.7398  25.7398
    25.8595  25.8595  26.0488  26.0488  26.0848  26.0848  26.3171  26.3171
    26.5577  26.5577  26.6277  26.6277  26.9784  26.9784  27.3029  27.3029
    27.6525  27.6525  28.0524  28.0524  28.5599  28.5599  28.9220  28.9220
    29.9996  29.9996  31.5105  31.5105  32.1049  32.1049  32.5714  32.5714
    33.5031  33.5031  33.5400  33.5400  34.4485  34.4485  34.5986  34.5986
    35.1077  35.1077  35.2880  35.2880  35.5170  35.5170  35.8885  35.8885
    38.0551  38.0551  38.2090  38.2090  39.8256  39.8256  40.3994  40.3994
    44.5728  44.5728  45.4724  45.4724  46.5119  46.5119  47.1580  47.1580
    47.6240  47.6240  48.0044  48.0044  48.0914  48.0914  48.7486  48.7486
    48.8495  48.8495  49.3375  49.3375  50.3459  50.3459  50.3996  50.3996

          k =-0.4608 0.2353 0.1219 (  3692 PWs)   bands (ev):

   -51.7244 -51.7244 -51.7135 -51.7135 -51.7053 -51.7053 -51.6733 -51.6733
   -29.1511 -29.1511 -29.1462 -29.1462 -16.5845 -16.5845 -16.4849 -16.4849
   -16.4604 -16.4604 -16.3800 -16.3800 -16.3057 -16.3057 -16.2480 -16.2480
   -16.1718 -16.1718 -16.1171 -16.1171 -16.0480 -16.0480 -16.0192 -16.0192
   -15.9862 -15.9862 -15.9619 -15.9619  -0.7046  -0.7046  -0.6728  -0.6728
    -0.5629  -0.5629  -0.5533  -0.5533  -0.3539  -0.3539  -0.3328  -0.3328
    24.1762  24.1762  24.4666  24.4666  24.6514  24.6514  24.9839  24.9839
    25.0610  25.0610  25.2347  25.2347  25.4217  25.4217  25.7157  25.7157
    25.8688  25.8688  26.0364  26.0364  26.1873  26.1873  26.4281  26.4281
    26.5265  26.5265  26.7392  26.7392  27.0947  27.0947  27.1919  27.1919
    27.6769  27.6769  27.9767  27.9767  28.4507  28.4507  28.8835  28.8835
    29.9608  29.9608  30.7974  30.7974  32.3193  32.3193  32.9338  32.9338
    33.4801  33.4801  33.6311  33.6311  34.1703  34.1703  34.7586  34.7586
    35.0386  35.0386  35.3550  35.3550  35.5042  35.5042  36.0122  36.0122
    37.9798  37.9798  38.6613  38.6613  39.2665  39.2665  41.3414  41.3414
    44.5496  44.5496  44.8985  44.8985  46.2391  46.2391  46.8205  46.8205
    47.0676  47.0676  48.0797  48.0797  48.4489  48.4489  49.0329  49.0329
    49.0606  49.0606  49.4782  49.4782  50.2138  50.2138  50.4522  50.4522

          k =-0.4608 0.2353-0.2437 (  3704 PWs)   bands (ev):

   -51.7402 -51.7402 -51.7196 -51.7196 -51.7094 -51.7094 -51.6844 -51.6844
   -29.1546 -29.1546 -29.1485 -29.1485 -16.5939 -16.5939 -16.4827 -16.4827
   -16.4435 -16.4435 -16.4067 -16.4067 -16.3421 -16.3421 -16.2618 -16.2618
   -16.1442 -16.1442 -16.0907 -16.0907 -16.0603 -16.0603 -16.0567 -16.0567
   -15.9721 -15.9721 -15.9685 -15.9685  -0.7082  -0.7082  -0.6700  -0.6700
    -0.5679  -0.5679  -0.5569  -0.5569  -0.3560  -0.3560  -0.3406  -0.3406
    24.0846  24.0846  24.6042  24.6042  24.7473  24.7473  24.8993  24.8993
    25.0665  25.0665  25.2500  25.2500  25.3397  25.3397  25.8147  25.8147
    25.8750  25.8750  26.0287  26.0287  26.0504  26.0504  26.6107  26.6107
    26.6669  26.6669  26.8305  26.8305  26.9818  26.9818  27.2042  27.2042
    27.5792  27.5792  28.1435  28.1435  28.2202  28.2202  28.8174  28.8174
    29.9925  29.9925  30.3027  30.3027  32.4332  32.4332  32.9540  32.9540
    33.5513  33.5513  33.6693  33.6693  34.2368  34.2368  34.4867  34.4867
    35.0736  35.0736  35.3842  35.3842  35.8638  35.8638  35.9644  35.9644
    38.1748  38.1748  38.3772  38.3772  39.3831  39.3831  42.4925  42.4925
    43.6398  43.6398  44.7715  44.7715  45.8225  45.8225  46.4676  46.4676
    46.7807  46.7807  48.3188  48.3188  48.9805  48.9805  49.1168  49.1168
    49.1893  49.1895  49.4450  49.4450  49.9623  49.9624  50.6377  50.6377

     the Fermi energy is    43.4413 ev

!    total energy              =   -3144.85772535 Ry
     Harris-Foulkes estimate   =   -3144.85772847 Ry
     estimated scf accuracy    <       0.00000458 Ry

     The total energy is the sum of the following terms:

     one-electron contribution =     -92.11951069 Ry
     hartree contribution      =     332.77378100 Ry
     xc contribution           =    -296.36770812 Ry
     ewald contribution        =   -3088.92160328 Ry
     smearing contrib. (-TS)   =      -0.22268427 Ry

     convergence has been achieved in   7 iterations

     Forces acting on atoms (Ry/au):

     atom    1 type  1   force =     0.00000000   -0.04931934   -0.03838718
     atom    2 type  1   force =     0.00000000    0.04931934    0.03838718
     atom    3 type  1   force =     0.00000000   -0.04931934    0.03838718
     atom    4 type  1   force =     0.00000000    0.04931934   -0.03838718
     atom    5 type  1   force =     0.00000000    0.08630086   -0.07259128
     atom    6 type  1   force =     0.00000000   -0.08630086    0.07259128
     atom    7 type  1   force =     0.00000000    0.08630086    0.07259128
     atom    8 type  1   force =     0.00000000   -0.08630086   -0.07259128
     atom    9 type  2   force =     0.00000000   -0.11068891    0.00002306
     atom   10 type  2   force =     0.00000000    0.11068891   -0.00002306
     atom   11 type  2   force =     0.00000000   -0.11068891   -0.00002306
     atom   12 type  2   force =     0.00000000    0.11068891    0.00002306

     Total force =     0.339855     Total SCF correction =     0.000000


     entering subroutine stress ...

          total   stress  (Ry/bohr**3)                   (kbar)     P= 2284.54
   0.01604116   0.00000000   0.00000000       2359.74      0.00      0.00
   0.00000000   0.01471871   0.00000000          0.00   2165.20      0.00
   0.00000000   0.00000000   0.01583008          0.00      0.00   2328.68


     number of scf cycles    =   2
     number of bfgs steps    =   1

     enthalpy old            =   -3137.8645397454 Ry
     enthalpy new            =   -3144.8577253518 Ry

     CASE: enthalpy_new < enthalpy_old

     small trust_radius: resetting bfgs history

     new trust radius        =       2.6462138833 bohr
     new conv_thr            =       0.0001000000 Ry

     new unit-cell volume =   2911.85370 a.u.^3 (   431.49219 Ang^3 )

CELL_PARAMETERS (alat=  7.01510508)
   1.520307926   0.000000000   0.000000000
   0.000000000   1.937600114   0.000000000
   0.000000000   0.000000000   2.863329302

ATOMIC_POSITIONS (crystal)
Co       0.750000000   0.820643519   0.432578391
Co       0.250000000   0.179356481   0.567421609
Co       0.750000000   0.320643519   0.067421609
Co       0.250000000   0.679356481   0.932578391
Co       0.250000000   0.546756658   0.276577860
Co       0.750000000   0.453243342   0.723422140
Co       0.250000000   0.046756658   0.223422140
Co       0.750000000   0.953243342   0.776577860
Si       0.250000000   0.190308392   0.893484393
Si       0.750000000   0.809691608   0.106515607
Si       0.250000000   0.690308392   0.606515607
Si       0.750000000   0.309691608   0.393484393



     Writing output data file Prototype-La-oP12-Co2Si.save
     NEW-OLD atomic charge density approx. for the potential
     NEW k-points:
        k(    1) = (   0.0000000   0.0000000   0.0000000), wk =   0.0833333
        k(    2) = (   0.0000000   0.0000000   0.0873109), wk =   0.1666667
        k(    3) = (   0.0000000   0.0000000  -0.1746219), wk =   0.0833333
        k(    4) = (   0.0000000   0.1720341   0.0000000), wk =   0.1666667
        k(    5) = (   0.0000000   0.1720341   0.0873109), wk =   0.3333333
        k(    6) = (   0.0000000   0.1720341  -0.1746219), wk =   0.1666667
        k(    7) = (  -0.3288807   0.0000000   0.0000000), wk =   0.0833333
        k(    8) = (  -0.3288807   0.0000000   0.0873109), wk =   0.1666667
        k(    9) = (  -0.3288807   0.0000000  -0.1746219), wk =   0.0833333
        k(   10) = (  -0.3288807   0.1720341   0.0000000), wk =   0.1666667
        k(   11) = (  -0.3288807   0.1720341   0.0873109), wk =   0.3333333
        k(   12) = (  -0.3288807   0.1720341  -0.1746219), wk =   0.1666667

     total cpu time spent up to now is      274.0 secs

     Self-consistent Calculation

     iteration #  1     ecut=    40.00 Ry     beta=0.70
     CG style diagonalization
     c_bands:  1 eigenvalues not converged
     c_bands:  2 eigenvalues not converged
     c_bands:  3 eigenvalues not converged
     c_bands:  2 eigenvalues not converged
     c_bands:  1 eigenvalues not converged
     c_bands:  2 eigenvalues not converged
     c_bands:  2 eigenvalues not converged
     c_bands:  2 eigenvalues not converged
     ethr =  1.00E-06,  avg # of iterations = 28.8

     total cpu time spent up to now is      351.4 secs

     total energy              =   -3008.31670486 Ry
     Harris-Foulkes estimate   =   -3393.75800342 Ry
     estimated scf accuracy    <     489.17040502 Ry

     iteration #  2     ecut=    40.00 Ry     beta=0.70
     CG style diagonalization
     ethr =  1.00E-02,  avg # of iterations =  5.6

     total cpu time spent up to now is      367.8 secs

     total energy              =   -3074.90786752 Ry
     Harris-Foulkes estimate   =   -3148.68779921 Ry
     estimated scf accuracy    <     106.21925099 Ry

     iteration #  3     ecut=    40.00 Ry     beta=0.70
     CG style diagonalization
     ethr =  1.00E-02,  avg # of iterations =  5.4

     total cpu time spent up to now is      383.7 secs

     total energy              =   -3120.56795200 Ry
     Harris-Foulkes estimate   =   -3153.41365780 Ry
     estimated scf accuracy    <      77.07559971 Ry

     iteration #  4     ecut=    40.00 Ry     beta=0.70
     CG style diagonalization
     ethr =  1.00E-02,  avg # of iterations =  3.7

     total cpu time spent up to now is      394.3 secs

     total energy              =   -3127.60777574 Ry
     Harris-Foulkes estimate   =   -3129.46078939 Ry
     estimated scf accuracy    <       9.77975619 Ry

     iteration #  5     ecut=    40.00 Ry     beta=0.70
     CG style diagonalization
     ethr =  4.07E-03,  avg # of iterations =  3.0

     total cpu time spent up to now is      402.1 secs

     total energy              =   -3126.56480507 Ry
     Harris-Foulkes estimate   =   -3127.93001412 Ry
     estimated scf accuracy    <       5.41823691 Ry

     iteration #  6     ecut=    40.00 Ry     beta=0.70
     CG style diagonalization
     ethr =  2.26E-03,  avg # of iterations =  3.1

     total cpu time spent up to now is      410.3 secs

     total energy              =   -3125.96833345 Ry
     Harris-Foulkes estimate   =   -3126.78009502 Ry
     estimated scf accuracy    <       1.94086817 Ry

     iteration #  7     ecut=    40.00 Ry     beta=0.70
     CG style diagonalization
     ethr =  8.09E-04,  avg # of iterations =  3.4

     total cpu time spent up to now is      419.9 secs

     total energy              =   -3126.23702665 Ry
     Harris-Foulkes estimate   =   -3126.25288770 Ry
     estimated scf accuracy    <       0.02733725 Ry

     iteration #  8     ecut=    40.00 Ry     beta=0.70
     CG style diagonalization
     c_bands:  2 eigenvalues not converged
     c_bands:  1 eigenvalues not converged
     ethr =  1.14E-05,  avg # of iterations =  4.0

     total cpu time spent up to now is      431.6 secs

     total energy              =   -3126.24981521 Ry
     Harris-Foulkes estimate   =   -3126.25480135 Ry
     estimated scf accuracy    <       0.02220242 Ry

     iteration #  9     ecut=    40.00 Ry     beta=0.70
     CG style diagonalization
     ethr =  9.25E-06,  avg # of iterations =  3.0

     total cpu time spent up to now is      439.6 secs

     total energy              =   -3126.24911832 Ry
     Harris-Foulkes estimate   =   -3126.25110842 Ry
     estimated scf accuracy    <       0.00551642 Ry

     iteration # 10     ecut=    40.00 Ry     beta=0.70
     CG style diagonalization
     c_bands:  1 eigenvalues not converged
     ethr =  2.30E-06,  avg # of iterations =  3.3

     total cpu time spent up to now is      448.1 secs

     End of self-consistent calculation

          k = 0.0000 0.0000 0.0000 (  3675 PWs)   bands (ev):

   -74.7286 -74.6903 -74.6527 -74.5777 -74.5164 -74.4476 -74.4211 -74.4053
   -50.8983 -50.8797 -50.8262 -50.8113 -44.9915 -44.9915 -44.9887 -44.9884
   -44.9515 -44.9475 -44.9427 -44.9400 -44.9173 -44.9130 -44.9063 -44.9034
   -44.9032 -44.8910 -44.8901 -44.8844 -44.8634 -44.8573 -44.8544 -44.8501
   -44.8486 -44.8437 -44.8375 -44.8302 -25.3567 -25.3552 -25.3540 -25.3536
   -25.3435 -25.3423 -25.3411 -25.3403 -25.3083 -25.3076 -25.3068 -25.3050
     0.7365   0.8268   0.9840   1.0701   1.0883   1.0952   1.1076   1.1450
     1.1512   1.1522   1.1649   1.1662   1.1773   1.1791   1.2250   1.2284
     1.2302   1.2330   1.2371   1.2663   1.2885   1.3008   1.3013   1.3056
     1.3313   1.3494   1.3711   1.3798   1.3816   1.4026   1.4324   1.4325
     1.4439   1.4512   1.4572   1.4999   1.5380   1.5503   1.5708   1.6010
     5.5403   6.7856   7.1055   7.8463   8.5568   8.8037   8.9803   9.3685
     9.4625   9.4814   9.5375   9.6320   9.7493   9.7712   9.8010   9.8654
     9.9678   9.9788  10.0213  10.0874  10.1419  10.1837  10.2197  10.2394
    10.7737  10.9541  11.2175  11.3175  11.3386  11.5658  11.9972  12.7449
    12.7691  13.5002  13.7066  13.7626  13.8143  14.5162  14.5543  14.8774
    14.9935  15.3719  15.6667  15.6954  15.9220  15.9692  16.0185  16.2055
    16.5017  17.1941  17.2152  17.3760  17.5323  17.9710  18.4004  18.5212

          k = 0.0000 0.0000 0.0873 (  3675 PWs)   bands (ev):

   -74.7679 -74.7239 -74.6848 -74.5288 -74.4920 -74.4613 -74.4022 -74.3885
   -50.9146 -50.8594 -50.8524 -50.7880 -44.9952 -44.9931 -44.9905 -44.9860
   -44.9539 -44.9457 -44.9440 -44.9345 -44.9155 -44.9124 -44.9065 -44.9027
   -44.8980 -44.8953 -44.8886 -44.8874 -44.8627 -44.8557 -44.8522 -44.8514
   -44.8484 -44.8399 -44.8362 -44.8297 -25.3561 -25.3556 -25.3538 -25.3538
   -25.3431 -25.3417 -25.3412 -25.3410 -25.3102 -25.3083 -25.3068 -25.3050
     0.7472   0.7628   0.9665   1.0494   1.0582   1.1049   1.1114   1.1457
     1.1628   1.1707   1.1825   1.1885   1.2098   1.2155   1.2208   1.2219
     1.2353   1.2399   1.2437   1.2446   1.2482   1.2526   1.2768   1.2848
     1.3193   1.3204   1.3308   1.3652   1.3887   1.4067   1.4265   1.4500
     1.4669   1.4758   1.4952   1.5193   1.5377   1.5653   1.6099   1.6503
     5.6359   6.3437   7.5858   7.9022   8.4704   8.8648   8.8864   9.0976
     9.4937   9.4962   9.5982   9.6659   9.7174   9.7825   9.8066   9.8569
     9.9328   9.9782  10.1151  10.1206  10.1342  10.2189  10.2295  10.3020
    10.6607  10.9530  11.2621  11.2818  11.4805  11.8188  12.1060  12.4582
    12.7370  12.8383  13.4064  14.0653  14.3555  14.6639  14.6747  14.7248
    15.0816  15.2911  15.3336  15.7817  15.9276  16.0337  16.0585  16.1320
    16.3648  16.8643  16.9530  17.2303  17.9978  18.0748  18.4661  18.4980

          k = 0.0000 0.0000-0.1746 (  3690 PWs)   bands (ev):

   -74.7559 -74.7559 -74.6689 -74.6689 -74.5306 -74.5306 -74.4157 -74.4157
   -50.9214 -50.9214 -50.8480 -50.8480 -44.9945 -44.9945 -44.9939 -44.9939
   -44.9480 -44.9480 -44.9439 -44.9439 -44.9096 -44.9096 -44.9030 -44.9030
   -44.9020 -44.9020 -44.8896 -44.8896 -44.8608 -44.8608 -44.8513 -44.8513
   -44.8405 -44.8405 -44.8317 -44.8317 -25.3560 -25.3560 -25.3537 -25.3537
   -25.3435 -25.3435 -25.3417 -25.3417 -25.3107 -25.3107 -25.3073 -25.3073
     0.7581   0.7581   0.9566   0.9566   1.0591   1.0591   1.0592   1.0592
     1.1308   1.1308   1.1397   1.1397   1.1721   1.1721   1.1901   1.1901
     1.1902   1.1902   1.2335   1.2335   1.2578   1.2578   1.2899   1.2899
     1.3241   1.3241   1.3887   1.3887   1.4268   1.4268   1.4343   1.4343
     1.4661   1.4661   1.4886   1.4886   1.5166   1.5166   1.6533   1.6533
     5.9023   5.9023   7.9586   7.9586   8.5014   8.5014   8.9480   8.9480
     9.5483   9.5483   9.5935   9.5935   9.7688   9.7688   9.8633   9.8633
     9.8810   9.8810  10.1281  10.1281  10.1655  10.1655  10.4625  10.4625
    10.6158  10.6158  11.2303  11.2303  12.0789  12.0789  12.1611  12.1611
    12.4906  12.4906  13.6986  13.6986  14.1803  14.1803  15.1379  15.1379
    15.2727  15.2727  15.7230  15.7230  15.7677  15.7677  16.1794  16.1794
    16.3274  16.3275  16.8935  16.8936  18.4182  18.4434  18.4432  18.4189

          k = 0.0000 0.1720 0.0000 (  3664 PWs)   bands (ev):

   -74.7349 -74.6678 -74.6585 -74.5719 -74.4554 -74.4406 -74.3922 -74.3221
   -50.9261 -50.8752 -50.7588 -50.7545 -44.9918 -44.9915 -44.9870 -44.9859
   -44.9500 -44.9475 -44.9392 -44.9341 -44.9108 -44.9096 -44.9069 -44.9020
   -44.8960 -44.8956 -44.8888 -44.8865 -44.8631 -44.8584 -44.8483 -44.8468
   -44.8449 -44.8411 -44.8298 -44.8279 -25.3574 -25.3562 -25.3537 -25.3532
   -25.3428 -25.3421 -25.3409 -25.3405 -25.3096 -25.3086 -25.3047 -25.3040
     0.8434   0.9069   1.0179   1.0396   1.0501   1.1011   1.1120   1.1139
     1.1491   1.1561   1.1694   1.1804   1.2117   1.2125   1.2241   1.2302
     1.2482   1.2582   1.2596   1.2705   1.2936   1.3013   1.3169   1.3174
     1.3482   1.3562   1.3563   1.3724   1.3788   1.4034   1.4088   1.4333
     1.4418   1.4994   1.5225   1.5258   1.5296   1.5402   1.6656   1.6755
     5.8967   6.8575   7.1235   7.5090   8.0843   8.2533   9.1554   9.4064
     9.4205   9.4220   9.4801   9.5937   9.7104   9.7893   9.8598   9.8942
     9.9225   9.9714  10.0024  10.0114  10.0459  10.1124  10.1364  10.2033
    10.5518  10.6704  11.1171  11.4804  11.9941  12.4774  12.6797  13.1055
    13.5306  13.6059  13.7164  13.7906  14.0434  14.0467  14.1339  14.5546
    14.8259  15.0234  15.1620  15.2278  15.5314  15.9582  16.5570  16.8534
    17.0822  17.3651  17.5511  17.6298  18.0275  18.0429  18.3314  18.6452

          k = 0.0000 0.1720 0.0873 (  3669 PWs)   bands (ev):

   -74.7652 -74.6604 -74.6481 -74.5747 -74.4936 -74.4523 -74.3976 -74.3549
   -50.9118 -50.8731 -50.8145 -50.7664 -44.9940 -44.9909 -44.9901 -44.9882
   -44.9505 -44.9453 -44.9446 -44.9374 -44.9112 -44.9079 -44.9031 -44.9008
   -44.8990 -44.8973 -44.8900 -44.8882 -44.8615 -44.8567 -44.8532 -44.8479
   -44.8472 -44.8426 -44.8298 -44.8246 -25.3569 -25.3565 -25.3534 -25.3531
   -25.3435 -25.3421 -25.3409 -25.3404 -25.3104 -25.3091 -25.3047 -25.3044
     0.8549   0.8886   1.0081   1.0323   1.0734   1.0895   1.1044   1.1088
     1.1337   1.1351   1.1463   1.1645   1.1981   1.2130   1.2162   1.2208
     1.2245   1.2470   1.2640   1.2701   1.2827   1.2883   1.2972   1.3098
     1.3153   1.3386   1.3697   1.3743   1.3807   1.3925   1.4208   1.4426
     1.4443   1.4626   1.4723   1.5437   1.5558   1.5573   1.6433   1.6818
     5.9887   6.6749   7.0004   7.6391   7.9945   8.5726   9.0732   9.2457
     9.4319   9.4853   9.5092   9.5833   9.6922   9.8143   9.8275   9.9076
     9.9251   9.9623   9.9746  10.0193  10.0939  10.1516  10.1808  10.2147
    10.5658  10.8469  11.0859  11.4549  12.1647  12.2577  12.5449  12.9259
    13.0554  13.2725  13.5774  13.6542  13.8436  14.4768  14.5541  14.7790
    14.9920  15.1724  15.5324  15.7190  15.8193  15.9671  16.1653  16.6374
    16.7868  17.1152  17.3269  17.4608  17.6258  17.9780  18.3745  18.8253

          k = 0.0000 0.1720-0.1746 (  3666 PWs)   bands (ev):

   -74.6493 -74.6493 -74.5921 -74.5921 -74.5068 -74.5068 -74.3942 -74.3942
   -50.8586 -50.8586 -50.8117 -50.8117 -44.9919 -44.9919 -44.9890 -44.9890
   -44.9470 -44.9470 -44.9422 -44.9422 -44.9089 -44.9089 -44.9026 -44.9026
   -44.8973 -44.8973 -44.8880 -44.8880 -44.8570 -44.8570 -44.8536 -44.8536
   -44.8449 -44.8449 -44.8289 -44.8289 -25.3564 -25.3564 -25.3532 -25.3532
   -25.3419 -25.3419 -25.3409 -25.3409 -25.3095 -25.3095 -25.3049 -25.3049
     0.8611   0.8611   1.0657   1.0657   1.0780   1.0780   1.1071   1.1071
     1.1636   1.1636   1.1732   1.1732   1.1945   1.1945   1.2089   1.2089
     1.2268   1.2268   1.2734   1.2734   1.2893   1.2893   1.3140   1.3140
     1.3197   1.3197   1.3845   1.3845   1.4055   1.4055   1.4381   1.4381
     1.4413   1.4413   1.4896   1.4896   1.5637   1.5637   1.6530   1.6530
     6.2589   6.2589   7.2478   7.2478   8.4990   8.4990   9.0643   9.0643
     9.4813   9.4813   9.5566   9.5566   9.7028   9.7028   9.8835   9.8835
     9.9329   9.9329  10.0192  10.0192  10.1624  10.1624  10.2306  10.2306
    10.8091  10.8091  11.2766  11.2766  12.0891  12.0891  12.6187  12.6187
    12.9066  12.9066  13.7181  13.7181  13.9789  13.9789  14.8382  14.8382
    15.5408  15.5408  15.8097  15.8097  15.9514  15.9514  16.3549  16.3549
    16.8782  16.8782  17.0271  17.0271  17.6987  17.6987  18.5103  18.5103

          k =-0.3289 0.0000 0.0000 (  3722 PWs)   bands (ev):

   -74.7507 -74.7507 -74.7291 -74.7291 -74.6158 -74.6158 -74.5893 -74.5893
   -50.9762 -50.9762 -50.9519 -50.9519 -44.9953 -44.9953 -44.9873 -44.9873
   -44.9520 -44.9520 -44.9498 -44.9498 -44.9232 -44.9232 -44.9222 -44.9222
   -44.8954 -44.8954 -44.8925 -44.8925 -44.8656 -44.8656 -44.8604 -44.8604
   -44.8528 -44.8528 -44.8514 -44.8514 -25.3548 -25.3548 -25.3546 -25.3546
   -25.3433 -25.3433 -25.3422 -25.3422 -25.3096 -25.3096 -25.3081 -25.3081
     0.7126   0.7126   0.9490   0.9490   0.9966   0.9966   1.0732   1.0732
     1.0841   1.0841   1.1193   1.1193   1.1375   1.1375   1.1618   1.1618
     1.1954   1.1954   1.2374   1.2374   1.2507   1.2507   1.2581   1.2581
     1.2766   1.2766   1.2986   1.2986   1.3591   1.3591   1.3608   1.3608
     1.3947   1.3947   1.4061   1.4061   1.4390   1.4390   1.4732   1.4732
     6.7653   6.7653   7.9264   7.9264   7.9575   7.9575   8.9351   8.9351
     9.4996   9.4996   9.6410   9.6410   9.7969   9.7969   9.9401   9.9401
     9.9647   9.9647  10.0149  10.0149  10.0862  10.0862  10.2159  10.2159
    10.3370  10.3370  10.9178  10.9178  11.4949  11.4949  12.3735  12.3735
    12.5905  12.5905  12.7996  12.7996  13.0985  13.0985  14.1134  14.1134
    14.6320  14.6320  16.2757  16.2757  16.4409  16.4409  17.3702  17.3702
    17.7927  17.7927  18.6733  18.6733  18.9511  18.9511  19.0694  19.0694

          k =-0.3289 0.0000 0.0873 (  3710 PWs)   bands (ev):

   -74.7253 -74.7253 -74.6935 -74.6935 -74.6281 -74.6281 -74.5214 -74.5214
   -50.9391 -50.9391 -50.9348 -50.9348 -44.9936 -44.9936 -44.9888 -44.9888
   -44.9516 -44.9516 -44.9432 -44.9432 -44.9239 -44.9239 -44.9158 -44.9158
   -44.8949 -44.8949 -44.8921 -44.8921 -44.8618 -44.8618 -44.8562 -44.8562
   -44.8512 -44.8512 -44.8490 -44.8490 -25.3547 -25.3547 -25.3544 -25.3544
   -25.3432 -25.3432 -25.3420 -25.3420 -25.3094 -25.3094 -25.3083 -25.3083
     0.7413   0.7413   0.9444   0.9444   1.0393   1.0393   1.0797   1.0797
     1.1205   1.1205   1.1441   1.1441   1.1622   1.1622   1.1818   1.1818
     1.2124   1.2124   1.2518   1.2518   1.2595   1.2595   1.2745   1.2745
     1.2867   1.2867   1.3272   1.3272   1.3378   1.3378   1.3831   1.3831
     1.4023   1.4023   1.4306   1.4306   1.4584   1.4584   1.4746   1.4746
     6.8243   6.8243   7.5931   7.5931   8.1808   8.1808   8.8999   8.8999
     9.6070   9.6070   9.6802   9.6802   9.8413   9.8413   9.9070   9.9070
     9.9935   9.9935  10.0032  10.0032  10.0992  10.0992  10.1780  10.1780
    10.4855  10.4855  11.0511  11.0511  11.5012  11.5012  12.0493  12.0493
    12.2420  12.2420  13.0301  13.0301  13.2027  13.2027  13.8578  13.8578
    15.1935  15.1935  15.7978  15.7978  16.2328  16.2328  18.0064  18.0064
    18.2461  18.2461  18.5189  18.5189  18.9074  18.9074  19.1792  19.1792

          k =-0.3289 0.0000-0.1746 (  3680 PWs)   bands (ev):

   -74.7036 -74.7036 -74.5927 -74.5927 -74.4947 -74.4947 -74.4884 -74.4884
   -50.8954 -50.8954 -50.8437 -50.8437 -44.9962 -44.9962 -44.9853 -44.9853
   -44.9444 -44.9444 -44.9374 -44.9374 -44.9214 -44.9214 -44.9114 -44.9114
   -44.8923 -44.8923 -44.8907 -44.8907 -44.8560 -44.8560 -44.8490 -44.8490
   -44.8451 -44.8451 -44.8440 -44.8440 -25.3544 -25.3544 -25.3538 -25.3538
   -25.3419 -25.3419 -25.3407 -25.3407 -25.3087 -25.3087 -25.3085 -25.3085
     0.7735   0.7735   0.9379   0.9379   1.0428   1.0428   1.1212   1.1212
     1.1432   1.1432   1.1768   1.1768   1.2040   1.2040   1.2223   1.2223
     1.2536   1.2536   1.2661   1.2661   1.2668   1.2668   1.3106   1.3106
     1.3339   1.3339   1.3553   1.3553   1.3881   1.3881   1.4675   1.4675
     1.4679   1.4679   1.4975   1.4975   1.5316   1.5316   1.5317   1.5317
     6.9247   6.9247   7.3847   7.3847   8.2638   8.2638   8.8632   8.8632
     9.6948   9.6948   9.7273   9.7273   9.8899   9.8899   9.9214   9.9214
     9.9226   9.9226  10.0347  10.0347  10.1232  10.1232  10.1477  10.1477
    10.8208  10.8208  11.2533  11.2533  11.5103  11.5103  11.5867  11.5867
    11.9214  11.9214  12.7890  12.7890  13.8152  13.8152  14.2266  14.2266
    14.3360  14.3360  15.7190  15.7190  17.2610  17.2610  17.3099  17.3099
    18.6242  18.6242  18.6442  18.6441  18.8558  18.8558  19.3018  19.3018

          k =-0.3289 0.1720 0.0000 (  3686 PWs)   bands (ev):

   -74.6493 -74.6493 -74.6454 -74.6454 -74.5596 -74.5596 -74.4922 -74.4922
   -50.9036 -50.9036 -50.8734 -50.8734 -44.9907 -44.9907 -44.9884 -44.9884
   -44.9458 -44.9458 -44.9436 -44.9436 -44.9253 -44.9253 -44.9171 -44.9171
   -44.8934 -44.8934 -44.8914 -44.8914 -44.8588 -44.8588 -44.8542 -44.8542
   -44.8532 -44.8532 -44.8494 -44.8494 -25.3546 -25.3546 -25.3540 -25.3540
   -25.3413 -25.3413 -25.3411 -25.3411 -25.3067 -25.3067 -25.3057 -25.3057
     0.8420   0.8420   1.0105   1.0105   1.0910   1.0910   1.1072   1.1072
     1.1556   1.1556   1.1652   1.1652   1.1798   1.1798   1.1961   1.1961
     1.2082   1.2082   1.2401   1.2401   1.2670   1.2670   1.2795   1.2795
     1.3192   1.3192   1.3320   1.3320   1.3509   1.3509   1.3682   1.3682
     1.4195   1.4195   1.4467   1.4467   1.4848   1.4848   1.4992   1.4992
     7.0738   7.0738   7.8237   7.8237   8.1865   8.1865   8.4334   8.4334
     9.4808   9.4808   9.5261   9.5261   9.7409   9.7409   9.8366   9.8366
     9.9665   9.9665   9.9704   9.9704  10.0406  10.0406  10.0943  10.0943
    10.5120  10.5120  10.5655  10.5655  11.2113  11.2113  11.4676  11.4676
    13.3002  13.3002  13.9306  13.9306  14.3901  14.3901  15.2242  15.2242
    15.2870  15.2870  15.6073  15.6073  15.7340  15.7340  16.9539  16.9539
    18.1298  18.1298  18.1566  18.1566  18.7429  18.7428  18.7770  18.7770

          k =-0.3289 0.1720 0.0873 (  3692 PWs)   bands (ev):

   -74.6687 -74.6687 -74.6339 -74.6339 -74.5590 -74.5590 -74.5397 -74.5397
   -50.9425 -50.9425 -50.8582 -50.8582 -44.9930 -44.9930 -44.9906 -44.9906
   -44.9464 -44.9464 -44.9435 -44.9435 -44.9210 -44.9210 -44.9150 -44.9150
   -44.8959 -44.8959 -44.8931 -44.8931 -44.8573 -44.8573 -44.8549 -44.8549
   -44.8512 -44.8512 -44.8468 -44.8468 -25.3548 -25.3548 -25.3540 -25.3540
   -25.3419 -25.3419 -25.3412 -25.3412 -25.3082 -25.3082 -25.3057 -25.3057
     0.8568   0.8568   0.9969   0.9969   1.0540   1.0540   1.0989   1.0989
     1.1367   1.1367   1.1612   1.1612   1.1665   1.1665   1.2012   1.2012
     1.2153   1.2153   1.2338   1.2338   1.2470   1.2470   1.2847   1.2847
     1.3081   1.3081   1.3305   1.3305   1.3654   1.3654   1.3777   1.3777
     1.4031   1.4031   1.4492   1.4492   1.4808   1.4808   1.5085   1.5085
     7.1228   7.1228   7.7776   7.7776   8.0852   8.0852   8.3798   8.3798
     9.5486   9.5486   9.6156   9.6156   9.7457   9.7457   9.8498   9.8498
     9.9366   9.9366   9.9664   9.9664  10.0234  10.0234  10.0662  10.0662
    10.5910  10.5910  10.6373  10.6373  11.2021  11.2021  11.8186  11.8186
    12.9059  12.9059  13.3345  13.3345  14.1516  14.1516  14.8905  14.8905
    15.5862  15.5862  16.2060  16.2060  16.5997  16.5997  17.1235  17.1235
    17.7148  17.7148  18.0543  18.0543  18.6030  18.6030  18.9865  18.9865

          k =-0.3289 0.1720-0.1746 (  3704 PWs)   bands (ev):

   -74.6965 -74.6965 -74.6784 -74.6784 -74.5784 -74.5784 -74.5660 -74.5660
   -50.9808 -50.9808 -50.8735 -50.8735 -44.9948 -44.9948 -44.9946 -44.9946
   -44.9435 -44.9435 -44.9419 -44.9419 -44.9223 -44.9223 -44.9156 -44.9156
   -44.8977 -44.8977 -44.8969 -44.8969 -44.8576 -44.8576 -44.8517 -44.8517
   -44.8499 -44.8499 -44.8488 -44.8488 -25.3550 -25.3550 -25.3542 -25.3542
   -25.3425 -25.3425 -25.3418 -25.3418 -25.3089 -25.3089 -25.3070 -25.3070
     0.8544   0.8544   0.9887   0.9887   1.0418   1.0418   1.0659   1.0659
     1.0966   1.0966   1.1393   1.1393   1.1686   1.1686   1.1818   1.1818
     1.1994   1.1994   1.2008   1.2008   1.2271   1.2271   1.2742   1.2742
     1.2751   1.2751   1.3157   1.3157   1.3388   1.3388   1.3670   1.3670
     1.3968   1.3968   1.4482   1.4482   1.5177   1.5177   1.5260   1.5260
     7.1995   7.1995   7.6573   7.6573   8.1270   8.1270   8.2498   8.2498
     9.6566   9.6566   9.6588   9.6588   9.7349   9.7349   9.8822   9.8822
     9.8889   9.8889   9.9438   9.9438  10.0116  10.0116  10.0284  10.0284
    10.6458  10.6458  10.6848  10.6848  11.5405  11.5405  11.9915  11.9915
    12.4383  12.4383  13.0151  13.0151  13.7410  13.7410  14.7463  14.7463
    16.3014  16.3014  16.4491  16.4491  17.1058  17.1058  17.2300  17.2301
    17.7158  17.7158  18.0788  18.0787  18.3873  18.3873  18.6317  18.6318

     the Fermi energy is    12.5669 ev

!    total energy              =   -3126.25002841 Ry
     Harris-Foulkes estimate   =   -3126.25008243 Ry
     estimated scf accuracy    <       0.00006354 Ry

     The total energy is the sum of the following terms:

     one-electron contribution =   -1340.20575163 Ry
     hartree contribution      =     718.85050497 Ry
     xc contribution           =    -278.32138723 Ry
     ewald contribution        =   -2226.10581376 Ry
     smearing contrib. (-TS)   =      -0.46758076 Ry

     convergence has been achieved in  10 iterations

     Forces acting on atoms (Ry/au):

     atom    1 type  1   force =     0.00000000   -0.00838509   -0.00601546
     atom    2 type  1   force =     0.00000000    0.00838509    0.00601546
     atom    3 type  1   force =     0.00000000   -0.00838509    0.00601546
     atom    4 type  1   force =     0.00000000    0.00838509   -0.00601546
     atom    5 type  1   force =     0.00000000   -0.00552555    0.01451194
     atom    6 type  1   force =     0.00000000    0.00552555   -0.01451194
     atom    7 type  1   force =     0.00000000   -0.00552555   -0.01451194
     atom    8 type  1   force =     0.00000000    0.00552555    0.01451194
     atom    9 type  2   force =     0.00000000   -0.01003863   -0.01613495
     atom   10 type  2   force =     0.00000000    0.01003863    0.01613495
     atom   11 type  2   force =     0.00000000   -0.01003863    0.01613495
     atom   12 type  2   force =     0.00000000    0.01003863   -0.01613495

     Total force =     0.053244     Total SCF correction =     0.000000


     entering subroutine stress ...

          total   stress  (Ry/bohr**3)                   (kbar)     P=-2617.73
  -0.01860288   0.00000000   0.00000000      -2736.58      0.00      0.00
   0.00000000  -0.01678813   0.00000000          0.00  -2469.62      0.00
   0.00000000   0.00000000  -0.01799399          0.00      0.00  -2647.01


     number of scf cycles    =   3
     number of bfgs steps    =   2

     enthalpy old            =   -3144.8577253518 Ry
     enthalpy new            =   -3126.2500284084 Ry

     CASE: enthalpy_new > enthalpy_old

     new trust radius        =       0.7969083529 bohr

     trust_radius < trust_radius_min

     resetting bfgs history

     Message from routine bfgs:
     history already reset at previous step: stopping
     new conv_thr            =       0.0001000000 Ry

     new unit-cell volume =   1302.87380 a.u.^3 (   193.06598 Ang^3 )

CELL_PARAMETERS (alat=  7.01510508)
   1.155571340   0.000000000   0.000000000
   0.000000000   1.496830977   0.000000000
   0.000000000   0.000000000   2.181877107

ATOMIC_POSITIONS (crystal)
Co       0.750000000   0.825022029   0.434943776
Co       0.250000000   0.174977971   0.565056224
Co       0.750000000   0.325022029   0.065056224
Co       0.250000000   0.674977971   0.934943776
Co       0.250000000   0.539094975   0.281050872
Co       0.750000000   0.460905025   0.718949128
Co       0.250000000   0.039094975   0.218949128
Co       0.750000000   0.960905025   0.781050872
Si       0.250000000   0.200135215   0.893482972
Si       0.750000000   0.799864785   0.106517028
Si       0.250000000   0.700135215   0.606517028
[...]
    26.7937  27.4396  27.8211  27.8313  28.0189  28.1609  28.2005  28.2733
    28.4591  28.7754  29.1967  29.2125  29.2807  29.3896  29.4562  29.5662
    30.0001  31.9073  32.1707  32.3971  32.4143  33.1195  33.6995  36.2962
    36.3962  36.5985  36.8814  36.9068  37.0937  37.1612  38.1102  38.4417
    38.6082  38.6360  38.9431  39.1891  39.2115  39.4572  39.8058  39.9120
    40.4216  40.5531  40.6446  40.6850  41.1977  41.2881  41.3761  41.9878

          k = 0.0000 0.0000 0.1146 (  5589 PWs)   bands (ev):

   -58.8441 -58.8422 -58.8240 -58.8014 -58.7923 -58.7886 -58.7847 -58.7775
   -35.7900 -35.7881 -35.7859 -35.7828 -23.3004 -23.2751 -23.1756 -23.1456
   -23.1365 -23.1172 -23.1165 -23.0719 -23.0645 -23.0579 -23.0524 -23.0357
   -23.0347 -23.0174 -23.0112 -22.9935 -22.9881 -22.9721 -22.9667 -22.9646
   -22.9453 -22.9221 -22.9175 -22.9080  -7.1381  -7.1223  -7.1108  -7.1029
    -7.0849  -7.0747  -7.0684  -7.0568  -6.9301  -6.9103  -6.8800  -6.8592
    18.2860  18.3603  18.3746  18.4262  18.5338  18.5401  18.8052  18.8412
    19.1252  19.2012  19.2794  19.4916  19.6934  19.7477  19.7722  19.7836
    19.8792  20.0079  20.1713  20.2541  20.2543  20.2717  20.4082  20.4811
    20.6360  20.6393  20.7527  20.8284  20.8801  20.9385  21.0232  21.0326
    21.2715  21.4051  21.4242  21.6811  21.9635  21.9965  22.0953  22.2773
    22.3259  22.3637  23.9822  24.3692  25.6627  25.7735  26.8692  26.9277
    26.9956  27.5163  27.6865  27.7296  27.7514  28.0445  28.1594  28.2724
    28.2773  28.5120  29.1048  29.2436  29.3707  29.5095  29.6854  29.8670
    31.2678  31.4927  32.2049  32.2629  32.5900  33.2864  33.7576  34.8535
    35.6686  36.5908  36.6664  36.9222  37.6193  38.1273  38.1885  38.3748
    38.3883  38.6930  38.7255  38.8000  39.3394  39.4538  39.7077  40.1765
    40.3102  40.7327  40.7651  40.8034  40.9696  41.3281  41.4705  41.7374

          k = 0.0000 0.0000-0.2292 (  5570 PWs)   bands (ev):

   -58.8407 -58.8407 -58.8049 -58.8049 -58.7884 -58.7884 -58.7749 -58.7749
   -35.7887 -35.7887 -35.7830 -35.7830 -23.2851 -23.2851 -23.1573 -23.1573
   -23.1191 -23.1191 -23.0984 -23.0984 -23.0417 -23.0417 -23.0390 -23.0390
   -23.0287 -23.0287 -23.0003 -23.0003 -22.9721 -22.9721 -22.9529 -22.9529
   -22.9416 -22.9416 -22.9113 -22.9113  -7.1286  -7.1286  -7.1063  -7.1063
    -7.0750  -7.0750  -7.0603  -7.0603  -6.9211  -6.9211  -6.8671  -6.8671
    18.3099  18.3099  18.3508  18.3508  18.4871  18.4871  19.0470  19.0470
    19.1224  19.1224  19.5045  19.5045  19.6633  19.6633  19.8053  19.8053
    20.0621  20.0621  20.1547  20.1547  20.2806  20.2806  20.4661  20.4661
    20.5227  20.5227  20.8228  20.8228  20.8734  20.8734  20.9167  20.9167
    21.2291  21.2291  21.7253  21.7253  21.7965  21.7965  22.0828  22.0828
    22.3408  22.3408  24.4833  24.4833  25.4111  25.4111  27.1821  27.1821
    27.3358  27.3358  27.5829  27.5829  27.7084  27.7084  28.0833  28.0833
    28.3209  28.3209  29.2196  29.2196  29.3658  29.3658  30.6311  30.6311
    31.2749  31.2749  32.3315  32.3315  33.0100  33.0100  33.7089  33.7090
    36.0513  36.0513  37.0024  37.0024  37.3602  37.3602  38.2607  38.2607
    38.3070  38.3070  39.2878  39.2878  39.5077  39.5077  39.5818  39.5819
    40.7243  40.7245  41.0001  41.0002  41.3626  41.3630  41.5976  41.8839

          k = 0.0000 0.2227 0.0000 (  5521 PWs)   bands (ev):

   -58.8238 -58.8133 -58.8107 -58.7962 -58.7754 -58.7713 -58.7657 -58.7644
   -35.7882 -35.7872 -35.7822 -35.7777 -23.2104 -23.1714 -23.1368 -23.1276
   -23.1263 -23.0946 -23.0939 -23.0934 -23.0598 -23.0527 -23.0472 -23.0433
   -23.0145 -23.0076 -22.9952 -22.9894 -22.9736 -22.9660 -22.9579 -22.9555
   -22.9421 -22.9413 -22.9197 -22.9136  -7.1308  -7.1283  -7.0968  -7.0935
    -7.0811  -7.0775  -7.0650  -7.0567  -6.9282  -6.9171  -6.8770  -6.8593
    18.5334  18.6122  18.6338  18.7371  18.8065  18.9120  18.9126  19.0802
    19.1670  19.1784  19.2721  19.5208  19.5678  19.6182  19.6329  19.7351
    19.8572  20.0077  20.0109  20.1185  20.2509  20.3071  20.4266  20.6405
    20.6522  20.7019  20.7577  20.8417  20.8882  21.0242  21.1057  21.2747
    21.3217  21.3549  21.4975  21.7467  21.7787  21.7831  22.0397  22.3031
    22.3989  22.8692  23.7496  23.7622  25.4085  25.8554  26.0986  26.6094
    26.7813  27.0072  27.0079  27.3524  27.4783  28.0423  28.1747  28.2043
    28.4308  28.5003  28.8489  28.9021  28.9336  29.0511  29.1742  29.3527
    29.9866  30.2986  32.7524  33.4384  34.0725  34.8201  35.4894  35.9213
    36.1896  36.4382  36.7157  36.9074  36.9758  37.0557  37.3871  38.1996
    38.3646  38.3871  38.3980  38.8349  39.1484  39.1859  40.3597  40.5529
    40.9254  41.0327  41.1467  41.5659  41.9759  41.9797  42.1543  42.3650

          k = 0.0000 0.2227 0.1146 (  5573 PWs)   bands (ev):

   -58.8369 -58.8318 -58.8188 -58.8081 -58.7882 -58.7835 -58.7807 -58.7780
   -35.7900 -35.7895 -35.7843 -35.7819 -23.2219 -23.1938 -23.1501 -23.1370
   -23.1267 -23.1253 -23.1046 -23.0942 -23.0761 -23.0694 -23.0601 -23.0419
   -23.0297 -23.0175 -23.0153 -23.0007 -22.9938 -22.9786 -22.9613 -22.9579
   -22.9518 -22.9485 -22.9276 -22.9194  -7.1390  -7.1317  -7.1011  -7.1001
    -7.0864  -7.0815  -7.0683  -7.0660  -6.9347  -6.9237  -6.8776  -6.8633
    18.4739  18.5077  18.5977  18.7215  18.7762  18.9790  18.9857  19.0866
    19.2778  19.2995  19.3511  19.4333  19.5330  19.6428  19.6459  19.7489
    19.9725  20.0672  20.1258  20.2703  20.2808  20.3224  20.3480  20.4964
    20.6215  20.6458  20.7066  20.8186  20.8299  20.9798  21.0791  21.2437
    21.3024  21.3891  21.5885  21.7217  21.7610  21.8530  22.0535  22.3115
    22.3854  22.6187  23.0330  24.2214  25.0439  25.8745  26.5250  26.7323
    26.8103  26.9118  27.0327  27.3036  27.3991  27.7442  28.0811  28.2653
    28.5113  28.5587  28.8102  28.9698  29.0464  29.1313  29.2139  29.4768
    30.2900  30.9133  33.1264  33.1845  33.8648  34.6092  35.0283  35.4958
    35.5801  36.1275  36.1543  36.3758  36.9686  37.4732  38.3597  38.4671
    38.6276  38.7094  38.8947  39.0549  39.3387  39.4723  39.7294  40.3140
    40.5075  40.9910  41.2442  41.4715  41.5984  41.7889  42.1624  42.3120

          k = 0.0000 0.2227-0.2292 (  5550 PWs)   bands (ev):

   -58.8349 -58.8349 -58.8110 -58.8110 -58.7764 -58.7764 -58.7698 -58.7698
   -35.7885 -35.7885 -35.7824 -35.7824 -23.2059 -23.2059 -23.1338 -23.1338
   -23.1218 -23.1218 -23.0776 -23.0776 -23.0714 -23.0714 -23.0458 -23.0458
   -23.0197 -23.0197 -22.9983 -22.9983 -22.9910 -22.9909 -22.9551 -22.9551
   -22.9479 -22.9479 -22.9275 -22.9275  -7.1333  -7.1333  -7.0986  -7.0986
    -7.0778  -7.0778  -7.0669  -7.0669  -6.9302  -6.9302  -6.8677  -6.8676
    18.4258  18.4258  18.6108  18.6108  18.8950  18.8950  19.1591  19.1591
    19.2484  19.2484  19.5232  19.5232  19.5529  19.5529  19.7274  19.7274
    20.1705  20.1705  20.1964  20.1964  20.2459  20.2459  20.4616  20.4617
    20.5327  20.5327  20.7281  20.7281  20.8822  20.8822  21.1461  21.1461
    21.5592  21.5592  21.5786  21.5786  21.7104  21.7104  22.0696  22.0696
    22.3474  22.3474  23.5038  23.5038  25.4811  25.4811  26.8208  26.8208
    27.0088  27.0088  27.0746  27.0746  27.3518  27.3518  28.1655  28.1655
    28.7093  28.7093  28.7292  28.7292  29.1915  29.1915  29.3942  29.3942
    31.4897  31.4897  32.6488  32.6488  34.1685  34.1685  34.6715  34.6715
    35.7196  35.7196  36.5823  36.5823  36.8182  36.8182  38.4865  38.4865
    39.1004  39.1004  39.3953  39.3953  39.4847  39.4847  40.0289  40.0289
    40.4556  40.4556  40.8697  40.8697  42.1714  42.1717  42.2710  42.2712

          k =-0.4327 0.0000 0.0000 (  5580 PWs)   bands (ev):

   -58.8377 -58.8377 -58.8101 -58.8101 -58.7907 -58.7907 -58.7875 -58.7875
   -35.7903 -35.7903 -35.7859 -35.7859 -23.2894 -23.2894 -23.1531 -23.1531
   -23.1423 -23.1423 -23.1048 -23.1048 -23.0737 -23.0737 -23.0325 -23.0325
   -23.0097 -23.0097 -23.0075 -23.0075 -22.9579 -22.9579 -22.9465 -22.9465
   -22.9391 -22.9391 -22.9283 -22.9283  -7.1440  -7.1440  -7.1216  -7.1216
    -7.0589  -7.0589  -7.0478  -7.0478  -6.8991  -6.8991  -6.8834  -6.8834
    18.5224  18.5224  18.5517  18.5517  18.9355  18.9355  19.1057  19.1057
    19.3271  19.3271  19.5614  19.5614  19.6428  19.6428  19.8025  19.8025
    19.8701  19.8701  20.0179  20.0179  20.0802  20.0802  20.2351  20.2351
    20.2934  20.2934  20.6236  20.6236  20.9004  20.9004  21.0427  21.0427
    21.0947  21.0947  21.6830  21.6830  22.2321  22.2321  22.3311  22.3311
    23.0011  23.0011  25.2008  25.2008  25.3915  25.3915  26.7883  26.7883
    27.2131  27.2131  27.4798  27.4798  27.7208  27.7208  28.1118  28.1118
    28.2641  28.2641  28.8954  28.8954  29.1826  29.1826  29.5164  29.5164
    29.7319  29.7319  30.0331  30.0331  33.3647  33.3647  34.6071  34.6071
    35.0809  35.0809  35.7552  35.7552  36.2183  36.2183  37.7072  37.7072
    38.7984  38.7984  40.0948  40.0948  40.2609  40.2610  40.6714  40.6715
    40.8763  40.8763  41.4859  41.4859  41.5090  41.5091  42.8292  42.8294

          k =-0.4327 0.0000 0.1146 (  5580 PWs)   bands (ev):

   -58.8326 -58.8326 -58.8124 -58.8124 -58.7910 -58.7910 -58.7893 -58.7893
   -35.7893 -35.7893 -35.7867 -35.7867 -23.2909 -23.2909 -23.1723 -23.1723
   -23.1213 -23.1213 -23.1045 -23.1045 -23.0665 -23.0665 -23.0314 -23.0314
   -23.0263 -23.0263 -23.0058 -23.0058 -22.9619 -22.9619 -22.9443 -22.9443
   -22.9374 -22.9374 -22.9217 -22.9217  -7.1433  -7.1433  -7.1222  -7.1222
    -7.0610  -7.0610  -7.0474  -7.0474  -6.8998  -6.8998  -6.8805  -6.8805
    18.4919  18.4919  18.6345  18.6345  18.8585  18.8585  19.1750  19.1750
    19.2776  19.2776  19.5667  19.5667  19.6048  19.6048  19.8456  19.8456
    19.8678  19.8678  20.0272  20.0272  20.1292  20.1292  20.2350  20.2350
    20.4051  20.4051  20.6187  20.6187  20.8917  20.8917  20.9636  20.9636
    21.1773  21.1773  21.6528  21.6528  22.1121  22.1121  22.3056  22.3056
    23.0661  23.0661  24.3881  24.3881  25.8407  25.8407  27.0500  27.0500
    27.3478  27.3478  27.4849  27.4849  27.7433  27.7433  27.9527  27.9527
    28.3461  28.3461  28.8409  28.8409  29.2123  29.2123  29.4463  29.4463
    29.7349  29.7349  30.5943  30.5943  32.6303  32.6303  34.6218  34.6218
    35.5461  35.5461  35.9512  35.9512  36.0806  36.0806  37.1143  37.1143
    39.3326  39.3327  39.5695  39.5696  40.1714  40.1714  40.4752  40.4752
    41.0637  41.0637  41.4076  41.4076  42.0378  42.0378  42.6852  42.6853

          k =-0.4327 0.0000-0.2292 (  5600 PWs)   bands (ev):

   -58.8460 -58.8460 -58.8071 -58.8071 -58.8006 -58.8006 -58.7895 -58.7895
   -35.7896 -35.7896 -35.7881 -35.7881 -23.2921 -23.2921 -23.1857 -23.1857
   -23.1179 -23.1179 -23.1002 -23.1002 -23.0777 -23.0777 -23.0320 -23.0320
   -23.0300 -23.0300 -23.0075 -23.0075 -22.9660 -22.9660 -22.9465 -22.9465
   -22.9421 -22.9421 -22.9389 -22.9389  -7.1429  -7.1429  -7.1208  -7.1208
    -7.0631  -7.0631  -7.0508  -7.0508  -6.9045  -6.9045  -6.8841  -6.8841
    18.4586  18.4586  18.7647  18.7647  18.8175  18.8175  19.0766  19.0766
    19.2995  19.2995  19.5043  19.5043  19.6682  19.6682  19.8238  19.8238
    19.9809  19.9809  20.0818  20.0818  20.1078  20.1078  20.2279  20.2279
    20.5341  20.5341  20.6396  20.6396  20.7267  20.7267  20.8828  20.8828
    21.4057  21.4057  21.6448  21.6448  21.8952  21.8952  22.2885  22.2885
    23.1676  23.1676  23.9169  23.9169  26.0157  26.0157  27.0211  27.0211
    27.4888  27.4888  27.5422  27.5422  27.6896  27.6896  27.8276  27.8276
    28.7536  28.7536  28.7943  28.7943  29.0570  29.0570  29.4577  29.4577
    29.9025  29.9025  31.4517  31.4517  31.5208  31.5208  34.7398  34.7398
    35.4092  35.4092  35.7486  35.7486  36.3895  36.3895  37.7040  37.7040
    38.2555  38.2555  39.3213  39.3213  40.1251  40.1252  40.8478  40.8478
    41.3227  41.3227  41.7613  41.7614  42.0942  42.0943  42.5649  42.5650

          k =-0.4327 0.2227 0.0000 (  5576 PWs)   bands (ev):

   -58.8283 -58.8283 -58.8145 -58.8145 -58.7889 -58.7889 -58.7873 -58.7873
   -35.7887 -35.7887 -35.7872 -35.7872 -23.2227 -23.2227 -23.1526 -23.1526
   -23.1485 -23.1485 -23.0837 -23.0837 -23.0685 -23.0685 -23.0426 -23.0426
   -23.0337 -23.0337 -23.0136 -23.0136 -22.9734 -22.9734 -22.9514 -22.9514
   -22.9408 -22.9408 -22.9355 -22.9355  -7.1380  -7.1380  -7.1283  -7.1283
    -7.0598  -7.0598  -7.0542  -7.0542  -6.9025  -6.9025  -6.8941  -6.8941
    18.7727  18.7727  18.8383  18.8383  19.1252  19.1252  19.2246  19.2246
    19.4770  19.4770  19.4952  19.4952  19.7699  19.7699  19.8677  19.8677
    19.9443  19.9443  20.1071  20.1071  20.1268  20.1268  20.3120  20.3120
    20.4855  20.4855  20.4870  20.4870  20.6969  20.6969  20.9319  20.9319
    21.2074  21.2074  21.4793  21.4793  21.8371  21.8371  22.0493  22.0493
    23.5394  23.5394  24.9227  24.9227  25.5379  25.5379  26.0458  26.0458
    26.9096  26.9096  26.9275  26.9275  27.8835  27.8835  27.9726  27.9726
    28.2659  28.2659  28.5202  28.5202  28.7065  28.7065  28.9056  28.9056
    30.5301  30.5301  30.5540  30.5540  32.0760  32.0760  32.4468  32.4468
    36.5036  36.5036  37.3818  37.3818  38.1580  38.1580  39.0381  39.0381
    39.3375  39.3375  39.6914  39.6914  39.9012  39.9012  40.9617  40.9618
    41.1570  41.1570  41.8562  41.8562  42.1441  42.1443  42.3511  42.3511

          k =-0.4327 0.2227 0.1146 (  5578 PWs)   bands (ev):

   -58.8297 -58.8297 -58.8155 -58.8155 -58.7905 -58.7905 -58.7860 -58.7860
   -35.7893 -35.7893 -35.7870 -35.7870 -23.2208 -23.2208 -23.1508 -23.1508
   -23.1415 -23.1415 -23.1014 -23.1014 -23.0814 -23.0814 -23.0467 -23.0467
   -23.0212 -23.0212 -22.9996 -22.9996 -22.9766 -22.9766 -22.9549 -22.9549
   -22.9463 -22.9463 -22.9323 -22.9323  -7.1396  -7.1396  -7.1272  -7.1272
    -7.0612  -7.0612  -7.0551  -7.0551  -6.9008  -6.9008  -6.8945  -6.8945
    18.7021  18.7021  18.9352  18.9352  19.1057  19.1057  19.3254  19.3254
    19.4102  19.4102  19.5307  19.5307  19.6197  19.6197  19.8627  19.8627
    19.9726  19.9726  20.1073  20.1073  20.1803  20.1803  20.3867  20.3867
    20.4773  20.4773  20.5825  20.5825  20.7881  20.7881  20.8640  20.8640
    21.2007  21.2007  21.4286  21.4286  21.7458  21.7458  22.0435  22.0435
    23.5759  23.5759  24.3877  24.3877  25.6100  25.6100  26.2066  26.2066
    26.9224  26.9224  27.2110  27.2110  27.6188  27.6188  28.1237  28.1237
    28.2320  28.2320  28.5775  28.5775  28.6466  28.6466  28.9115  28.9115
    30.5089  30.5089  30.9225  30.9225  31.6238  31.6238  33.2995  33.2995
    36.2925  36.2925  36.5315  36.5315  37.7153  37.7153  38.5649  38.5650
    39.2593  39.2593  40.3872  40.3872  40.5412  40.5413  41.0282  41.0282
    41.4112  41.4113  41.7883  41.7883  42.1595  42.1597  42.5048  42.5049

          k =-0.4327 0.2227-0.2292 (  5560 PWs)   bands (ev):

   -58.8243 -58.8243 -58.8127 -58.8127 -58.7906 -58.7906 -58.7779 -58.7779
   -35.7879 -35.7879 -35.7869 -35.7869 -23.2191 -23.2191 -23.1322 -23.1322
   -23.1288 -23.1288 -23.1065 -23.1065 -23.0998 -23.0998 -23.0480 -23.0480
   -23.0018 -23.0018 -22.9949 -22.9949 -22.9682 -22.9682 -22.9648 -22.9648
   -22.9367 -22.9367 -22.9308 -22.9308  -7.1397  -7.1397  -7.1263  -7.1263
    -7.0581  -7.0581  -7.0534  -7.0534  -6.8993  -6.8993  -6.8918  -6.8918
    18.6505  18.6505  19.0401  19.0401  19.1754  19.1754  19.2459  19.2459
    19.4104  19.4104  19.5190  19.5190  19.5471  19.5471  19.9437  19.9437
    19.9619  19.9619  20.0919  20.0919  20.1224  20.1224  20.5401  20.5401
    20.5436  20.5436  20.6372  20.6372  20.7448  20.7448  20.8829  20.8829
    21.1462  21.1462  21.5028  21.5028  21.5739  21.5739  22.0215  22.0215
    23.7849  23.7849  23.8403  23.8403  25.6807  25.6807  26.1523  26.1523
    27.2021  27.2021  27.2070  27.2070  27.5550  27.5550  27.9594  27.9594
    28.4264  28.4264  28.5109  28.5109  28.8186  28.8186  28.8409  28.8409
    30.6858  30.6858  30.7996  30.7996  31.7034  31.7034  34.2622  34.2622
    35.3921  35.3921  36.1013  36.1013  37.3306  37.3306  38.1460  38.1461
    39.5930  39.5930  40.6117  40.6117  41.0773  41.0774  41.2205  41.2206
    41.6092  41.6093  41.6899  41.6899  42.1989  42.1990  42.6143  42.6146

     the Fermi energy is    35.1457 ev

!    total energy              =   -3151.35762003 Ry
     Harris-Foulkes estimate   =   -3151.35769696 Ry
     estimated scf accuracy    <       0.00008449 Ry

     The total energy is the sum of the following terms:

     one-electron contribution =    -350.44708549 Ry
     hartree contribution      =     401.23504928 Ry
     xc contribution           =    -292.29119923 Ry
     ewald contribution        =   -2909.61032357 Ry
     smearing contrib. (-TS)   =      -0.24406103 Ry

     convergence has been achieved in  10 iterations

     Forces acting on atoms (Ry/au):

     atom    1 type  1   force =     0.00000000   -0.02409216    0.01466881
     atom    2 type  1   force =     0.00000000    0.02409216   -0.01466881
     atom    3 type  1   force =     0.00000000   -0.02409216   -0.01466881
     atom    4 type  1   force =     0.00000000    0.02409216    0.01466881
     atom    5 type  1   force =     0.00000000    0.05415028   -0.02331506
     atom    6 type  1   force =     0.00000000   -0.05415028    0.02331506
     atom    7 type  1   force =     0.00000000    0.05415028    0.02331506
     atom    8 type  1   force =     0.00000000   -0.05415028   -0.02331506
     atom    9 type  2   force =     0.00000000   -0.05979946    0.03040813
     atom   10 type  2   force =     0.00000000    0.05979946   -0.03040813
     atom   11 type  2   force =     0.00000000   -0.05979946   -0.03040813
     atom   12 type  2   force =     0.00000000    0.05979946    0.03040813

     Total force =     0.187319     Total SCF correction =     0.000000


     entering subroutine stress ...

          total   stress  (Ry/bohr**3)                   (kbar)     P= 1013.37
   0.00696761   0.00000000   0.00000000       1024.97      0.00      0.00
   0.00000000   0.00664237   0.00000000          0.00    977.13      0.00
   0.00000000   0.00000000   0.00705626          0.00      0.00   1038.01


     Writing output data file Prototype-La-oP12-Co2Si.save
 
     init_run     :      5.39s CPU      6.44s WALL (       2 calls)
     electrons    :   1027.71s CPU   1178.90s WALL (       5 calls)
     update_pot   :      1.86s CPU      1.88s WALL (       3 calls)
     forces       :      4.17s CPU      4.38s WALL (       5 calls)
     stress       :     11.05s CPU     11.30s WALL (       5 calls)

     Called by init_run:
     wfcinit      :      3.64s CPU      4.68s WALL (       2 calls)
     potinit      :      0.49s CPU      0.49s WALL (       2 calls)

     Called by electrons:
     c_bands      :   1007.43s CPU   1131.09s WALL (      46 calls)
     sum_band     :     19.83s CPU     26.94s WALL (      46 calls)
     v_of_rho     :      0.07s CPU      0.08s WALL (      51 calls)
     mix_rho      :      0.06s CPU      0.07s WALL (      46 calls)

     Called by c_bands:
     init_us_2    :      1.21s CPU      1.44s WALL (    1248 calls)
     ccgdiagg     :    928.43s CPU   1030.14s WALL (     648 calls)
     wfcrot       :     81.21s CPU    103.04s WALL (     660 calls)

     Called by *cgdiagg:
     h_psi        :    620.60s CPU    729.92s WALL (  503330 calls)
     cdiaghg      :      5.48s CPU      6.06s WALL (     660 calls)

     Called by h_psi:
     add_vuspsi   :    111.20s CPU    123.01s WALL (  503330 calls)

     General routines
     calbec       :    283.65s CPU    295.99s WALL ( 1006120 calls)
     fft          :      0.15s CPU      0.16s WALL (     227 calls)
     fftw         :    333.46s CPU    400.22s WALL ( 1274908 calls)
     davcio       :      0.83s CPU      2.19s WALL (    1800 calls)
 
     Parallel routines
     fft_scatter  :    145.08s CPU    174.58s WALL ( 1275135 calls)
 
     PWSCF        : 17m30.59s CPU    20m 6.13s WALL

 
   This run was terminated on:   1:16: 7  23Mar2018            

=------------------------------------------------------------------------------=
   JOB DONE.
=------------------------------------------------------------------------------=
