
     Program PWSCF v.5.0.2 starts on 23Mar2018 at  0:56: 0 

     This program is part of the open-source Quantum ESPRESSO suite
     for quantum simulation of materials; please cite
         "P. Giannozzi et al., J. Phys.:Condens. Matter 21 395502 (2009);
          URL http://www.quantum-espresso.org", 
     in publications or presentations arising from this work. More details at
     http://www.quantum-espresso.org/quote.php

     Parallel version (MPI), running on     4 processors
     R & G space division:  proc/nbgrp/npool/nimage =       4

     Current dimensions of program PWSCF are:
     Max number of different atomic species (ntypx) = 10
     Max number of k-points (npk) =  40000
     Max angular momentum in pseudopotentials (lmaxx) =  3
     Waiting for input...
     Reading input from standard input

     Subspace diagonalization in iterative solution of the eigenvalue problem:
     a serial algorithm will be used

 
     Parallelization info
     --------------------
     sticks:   dense  smooth     PW     G-vecs:    dense   smooth      PW
     Min         256     256     78                 5240     5240     876
     Max         257     257     79                 5243     5243     879
     Sum        1027    1027    313                20965    20965    3509
 


     bravais-lattice index     =            0
     lattice parameter (alat)  =       9.6483  a.u.
     unit-cell volume          =     613.3683 (a.u.)^3
     number of atoms/cell      =            6
     number of atomic types    =            2
     number of electrons       =       111.00
     number of Kohn-Sham states=           67
     kinetic-energy cutoff     =      40.0000  Ry
     charge density cutoff     =     160.0000  Ry
     convergence threshold     =      1.0E-04
     mixing beta               =       0.7000
     number of iterations used =            8  plain     mixing
     Exchange-correlation      = SLA-PZ-NOGX-NOGC ( 1 1 0 0 0)
     EXX-fraction              =        0.00
     nstep                     =           50


     celldm(1)=   9.648295  celldm(2)=   0.000000  celldm(3)=   0.000000
     celldm(4)=   0.000000  celldm(5)=   0.000000  celldm(6)=   0.000000

     crystal axes: (cart. coord. in units of alat)
               a(1) = (   1.000000   0.000000   0.000000 )  
               a(2) = (  -0.500000   0.866025   0.000000 )  
               a(3) = (   0.000000   0.000000   0.788568 )  

     reciprocal axes: (cart. coord. in units 2 pi/alat)
               b(1) = (  1.000000  0.577350  0.000000 )  
               b(2) = (  0.000000  1.154701  0.000000 )  
               b(3) = (  0.000000  0.000000  1.268122 )  


     PseudoPot. # 1 for Ho read from file:
     /home/cwx6513/pp.La/Ho.UPF
     MD5 check sum: f307ee11bce99f5b724fa279e3790763
     Pseudo is Norm-conserving, Zval = 21.0
     Generated in analytical, separable form
     Using radial grid of 1265 points,  6 beta functions with: 
                l(1) =   0
                l(2) =   0
                l(3) =   1
                l(4) =   1
                l(5) =   2
                l(6) =   3

     PseudoPot. # 2 for Gd read from file:
     /home/cwx6513/pp.La/Gd.UPF
     MD5 check sum: 09a8be538722f05520810cb6aac0efd2
     Pseudo is Norm-conserving, Zval = 18.0
     Generated in analytical, separable form
     Using radial grid of 1263 points,  6 beta functions with: 
                l(1) =   0
                l(2) =   0
                l(3) =   1
                l(4) =   1
                l(5) =   2
                l(6) =   3

     atomic species   valence    mass     pseudopotential
        Ca            21.00    40.07800     Ho( 1.00)
        Cu            18.00    63.54600     Gd( 1.00)

     24 Sym. Ops., with inversion, found



   Cartesian axes

     site n.     atom                  positions (alat units)
         1           Ca  tau(   1) = (   0.0000000   0.0000000   0.0000000  )
         2           Cu  tau(   2) = (  -0.0000005   0.5773506   0.0000000  )
         3           Cu  tau(   3) = (   0.5000005   0.2886748   0.0000000  )
         4           Cu  tau(   4) = (   0.5000000   0.0000000   0.3942838  )
         5           Cu  tau(   5) = (   0.2500000   0.4330127   0.3942838  )
         6           Cu  tau(   6) = (  -0.2500000   0.4330127   0.3942838  )

     number of k points=   110  gaussian smearing, width (Ry)=  0.1000

     Number of k-points >= 100: set verbosity='high' to print them.

     Dense  grid:    20965 G-vectors     FFT dimensions: (  40,  40,  32)

     Largest allocated arrays     est. size (Mb)     dimensions
        Kohn-Sham Wavefunctions         0.68 Mb     (    670,   67)
        NL pseudopotentials             1.23 Mb     (    670,  120)
        Each V/rho on FFT grid          0.20 Mb     (  12800)
        Each G-vector array             0.04 Mb     (   5243)
        G-vector shells                 0.04 Mb     (   5243)
     Largest temporary arrays     est. size (Mb)     dimensions
        Each subspace H/S matrix        0.07 Mb     (  67,  67)
        Each <psi_i|beta_j> matrix      0.12 Mb     (    120,   67)
        Arrays for rho mixing           1.56 Mb     (  12800,   8)

     Initial potential from superposition of free atoms

     Starting from uniform charge
     Starting wfc are    0 randomized atomic wfcs

     total cpu time spent up to now is        6.0 secs

     Self-consistent Calculation

     iteration #  1     ecut=    40.00 Ry     beta=0.70
     CG style diagonalization
     ethr =  1.00E-02,  avg # of iterations = 20.0

     total cpu time spent up to now is      139.9 secs

     total energy              =   -1218.83543837 Ry
     Harris-Foulkes estimate   =   -1533.89056421 Ry
     estimated scf accuracy    <     404.10241437 Ry

     iteration #  2     ecut=    40.00 Ry     beta=0.70
     CG style diagonalization
     ethr =  1.00E-02,  avg # of iterations =  8.2

     total cpu time spent up to now is      194.7 secs

     total energy              =   -1286.17836079 Ry
     Harris-Foulkes estimate   =   -1308.31332629 Ry
     estimated scf accuracy    <      30.44877373 Ry

     iteration #  3     ecut=    40.00 Ry     beta=0.70
     CG style diagonalization
     ethr =  1.00E-02,  avg # of iterations =  5.4

     total cpu time spent up to now is      231.0 secs

     total energy              =   -1291.95230386 Ry
     Harris-Foulkes estimate   =   -1304.66174431 Ry
     estimated scf accuracy    <      30.55452753 Ry

     iteration #  4     ecut=    40.00 Ry     beta=0.70
     CG style diagonalization
     ethr =  1.00E-02,  avg # of iterations =  3.7

     total cpu time spent up to now is      255.4 secs

     total energy              =   -1298.01418714 Ry
     Harris-Foulkes estimate   =   -1298.73915102 Ry
     estimated scf accuracy    <       1.04070878 Ry

     iteration #  5     ecut=    40.00 Ry     beta=0.70
     CG style diagonalization
     c_bands:  1 eigenvalues not converged
     ethr =  9.38E-04,  avg # of iterations =  4.2

     total cpu time spent up to now is      284.0 secs

     total energy              =   -1298.27111748 Ry
     Harris-Foulkes estimate   =   -1298.61333925 Ry
     estimated scf accuracy    <       0.84222449 Ry

     iteration #  6     ecut=    40.00 Ry     beta=0.70
     CG style diagonalization
     ethr =  7.59E-04,  avg # of iterations =  3.4

     total cpu time spent up to now is      304.9 secs

     total energy              =   -1298.36533816 Ry
     Harris-Foulkes estimate   =   -1298.42828657 Ry
     estimated scf accuracy    <       0.11807038 Ry

     iteration #  7     ecut=    40.00 Ry     beta=0.70
     CG style diagonalization
     c_bands:  1 eigenvalues not converged
     c_bands:  1 eigenvalues not converged
     c_bands:  1 eigenvalues not converged
     c_bands:  1 eigenvalues not converged
     c_bands:  1 eigenvalues not converged
     c_bands:  1 eigenvalues not converged
     ethr =  1.06E-04,  avg # of iterations =  3.9

     total cpu time spent up to now is      330.4 secs

     total energy              =   -1298.39165160 Ry
     Harris-Foulkes estimate   =   -1298.40175469 Ry
     estimated scf accuracy    <       0.01657370 Ry

     iteration #  8     ecut=    40.00 Ry     beta=0.70
     CG style diagonalization
     c_bands:  1 eigenvalues not converged
     c_bands:  1 eigenvalues not converged
     c_bands:  1 eigenvalues not converged
     c_bands:  1 eigenvalues not converged
     c_bands:  1 eigenvalues not converged
     c_bands:  1 eigenvalues not converged
     c_bands:  1 eigenvalues not converged
     c_bands:  1 eigenvalues not converged
     c_bands:  1 eigenvalues not converged
     c_bands:  1 eigenvalues not converged
     c_bands:  1 eigenvalues not converged
     c_bands:  1 eigenvalues not converged
     c_bands:  1 eigenvalues not converged
     c_bands:  1 eigenvalues not converged
     ethr =  1.49E-05,  avg # of iterations =  3.8

     total cpu time spent up to now is      356.0 secs

     total energy              =   -1298.39541088 Ry
     Harris-Foulkes estimate   =   -1298.39600703 Ry
     estimated scf accuracy    <       0.00138544 Ry

     iteration #  9     ecut=    40.00 Ry     beta=0.70
     CG style diagonalization
     c_bands:  1 eigenvalues not converged
     c_bands:  1 eigenvalues not converged
     c_bands:  2 eigenvalues not converged
     c_bands:  1 eigenvalues not converged
     c_bands:  1 eigenvalues not converged
     c_bands:  1 eigenvalues not converged
     c_bands:  1 eigenvalues not converged
     c_bands:  1 eigenvalues not converged
     c_bands:  1 eigenvalues not converged
     c_bands:  1 eigenvalues not converged
     c_bands:  1 eigenvalues not converged
     c_bands:  1 eigenvalues not converged
     c_bands:  1 eigenvalues not converged
     ethr =  1.25E-06,  avg # of iterations =  4.1

     total cpu time spent up to now is      382.5 secs

     End of self-consistent calculation

     Number of k-points >= 100: set verbosity='high' to print the bands.

     the Fermi energy is    34.1247 ev

!    total energy              =   -1298.39571893 Ry
     Harris-Foulkes estimate   =   -1298.39579389 Ry
     estimated scf accuracy    <       0.00009006 Ry

     The total energy is the sum of the following terms:

     one-electron contribution =     -91.71938153 Ry
     hartree contribution      =     162.41182296 Ry
     xc contribution           =    -129.68754759 Ry
     ewald contribution        =   -1239.23938258 Ry
     smearing contrib. (-TS)   =      -0.16123018 Ry

     convergence has been achieved in   9 iterations

     Forces acting on atoms (Ry/au):

     atom    1 type  1   force =     0.00000000    0.00000000    0.00000000
     atom    2 type  2   force =     0.00000000    0.00000000    0.00000000
     atom    3 type  2   force =     0.00000000    0.00000000    0.00000000
     atom    4 type  2   force =     0.00000000    0.00000000    0.00000000
     atom    5 type  2   force =     0.00000000    0.00000000    0.00000000
     atom    6 type  2   force =     0.00000000    0.00000000    0.00000000

     Total force =     0.000000     Total SCF correction =     0.000000


     entering subroutine stress ...

          total   stress  (Ry/bohr**3)                   (kbar)     P= 1813.35
   0.01017773   0.00000000   0.00000000       1497.19      0.00      0.00
   0.00000000   0.01017773   0.00000000          0.00   1497.19      0.00
   0.00000000   0.00000000   0.01662525          0.00      0.00   2445.66


     BFGS Geometry Optimization

     number of scf cycles    =   1
     number of bfgs steps    =   0

     enthalpy new            =   -1298.3957189281 Ry

     new trust radius        =       0.5000000000 bohr
     new conv_thr            =       0.0001000000 Ry

     new unit-cell volume =    761.32273 a.u.^3 (   112.81639 Ang^3 )

CELL_PARAMETERS (alat=  9.64829493)
   1.061796236   0.000000000   0.000000000
  -0.530898118   0.919542514   0.000000000
   0.000000000   0.000000000   0.868168629

ATOMIC_POSITIONS (crystal)
Ca       0.000000000   0.000000000   0.000000000
Cu       0.333333000   0.666667000   0.000000000
Cu       0.666667000   0.333333000   0.000000000
Cu       0.500000000   0.000000000   0.500000000
Cu       0.500000000   0.500000000   0.500000000
Cu       0.000000000   0.500000000   0.500000000



     Writing output data file Prototype-La-hP6-CaCu5.save
     NEW-OLD atomic charge density approx. for the potential
     NEW k-points: (use verbosity='high' to print them)

     total cpu time spent up to now is      389.0 secs

     Self-consistent Calculation

     iteration #  1     ecut=    40.00 Ry     beta=0.70
     CG style diagonalization
     c_bands:  3 eigenvalues not converged
     c_bands:  1 eigenvalues not converged
     c_bands:  2 eigenvalues not converged
     c_bands:  1 eigenvalues not converged
     c_bands:  1 eigenvalues not converged
     c_bands:  1 eigenvalues not converged
     c_bands:  1 eigenvalues not converged
     c_bands:  1 eigenvalues not converged
     c_bands:  1 eigenvalues not converged
     c_bands:  1 eigenvalues not converged
     c_bands:  1 eigenvalues not converged
     c_bands:  1 eigenvalues not converged
     c_bands:  1 eigenvalues not converged
     c_bands:  1 eigenvalues not converged
     c_bands:  1 eigenvalues not converged
     c_bands:  1 eigenvalues not converged
     c_bands:  1 eigenvalues not converged
     c_bands:  1 eigenvalues not converged
     c_bands:  3 eigenvalues not converged
     c_bands:  3 eigenvalues not converged
     c_bands:  1 eigenvalues not converged
     c_bands:  1 eigenvalues not converged
     c_bands:  1 eigenvalues not converged
     ethr =  1.00E-06,  avg # of iterations = 20.1

     total cpu time spent up to now is      516.9 secs

     total energy              =   -1292.46926631 Ry
     Harris-Foulkes estimate   =   -1306.38948047 Ry
     estimated scf accuracy    <      17.82395595 Ry

     iteration #  2     ecut=    40.00 Ry     beta=0.70
     CG style diagonalization
     ethr =  1.00E-02,  avg # of iterations =  4.0

     total cpu time spent up to now is      543.0 secs

     total energy              =   -1296.65853028 Ry
     Harris-Foulkes estimate   =   -1301.86638402 Ry
     estimated scf accuracy    <       8.99770515 Ry

     iteration #  3     ecut=    40.00 Ry     beta=0.70
     CG style diagonalization
     ethr =  8.11E-03,  avg # of iterations =  3.5

     total cpu time spent up to now is      566.6 secs

     total energy              =   -1298.90602979 Ry
     Harris-Foulkes estimate   =   -1299.65066183 Ry
     estimated scf accuracy    <       1.50619746 Ry

     iteration #  4     ecut=    40.00 Ry     beta=0.70
     CG style diagonalization
     ethr =  1.36E-03,  avg # of iterations =  3.4

     total cpu time spent up to now is      588.5 secs

     total energy              =   -1299.21940112 Ry
     Harris-Foulkes estimate   =   -1299.24822358 Ry
     estimated scf accuracy    <       0.05349673 Ry

     iteration #  5     ecut=    40.00 Ry     beta=0.70
     CG style diagonalization
     c_bands:  1 eigenvalues not converged
     c_bands:  1 eigenvalues not converged
     c_bands:  1 eigenvalues not converged
     c_bands:  1 eigenvalues not converged
     c_bands:  1 eigenvalues not converged
     c_bands:  1 eigenvalues not converged
     ethr =  4.82E-05,  avg # of iterations =  3.8

     total cpu time spent up to now is      613.2 secs

     total energy              =   -1299.23523003 Ry
     Harris-Foulkes estimate   =   -1299.24141476 Ry
     estimated scf accuracy    <       0.01302193 Ry

     iteration #  6     ecut=    40.00 Ry     beta=0.70
     CG style diagonalization
     c_bands:  1 eigenvalues not converged
     c_bands:  1 eigenvalues not converged
     c_bands:  1 eigenvalues not converged
     c_bands:  1 eigenvalues not converged
     c_bands:  1 eigenvalues not converged
     ethr =  1.17E-05,  avg # of iterations =  3.5

     total cpu time spent up to now is      636.5 secs

     total energy              =   -1299.23802015 Ry
     Harris-Foulkes estimate   =   -1299.23827835 Ry
     estimated scf accuracy    <       0.00057907 Ry

     iteration #  7     ecut=    40.00 Ry     beta=0.70
     CG style diagonalization
     c_bands:  1 eigenvalues not converged
     c_bands:  1 eigenvalues not converged
     c_bands:  1 eigenvalues not converged
     ethr =  5.22E-07,  avg # of iterations =  3.7

     total cpu time spent up to now is      660.4 secs

     End of self-consistent calculation

     Number of k-points >= 100: set verbosity='high' to print the bands.

     the Fermi energy is    26.0877 ev

!    total energy              =   -1299.23813291 Ry
     Harris-Foulkes estimate   =   -1299.23814440 Ry
     estimated scf accuracy    <       0.00001474 Ry

     The total energy is the sum of the following terms:

     one-electron contribution =    -211.04034951 Ry
     hartree contribution      =     193.79273813 Ry
     xc contribution           =    -127.23991021 Ry
     ewald contribution        =   -1154.54083360 Ry
     smearing contrib. (-TS)   =      -0.20977773 Ry

     convergence has been achieved in   7 iterations

     Forces acting on atoms (Ry/au):

     atom    1 type  1   force =     0.00000000    0.00000000    0.00000000
     atom    2 type  2   force =     0.00000000    0.00000000    0.00000000
     atom    3 type  2   force =     0.00000000    0.00000000    0.00000000
     atom    4 type  2   force =     0.00000000    0.00000000    0.00000000
     atom    5 type  2   force =     0.00000000    0.00000000    0.00000000
     atom    6 type  2   force =     0.00000000    0.00000000    0.00000000

     Total force =     0.000000     Total SCF correction =     0.000000


     entering subroutine stress ...

          total   stress  (Ry/bohr**3)                   (kbar)     P=   -1.89
  -0.00051578   0.00000000   0.00000000        -75.87      0.00      0.00
   0.00000000  -0.00051578   0.00000000          0.00    -75.87      0.00
   0.00000000   0.00000000   0.00099300          0.00      0.00    146.08


     number of scf cycles    =   2
     number of bfgs steps    =   1

     enthalpy old            =   -1298.3957189282 Ry
     enthalpy new            =   -1299.2381329103 Ry

     CASE: enthalpy_new < enthalpy_old

     small trust_radius: resetting bfgs history

     new trust radius        =       0.1369944288 bohr
     new conv_thr            =       0.0000010000 Ry

     new unit-cell volume =    760.23101 a.u.^3 (   112.65461 Ang^3 )

CELL_PARAMETERS (alat=  9.64829493)
   1.048104844   0.000000000   0.000000000
  -0.524052422   0.907685421   0.000000000
   0.000000000   0.000000000   0.889720878

ATOMIC_POSITIONS (crystal)
Ca       0.000000000   0.000000000   0.000000000
Cu       0.333333000   0.666667000   0.000000000
Cu       0.666667000   0.333333000   0.000000000
Cu       0.500000000   0.000000000   0.500000000
Cu       0.500000000   0.500000000   0.500000000
Cu       0.000000000   0.500000000   0.500000000



     Writing output data file Prototype-La-hP6-CaCu5.save
     NEW-OLD atomic charge density approx. for the potential
     NEW k-points: (use verbosity='high' to print them)

     total cpu time spent up to now is      666.5 secs

     Self-consistent Calculation

     iteration #  1     ecut=    40.00 Ry     beta=0.70
     CG style diagonalization
     c_bands:  1 eigenvalues not converged
     c_bands:  1 eigenvalues not converged
     c_bands:  1 eigenvalues not converged
     c_bands:  3 eigenvalues not converged
     c_bands:  2 eigenvalues not converged
     c_bands:  1 eigenvalues not converged
     c_bands:  3 eigenvalues not converged
     c_bands:  2 eigenvalues not converged
     c_bands:  1 eigenvalues not converged
     c_bands:  2 eigenvalues not converged
     c_bands:  2 eigenvalues not converged
     c_bands:  1 eigenvalues not converged
     c_bands:  1 eigenvalues not converged
     c_bands:  1 eigenvalues not converged
     c_bands:  2 eigenvalues not converged
     c_bands:  1 eigenvalues not converged
     c_bands:  1 eigenvalues not converged
     c_bands:  1 eigenvalues not converged
     c_bands:  1 eigenvalues not converged
     c_bands:  1 eigenvalues not converged
     c_bands:  1 eigenvalues not converged
     c_bands:  1 eigenvalues not converged
     c_bands:  2 eigenvalues not converged
     c_bands:  1 eigenvalues not converged
     c_bands:  1 eigenvalues not converged
     c_bands:  1 eigenvalues not converged
     c_bands:  3 eigenvalues not converged
     c_bands:  2 eigenvalues not converged
     c_bands:  1 eigenvalues not converged
     c_bands:  1 eigenvalues not converged
     c_bands:  1 eigenvalues not converged
     c_bands:  1 eigenvalues not converged
     c_bands:  1 eigenvalues not converged
     c_bands:  1 eigenvalues not converged
     c_bands:  2 eigenvalues not converged
     c_bands:  1 eigenvalues not converged
     c_bands:  2 eigenvalues not converged
     c_bands:  1 eigenvalues not converged
     c_bands:  1 eigenvalues not converged
     c_bands:  3 eigenvalues not converged
     c_bands:  2 eigenvalues not converged
     c_bands:  2 eigenvalues not converged
     c_bands:  2 eigenvalues not converged
     c_bands:  1 eigenvalues not converged
     c_bands:  1 eigenvalues not converged
     c_bands:  4 eigenvalues not converged
     c_bands:  1 eigenvalues not converged
     c_bands:  1 eigenvalues not converged
     c_bands:  1 eigenvalues not converged
     c_bands:  2 eigenvalues not converged
     c_bands:  1 eigenvalues not converged
     c_bands:  3 eigenvalues not converged
     c_bands:  2 eigenvalues not converged
     c_bands:  1 eigenvalues not converged
     c_bands:  1 eigenvalues not converged
     c_bands:  1 eigenvalues not converged
     ethr =  1.00E-06,  avg # of iterations =  9.1

     total cpu time spent up to now is      726.2 secs

     total energy              =   -1299.17470700 Ry
     Harris-Foulkes estimate   =   -1299.39197036 Ry
     estimated scf accuracy    <       0.30031837 Ry

     iteration #  2     ecut=    40.00 Ry     beta=0.70
     CG style diagonalization
     ethr =  2.71E-04,  avg # of iterations =  3.8

     total cpu time spent up to now is      751.5 secs

     total energy              =   -1299.21077656 Ry
     Harris-Foulkes estimate   =   -1299.27874565 Ry
     estimated scf accuracy    <       0.10064851 Ry

     iteration #  3     ecut=    40.00 Ry     beta=0.70
     CG style diagonalization
     ethr =  9.07E-05,  avg # of iterations =  3.6

     total cpu time spent up to now is      775.2 secs

     total energy              =   -1299.23700549 Ry
     Harris-Foulkes estimate   =   -1299.26792057 Ry
     estimated scf accuracy    <       0.07156070 Ry

     iteration #  4     ecut=    40.00 Ry     beta=0.70
     CG style diagonalization
     ethr =  6.45E-05,  avg # of iterations =  3.3

     total cpu time spent up to now is      796.5 secs

     total energy              =   -1299.25079013 Ry
     Harris-Foulkes estimate   =   -1299.25325984 Ry
     estimated scf accuracy    <       0.00584690 Ry

     iteration #  5     ecut=    40.00 Ry     beta=0.70
     CG style diagonalization
     c_bands:  1 eigenvalues not converged
     ethr =  5.27E-06,  avg # of iterations =  3.4

     total cpu time spent up to now is      818.7 secs

     total energy              =   -1299.25186394 Ry
     Harris-Foulkes estimate   =   -1299.25190705 Ry
     estimated scf accuracy    <       0.00008358 Ry

     iteration #  6     ecut=    40.00 Ry     beta=0.70
     CG style diagonalization
     ethr =  7.53E-08,  avg # of iterations =  4.0

     total cpu time spent up to now is      844.4 secs

     total energy              =   -1299.25190449 Ry
     Harris-Foulkes estimate   =   -1299.25191311 Ry
     estimated scf accuracy    <       0.00001709 Ry

     iteration #  7     ecut=    40.00 Ry     beta=0.70
     CG style diagonalization
     ethr =  1.54E-08,  avg # of iterations =  3.3

     total cpu time spent up to now is      865.1 secs

     End of self-consistent calculation

     Number of k-points >= 100: set verbosity='high' to print the bands.

     the Fermi energy is    26.1343 ev

!    total energy              =   -1299.25190705 Ry
     Harris-Foulkes estimate   =   -1299.25190773 Ry
     estimated scf accuracy    <       0.00000091 Ry

     The total energy is the sum of the following terms:

     one-electron contribution =    -208.07191766 Ry
     hartree contribution      =     192.49097472 Ry
     xc contribution           =    -127.22870045 Ry
     ewald contribution        =   -1156.23524841 Ry
     smearing contrib. (-TS)   =      -0.20701525 Ry

     convergence has been achieved in   7 iterations

     Forces acting on atoms (Ry/au):

     atom    1 type  1   force =     0.00000000    0.00000000    0.00000000
     atom    2 type  2   force =     0.00000000    0.00000000    0.00000000
     atom    3 type  2   force =     0.00000000    0.00000000    0.00000000
     atom    4 type  2   force =     0.00000000    0.00000000    0.00000000
     atom    5 type  2   force =     0.00000000    0.00000000    0.00000000
     atom    6 type  2   force =     0.00000000    0.00000000    0.00000000

     Total force =     0.000000     Total SCF correction =     0.000000


     entering subroutine stress ...

          total   stress  (Ry/bohr**3)                   (kbar)     P=  -15.25
  -0.00007100   0.00000000   0.00000000        -10.44      0.00      0.00
   0.00000000  -0.00007100   0.00000000          0.00    -10.44      0.00
   0.00000000   0.00000000  -0.00016909          0.00      0.00    -24.87


     number of scf cycles    =   3
     number of bfgs steps    =   2

     enthalpy old            =   -1299.2381329103 Ry
     enthalpy new            =   -1299.2519070457 Ry

     CASE: enthalpy_new < enthalpy_old

     Message from routine bfgs:
     history already reset at previous step: stopping
     small trust_radius: resetting bfgs history

     new trust radius        =       0.0233111112 bohr
     new conv_thr            =       0.0000010000 Ry

     new unit-cell volume =    754.33220 a.u.^3 (   111.78050 Ang^3 )

CELL_PARAMETERS (alat=  9.64829493)
   1.046244404   0.000000000   0.000000000
  -0.523122202   0.906074232   0.000000000
   0.000000000   0.000000000   0.885959786

ATOMIC_POSITIONS (crystal)
Ca       0.000000000   0.000000000   0.000000000
Cu       0.333333000   0.666667000   0.000000000
Cu       0.666667000   0.333333000   0.000000000
Cu       0.500000000   0.000000000   0.500000000
Cu       0.500000000   0.500000000   0.500000000
Cu       0.000000000   0.500000000   0.500000000



     Writing output data file Prototype-La-hP6-CaCu5.save
     NEW-OLD atomic charge density approx. for the potential
     NEW k-points: (use verbosity='high' to print them)

     total cpu time spent up to now is      872.4 secs

     Self-consistent Calculation

     iteration #  1     ecut=    40.00 Ry     beta=0.70
     CG style diagonalization
     c_bands:  1 eigenvalues not converged
     c_bands:  1 eigenvalues not converged
     c_bands:  1 eigenvalues not converged
     ethr =  1.00E-06,  avg # of iterations =  5.7

     total cpu time spent up to now is      910.1 secs

     total energy              =   -1299.24259187 Ry
     Harris-Foulkes estimate   =   -1299.26181366 Ry
     estimated scf accuracy    <       0.02454336 Ry

     iteration #  2     ecut=    40.00 Ry     beta=0.70
     CG style diagonalization
     ethr =  2.21E-05,  avg # of iterations =  3.8

     total cpu time spent up to now is      935.7 secs

     total energy              =   -1299.24882882 Ry
     Harris-Foulkes estimate   =   -1299.25497996 Ry
     estimated scf accuracy    <       0.01034372 Ry

     iteration #  3     ecut=    40.00 Ry     beta=0.70
     CG style diagonalization
     ethr =  9.32E-06,  avg # of iterations =  3.4

     total cpu time spent up to now is      958.0 secs

     total energy              =   -1299.25114784 Ry
     Harris-Foulkes estimate   =   -1299.25218083 Ry
     estimated scf accuracy    <       0.00211513 Ry

     iteration #  4     ecut=    40.00 Ry     beta=0.70
     CG style diagonalization
     c_bands:  1 eigenvalues not converged
     ethr =  1.91E-06,  avg # of iterations =  3.4

     total cpu time spent up to now is      980.5 secs

     total energy              =   -1299.25163618 Ry
     Harris-Foulkes estimate   =   -1299.25172766 Ry
     estimated scf accuracy    <       0.00018900 Ry

     iteration #  5     ecut=    40.00 Ry     beta=0.70
     CG style diagonalization
     ethr =  1.70E-07,  avg # of iterations =  3.3

     total cpu time spent up to now is     1004.7 secs

     total energy              =   -1299.25168178 Ry
     Harris-Foulkes estimate   =   -1299.25169264 Ry
     estimated scf accuracy    <       0.00002194 Ry

     iteration #  6     ecut=    40.00 Ry     beta=0.70
     CG style diagonalization
     ethr =  1.98E-08,  avg # of iterations =  3.2

     total cpu time spent up to now is     1026.4 secs

     End of self-consistent calculation

     Number of k-points >= 100: set verbosity='high' to print the bands.

     the Fermi energy is    26.3957 ev

!    total energy              =   -1299.25168567 Ry
     Harris-Foulkes estimate   =   -1299.25168586 Ry
     estimated scf accuracy    <       0.00000025 Ry

     The total energy is the sum of the following terms:

     one-electron contribution =    -203.88010687 Ry
     hartree contribution      =     191.31482956 Ry
     xc contribution           =    -127.30392660 Ry
     ewald contribution        =   -1159.17752557 Ry
     smearing contrib. (-TS)   =      -0.20495618 Ry

     convergence has been achieved in   6 iterations

     Forces acting on atoms (Ry/au):

     atom    1 type  1   force =     0.00000000    0.00000000    0.00000000
     atom    2 type  2   force =     0.00000000    0.00000000    0.00000000
     atom    3 type  2   force =     0.00000000    0.00000000    0.00000000
     atom    4 type  2   force =     0.00000000    0.00000000    0.00000000
     atom    5 type  2   force =     0.00000000    0.00000000    0.00000000
     atom    6 type  2   force =     0.00000000    0.00000000    0.00000000

     Total force =     0.000000     Total SCF correction =     0.000000


     entering subroutine stress ...

          total   stress  (Ry/bohr**3)                   (kbar)     P=   27.77
   0.00016962   0.00000000   0.00000000         24.95      0.00      0.00
   0.00000000   0.00016962   0.00000000          0.00     24.95      0.00
   0.00000000   0.00000000   0.00022715          0.00      0.00     33.42


     The maximum number of steps has been reached.

     End of BFGS Geometry Optimization
Begin final coordinates
     new unit-cell volume =    754.33220 a.u.^3 (   111.78050 Ang^3 )

CELL_PARAMETERS (alat=  9.64829493)
   1.046244404   0.000000000   0.000000000
  -0.523122202   0.906074232   0.000000000
   0.000000000   0.000000000   0.885959786

ATOMIC_POSITIONS (crystal)
Ca       0.000000000   0.000000000   0.000000000
Cu       0.333333000   0.666667000   0.000000000
Cu       0.666667000   0.333333000   0.000000000
Cu       0.500000000   0.000000000   0.500000000
Cu       0.500000000   0.500000000   0.500000000
Cu       0.000000000   0.500000000   0.500000000
End final coordinates



     A final scf calculation at the relaxed structure.
     The G-vectors are recalculated for the final unit cell
     Results may differ from those at the preceding step.
 
     Parallelization info
     --------------------
     sticks:   dense  smooth     PW     G-vecs:    dense   smooth      PW
     Min         283     283     84                 6445     6445    1056
     Max         285     285     85                 6446     6446    1059
     Sum        1135    1135    337                25781    25781    4231
 


     bravais-lattice index     =            0
     lattice parameter (alat)  =       9.6483  a.u.
     unit-cell volume          =     754.3322 (a.u.)^3
     number of atoms/cell      =            6
     number of atomic types    =            2
     number of electrons       =       111.00
     number of Kohn-Sham states=           67
     kinetic-energy cutoff     =      40.0000  Ry
     charge density cutoff     =     160.0000  Ry
     convergence threshold     =      1.0E-06
     mixing beta               =       0.7000
     number of iterations used =            8  plain     mixing
     Exchange-correlation      = SLA-PZ-NOGX-NOGC ( 1 1 0 0 0)
     EXX-fraction              =        0.00

     celldm(1)=   9.648295  celldm(2)=   0.000000  celldm(3)=   0.000000
     celldm(4)=   0.000000  celldm(5)=   0.000000  celldm(6)=   0.000000

     crystal axes: (cart. coord. in units of alat)
               a(1) = (   1.046244   0.000000   0.000000 )  
               a(2) = (  -0.523122   0.906074   0.000000 )  
               a(3) = (   0.000000   0.000000   0.885960 )  

     reciprocal axes: (cart. coord. in units 2 pi/alat)
               b(1) = (  0.955800  0.551831  0.000000 )  
               b(2) = (  0.000000  1.103662  0.000000 )  
               b(3) = (  0.000000  0.000000  1.128719 )  


     PseudoPot. # 1 for Ho read from file:
     /home/cwx6513/pp.La/Ho.UPF
     MD5 check sum: f307ee11bce99f5b724fa279e3790763
     Pseudo is Norm-conserving, Zval = 21.0
     Generated in analytical, separable form
     Using radial grid of 1265 points,  6 beta functions with: 
                l(1) =   0
                l(2) =   0
                l(3) =   1
                l(4) =   1
                l(5) =   2
                l(6) =   3

     PseudoPot. # 2 for Gd read from file:
     /home/cwx6513/pp.La/Gd.UPF
     MD5 check sum: 09a8be538722f05520810cb6aac0efd2
     Pseudo is Norm-conserving, Zval = 18.0
     Generated in analytical, separable form
     Using radial grid of 1263 points,  6 beta functions with: 
                l(1) =   0
                l(2) =   0
                l(3) =   1
                l(4) =   1
                l(5) =   2
                l(6) =   3

     atomic species   valence    mass     pseudopotential
        Ca            21.00    40.07800     Ho( 1.00)
        Cu            18.00    63.54600     Gd( 1.00)

     24 Sym. Ops., with inversion, found



   Cartesian axes

     site n.     atom                  positions (alat units)
         1           Ca  tau(   1) = (   0.0000000   0.0000000   0.0000000  )
         2           Cu  tau(   2) = (  -0.0000005   0.6040498   0.0000000  )
         3           Cu  tau(   3) = (   0.5231227   0.3020244   0.0000000  )
         4           Cu  tau(   4) = (   0.5231222   0.0000000   0.4429799  )
         5           Cu  tau(   5) = (   0.2615611   0.4530371   0.4429799  )
         6           Cu  tau(   6) = (  -0.2615611   0.4530371   0.4429799  )

     number of k points=   110  gaussian smearing, width (Ry)=  0.1000

     Number of k-points >= 100: set verbosity='high' to print them.

     Dense  grid:    25781 G-vectors     FFT dimensions: (  45,  45,  36)

     Largest allocated arrays     est. size (Mb)     dimensions
        Kohn-Sham Wavefunctions         0.85 Mb     (    828,   67)
        NL pseudopotentials             1.52 Mb     (    828,  120)
        Each V/rho on FFT grid          0.28 Mb     (  18225)
        Each G-vector array             0.05 Mb     (   6446)
        G-vector shells                 0.01 Mb     (   1129)
     Largest temporary arrays     est. size (Mb)     dimensions
        Each subspace H/S matrix        0.07 Mb     (  67,  67)
        Each <psi_i|beta_j> matrix      0.12 Mb     (    120,   67)
        Arrays for rho mixing           2.22 Mb     (  18225,   8)

     Initial potential from superposition of free atoms

     Starting from uniform charge
     Starting wfc are    0 randomized atomic wfcs

     Writing output data file Prototype-La-hP6-CaCu5.save

     total cpu time spent up to now is     1040.3 secs

     Self-consistent Calculation

     iteration #  1     ecut=    40.00 Ry     beta=0.70
     CG style diagonalization
     c_bands:  7 eigenvalues not converged
     c_bands:  6 eigenvalues not converged
     c_bands:  5 eigenvalues not converged
     c_bands:  5 eigenvalues not converged
     c_bands:  5 eigenvalues not converged
     c_bands:  6 eigenvalues not converged
     c_bands:  7 eigenvalues not converged
     c_bands:  6 eigenvalues not converged
     c_bands:  8 eigenvalues not converged
     c_bands:  5 eigenvalues not converged
     c_bands:  5 eigenvalues not converged
     c_bands:  4 eigenvalues not converged
     c_bands:  6 eigenvalues not converged
     c_bands:  6 eigenvalues not converged
     c_bands:  6 eigenvalues not converged
     c_bands:  5 eigenvalues not converged
     c_bands:  6 eigenvalues not converged
     c_bands:  6 eigenvalues not converged
     c_bands:  6 eigenvalues not converged
     c_bands:  7 eigenvalues not converged
     c_bands:  5 eigenvalues not converged
     c_bands:  7 eigenvalues not converged
     c_bands:  6 eigenvalues not converged
     c_bands:  5 eigenvalues not converged
     c_bands:  7 eigenvalues not converged
     c_bands:  6 eigenvalues not converged
     c_bands:  7 eigenvalues not converged
     c_bands:  6 eigenvalues not converged
     c_bands:  5 eigenvalues not converged
     c_bands:  5 eigenvalues not converged
     c_bands:  5 eigenvalues not converged
     c_bands:  5 eigenvalues not converged
     c_bands:  6 eigenvalues not converged
     c_bands:  6 eigenvalues not converged
     c_bands:  4 eigenvalues not converged
     c_bands:  5 eigenvalues not converged
     c_bands:  7 eigenvalues not converged
     c_bands:  6 eigenvalues not converged
     c_bands:  5 eigenvalues not converged
     c_bands:  5 eigenvalues not converged
     c_bands:  5 eigenvalues not converged
     c_bands:  6 eigenvalues not converged
     c_bands:  6 eigenvalues not converged
     c_bands:  6 eigenvalues not converged
     c_bands:  5 eigenvalues not converged
     c_bands:  7 eigenvalues not converged
     c_bands:  6 eigenvalues not converged
     c_bands:  7 eigenvalues not converged
     c_bands:  6 eigenvalues not converged
     c_bands:  6 eigenvalues not converged
     c_bands:  6 eigenvalues not converged
     c_bands:  7 eigenvalues not converged
     c_bands:  5 eigenvalues not converged
     c_bands:  6 eigenvalues not converged
     c_bands:  4 eigenvalues not converged
     c_bands:  5 eigenvalues not converged
     c_bands:  4 eigenvalues not converged
     c_bands:  4 eigenvalues not converged
     c_bands:  5 eigenvalues not converged
     c_bands:  6 eigenvalues not converged
     c_bands:  5 eigenvalues not converged
     c_bands:  6 eigenvalues not converged
     c_bands:  7 eigenvalues not converged
     c_bands:  5 eigenvalues not converged
     c_bands:  5 eigenvalues not converged
     c_bands:  6 eigenvalues not converged
     c_bands:  7 eigenvalues not converged
     c_bands:  7 eigenvalues not converged
     c_bands:  6 eigenvalues not converged
     c_bands:  5 eigenvalues not converged
     c_bands:  7 eigenvalues not converged
     c_bands:  7 eigenvalues not converged
     c_bands:  6 eigenvalues not converged
     c_bands:  6 eigenvalues not converged
     c_bands:  4 eigenvalues not converged
     c_bands:  5 eigenvalues not converged
     c_bands:  7 eigenvalues not converged
     c_bands:  5 eigenvalues not converged
     c_bands:  6 eigenvalues not converged
     c_bands:  7 eigenvalues not converged
     c_bands:  7 eigenvalues not converged
     c_bands:  6 eigenvalues not converged
     c_bands:  6 eigenvalues not converged
     c_bands:  6 eigenvalues not converged
     c_bands:  5 eigenvalues not converged
     c_bands:  6 eigenvalues not converged
     c_bands:  7 eigenvalues not converged
     c_bands:  6 eigenvalues not converged
     c_bands:  5 eigenvalues not converged
     c_bands:  6 eigenvalues not converged
     c_bands:  5 eigenvalues not converged
     c_bands:  7 eigenvalues not converged
     c_bands:  6 eigenvalues not converged
     c_bands:  6 eigenvalues not converged
     c_bands:  7 eigenvalues not converged
     c_bands:  5 eigenvalues not converged
     c_bands:  6 eigenvalues not converged
     c_bands:  5 eigenvalues not converged
     c_bands:  6 eigenvalues not converged
     c_bands:  6 eigenvalues not converged
     c_bands:  6 eigenvalues not converged
     c_bands:  6 eigenvalues not converged
     c_bands:  6 eigenvalues not converged
     c_bands:  6 eigenvalues not converged
     c_bands:  5 eigenvalues not converged
     c_bands:  5 eigenvalues not converged
     c_bands:  6 eigenvalues not converged
     c_bands:  7 eigenvalues not converged
     c_bands:  6 eigenvalues not converged
     c_bands:  5 eigenvalues not converged
     ethr =  1.00E-06,  avg # of iterations = 67.2

     total cpu time spent up to now is     1663.1 secs

     total energy              =   -1204.57031088 Ry
     Harris-Foulkes estimate   =   -1576.96538498 Ry
     estimated scf accuracy    <     478.56811495 Ry

     iteration #  2     ecut=    40.00 Ry     beta=0.70
     CG style diagonalization
     c_bands:  1 eigenvalues not converged
     c_bands:  1 eigenvalues not converged
     c_bands:  1 eigenvalues not converged
     c_bands:  1 eigenvalues not converged
     c_bands:  1 eigenvalues not converged
     c_bands:  1 eigenvalues not converged
     ethr =  1.00E-02,  avg # of iterations =  8.0

     total cpu time spent up to now is     1740.7 secs

     total energy              =   -1294.94711283 Ry
     Harris-Foulkes estimate   =   -1309.92085791 Ry
     estimated scf accuracy    <      22.02559018 Ry

     iteration #  3     ecut=    40.00 Ry     beta=0.70
     CG style diagonalization
     ethr =  1.00E-02,  avg # of iterations =  4.1

     total cpu time spent up to now is     1779.8 secs

     total energy              =   -1299.50804337 Ry
     Harris-Foulkes estimate   =   -1300.57034728 Ry
     estimated scf accuracy    <       1.53590014 Ry

     iteration #  4     ecut=    40.00 Ry     beta=0.70
     CG style diagonalization
     ethr =  1.38E-03,  avg # of iterations =  3.9

     total cpu time spent up to now is     1816.7 secs

     total energy              =   -1299.72310442 Ry
     Harris-Foulkes estimate   =   -1300.17805535 Ry
     estimated scf accuracy    <       0.81306049 Ry

     iteration #  5     ecut=    40.00 Ry     beta=0.70
     CG style diagonalization
     c_bands:  1 eigenvalues not converged
     ethr =  7.32E-04,  avg # of iterations =  3.6

     total cpu time spent up to now is     1849.0 secs

     total energy              =   -1299.90106795 Ry
     Harris-Foulkes estimate   =   -1300.01375887 Ry
     estimated scf accuracy    <       0.24637532 Ry

     iteration #  6     ecut=    40.00 Ry     beta=0.70
     CG style diagonalization
     c_bands:  1 eigenvalues not converged
     ethr =  2.22E-04,  avg # of iterations =  3.5

     total cpu time spent up to now is     1882.8 secs

     total energy              =   -1299.95593158 Ry
     Harris-Foulkes estimate   =   -1299.96413037 Ry
     estimated scf accuracy    <       0.01571971 Ry

     iteration #  7     ecut=    40.00 Ry     beta=0.70
     CG style diagonalization
     c_bands:  2 eigenvalues not converged
     c_bands:  1 eigenvalues not converged
     c_bands:  1 eigenvalues not converged
     c_bands:  1 eigenvalues not converged
     c_bands:  2 eigenvalues not converged
     c_bands:  1 eigenvalues not converged
     c_bands:  1 eigenvalues not converged
     c_bands:  1 eigenvalues not converged
     c_bands:  1 eigenvalues not converged
     c_bands:  1 eigenvalues not converged
     c_bands:  1 eigenvalues not converged
     c_bands:  1 eigenvalues not converged
     c_bands:  1 eigenvalues not converged
     c_bands:  1 eigenvalues not converged
     c_bands:  1 eigenvalues not converged
     c_bands:  1 eigenvalues not converged
     c_bands:  1 eigenvalues not converged
     c_bands:  1 eigenvalues not converged
     c_bands:  2 eigenvalues not converged
     c_bands:  1 eigenvalues not converged
     c_bands:  1 eigenvalues not converged
     ethr =  1.42E-05,  avg # of iterations =  3.9

     total cpu time spent up to now is     1919.8 secs

     total energy              =   -1299.95959892 Ry
     Harris-Foulkes estimate   =   -1299.96164794 Ry
     estimated scf accuracy    <       0.00351105 Ry

     iteration #  8     ecut=    40.00 Ry     beta=0.70
     CG style diagonalization
     c_bands:  1 eigenvalues not converged
     c_bands:  1 eigenvalues not converged
     c_bands:  1 eigenvalues not converged
     c_bands:  1 eigenvalues not converged
     c_bands:  1 eigenvalues not converged
     c_bands:  1 eigenvalues not converged
     c_bands:  1 eigenvalues not converged
     c_bands:  1 eigenvalues not converged
     c_bands:  1 eigenvalues not converged
     c_bands:  1 eigenvalues not converged
     c_bands:  1 eigenvalues not converged
     c_bands:  1 eigenvalues not converged
     c_bands:  1 eigenvalues not converged
     c_bands:  1 eigenvalues not converged
     ethr =  3.16E-06,  avg # of iterations =  3.8

     total cpu time spent up to now is     1956.7 secs

     total energy              =   -1299.96052672 Ry
     Harris-Foulkes estimate   =   -1299.96068258 Ry
     estimated scf accuracy    <       0.00027263 Ry

     iteration #  9     ecut=    40.00 Ry     beta=0.70
     CG style diagonalization
     c_bands:  1 eigenvalues not converged
     c_bands:  1 eigenvalues not converged
     ethr =  2.46E-07,  avg # of iterations =  3.8

     total cpu time spent up to now is     1991.3 secs

     total energy              =   -1299.96062318 Ry
     Harris-Foulkes estimate   =   -1299.96064287 Ry
     estimated scf accuracy    <       0.00003575 Ry

     iteration # 10     ecut=    40.00 Ry     beta=0.70
     CG style diagonalization
     ethr =  3.22E-08,  avg # of iterations =  3.7

     total cpu time spent up to now is     2025.1 secs

     total energy              =   -1299.96063496 Ry
     Harris-Foulkes estimate   =   -1299.96063980 Ry
     estimated scf accuracy    <       0.00000944 Ry

     iteration # 11     ecut=    40.00 Ry     beta=0.70
     CG style diagonalization
     ethr =  8.51E-09,  avg # of iterations =  3.4

     total cpu time spent up to now is     2056.9 secs

     End of self-consistent calculation

     Number of k-points >= 100: set verbosity='high' to print the bands.

     the Fermi energy is    26.3791 ev

!    total energy              =   -1299.96063709 Ry
     Harris-Foulkes estimate   =   -1299.96063713 Ry
     estimated scf accuracy    <       0.00000004 Ry

     The total energy is the sum of the following terms:

     one-electron contribution =    -204.81997919 Ry
     hartree contribution      =     191.62336916 Ry
     xc contribution           =    -127.38070069 Ry
     ewald contribution        =   -1159.17752539 Ry
     smearing contrib. (-TS)   =      -0.20580099 Ry

     convergence has been achieved in  11 iterations

     Forces acting on atoms (Ry/au):

     atom    1 type  1   force =     0.00000000    0.00000000    0.00000000
     atom    2 type  2   force =     0.00000000    0.00000000    0.00000000
     atom    3 type  2   force =     0.00000000    0.00000000    0.00000000
     atom    4 type  2   force =     0.00000000    0.00000000    0.00000000
     atom    5 type  2   force =     0.00000000    0.00000000    0.00000000
     atom    6 type  2   force =     0.00000000    0.00000000    0.00000000

     Total force =     0.000000     Total SCF correction =     0.000000


     entering subroutine stress ...

          total   stress  (Ry/bohr**3)                   (kbar)     P=  348.36
   0.00194481   0.00000000   0.00000000        286.09      0.00      0.00
   0.00000000   0.00194481   0.00000000          0.00    286.09      0.00
   0.00000000   0.00000000   0.00321471          0.00      0.00    472.90


     Writing output data file Prototype-La-hP6-CaCu5.save
 
     init_run     :     10.17s CPU     13.67s WALL (       2 calls)
     electrons    :   1662.30s CPU   2017.23s WALL (       5 calls)
     update_pot   :      1.64s CPU      1.67s WALL (       3 calls)
     forces       :      6.82s CPU      7.06s WALL (       5 calls)
     stress       :     19.10s CPU     19.47s WALL (       5 calls)

     Called by init_run:
     wfcinit      :      9.47s CPU     12.50s WALL (       2 calls)
     potinit      :      0.30s CPU      0.30s WALL (       2 calls)

     Called by electrons:
     c_bands      :   1599.27s CPU   1919.95s WALL (      40 calls)
     sum_band     :     62.72s CPU     81.86s WALL (      40 calls)
     v_of_rho     :      0.06s CPU      0.06s WALL (      45 calls)
     mix_rho      :      0.05s CPU      0.07s WALL (      40 calls)

     Called by c_bands:
     init_us_2    :      4.50s CPU      5.70s WALL (   10120 calls)
     ccgdiagg     :   1414.27s CPU   1670.69s WALL (    5163 calls)
     wfcrot       :    189.72s CPU    252.89s WALL (    5273 calls)

     Called by *cgdiagg:
     h_psi        :   1142.42s CPU   1425.20s WALL ( 1570444 calls)
     cdiaghg      :      9.39s CPU      9.92s WALL (    5273 calls)

     Called by h_psi:
     add_vuspsi   :     70.77s CPU    108.39s WALL ( 1570444 calls)

     General routines
     calbec       :    322.93s CPU    341.82s WALL ( 3136715 calls)
     fft          :      0.15s CPU      0.16s WALL (     203 calls)
     fftw         :    857.94s CPU   1056.89s WALL ( 4131724 calls)
     davcio       :      3.30s CPU      7.31s WALL (   14520 calls)
 
     Parallel routines
     fft_scatter  :    421.74s CPU    500.90s WALL ( 4131927 calls)
 
     PWSCF        : 28m21.02s CPU    34m23.10s WALL

 
   This run was terminated on:   1:30:23  23Mar2018            

=------------------------------------------------------------------------------=
   JOB DONE.
=------------------------------------------------------------------------------=
