
     Program PWSCF v.5.0.2 starts on 23Mar2018 at  0:55:59 

     This program is part of the open-source Quantum ESPRESSO suite
     for quantum simulation of materials; please cite
         "P. Giannozzi et al., J. Phys.:Condens. Matter 21 395502 (2009);
          URL http://www.quantum-espresso.org", 
     in publications or presentations arising from this work. More details at
     http://www.quantum-espresso.org/quote.php

     Parallel version (MPI), running on     4 processors
     R & G space division:  proc/nbgrp/npool/nimage =       4

     Current dimensions of program PWSCF are:
     Max number of different atomic species (ntypx) = 10
     Max number of k-points (npk) =  40000
     Max angular momentum in pseudopotentials (lmaxx) =  3
     Waiting for input...
     Reading input from standard input

     Subspace diagonalization in iterative solution of the eigenvalue problem:
     a serial algorithm will be used

 
     Parallelization info
     --------------------
     sticks:   dense  smooth     PW     G-vecs:    dense   smooth      PW
     Min         267     267     77                11587    11587    1762
     Max         268     268     79                11596    11596    1765
     Sum        1069    1069    313                46361    46361    7055
 


     bravais-lattice index     =            0
     lattice parameter (alat)  =       9.9235  a.u.
     unit-cell volume          =    1361.0366 (a.u.)^3
     number of atoms/cell      =           12
     number of atomic types    =            2
     number of electrons       =       228.00
     number of Kohn-Sham states=          137
     kinetic-energy cutoff     =      40.0000  Ry
     charge density cutoff     =     160.0000  Ry
     convergence threshold     =      1.0E-04
     mixing beta               =       0.7000
     number of iterations used =            8  plain     mixing
     Exchange-correlation      = SLA-PZ-NOGX-NOGC ( 1 1 0 0 0)
     EXX-fraction              =        0.00
     nstep                     =           50


     celldm(1)=   9.923489  celldm(2)=   0.000000  celldm(3)=   0.000000
     celldm(4)=   0.000000  celldm(5)=   0.000000  celldm(6)=   0.000000

     crystal axes: (cart. coord. in units of alat)
               a(1) = (   1.000000   0.000000   0.000000 )  
               a(2) = (  -0.500000   0.866025   0.000000 )  
               a(3) = (   0.000000   0.000000   1.608222 )  

     reciprocal axes: (cart. coord. in units 2 pi/alat)
               b(1) = (  1.000000  0.577350  0.000000 )  
               b(2) = (  0.000000  1.154701  0.000000 )  
               b(3) = (  0.000000  0.000000  0.621805 )  


     PseudoPot. # 1 for Ho read from file:
     /home/cwx6513/pp.La/Ho.UPF
     MD5 check sum: f307ee11bce99f5b724fa279e3790763
     Pseudo is Norm-conserving, Zval = 21.0
     Generated in analytical, separable form
     Using radial grid of 1265 points,  6 beta functions with: 
                l(1) =   0
                l(2) =   0
                l(3) =   1
                l(4) =   1
                l(5) =   2
                l(6) =   3

     PseudoPot. # 2 for Gd read from file:
     /home/cwx6513/pp.La/Gd.UPF
     MD5 check sum: 09a8be538722f05520810cb6aac0efd2
     Pseudo is Norm-conserving, Zval = 18.0
     Generated in analytical, separable form
     Using radial grid of 1263 points,  6 beta functions with: 
                l(1) =   0
                l(2) =   0
                l(3) =   1
                l(4) =   1
                l(5) =   2
                l(6) =   3

     atomic species   valence    mass     pseudopotential
        Mg            21.00    24.30500     Ho( 1.00)
        Zn            18.00    65.39000     Gd( 1.00)

     24 Sym. Ops., with inversion, found (12 have fractional translation)



   Cartesian axes

     site n.     atom                  positions (alat units)
         1           Mg  tau(   1) = (  -0.0000005   0.5773506   0.1003820  )
         2           Mg  tau(   2) = (   0.5000005   0.2886748   0.9044931  )
         3           Mg  tau(   3) = (   0.5000005   0.2886748   1.5078402  )
         4           Mg  tau(   4) = (  -0.0000005   0.5773506   0.7037291  )
         5           Zn  tau(   5) = (   0.0000000   0.0000000   0.0000000  )
         6           Zn  tau(   6) = (   0.0000000   0.0000000   0.8041111  )
         7           Zn  tau(   7) = (   0.0000000   0.2950739   1.2061667  )
         8           Zn  tau(   8) = (   0.7444585   0.1475370   0.4020556  )
         9           Zn  tau(   9) = (   0.2555415   0.1475370   0.4020556  )
        10           Zn  tau(  10) = (   0.2444585   0.7184884   1.2061667  )
        11           Zn  tau(  11) = (  -0.2444585   0.7184884   1.2061667  )
        12           Zn  tau(  12) = (   0.5000000   0.5709515   0.4020556  )

     number of k points=    12  gaussian smearing, width (Ry)=  0.1000
                       cart. coord. in units 2pi/alat
        k(    1) = (   0.0000000   0.0000000   0.0000000), wk =   0.0833333
        k(    2) = (   0.0000000   0.0000000   0.1554512), wk =   0.1666667
        k(    3) = (   0.0000000   0.0000000  -0.3109023), wk =   0.0833333
        k(    4) = (   0.0000000   0.3849002   0.0000000), wk =   0.1666667
        k(    5) = (   0.0000000   0.3849002   0.1554512), wk =   0.3333333
        k(    6) = (   0.0000000   0.3849002  -0.3109023), wk =   0.1666667
        k(    7) = (  -0.5000000  -0.2886751   0.0000000), wk =   0.0833333
        k(    8) = (  -0.5000000  -0.2886751   0.1554512), wk =   0.1666667
        k(    9) = (  -0.5000000  -0.2886751  -0.3109023), wk =   0.0833333
        k(   10) = (  -0.5000000   0.0962250   0.0000000), wk =   0.1666667
        k(   11) = (  -0.5000000   0.0962250   0.1554512), wk =   0.3333333
        k(   12) = (  -0.5000000   0.0962250  -0.3109023), wk =   0.1666667

     Dense  grid:    46361 G-vectors     FFT dimensions: (  40,  40,  72)

     Largest allocated arrays     est. size (Mb)     dimensions
        Kohn-Sham Wavefunctions         3.09 Mb     (   1478,  137)
        NL pseudopotentials             5.41 Mb     (   1478,  240)
        Each V/rho on FFT grid          0.44 Mb     (  28800)
        Each G-vector array             0.09 Mb     (  11589)
        G-vector shells                 0.09 Mb     (  11589)
     Largest temporary arrays     est. size (Mb)     dimensions
        Each subspace H/S matrix        0.29 Mb     ( 137, 137)
        Each <psi_i|beta_j> matrix      0.50 Mb     (    240,  137)
        Arrays for rho mixing           3.52 Mb     (  28800,   8)

     Initial potential from superposition of free atoms

     Starting from uniform charge
     Starting wfc are    0 randomized atomic wfcs

     total cpu time spent up to now is        4.1 secs

     Self-consistent Calculation

     iteration #  1     ecut=    40.00 Ry     beta=0.70
     CG style diagonalization
     ethr =  1.00E-02,  avg # of iterations = 17.2

     total cpu time spent up to now is       78.0 secs

     total energy              =   -2557.32448911 Ry
     Harris-Foulkes estimate   =   -3300.38865675 Ry
     estimated scf accuracy    <     959.96461202 Ry

     iteration #  2     ecut=    40.00 Ry     beta=0.70
     CG style diagonalization
     c_bands:  1 eigenvalues not converged
     c_bands:  1 eigenvalues not converged
     ethr =  1.00E-02,  avg # of iterations =  9.3

     total cpu time spent up to now is      136.8 secs

     total energy              =   -2766.65542113 Ry
     Harris-Foulkes estimate   =   -2808.57215149 Ry
     estimated scf accuracy    <      59.96933763 Ry

     iteration #  3     ecut=    40.00 Ry     beta=0.70
     CG style diagonalization
     ethr =  1.00E-02,  avg # of iterations =  4.3

     total cpu time spent up to now is      162.3 secs

     total energy              =   -2781.12763575 Ry
     Harris-Foulkes estimate   =   -2786.99779082 Ry
     estimated scf accuracy    <      11.45376907 Ry

     iteration #  4     ecut=    40.00 Ry     beta=0.70
     CG style diagonalization
     ethr =  5.02E-03,  avg # of iterations =  3.4

     total cpu time spent up to now is      185.6 secs

     total energy              =   -2783.10503116 Ry
     Harris-Foulkes estimate   =   -2784.13901575 Ry
     estimated scf accuracy    <       1.73080487 Ry

     iteration #  5     ecut=    40.00 Ry     beta=0.70
     CG style diagonalization
     ethr =  7.59E-04,  avg # of iterations =  3.8

     total cpu time spent up to now is      212.6 secs

     total energy              =   -2783.52965433 Ry
     Harris-Foulkes estimate   =   -2783.90294700 Ry
     estimated scf accuracy    <       0.79175905 Ry

     iteration #  6     ecut=    40.00 Ry     beta=0.70
     CG style diagonalization
     c_bands:  1 eigenvalues not converged
     ethr =  3.47E-04,  avg # of iterations =  3.4

     total cpu time spent up to now is      231.7 secs

     total energy              =   -2783.63513275 Ry
     Harris-Foulkes estimate   =   -2783.68985569 Ry
     estimated scf accuracy    <       0.09873612 Ry

     iteration #  7     ecut=    40.00 Ry     beta=0.70
     CG style diagonalization
     c_bands:  1 eigenvalues not converged
     c_bands:  1 eigenvalues not converged
     ethr =  4.33E-05,  avg # of iterations =  3.9

     total cpu time spent up to now is      260.4 secs

     total energy              =   -2783.65716640 Ry
     Harris-Foulkes estimate   =   -2783.65930145 Ry
     estimated scf accuracy    <       0.00401874 Ry

     iteration #  8     ecut=    40.00 Ry     beta=0.70
     CG style diagonalization
     c_bands:  2 eigenvalues not converged
     c_bands:  1 eigenvalues not converged
     c_bands:  1 eigenvalues not converged
     c_bands:  2 eigenvalues not converged
     c_bands:  1 eigenvalues not converged
     c_bands:  1 eigenvalues not converged
     ethr =  1.76E-06,  avg # of iterations =  4.5

     total cpu time spent up to now is      300.1 secs

     total energy              =   -2783.65874712 Ry
     Harris-Foulkes estimate   =   -2783.65922876 Ry
     estimated scf accuracy    <       0.00109426 Ry

     iteration #  9     ecut=    40.00 Ry     beta=0.70
     CG style diagonalization
     c_bands:  2 eigenvalues not converged
     ethr =  4.80E-07,  avg # of iterations =  3.5

     total cpu time spent up to now is      327.5 secs

     End of self-consistent calculation

          k = 0.0000 0.0000 0.0000 (  5769 PWs)   bands (ev):

   -61.3443 -61.3391 -61.3317 -61.3155 -38.8165 -38.7444 -38.4032 -38.4031
   -38.4013 -38.4012 -38.3547 -38.2696 -25.5420 -25.5323 -25.5323 -25.5289
   -25.5087 -25.5087 -25.4773 -25.4587 -25.4587 -25.4518 -25.4518 -25.4508
   -11.6632 -11.3191 -10.7496 -10.3072 -10.3072 -10.2300 -10.2300 -10.0526
   -10.0526  -9.8274  -9.5138  -9.5137  -9.4284  -9.3977  -9.3977  -8.9367
    -8.9296  -8.8354  -8.8354  -8.8218  -8.8218  -8.8204  -8.7359  -8.7359
    17.5471  17.5622  17.5623  17.6956  17.7012  17.7013  17.9403  17.9403
    18.0116  18.0116  18.2721  18.4544  18.4544  18.4693  18.5738  18.5738
    18.6667  18.6668  18.7571  18.7571  18.7975  19.5725  19.9046  20.3141
    21.2624  21.6261  21.6261  21.9454  21.9454  22.1535  22.1535  22.3420
    22.5871  22.7067  23.0495  23.0496  24.2547  24.2547  24.3761  24.3761
    24.8639  24.8639  25.4736  26.0061  26.3526  26.3526  27.1512  27.3189
    27.6204  27.8878  27.8878  27.9012  27.9013  28.0160  28.0160  28.1015
    28.1016  29.0399  29.8178  29.8178  30.2007  30.2007  30.2169  31.4302
    31.6538  31.7104  31.7104  31.8350  31.8351  32.1498  32.1582  33.4738
    33.4740  33.8590  34.2672  34.8880  35.0873  35.0875  35.8689  37.3520
    37.3521  37.7488  37.9240  38.2194  38.2195  38.4173  38.4175  38.4583
    39.2813

          k = 0.0000 0.0000 0.1555 (  5780 PWs)   bands (ev):

   -61.3480 -61.3429 -61.3303 -61.3181 -38.8069 -38.7558 -38.4037 -38.4037
   -38.4023 -38.4022 -38.3396 -38.2825 -25.5339 -25.5324 -25.5231 -25.5231
   -25.5208 -25.5208 -25.4864 -25.4602 -25.4602 -25.4553 -25.4551 -25.4551
   -11.6304 -11.3999 -10.6205 -10.3027 -10.3027 -10.2518 -10.2518 -10.0165
    -9.9949  -9.9948  -9.6768  -9.6768  -9.2626  -9.2420  -9.2420  -8.9392
    -8.9358  -8.9145  -8.9145  -8.8725  -8.7814  -8.7814  -8.7424  -8.7424
    17.5172  17.6084  17.6084  17.6595  17.7315  17.7315  17.8785  17.8786
    17.9534  17.9534  18.3254  18.3553  18.5021  18.5021  18.5939  18.5939
    18.6625  18.6625  18.7196  18.7196  19.0502  19.7185  19.8013  20.4147
    21.0239  21.7143  21.7144  21.9241  21.9241  22.0566  22.2845  22.2845
    22.5345  22.6563  23.1852  23.1852  23.5727  23.5727  24.0002  24.0002
    25.7014  25.7014  26.0930  26.2490  26.5923  26.5923  27.0614  27.3594
    27.5724  27.8172  27.8172  27.8548  27.8548  28.0393  28.0393  28.0984
    28.0984  29.0812  29.6383  29.6383  30.0069  30.2461  30.2461  30.6476
    31.1342  31.1342  31.5697  31.5697  31.8019  32.1510  32.1564  33.4954
    34.3817  34.3818  34.4396  35.0769  35.3752  35.3753  36.4652  37.1907
    37.1908  37.4432  37.8683  37.8684  38.2120  38.6105  38.6107  38.8542
    39.1298

          k = 0.0000 0.0000-0.3109 (  5780 PWs)   bands (ev):

   -61.3429 -61.3429 -61.3257 -61.3256 -38.7857 -38.7857 -38.4007 -38.4007
   -38.4007 -38.4007 -38.3108 -38.3108 -25.5343 -25.5342 -25.5197 -25.5197
   -25.5197 -25.5197 -25.4839 -25.4839 -25.4521 -25.4521 -25.4521 -25.4520
   -11.5319 -11.5319 -10.3501 -10.3501 -10.2792 -10.2792 -10.2792 -10.2791
    -9.8532  -9.8531  -9.8531  -9.8531  -9.0573  -9.0573  -9.0573  -9.0573
    -9.0359  -9.0359  -8.9323  -8.9323  -8.7577  -8.7576  -8.7576  -8.7576
    17.5536  17.5536  17.7216  17.7216  17.7216  17.7217  17.8448  17.8448
    17.8448  17.8448  18.3283  18.3283  18.5925  18.5925  18.5925  18.5925
    18.6575  18.6575  18.6575  18.6575  19.5647  19.5647  19.9789  19.9789
    21.4180  21.4180  21.8498  21.8498  21.8498  21.8498  22.5636  22.5636
    22.7628  22.7628  22.7628  22.7628  23.5461  23.5461  23.5461  23.5461
    26.4391  26.4391  26.5184  26.5184  26.5184  26.5184  27.4649  27.4649
    27.7742  27.7742  27.7742  27.7742  28.0803  28.0803  28.0804  28.0804
    28.1340  28.1340  29.7691  29.7691  29.7691  29.7691  29.8243  29.8243
    31.1368  31.1368  31.1369  31.1369  32.1540  32.1541  32.7286  32.7286
    34.7652  34.7652  35.4562  35.4562  35.4563  35.4563  37.1125  37.1125
    37.1801  37.1801  37.1802  37.1802  39.0095  39.0101  39.0283  39.0283
    39.0284

          k = 0.0000 0.3849 0.0000 (  5787 PWs)   bands (ev):

   -61.3427 -61.3413 -61.3306 -61.3304 -38.7479 -38.6774 -38.5142 -38.4690
   -38.4030 -38.4009 -38.3551 -38.2385 -25.5380 -25.5372 -25.5275 -25.5255
   -25.5175 -25.5163 -25.4836 -25.4720 -25.4632 -25.4614 -25.4539 -25.4478
   -11.2813 -10.9620 -10.7131 -10.2912 -10.1734 -10.1267 -10.0491 -10.0249
    -9.9298  -9.7117  -9.6950  -9.6166  -9.5103  -9.4849  -9.4656  -9.2410
    -9.2339  -9.1435  -8.9796  -8.9072  -8.8556  -8.8322  -8.7851  -8.7409
    17.4093  17.5226  17.5842  17.6807  17.7534  17.7659  17.8635  17.8698
    17.9741  18.1108  18.1567  18.2189  18.2715  18.4181  18.4799  18.5769
    18.6023  18.7236  18.7858  18.8185  19.9433  20.6410  20.8420  21.2973
    21.3664  21.7801  22.2901  22.4392  22.5558  22.5657  22.8672  23.0361
    23.3614  23.3692  23.6416  23.9140  23.9177  24.0153  24.2383  24.2709
    24.5938  24.7685  24.8418  25.5701  25.6032  25.8760  25.9067  26.0427
    26.1990  26.8757  26.8818  27.3463  27.3922  27.6539  27.7397  27.9051
    28.0153  28.2958  28.5043  28.5811  28.6613  28.7545  30.0233  30.1875
    30.4936  30.6425  30.9708  31.3508  31.3732  31.5725  32.0485  34.0597
    34.2672  34.9752  35.5109  36.0638  36.8269  37.0296  37.6329  37.7756
    38.0448  38.2143  38.3737  38.4046  38.7041  38.9107  39.3116  39.5200
    39.7624

          k = 0.0000 0.3849 0.1555 (  5804 PWs)   bands (ev):

   -61.3484 -61.3433 -61.3364 -61.3329 -38.7387 -38.6892 -38.5116 -38.4827
   -38.4044 -38.4025 -38.3322 -38.2511 -25.5450 -25.5379 -25.5316 -25.5273
   -25.5204 -25.5198 -25.4879 -25.4840 -25.4632 -25.4609 -25.4584 -25.4490
   -11.2581 -11.0602 -10.5857 -10.3141 -10.1832 -10.0587 -10.0443 -10.0253
    -9.9165  -9.9075  -9.7686  -9.6745  -9.5123  -9.4244  -9.3430  -9.2445
    -9.1754  -9.1149  -8.9475  -8.9419  -8.9216  -8.8094  -8.7864  -8.7749
    17.4382  17.5439  17.6120  17.6527  17.6891  17.7267  17.8541  17.9012
    18.0024  18.0701  18.0916  18.3038  18.3165  18.4084  18.4969  18.5734
    18.6540  18.6844  18.7107  18.8172  20.1261  20.6628  20.7514  21.3036
    21.4730  21.7697  22.1243  22.4688  22.6212  22.6335  22.8192  22.9833
    23.0434  23.3478  23.5453  23.6162  23.8711  23.9511  24.1523  24.2157
    24.8213  24.9859  25.2129  25.4629  25.8988  26.1145  26.1381  26.2288
    26.4456  26.7142  26.7410  27.4044  27.4056  27.5535  27.6215  27.9074
    27.9269  28.0348  28.0704  28.6118  28.6454  28.6713  29.9309  30.2756
    30.3134  30.4216  30.7760  31.5804  31.9422  32.0292  32.1989  33.6564
    34.1001  35.2005  35.3689  35.9245  36.2334  37.3573  37.7091  37.8621
    37.9860  38.1200  38.3183  38.6344  38.8804  38.8948  39.6237  39.6614
    39.7057

          k = 0.0000 0.3849-0.3109 (  5816 PWs)   bands (ev):

   -61.3473 -61.3472 -61.3392 -61.3391 -38.7146 -38.7146 -38.5025 -38.5025
   -38.4044 -38.4044 -38.2870 -38.2870 -25.5414 -25.5414 -25.5300 -25.5300
   -25.5247 -25.5247 -25.4914 -25.4913 -25.4624 -25.4624 -25.4577 -25.4577
   -11.1831 -11.1831 -10.4094 -10.4094 -10.1131 -10.1131 -10.0314 -10.0314
    -9.9273  -9.9273  -9.8211  -9.8211  -9.4327  -9.4327  -9.2677  -9.2677
    -9.0485  -9.0485  -9.0268  -9.0268  -8.8564  -8.8564  -8.7923  -8.7923
    17.5292  17.5292  17.6076  17.6076  17.6719  17.6719  17.8962  17.8963
    17.9827  17.9828  18.2458  18.2459  18.3892  18.3892  18.5033  18.5034
    18.6886  18.6886  18.7426  18.7426  20.4695  20.4695  20.9304  20.9304
    21.8082  21.8082  22.1881  22.1882  22.5636  22.5636  22.8507  22.8507
    23.0787  23.0787  23.6187  23.6187  23.8350  23.8350  24.0347  24.0347
    25.1002  25.1002  25.6557  25.6557  26.0301  26.0301  26.3532  26.3532
    26.5947  26.5947  27.2123  27.2123  27.4407  27.4407  27.4903  27.4903
    27.8382  27.8382  28.1787  28.1787  28.6515  28.6515  29.8830  29.8830
    30.3914  30.3914  31.3396  31.3396  32.2647  32.2647  32.8763  32.8764
    34.3100  34.3100  36.1599  36.1600  36.3275  36.3276  37.7993  37.7993
    38.0331  38.0331  38.4173  38.4174  39.2281  39.2282  39.5601  39.5602
    40.0480

          k =-0.5000-0.2887 0.0000 (  5800 PWs)   bands (ev):

   -61.3466 -61.3434 -61.3380 -61.3283 -38.7037 -38.6441 -38.5655 -38.5057
   -38.4057 -38.4012 -38.3552 -38.2319 -25.5486 -25.5339 -25.5311 -25.5228
   -25.5189 -25.5028 -25.5009 -25.4858 -25.4630 -25.4623 -25.4599 -25.4457
   -11.1073 -10.7995 -10.6960 -10.3518 -10.1437 -10.0475 -10.0122  -9.8481
    -9.8214  -9.7331  -9.7145  -9.6738  -9.6286  -9.6013  -9.5171  -9.4728
    -9.3388  -9.2137  -9.0139  -8.9328  -8.8593  -8.8334  -8.7876  -8.7175
    17.4626  17.5183  17.5503  17.6311  17.6995  17.7009  17.7897  17.9804
    18.0050  18.0810  18.1016  18.1496  18.2003  18.4182  18.5713  18.5858
    18.6410  18.6647  18.7574  18.8733  20.8865  21.0352  21.1897  21.2301
    21.7543  21.7652  22.0007  22.3310  22.9390  22.9729  23.0578  23.5502
    23.5895  23.5949  23.5958  24.1371  24.2389  24.2712  24.4003  24.5229
    24.8183  24.8894  25.0454  25.1266  25.1922  25.3239  25.5929  25.9137
    26.0271  26.0572  26.4084  26.4332  26.6580  27.3469  27.5723  27.6466
    27.6710  27.8367  27.9171  27.9925  28.1651  28.4750  29.6000  30.1265
    30.3799  30.8320  30.9458  30.9809  31.2786  32.0758  32.5177  34.1159
    34.4619  35.8739  36.5878  36.7119  36.8424  37.0193  37.4163  37.7373
    38.5781  38.6020  38.6952  38.8399  38.9844  39.1359  39.2887  39.3129
    39.5720

          k =-0.5000-0.2887 0.1555 (  5822 PWs)   bands (ev):

   -61.3515 -61.3510 -61.3388 -61.3363 -38.6954 -38.6509 -38.5630 -38.5256
   -38.4065 -38.4037 -38.3293 -38.2468 -25.5452 -25.5437 -25.5364 -25.5268
   -25.5219 -25.5186 -25.5050 -25.4935 -25.4659 -25.4658 -25.4583 -25.4501
   -11.0870 -10.9090 -10.5717 -10.3679 -10.1220 -10.0199  -9.9900  -9.8931
    -9.8582  -9.8297  -9.7164  -9.6723  -9.6703  -9.6285  -9.4978  -9.4774
    -9.2400  -9.1561  -8.9727  -8.9554  -8.9210  -8.8126  -8.7915  -8.7545
    17.4873  17.5043  17.6125  17.6260  17.6780  17.6915  17.8045  17.8517
    17.8662  18.1011  18.2563  18.2593  18.2780  18.4195  18.5058  18.5612
    18.6593  18.6617  18.7583  18.7716  20.9467  21.0414  21.2249  21.3256
    21.6466  21.7023  22.1672  22.4016  22.8893  22.9552  23.0292  23.0936
    23.5287  23.5687  23.5748  24.0003  24.0294  24.5418  24.5481  24.5561
    24.9527  25.0157  25.0874  25.2403  25.2510  25.4049  25.4528  26.0254
    26.0893  26.2329  26.3854  26.4940  26.7758  27.0585  27.3405  27.5498
    27.6086  27.7578  27.7661  28.0246  28.0887  28.3716  30.0363  30.1518
    30.3714  30.5577  30.7687  31.1667  31.8390  32.1992  32.8131  33.3361
    34.6938  36.0304  36.1470  36.2642  36.4669  37.6127  37.6874  37.6985
    38.0830  38.3658  38.5077  38.6126  38.8491  39.1431  39.3560  39.6471
    39.9355

          k =-0.5000-0.2887-0.3109 (  5804 PWs)   bands (ev):

   -61.3434 -61.3433 -61.3371 -61.3371 -38.6710 -38.6710 -38.5490 -38.5490
   -38.4045 -38.4045 -38.2831 -38.2831 -25.5398 -25.5398 -25.5294 -25.5294
   -25.5119 -25.5118 -25.4890 -25.4890 -25.4628 -25.4627 -25.4602 -25.4601
   -11.0203 -11.0203 -10.4362 -10.4362 -10.0278 -10.0277  -9.9443  -9.9443
    -9.9190  -9.9190  -9.7011  -9.7011  -9.6562  -9.6561  -9.4802  -9.4802
    -9.0828  -9.0828  -9.0330  -9.0330  -8.8391  -8.8391  -8.7973  -8.7972
    17.5304  17.5304  17.6152  17.6153  17.6757  17.6757  17.7421  17.7421
    17.9965  17.9965  18.3708  18.3708  18.3744  18.3745  18.5127  18.5128
    18.6613  18.6613  18.6833  18.6833  21.0055  21.0055  21.4069  21.4069
    21.6297  21.6297  22.3412  22.3412  22.6034  22.6034  23.1138  23.1138
    23.5306  23.5306  23.8514  23.8514  24.1325  24.1325  24.6281  24.6282
    24.9326  24.9326  25.2322  25.2322  25.4458  25.4458  25.8403  25.8403
    26.3705  26.3705  26.4262  26.4262  26.9385  26.9385  27.1973  27.1973
    27.6191  27.6191  27.8224  27.8224  28.1616  28.1616  29.9208  29.9208
    30.4386  30.4386  31.7667  31.7667  32.2642  32.2643  32.4583  32.4583
    34.9498  34.9498  36.3689  36.3689  36.9203  36.9203  38.0445  38.0445
    38.0769  38.0770  38.6296  38.6297  38.8383  38.8384  39.3709  39.3711
    40.1553

          k =-0.5000 0.0962 0.0000 (  5827 PWs)   bands (ev):

   -61.3521 -61.3457 -61.3454 -61.3382 -38.7057 -38.6433 -38.5675 -38.5062
   -38.4065 -38.4038 -38.3571 -38.2319 -25.5505 -25.5447 -25.5386 -25.5325
   -25.5272 -25.5097 -25.4983 -25.4836 -25.4702 -25.4637 -25.4624 -25.4593
   -11.0799 -10.7812 -10.6959 -10.3954 -10.1906 -10.1354 -10.0730  -9.8479
    -9.8132  -9.7903  -9.6861  -9.6203  -9.5907  -9.5431  -9.5180  -9.3994
    -9.2691  -9.1910  -9.0056  -8.9161  -8.9143  -8.8894  -8.8539  -8.7245
    17.4542  17.5050  17.5866  17.6223  17.7052  17.7240  17.8522  17.9638
    17.9832  18.0673  18.1195  18.1399  18.1881  18.2699  18.3585  18.5389
    18.7727  18.7765  18.8387  18.9290  20.7353  21.1734  21.2186  21.4936
    21.7157  22.0723  22.1620  22.3117  22.6744  22.9672  23.0535  23.2176
    23.5044  23.6513  23.8102  23.8473  24.1523  24.2615  24.2622  24.3119
    24.3853  24.7881  24.8909  25.0893  25.3264  25.3383  25.4827  25.7345
    26.3394  26.3759  26.3786  26.7434  26.9758  26.9795  27.0154  27.7440
    27.7971  27.8598  28.4778  28.6798  28.6821  28.7249  29.7544  29.9754
    30.1068  30.1107  30.3710  30.9018  31.2437  32.6996  32.9266  34.4483
    34.7796  35.1495  35.8538  36.3684  36.6861  36.9108  37.2856  37.8475
    38.2436  38.4274  38.6687  38.7542  38.8958  38.9465  39.3174  39.4274
    39.5351

          k =-0.5000 0.0962 0.1555 (  5825 PWs)   bands (ev):

   -61.3520 -61.3465 -61.3420 -61.3391 -38.6963 -38.6519 -38.5630 -38.5253
   -38.4051 -38.4038 -38.3305 -38.2457 -25.5470 -25.5424 -25.5369 -25.5347
   -25.5249 -25.5122 -25.4948 -25.4915 -25.4676 -25.4637 -25.4616 -25.4584
   -11.0577 -10.8865 -10.5814 -10.4142 -10.1696 -10.0844 -10.0418  -9.9098
    -9.8284  -9.7983  -9.7883  -9.7299  -9.5822  -9.5749  -9.3972  -9.3342
    -9.2262  -9.1623  -8.9857  -8.9572  -8.9181  -8.8799  -8.8581  -8.7530
    17.4815  17.5217  17.5659  17.6198  17.6886  17.7380  17.8295  17.8994
    17.9543  18.0843  18.1207  18.2147  18.2334  18.2563  18.4599  18.4872
    18.7208  18.7853  18.8024  18.9049  20.8509  21.1603  21.2368  21.5444
    21.7021  21.8758  22.3123  22.4789  22.7943  22.8391  22.9202  23.0589
    23.3456  23.6019  23.7038  23.7650  23.9269  24.1298  24.2916  24.4427
    24.7014  24.7353  25.1068  25.1838  25.3458  25.5220  25.6479  25.8042
    26.2194  26.4552  26.5334  26.7890  26.8805  26.9767  27.2036  27.4293
    27.7670  27.8035  28.1817  28.3403  28.5782  28.6537  29.5685  29.6486
    30.2046  30.2890  30.7772  31.4273  32.0936  32.4398  33.0041  33.9228
    34.6619  34.9320  35.6065  36.0190  36.6857  37.2452  37.6239  37.7071
    37.9201  38.1359  38.3147  38.8114  39.0570  39.2122  39.4778  39.5722
    39.8379

          k =-0.5000 0.0962-0.3109 (  5824 PWs)   bands (ev):

   -61.3474 -61.3474 -61.3421 -61.3421 -38.6729 -38.6729 -38.5508 -38.5508
   -38.4043 -38.4043 -38.2827 -38.2827 -25.5437 -25.5437 -25.5352 -25.5352
   -25.5174 -25.5173 -25.4918 -25.4918 -25.4663 -25.4663 -25.4624 -25.4624
   -10.9924 -10.9924 -10.4696 -10.4696 -10.0635 -10.0634 -10.0006 -10.0006
    -9.8832  -9.8832  -9.7910  -9.7910  -9.5790  -9.5790  -9.3272  -9.3272
    -9.1273  -9.1273  -9.0159  -9.0159  -8.8785  -8.8785  -8.8307  -8.8307
    17.5285  17.5285  17.6041  17.6041  17.6462  17.6462  17.8765  17.8766
    17.9996  17.9996  18.1686  18.1687  18.3585  18.3585  18.4283  18.4284
    18.7100  18.7100  18.8510  18.8510  21.0444  21.0444  21.3974  21.3974
    21.8229  21.8229  22.4746  22.4746  22.6525  22.6525  22.9839  22.9839
    23.2955  23.2955  23.7175  23.7175  24.1513  24.1513  24.2969  24.2969
    24.6314  24.6314  25.3524  25.3524  25.5054  25.5054  26.0045  26.0045
    26.3322  26.3322  26.5582  26.5582  26.8858  26.8858  27.3828  27.3828
    27.7870  27.7870  27.9845  27.9845  28.3989  28.3989  29.4857  29.4857
    30.2971  30.2971  31.7525  31.7525  32.5567  32.5567  33.1244  33.1244
    34.3495  34.3495  35.7430  35.7430  37.1390  37.1390  37.5673  37.5674
    37.8957  37.8957  38.6105  38.6106  39.0349  39.0350  39.7344  39.7345
    40.0687

     the Fermi energy is    30.9444 ev

!    total energy              =   -2783.65894199 Ry
     Harris-Foulkes estimate   =   -2783.65900011 Ry
     estimated scf accuracy    <       0.00007366 Ry

     The total energy is the sum of the following terms:

     one-electron contribution =    -286.15071473 Ry
     hartree contribution      =     350.87174446 Ry
     xc contribution           =    -267.96980313 Ry
     ewald contribution        =   -2580.04473059 Ry
     smearing contrib. (-TS)   =      -0.36543799 Ry

     convergence has been achieved in   9 iterations

     Forces acting on atoms (Ry/au):

     atom    1 type  1   force =     0.00000000    0.00000000    0.02851184
     atom    2 type  1   force =     0.00000000    0.00000000    0.02851184
     atom    3 type  1   force =     0.00000000    0.00000000   -0.02851184
     atom    4 type  1   force =     0.00000000    0.00000000   -0.02851184
     atom    5 type  2   force =     0.00000000    0.00000000    0.00000000
     atom    6 type  2   force =     0.00000000    0.00000000    0.00000000
     atom    7 type  2   force =     0.00000000    0.01202177    0.00000000
     atom    8 type  2   force =    -0.01041116    0.00601088    0.00000000
     atom    9 type  2   force =     0.01041116    0.00601088    0.00000000
     atom   10 type  2   force =    -0.01041116   -0.00601088    0.00000000
     atom   11 type  2   force =     0.01041116   -0.00601088    0.00000000
     atom   12 type  2   force =     0.00000000   -0.01202177    0.00000000

     Total force =     0.064178     Total SCF correction =     0.000000


     entering subroutine stress ...

          total   stress  (Ry/bohr**3)                   (kbar)     P=  698.87
   0.00473919   0.00000000   0.00000000        697.16      0.00      0.00
   0.00000000   0.00473919   0.00000000          0.00    697.16      0.00
   0.00000000   0.00000000   0.00477408          0.00      0.00    702.29


     BFGS Geometry Optimization

     number of scf cycles    =   1
     number of bfgs steps    =   0

     enthalpy new            =   -2783.6589419903 Ry

     new trust radius        =       0.5000000000 bohr
     new conv_thr            =       0.0001000000 Ry

     new unit-cell volume =   1655.36542 a.u.^3 (   245.29984 Ang^3 )

CELL_PARAMETERS (alat=  9.92348860)
   1.067269754   0.000000000   0.000000000
  -0.533634877   0.924282720   0.000000000
   0.000000000   0.000000000   1.717203317

ATOMIC_POSITIONS (crystal)
Mg       0.333333000   0.666667000   0.063432356
Mg       0.666667000   0.333333000   0.563432356
Mg       0.666667000   0.333333000   0.936567644
Mg       0.333333000   0.666667000   0.436567644
Zn       0.000000000   0.000000000   0.000000000
Zn       0.000000000   0.000000000   0.500000000
Zn       0.170758118   0.341516235   0.750000000
Zn       0.829241882   0.170758118   0.250000000
Zn       0.341516235   0.170758118   0.250000000
Zn       0.658483765   0.829241882   0.750000000
Zn       0.170758118   0.829241882   0.750000000
Zn       0.829241882   0.658483765   0.250000000



     Writing output data file Prototype-La-hP12-MgZn2.save
     NEW-OLD atomic charge density approx. for the potential
     NEW k-points:
        k(    1) = (   0.0000000   0.0000000   0.0000000), wk =   0.0833333
        k(    2) = (   0.0000000   0.0000000   0.1455856), wk =   0.1666667
        k(    3) = (   0.0000000   0.0000000  -0.2911711), wk =   0.0833333
        k(    4) = (   0.0000000   0.3606400   0.0000000), wk =   0.1666667
        k(    5) = (   0.0000000   0.3606400   0.1455856), wk =   0.3333333
        k(    6) = (   0.0000000   0.3606400  -0.2911711), wk =   0.1666667
        k(    7) = (  -0.4684851  -0.2704800   0.0000000), wk =   0.0833333
        k(    8) = (  -0.4684851  -0.2704800   0.1455856), wk =   0.1666667
        k(    9) = (  -0.4684851  -0.2704800  -0.2911711), wk =   0.0833333
        k(   10) = (  -0.4684851   0.0901600   0.0000000), wk =   0.1666667
        k(   11) = (  -0.4684851   0.0901600   0.1455856), wk =   0.3333333
        k(   12) = (  -0.4684851   0.0901600  -0.2911711), wk =   0.1666667

     total cpu time spent up to now is      335.6 secs

     Self-consistent Calculation

     iteration #  1     ecut=    40.00 Ry     beta=0.70
     CG style diagonalization
     c_bands:  1 eigenvalues not converged
     c_bands:  1 eigenvalues not converged
     ethr =  1.00E-06,  avg # of iterations = 20.0

     total cpu time spent up to now is      418.2 secs

     total energy              =   -2770.82019960 Ry
     Harris-Foulkes estimate   =   -2797.18303552 Ry
     estimated scf accuracy    <      33.44834073 Ry

     iteration #  2     ecut=    40.00 Ry     beta=0.70
     CG style diagonalization
     ethr =  1.00E-02,  avg # of iterations =  4.0

     total cpu time spent up to now is      434.3 secs

     total energy              =   -2778.12303227 Ry
     Harris-Foulkes estimate   =   -2789.34594623 Ry
     estimated scf accuracy    <      19.68552248 Ry

     iteration #  3     ecut=    40.00 Ry     beta=0.70
     CG style diagonalization
     ethr =  8.63E-03,  avg # of iterations =  3.4

     total cpu time spent up to now is      448.0 secs

     total energy              =   -2782.99048735 Ry
     Harris-Foulkes estimate   =   -2784.86928172 Ry
     estimated scf accuracy    <       4.01158717 Ry

     iteration #  4     ecut=    40.00 Ry     beta=0.70
     CG style diagonalization
     ethr =  1.76E-03,  avg # of iterations =  3.4

     total cpu time spent up to now is      461.9 secs

     total energy              =   -2783.79215004 Ry
     Harris-Foulkes estimate   =   -2783.81393941 Ry
     estimated scf accuracy    <       0.04012924 Ry

     iteration #  5     ecut=    40.00 Ry     beta=0.70
     CG style diagonalization
     c_bands:  1 eigenvalues not converged
     ethr =  1.76E-05,  avg # of iterations =  4.3

     total cpu time spent up to now is      479.4 secs

     total energy              =   -2783.80893697 Ry
     Harris-Foulkes estimate   =   -2783.81960233 Ry
     estimated scf accuracy    <       0.02270517 Ry

     iteration #  6     ecut=    40.00 Ry     beta=0.70
     CG style diagonalization
     ethr =  9.96E-06,  avg # of iterations =  3.4

     total cpu time spent up to now is      493.1 secs

     total energy              =   -2783.81335188 Ry
     Harris-Foulkes estimate   =   -2783.81551351 Ry
     estimated scf accuracy    <       0.00489123 Ry

     iteration #  7     ecut=    40.00 Ry     beta=0.70
     CG style diagonalization
     ethr =  2.15E-06,  avg # of iterations =  3.5

     total cpu time spent up to now is      507.2 secs

     total energy              =   -2783.81436802 Ry
     Harris-Foulkes estimate   =   -2783.81468007 Ry
     estimated scf accuracy    <       0.00065283 Ry

     iteration #  8     ecut=    40.00 Ry     beta=0.70
     CG style diagonalization
     ethr =  2.86E-07,  avg # of iterations =  3.5

     total cpu time spent up to now is      520.8 secs

     End of self-consistent calculation

          k = 0.0000 0.0000 0.0000 (  5769 PWs)   bands (ev):

   -67.0587 -67.0407 -67.0343 -66.9902 -44.3335 -44.3203 -44.1690 -44.1689
   -44.1640 -44.1640 -44.1048 -44.0658 -31.3122 -31.3019 -31.3018 -31.2922
   -31.2756 -31.2755 -31.2655 -31.2531 -31.2531 -31.2429 -31.2429 -31.2335
   -16.3244 -16.1248 -15.7580 -15.5323 -15.5323 -15.4943 -15.4942 -15.3756
   -15.3755 -15.2563 -15.0946 -15.0946 -15.0514 -14.9994 -14.9994 -14.7702
   -14.7580 -14.7157 -14.7157 -14.6989 -14.6988 -14.6966 -14.6523 -14.6522
    12.1409  12.1409  12.1496  12.2099  12.2099  12.2118  12.3302  12.3302
    12.4045  12.4045  12.6547  12.6663  12.6663  12.7398  12.7399  12.7425
    12.8360  12.8360  12.8400  12.8400  14.2859  15.3552  15.6671  15.9824
    16.4044  17.1651  17.1893  17.1893  17.2713  17.2714  17.4558  17.4943
    17.4943  17.8663  18.1271  18.1271  19.0655  19.0655  19.0764  19.0764
    19.6086  19.6086  19.8612  20.3209  20.5718  20.5718  21.3858  21.5118
    21.6751  21.8382  21.8382  21.8884  21.8885  21.9570  21.9571  21.9703
    21.9704  22.6409  23.2747  23.2747  23.4292  23.6058  23.6058  24.7350
    24.8973  24.9009  24.9475  25.0338  25.0338  25.0804  25.0804  26.5368
    26.5601  26.5602  26.9932  27.7397  27.8314  27.8316  28.3527  29.7193
    29.7194  30.8105  31.0983  31.0984  31.4395  32.1986  32.1986  32.4144
    32.4212

          k = 0.0000 0.0000 0.1456 (  5780 PWs)   bands (ev):

   -67.0596 -67.0559 -67.0293 -66.9975 -44.3309 -44.3195 -44.1710 -44.1709
   -44.1672 -44.1672 -44.0966 -44.0776 -31.3035 -31.2996 -31.2912 -31.2912
   -31.2897 -31.2897 -31.2734 -31.2545 -31.2545 -31.2475 -31.2475 -31.2392
   -16.3042 -16.1654 -15.6968 -15.5319 -15.5319 -15.5041 -15.5041 -15.3548
   -15.3476 -15.3476 -15.1776 -15.1776 -14.9566 -14.9294 -14.9294 -14.7742
   -14.7682 -14.7478 -14.7478 -14.7241 -14.6848 -14.6848 -14.6592 -14.6592
    12.1454  12.1651  12.1652  12.1948  12.2333  12.2334  12.2975  12.2976
    12.3685  12.3685  12.6812  12.6917  12.6917  12.7365  12.7484  12.7484
    12.8256  12.8256  12.8342  12.8342  14.4433  15.4082  15.4260  15.8085
    16.4996  17.2231  17.2231  17.2721  17.2721  17.3137  17.3307  17.5967
    17.5967  17.7649  18.2209  18.2209  18.5308  18.5308  18.8540  18.8540
    20.1896  20.1896  20.3893  20.4016  20.8110  20.8111  21.2860  21.5343
    21.6497  21.7451  21.7451  21.8438  21.8438  21.9742  21.9743  21.9755
    21.9756  22.6898  23.1999  23.1999  23.3407  23.5734  23.5734  24.0088
    24.6011  24.6011  24.8905  24.8906  24.8977  24.9000  24.9772  26.1854
    27.2204  27.2205  27.2377  27.9686  28.1029  28.1030  29.1121  29.6326
    29.6326  30.3082  30.7320  30.7321  31.9494  32.1931  32.1931  32.2103
    32.6467

          k = 0.0000 0.0000-0.2912 (  5780 PWs)   bands (ev):

   -67.0544 -67.0544 -67.0150 -67.0149 -44.3349 -44.3349 -44.1621 -44.1620
   -44.1620 -44.1620 -44.0902 -44.0902 -31.3013 -31.3013 -31.2886 -31.2886
   -31.2885 -31.2885 -31.2738 -31.2738 -31.2437 -31.2437 -31.2437 -31.2437
   -16.2398 -16.2398 -15.5632 -15.5632 -15.5143 -15.5143 -15.5143 -15.5143
   -15.2666 -15.2666 -15.2666 -15.2666 -14.8284 -14.8284 -14.8284 -14.8284
   -14.8261 -14.8260 -14.7631 -14.7631 -14.6716 -14.6716 -14.6716 -14.6716
    12.1595  12.1595  12.2276  12.2276  12.2276  12.2276  12.2953  12.2953
    12.2953  12.2953  12.7178  12.7179  12.7365  12.7365  12.7366  12.7366
    12.8217  12.8217  12.8217  12.8217  14.8847  14.8847  15.5476  15.5476
    16.9324  16.9325  17.2618  17.2619  17.2619  17.2619  17.5419  17.5419
    17.9506  17.9506  17.9507  17.9507  18.4872  18.4872  18.4872  18.4872
    20.6812  20.6812  20.8178  20.8178  20.8179  20.8179  21.5920  21.5920
    21.7176  21.7176  21.7176  21.7176  21.9303  21.9304  21.9823  21.9823
    21.9824  21.9824  23.2850  23.2850  23.2871  23.2871  23.2871  23.2871
    24.5472  24.5472  24.5473  24.5473  24.8990  24.8990  25.5872  25.5872
    27.6730  27.6730  28.0714  28.0714  28.0715  28.0715  29.9282  29.9282
    29.9283  29.9283  30.0393  30.0393  32.1586  32.1586  32.1586  32.1587
    32.4275

          k = 0.0000 0.3606 0.0000 (  5787 PWs)   bands (ev):

   -67.0557 -67.0487 -67.0281 -67.0219 -44.3180 -44.2865 -44.2106 -44.1889
   -44.1683 -44.1622 -44.1058 -44.0679 -31.3045 -31.3015 -31.3014 -31.2930
   -31.2915 -31.2834 -31.2674 -31.2621 -31.2585 -31.2570 -31.2434 -31.2403
   -16.0936 -15.9186 -15.7521 -15.5309 -15.4614 -15.4115 -15.3761 -15.3716
   -15.3245 -15.1904 -15.1884 -15.1443 -15.0883 -15.0583 -15.0572 -14.9348
   -14.9236 -14.8770 -14.7963 -14.7446 -14.7313 -14.6941 -14.6890 -14.6614
    12.0564  12.0929  12.1412  12.2408  12.2479  12.2502  12.3004  12.3636
    12.4399  12.4832  12.4950  12.5398  12.5480  12.6916  12.7156  12.7425
    12.7868  12.8767  12.8833  12.9398  15.2140  16.1597  16.2717  16.7057
    16.7341  16.9235  17.3135  17.4522  17.7345  17.8133  17.9837  18.0645
    18.2877  18.3757  18.5768  18.7637  18.7748  18.7908  19.0463  19.0975
    19.3458  19.3861  19.5149  19.9882  20.1200  20.2229  20.3281  20.4561
    20.4909  21.0476  21.0856  21.3512  21.4195  21.6492  21.7548  21.8066
    21.8720  22.1699  22.2570  22.2760  22.4466  22.4718  23.4351  23.5742
    23.7422  23.7922  24.0855  24.7264  24.8545  24.8903  25.2323  26.8923
    27.1054  27.7109  28.1976  28.8240  29.5439  29.8067  30.2391  30.5240
    30.6299  31.0800  31.2386  31.4596  31.9612  32.1917  32.2219  32.3904
    32.4931

          k = 0.0000 0.3606 0.1456 (  5804 PWs)   bands (ev):

   -67.0658 -67.0560 -67.0351 -67.0297 -44.3141 -44.2941 -44.2101 -44.1941
   -44.1726 -44.1671 -44.1044 -44.0716 -31.3100 -31.3048 -31.3016 -31.2989
   -31.2963 -31.2865 -31.2779 -31.2706 -31.2594 -31.2537 -31.2508 -31.2442
   -16.0835 -15.9725 -15.6862 -15.5409 -15.4622 -15.3836 -15.3781 -15.3744
   -15.3122 -15.3120 -15.2284 -15.1754 -15.0886 -15.0426 -14.9882 -14.9357
   -14.8895 -14.8585 -14.7753 -14.7669 -14.7597 -14.6978 -14.6896 -14.6812
    12.0782  12.1117  12.1549  12.2187  12.2210  12.2275  12.3293  12.3296
    12.4027  12.4482  12.5366  12.5789  12.5878  12.6886  12.7008  12.7627
    12.8151  12.8457  12.8683  12.9213  15.3461  16.0893  16.1955  16.5675
    16.8426  16.9138  17.3093  17.5477  17.7787  17.8517  17.9450  18.0518
    18.0933  18.4018  18.4498  18.5301  18.7387  18.8477  18.9798  19.0088
    19.4441  19.5554  19.7789  20.0011  20.2417  20.4389  20.4692  20.5728
    20.7281  20.9304  20.9568  21.4055  21.4258  21.6104  21.6494  21.7863
    21.8638  21.8651  21.9933  22.3755  22.4123  22.4159  23.3820  23.5993
    23.6279  23.6774  24.0351  24.7547  25.1156  25.2600  25.2998  26.5189
    26.9887  28.0261  28.1152  28.7592  28.9710  30.0526  30.4400  30.5831
    30.8549  30.9821  31.0166  31.5542  31.8087  31.9958  32.4234  32.5687
    32.6207

          k = 0.0000 0.3606-0.2912 (  5816 PWs)   bands (ev):

   -67.0636 -67.0636 -67.0417 -67.0416 -44.3039 -44.3039 -44.2069 -44.2069
   -44.1728 -44.1728 -44.0879 -44.0879 -31.3114 -31.3114 -31.3024 -31.3023
   -31.2914 -31.2914 -31.2810 -31.2809 -31.2559 -31.2558 -31.2536 -31.2536
   -16.0435 -16.0435 -15.5944 -15.5944 -15.4242 -15.4242 -15.3768 -15.3768
   -15.3162 -15.3162 -15.2594 -15.2594 -15.0478 -15.0478 -14.9500 -14.9500
   -14.8220 -14.8220 -14.8138 -14.8138 -14.7253 -14.7253 -14.6910 -14.6910
    12.1356  12.1356  12.1715  12.1716  12.1869  12.1869  12.3457  12.3457
    12.3868  12.3868  12.5964  12.5965  12.6366  12.6366  12.7415  12.7416
    12.8465  12.8465  12.8621  12.8621  15.7002  15.7002  16.2959  16.2959
    17.0339  17.0339  17.4338  17.4338  17.7001  17.7001  17.9899  17.9899
    18.1489  18.1489  18.6105  18.6105  18.7199  18.7199  18.8378  18.8378
    19.6781  19.6781  20.0884  20.0884  20.4284  20.4284  20.5826  20.5826
    20.8414  20.8414  21.2678  21.2678  21.4832  21.4832  21.5283  21.5283
    21.8216  21.8216  22.0412  22.0412  22.4093  22.4093  23.3697  23.3697
    23.6130  23.6131  24.4992  24.4992  25.3088  25.3088  25.8357  25.8357
    27.3280  27.3281  28.8874  28.8874  29.0799  29.0799  30.6021  30.6021
    30.7468  30.7469  31.3040  31.3041  32.4361  32.4363  32.4407  32.4408
    33.0050

          k =-0.4685-0.2705 0.0000 (  5800 PWs)   bands (ev):

   -67.0616 -67.0515 -67.0458 -67.0191 -44.2938 -44.2783 -44.2324 -44.2051
   -44.1763 -44.1632 -44.1059 -44.0679 -31.3139 -31.2991 -31.2976 -31.2966
   -31.2868 -31.2840 -31.2806 -31.2758 -31.2593 -31.2588 -31.2528 -31.2386
   -15.9914 -15.8301 -15.7434 -15.5750 -15.4221 -15.3812 -15.3696 -15.2730
   -15.2712 -15.2180 -15.2109 -15.1637 -15.1363 -15.1319 -15.0990 -15.0516
   -14.9754 -14.9114 -14.8141 -14.7585 -14.7340 -14.6960 -14.6889 -14.6498
    12.0679  12.0921  12.1858  12.2051  12.2066  12.2159  12.2822  12.4200
    12.4236  12.4797  12.4818  12.5070  12.5104  12.6846  12.7299  12.7419
    12.8088  12.8640  12.9014  12.9415  16.1097  16.2509  16.4648  16.4803
    16.8373  17.1341  17.2775  17.5024  18.0571  18.0909  18.1517  18.4254
    18.4282  18.4562  18.4813  19.0194  19.0491  19.0954  19.1600  19.2371
    19.4351  19.4901  19.7097  19.7324  19.7398  19.8280  19.9768  20.2653
    20.3358  20.4508  20.6421  20.6561  20.8788  21.3006  21.4665  21.6167
    21.7151  21.8174  21.9141  21.9156  22.0857  22.2455  23.2579  23.5022
    23.5454  23.9551  24.0635  24.5628  24.6510  25.2600  25.3582  27.1894
    27.3148  28.3607  29.0533  29.1920  29.7410  29.9831  30.2772  30.5781
    31.3129  31.3586  31.5203  31.6753  31.8907  31.9978  32.0067  32.1039
    32.8653

          k =-0.4685-0.2705 0.1456 (  5822 PWs)   bands (ev):

   -67.0720 -67.0698 -67.0410 -67.0377 -44.2945 -44.2794 -44.2320 -44.2149
   -44.1791 -44.1708 -44.1002 -44.0780 -31.3099 -31.3088 -31.3040 -31.2992
   -31.2984 -31.2961 -31.2934 -31.2848 -31.2583 -31.2577 -31.2544 -31.2463
   -15.9825 -15.8836 -15.6881 -15.5816 -15.4200 -15.3649 -15.3580 -15.3054
   -15.2861 -15.2609 -15.2230 -15.1780 -15.1663 -15.1490 -15.0779 -15.0588
   -14.9255 -14.8849 -14.7805 -14.7801 -14.7588 -14.6993 -14.6927 -14.6727
    12.0915  12.1118  12.1861  12.1954  12.2014  12.2113  12.3085  12.3214
    12.3280  12.4576  12.5603  12.5913  12.5969  12.6873  12.6944  12.7351
    12.8219  12.8567  12.8815  12.9022  16.1384  16.3471  16.4215  16.5644
    16.7628  16.9319  17.4435  17.6055  18.0236  18.0286  18.1250  18.1740
    18.3683  18.4296  18.5394  18.8884  18.9385  19.1189  19.2453  19.3261
    19.5616  19.6117  19.6456  19.7880  19.8296  19.8768  19.9453  20.2956
    20.4008  20.5451  20.5787  20.7414  20.9736  21.2146  21.4633  21.4703
    21.6344  21.7753  21.7938  21.9463  22.0297  22.1815  23.4453  23.5456
    23.6110  23.9096  23.9623  24.4029  25.0076  25.3086  25.7543  26.2985
    27.2894  28.6776  28.8698  29.0462  29.4996  30.4745  30.5336  30.6753
    30.7162  31.1928  31.5028  31.5702  31.7149  31.8456  32.1949  32.2616
    33.1163

          k =-0.4685-0.2705-0.2912 (  5804 PWs)   bands (ev):

   -67.0560 -67.0559 -67.0373 -67.0372 -44.2823 -44.2823 -44.2211 -44.2211
   -44.1729 -44.1729 -44.0883 -44.0883 -31.3044 -31.3044 -31.2962 -31.2962
   -31.2882 -31.2882 -31.2785 -31.2784 -31.2573 -31.2573 -31.2532 -31.2531
   -15.9463 -15.9463 -15.6175 -15.6175 -15.3740 -15.3740 -15.3246 -15.3246
   -15.3093 -15.3093 -15.2029 -15.2029 -15.1579 -15.1579 -15.0601 -15.0601
   -14.8385 -14.8385 -14.8191 -14.8191 -14.7112 -14.7112 -14.6943 -14.6943
    12.1459  12.1460  12.1785  12.1785  12.1893  12.1893  12.2617  12.2617
    12.3923  12.3923  12.6259  12.6260  12.6772  12.6773  12.7067  12.7068
    12.8410  12.8410  12.8486  12.8487  16.2489  16.2489  16.5984  16.5984
    16.7497  16.7497  17.6143  17.6143  17.7804  17.7804  18.1818  18.1818
    18.4088  18.4088  18.7950  18.7950  18.9703  18.9703  19.2178  19.2178
    19.5627  19.5627  19.7817  19.7817  19.9117  19.9117  20.1912  20.1912
    20.5984  20.5984  20.6518  20.6518  21.1582  21.1582  21.3574  21.3574
    21.6919  21.6919  21.7854  21.7854  22.0463  22.0463  23.3884  23.3884
    23.6279  23.6279  24.9929  24.9929  25.2720  25.2721  25.3026  25.3026
    27.7883  27.7883  29.3151  29.3151  29.5420  29.5420  31.0910  31.0910
    31.1030  31.1031  31.3134  31.3134  31.8267  31.8267  31.8738  31.8738
    33.3152

          k =-0.4685 0.0902 0.0000 (  5827 PWs)   bands (ev):

   -67.0733 -67.0584 -67.0571 -67.0399 -44.3006 -44.2765 -44.2383 -44.2070
   -44.1791 -44.1709 -44.1121 -44.0681 -31.3156 -31.3108 -31.3059 -31.3058
   -31.3009 -31.2913 -31.2809 -31.2734 -31.2684 -31.2604 -31.2597 -31.2505
   -15.9794 -15.8269 -15.7441 -15.5995 -15.4765 -15.4203 -15.3887 -15.2730
   -15.2673 -15.2461 -15.1840 -15.1462 -15.1284 -15.1124 -15.0812 -15.0127
   -14.9517 -14.9052 -14.8106 -14.7639 -14.7519 -14.7496 -14.7155 -14.6588
    12.0709  12.0776  12.1461  12.1653  12.2531  12.2811  12.3208  12.4111
    12.4477  12.4488  12.4767  12.5072  12.5214  12.6064  12.6453  12.7168
    12.8656  12.8960  12.9339  12.9570  15.8351  16.5369  16.6031  16.6803
    16.7482  17.2927  17.3311  17.5365  17.8537  18.1069  18.1160  18.2191
    18.4161  18.4741  18.6795  18.6823  18.8622  19.0582  19.0883  19.0935
    19.1652  19.4622  19.4905  19.7003  19.7939  19.8701  20.0253  20.1861
    20.5280  20.6598  20.6754  20.9348  21.0754  21.1487  21.2215  21.6550
    21.6879  21.8705  22.2495  22.3728  22.3914  22.4695  23.2105  23.3983
    23.5040  23.5138  23.7028  24.2052  24.4816  25.8254  25.9569  27.2600
    27.5994  27.9887  28.6933  29.0176  29.3052  29.7739  29.8071  30.7254
    30.9599  31.1113  31.3089  31.6019  31.6273  32.0406  32.5613  32.6614
    32.8060

          k =-0.4685 0.0902 0.1456 (  5825 PWs)   bands (ev):

   -67.0740 -67.0597 -67.0492 -67.0421 -44.2975 -44.2819 -44.2326 -44.2146
   -44.1748 -44.1706 -44.1046 -44.0742 -31.3124 -31.3088 -31.3070 -31.3049
   -31.3002 -31.2906 -31.2813 -31.2800 -31.2623 -31.2594 -31.2561 -31.2543
   -15.9663 -15.8720 -15.6959 -15.6093 -15.4607 -15.3965 -15.3708 -15.3084
   -15.2738 -15.2552 -15.2391 -15.2066 -15.1250 -15.1175 -15.0223 -14.9861
   -14.9228 -14.8899 -14.7971 -14.7752 -14.7593 -14.7421 -14.7228 -14.6710
    12.0920  12.0975  12.1425  12.1551  12.2465  12.2705  12.3160  12.3466
    12.3914  12.4514  12.5208  12.5717  12.5777  12.5841  12.6878  12.6914
    12.8677  12.8802  12.9081  12.9426  15.9335  16.4440  16.5652  16.7371
    16.8342  17.0206  17.5442  17.6396  17.9288  17.9739  18.0178  18.1396
    18.3412  18.4379  18.6345  18.6519  18.8073  18.9598  19.0217  19.1539
    19.3687  19.4083  19.6891  19.7236  19.8342  19.9699  20.1307  20.2164
    20.5230  20.6797  20.7979  20.9846  21.0359  21.1958  21.2992  21.4357
    21.6708  21.8100  22.0582  22.1474  22.3211  22.4154  23.0693  23.1673
    23.5149  23.6007  24.0435  24.5200  25.3149  25.5032  26.0009  26.7407
    27.3251  27.7928  28.4102  28.7424  29.5031  30.0265  30.4359  30.6806
    30.8458  30.9306  31.2569  31.6079  31.8659  32.1725  32.4294  32.8048
    32.9469

          k =-0.4685 0.0902-0.2912 (  5824 PWs)   bands (ev):

   -67.0634 -67.0634 -67.0484 -67.0484 -44.2878 -44.2878 -44.2269 -44.2269
   -44.1724 -44.1724 -44.0878 -44.0878 -31.3102 -31.3102 -31.3014 -31.3014
   -31.2950 -31.2950 -31.2807 -31.2807 -31.2620 -31.2620 -31.2581 -31.2581
   -15.9297 -15.9297 -15.6365 -15.6365 -15.3975 -15.3975 -15.3516 -15.3516
   -15.2890 -15.2890 -15.2521 -15.2521 -15.1195 -15.1195 -14.9848 -14.9848
   -14.8731 -14.8731 -14.8049 -14.8049 -14.7391 -14.7391 -14.7137 -14.7137
    12.1237  12.1237  12.1523  12.1523  12.2068  12.2068  12.3414  12.3414
    12.3996  12.3997  12.5533  12.5533  12.6338  12.6338  12.6900  12.6900
    12.8551  12.8551  12.9112  12.9112  16.1788  16.1788  16.6472  16.6472
    16.9569  16.9569  17.6446  17.6446  17.8583  17.8583  18.0705  18.0705
    18.3011  18.3011  18.6460  18.6460  18.9248  18.9248  19.0547  19.0548
    19.3237  19.3237  19.8393  19.8393  19.9644  19.9644  20.3567  20.3567
    20.6170  20.6170  20.8028  20.8028  21.0922  21.0922  21.4242  21.4242
    21.7447  21.7447  21.9224  21.9224  22.2200  22.2200  23.0091  23.0091
    23.5833  23.5834  24.8061  24.8061  25.5216  25.5216  26.1294  26.1294
    27.1731  27.1732  28.4420  28.4420  30.0657  30.0657  30.5155  30.5156
    30.8690  30.8690  31.5011  31.5011  32.0836  32.0838  32.8774  32.8778
    33.0713

     the Fermi energy is    24.2358 ev

!    total energy              =   -2783.81448091 Ry
     Harris-Foulkes estimate   =   -2783.81451147 Ry
     estimated scf accuracy    <       0.00003427 Ry

     The total energy is the sum of the following terms:

     one-electron contribution =    -520.98613295 Ry
     hartree contribution      =     419.15957148 Ry
     xc contribution           =    -264.32351091 Ry
     ewald contribution        =   -2417.23403229 Ry
     smearing contrib. (-TS)   =      -0.43037624 Ry

     convergence has been achieved in   8 iterations

     Forces acting on atoms (Ry/au):

     atom    1 type  1   force =     0.00000000    0.00000000    0.00339895
     atom    2 type  1   force =     0.00000000    0.00000000    0.00339895
     atom    3 type  1   force =     0.00000000    0.00000000   -0.00339895
     atom    4 type  1   force =     0.00000000    0.00000000   -0.00339895
     atom    5 type  2   force =     0.00000000    0.00000000    0.00000000
     atom    6 type  2   force =     0.00000000    0.00000000    0.00000000
     atom    7 type  2   force =     0.00000000   -0.01598986    0.00000000
     atom    8 type  2   force =     0.01384763   -0.00799493    0.00000000
     atom    9 type  2   force =    -0.01384763   -0.00799493    0.00000000
     atom   10 type  2   force =     0.01384763    0.00799493    0.00000000
     atom   11 type  2   force =    -0.01384763    0.00799493    0.00000000
     atom   12 type  2   force =     0.00000000    0.01598986    0.00000000

     Total force =     0.039753     Total SCF correction =     0.000000


     entering subroutine stress ...

          total   stress  (Ry/bohr**3)                   (kbar)     P= -395.14
  -0.00266722   0.00000000   0.00000000       -392.36      0.00      0.00
   0.00000000  -0.00266722   0.00000000          0.00   -392.36      0.00
   0.00000000   0.00000000  -0.00272388          0.00      0.00   -400.70


     number of scf cycles    =   2
     number of bfgs steps    =   1

     enthalpy old            =   -2783.6589419903 Ry
     enthalpy new            =   -2783.8144809140 Ry

     CASE: enthalpy_new < enthalpy_old

     small trust_radius: resetting bfgs history

     new trust radius        =       0.5541219738 bohr
     new conv_thr            =       0.0000159899 Ry

     new unit-cell volume =   1343.77106 a.u.^3 (   199.12632 Ang^3 )

CELL_PARAMETERS (alat=  9.92348860)
   0.996103729   0.000000000   0.000000000
  -0.498051865   0.862651134   0.000000000
   0.000000000   0.000000000   1.600266798

ATOMIC_POSITIONS (crystal)
Mg       0.333333000   0.666667000   0.063631818
Mg       0.666667000   0.333333000   0.563631818
Mg       0.666667000   0.333333000   0.936368182
Mg       0.333333000   0.666667000   0.436368182
Zn       0.000000000   0.000000000   0.000000000
Zn       0.000000000   0.000000000   0.500000000
Zn       0.169886461   0.339772921   0.750000000
Zn       0.830113539   0.169886461   0.250000000
Zn       0.339772921   0.169886461   0.250000000
Zn       0.660227079   0.830113539   0.750000000
Zn       0.169886461   0.830113539   0.750000000
Zn       0.830113539   0.660227079   0.250000000



     Writing output data file Prototype-La-hP12-MgZn2.save
     NEW-OLD atomic charge density approx. for the potential
     NEW k-points:
        k(    1) = (   0.0000000   0.0000000   0.0000000), wk =   0.0833333
        k(    2) = (   0.0000000   0.0000000   0.1562239), wk =   0.1666667
        k(    3) = (   0.0000000   0.0000000  -0.3124479), wk =   0.0833333
        k(    4) = (   0.0000000   0.3864057   0.0000000), wk =   0.1666667
        k(    5) = (   0.0000000   0.3864057   0.1562239), wk =   0.3333333
        k(    6) = (   0.0000000   0.3864057  -0.3124479), wk =   0.1666667
        k(    7) = (  -0.5019558  -0.2898043   0.0000000), wk =   0.0833333
        k(    8) = (  -0.5019558  -0.2898043   0.1562239), wk =   0.1666667
        k(    9) = (  -0.5019558  -0.2898043  -0.3124479), wk =   0.0833333
        k(   10) = (  -0.5019558   0.0966014   0.0000000), wk =   0.1666667
        k(   11) = (  -0.5019558   0.0966014   0.1562239), wk =   0.3333333
        k(   12) = (  -0.5019558   0.0966014  -0.3124479), wk =   0.1666667

     total cpu time spent up to now is      527.0 secs

     Self-consistent Calculation

     iteration #  1     ecut=    40.00 Ry     beta=0.70
     CG style diagonalization
     c_bands:  3 eigenvalues not converged
     c_bands:  1 eigenvalues not converged
     c_bands:  1 eigenvalues not converged
     c_bands:  1 eigenvalues not converged
     ethr =  1.00E-06,  avg # of iterations = 20.5

     total cpu time spent up to now is      611.7 secs

     total energy              =   -2771.39557141 Ry
     Harris-Foulkes estimate   =   -2798.45832137 Ry
     estimated scf accuracy    <      34.13049479 Ry

     iteration #  2     ecut=    40.00 Ry     beta=0.70
     CG style diagonalization
     ethr =  1.00E-02,  avg # of iterations =  4.0

     total cpu time spent up to now is      627.8 secs

     total energy              =   -2781.39371737 Ry
     Harris-Foulkes estimate   =   -2786.82638435 Ry
     estimated scf accuracy    <       8.71042232 Ry

     iteration #  3     ecut=    40.00 Ry     beta=0.70
     CG style diagonalization
     ethr =  3.82E-03,  avg # of iterations =  3.5

     total cpu time spent up to now is      641.7 secs

     total energy              =   -2783.32759478 Ry
     Harris-Foulkes estimate   =   -2783.77554908 Ry
     estimated scf accuracy    <       0.78690316 Ry

     iteration #  4     ecut=    40.00 Ry     beta=0.70
     CG style diagonalization
     ethr =  3.45E-04,  avg # of iterations =  3.6

     total cpu time spent up to now is      655.2 secs

     total energy              =   -2783.55508701 Ry
     Harris-Foulkes estimate   =   -2783.58630062 Ry
     estimated scf accuracy    <       0.05672199 Ry

     iteration #  5     ecut=    40.00 Ry     beta=0.70
     CG style diagonalization
     c_bands:  1 eigenvalues not converged
     ethr =  2.49E-05,  avg # of iterations =  3.8

     total cpu time spent up to now is      671.6 secs

     total energy              =   -2783.56399087 Ry
     Harris-Foulkes estimate   =   -2783.57495361 Ry
     estimated scf accuracy    <       0.02196026 Ry

     iteration #  6     ecut=    40.00 Ry     beta=0.70
     CG style diagonalization
     c_bands:  1 eigenvalues not converged
     ethr =  9.63E-06,  avg # of iterations =  3.4

     total cpu time spent up to now is      684.0 secs

     total energy              =   -2783.56853218 Ry
     Harris-Foulkes estimate   =   -2783.56919693 Ry
     estimated scf accuracy    <       0.00122788 Ry

     iteration #  7     ecut=    40.00 Ry     beta=0.70
     CG style diagonalization
     c_bands:  1 eigenvalues not converged
     c_bands:  1 eigenvalues not converged
     ethr =  5.39E-07,  avg # of iterations =  3.8

     total cpu time spent up to now is      698.8 secs

     total energy              =   -2783.56892637 Ry
     Harris-Foulkes estimate   =   -2783.56903872 Ry
     estimated scf accuracy    <       0.00023220 Ry

     iteration #  8     ecut=    40.00 Ry     beta=0.70
     CG style diagonalization
     ethr =  1.02E-07,  avg # of iterations =  3.5

     total cpu time spent up to now is      711.4 secs

     End of self-consistent calculation

          k = 0.0000 0.0000 0.0000 (  5769 PWs)   bands (ev):

   -60.9439 -60.9373 -60.9300 -60.9168 -38.4230 -38.3416 -37.9869 -37.9869
   -37.9850 -37.9850 -37.9503 -37.8558 -25.1448 -25.1343 -25.1342 -25.1337
   -25.1090 -25.1090 -25.0758 -25.0587 -25.0587 -25.0541 -25.0541 -25.0483
   -11.3368 -10.9687 -10.4189  -9.9356  -9.9356  -9.8528  -9.8528  -9.6858
    -9.6857  -9.4398  -9.1167  -9.1166  -9.0284  -9.0016  -9.0016  -8.5203
    -8.5134  -8.4092  -8.4091  -8.3960  -8.3960  -8.3900  -8.3071  -8.3071
    17.8914  17.9275  17.9276  18.0615  18.0787  18.0787  18.3339  18.3340
    18.4116  18.4116  18.6910  18.8383  18.8383  18.8800  18.9657  18.9657
    19.0747  19.0747  19.1136  19.1691  19.1691  19.8885  20.2066  20.6238
    21.5841  21.9274  21.9274  22.2880  22.2880  22.4939  22.4940  22.7100
    22.9975  23.0521  23.3853  23.3853  24.6241  24.6241  24.7448  24.7448
    25.2369  25.2370  25.9070  26.4087  26.7621  26.7622  27.5729  27.7183
    28.0320  28.3094  28.3094  28.3539  28.3539  28.4423  28.4423  28.5380
    28.5380  29.5027  30.2823  30.2824  30.6872  30.6872  30.7057  31.9176
    32.1590  32.1590  32.1807  32.3220  32.3220  32.6602  32.6687  33.9907
    33.9908  34.4088  34.7713  35.4310  35.6218  35.6220  36.3703  37.8516
    37.8517  38.2452  38.3235  38.7480  38.7481  38.8728  38.8769  38.8730
    39.4087

          k = 0.0000 0.0000 0.1562 (  5780 PWs)   bands (ev):

   -60.9460 -60.9399 -60.9303 -60.9200 -38.4124 -38.3549 -37.9873 -37.9873
   -37.9860 -37.9859 -37.9334 -37.8697 -25.1376 -25.1352 -25.1248 -25.1247
   -25.1205 -25.1204 -25.0849 -25.0607 -25.0606 -25.0577 -25.0576 -25.0536
   -11.3026 -11.0583 -10.2781  -9.9309  -9.9309  -9.8772  -9.8772  -9.6407
    -9.6236  -9.6235  -9.2895  -9.2895  -8.8529  -8.8356  -8.8356  -8.5225
    -8.5195  -8.4928  -8.4927  -8.4447  -8.3534  -8.3533  -8.3136  -8.3135
    17.8629  17.9766  17.9767  18.0234  18.1104  18.1104  18.2661  18.2661
    18.3469  18.3469  18.7372  18.7390  18.8921  18.8921  18.9899  18.9899
    19.0693  19.0693  19.1287  19.1287  19.3915  20.0449  20.1091  20.7561
    21.3340  22.0251  22.0251  22.2637  22.2637  22.4088  22.6222  22.6222
    22.9144  23.0050  23.5258  23.5259  23.9236  23.9236  24.3645  24.3645
    26.0950  26.0950  26.4982  26.7011  27.0071  27.0071  27.4849  27.7604
    27.9820  28.2617  28.2617  28.2758  28.2758  28.4684  28.4684  28.5344
    28.5345  29.5524  30.0940  30.0940  30.4850  30.7394  30.7395  31.1555
    31.5978  31.5978  32.0333  32.0333  32.2979  32.6614  32.6668  34.0403
    34.9122  34.9123  34.9409  35.6055  35.9013  35.9013  36.9559  37.7204
    37.7205  37.9418  38.3927  38.3927  38.6175  39.0489  39.2873  39.5462
    39.5464

          k = 0.0000 0.0000-0.3124 (  5780 PWs)   bands (ev):

   -60.9420 -60.9420 -60.9250 -60.9249 -38.3881 -38.3880 -37.9845 -37.9845
   -37.9845 -37.9845 -37.9008 -37.9008 -25.1381 -25.1380 -25.1213 -25.1212
   -25.1212 -25.1212 -25.0815 -25.0814 -25.0529 -25.0529 -25.0528 -25.0528
   -11.1996 -11.1996  -9.9898  -9.9898  -9.9066  -9.9066  -9.9066  -9.9066
    -9.4749  -9.4749  -9.4749  -9.4749  -8.6419  -8.6419  -8.6419  -8.6419
    -8.6154  -8.6154  -8.5160  -8.5160  -8.3290  -8.3290  -8.3290  -8.3290
    17.9065  17.9065  18.0980  18.0980  18.0980  18.0980  18.2293  18.2294
    18.2294  18.2294  18.7194  18.7194  18.9913  18.9913  18.9914  18.9914
    19.0618  19.0618  19.0618  19.0618  19.9074  19.9074  20.3148  20.3148
    21.7391  21.7391  22.1790  22.1790  22.1790  22.1790  22.9206  22.9206
    23.0995  23.0995  23.0995  23.0996  23.8995  23.8995  23.8995  23.8996
    26.8566  26.8566  26.9324  26.9324  26.9324  26.9324  27.8700  27.8700
    28.2004  28.2004  28.2004  28.2004  28.5143  28.5143  28.5143  28.5143
    28.6133  28.6133  30.2357  30.2357  30.2357  30.2357  30.2956  30.2956
    31.6047  31.6047  31.6047  31.6047  32.6645  32.6645  33.2540  33.2540
    35.2699  35.2699  35.9920  35.9920  35.9920  35.9921  37.5914  37.5914
    37.7109  37.7109  37.7110  37.7110  39.4322  39.4663  39.4663  39.4663
    39.4663

          k = 0.0000 0.3864 0.0000 (  5787 PWs)   bands (ev):

   -60.9410 -60.9408 -60.9301 -60.9298 -38.3516 -38.2708 -38.1034 -38.0572
   -37.9866 -37.9848 -37.9507 -37.8217 -25.1423 -25.1402 -25.1287 -25.1264
   -25.1179 -25.1175 -25.0842 -25.0727 -25.0636 -25.0620 -25.0510 -25.0488
   -10.9466 -10.5972 -10.3822  -9.9168  -9.7912  -9.7598  -9.6823  -9.6434
    -9.5395  -9.3216  -9.2974  -9.2225  -9.1131  -9.0878  -9.0718  -8.8377
    -8.8269  -8.7378  -8.5676  -8.4821  -8.4325  -8.4061  -8.3585  -8.3090
    17.7715  17.8810  17.9574  18.0615  18.1269  18.1409  18.2345  18.2427
    18.3706  18.5078  18.5346  18.6246  18.6588  18.7956  18.8795  18.9836
    18.9889  19.1240  19.2081  19.2298  20.2771  20.9718  21.1707  21.6256
    21.6969  22.1235  22.6379  22.8116  22.8802  22.9127  23.1993  23.3899
    23.7180  23.7502  24.0030  24.2788  24.2947  24.3877  24.6059  24.6430
    24.9553  25.1629  25.2288  25.9701  26.0056  26.2888  26.3041  26.4522
    26.6035  27.2969  27.3095  27.7662  27.8085  28.0784  28.1798  28.3295
    28.4564  28.7296  28.9504  29.0567  29.0987  29.2137  30.4942  30.6702
    30.9820  31.1359  31.4744  31.8259  31.8700  32.0572  32.5320  34.5803
    34.7612  35.4745  36.0142  36.6005  37.3361  37.5637  38.1061  38.2893
    38.5549  38.7260  38.8998  38.9225  39.1396  39.3522  39.7823  40.0335
    40.3275

          k = 0.0000 0.3864 0.1562 (  5804 PWs)   bands (ev):

   -60.9471 -60.9414 -60.9363 -60.9319 -38.3413 -38.2845 -38.1009 -38.0723
   -37.9879 -37.9862 -37.9242 -37.8354 -25.1480 -25.1417 -25.1330 -25.1279
   -25.1213 -25.1208 -25.0873 -25.0841 -25.0629 -25.0602 -25.0589 -25.0497
   -10.9221 -10.7107 -10.2367  -9.9414  -9.8074  -9.6828  -9.6738  -9.6447
    -9.5345  -9.5189  -9.3796  -9.2842  -9.1132  -9.0257  -8.9400  -8.8411
    -8.7648  -8.7069  -8.5292  -8.5215  -8.5004  -8.3831  -8.3598  -8.3454
    17.8013  17.9033  17.9869  18.0263  18.0567  18.1101  18.2281  18.2850
    18.3840  18.4645  18.4732  18.6926  18.7159  18.7995  18.8921  18.9680
    19.0513  19.0966  19.1097  19.2314  20.4669  20.9927  21.0789  21.6529
    21.8106  22.1047  22.4730  22.8215  22.9492  22.9880  23.1776  23.3198
    23.3995  23.6976  23.9015  23.9785  24.2365  24.3161  24.5127  24.5865
    25.2161  25.3946  25.6029  25.8550  26.3066  26.5291  26.5468  26.6442
    26.8590  27.1225  27.1581  27.8258  27.8332  27.9738  28.0609  28.3562
    28.3589  28.4839  28.5017  29.0511  29.0890  29.1203  30.3983  30.7547
    30.7986  30.9119  31.2599  32.0771  32.4506  32.5203  32.6965  34.1762
    34.6031  35.7190  35.8734  36.4222  36.7513  37.8723  38.2025  38.3658
    38.4936  38.6303  38.8225  39.1294  39.3618  39.3643  40.0875  40.1404
    40.1978

          k = 0.0000 0.3864-0.3124 (  5816 PWs)   bands (ev):

   -60.9454 -60.9453 -60.9387 -60.9387 -38.3139 -38.3139 -38.0922 -38.0922
   -37.9880 -37.9880 -37.8744 -37.8744 -25.1441 -25.1441 -25.1321 -25.1320
   -25.1259 -25.1259 -25.0904 -25.0904 -25.0615 -25.0615 -25.0587 -25.0587
   -10.8427 -10.8427 -10.0443 -10.0443  -9.7373  -9.7373  -9.6541  -9.6541
    -9.5464  -9.5464  -9.4346  -9.4346  -9.0321  -9.0321  -8.8639  -8.8639
    -8.6307  -8.6307  -8.6116  -8.6116  -8.4333  -8.4333  -8.3657  -8.3657
    17.8947  17.8947  17.9727  17.9728  18.0507  18.0507  18.2742  18.2742
    18.3721  18.3721  18.6311  18.6312  18.7808  18.7808  18.9055  18.9055
    19.0865  19.0866  19.1510  19.1510  20.8034  20.8034  21.2787  21.2787
    22.1552  22.1552  22.5253  22.5253  22.9152  22.9152  23.1868  23.1868
    23.4272  23.4272  23.9634  23.9634  24.2053  24.2053  24.4033  24.4033
    25.5005  25.5005  26.0629  26.0629  26.4349  26.4349  26.7694  26.7694
    27.0094  27.0094  27.6404  27.6404  27.8654  27.8654  27.9306  27.9306
    28.2645  28.2645  28.6164  28.6164  29.0928  29.0928  30.3483  30.3483
    30.8743  30.8743  31.8382  31.8382  32.7740  32.7740  33.3884  33.3884
    34.8182  34.8182  36.6619  36.6620  36.8410  36.8410  38.3055  38.3055
    38.5372  38.5372  38.9174  38.9175  39.6965  39.6965  40.0468  40.0471
    40.7095

          k =-0.5020-0.2898 0.0000 (  5800 PWs)   bands (ev):

   -60.9456 -60.9419 -60.9366 -60.9284 -38.3070 -38.2343 -38.1558 -38.0969
   -37.9892 -37.9850 -37.9508 -37.8146 -25.1522 -25.1372 -25.1322 -25.1234
   -25.1191 -25.1025 -25.1019 -25.0871 -25.0616 -25.0606 -25.0605 -25.0480
   -10.7698 -10.4287 -10.3653  -9.9759  -9.7771  -9.6807  -9.6128  -9.4546
    -9.4324  -9.3399  -9.3042  -9.2974  -9.2344  -9.2094  -9.1198  -9.0903
    -8.9376  -8.8126  -8.6050  -8.5081  -8.4365  -8.4072  -8.3613  -8.2850
    17.8161  17.8820  17.9238  18.0122  18.0786  18.0846  18.1688  18.3327
    18.3645  18.4876  18.4992  18.5465  18.5831  18.8033  18.9681  18.9930
    19.0300  19.0614  19.1706  19.2992  21.1922  21.3634  21.5491  21.6062
    22.0888  22.1434  22.3057  22.6673  23.2749  23.2980  23.3864  23.9373
    23.9567  23.9760  23.9871  24.4948  24.6048  24.6290  24.7635  24.9355
    25.2138  25.3032  25.4083  25.4968  25.5947  25.7237  26.0230  26.2995
    26.4232  26.4632  26.8371  26.8652  27.0646  27.7590  28.0283  28.1076
    28.1126  28.2600  28.3306  28.4217  28.5905  28.9193  30.0715  30.6005
    30.8737  31.3242  31.4510  31.4698  31.7582  32.5616  33.0392  34.5896
    34.9447  36.3888  37.1627  37.2148  37.3339  37.5388  37.9104  38.2374
    39.0964  39.1111  39.2350  39.3098  39.4705  39.6083  39.7162  39.8633
    40.2225

          k =-0.5020-0.2898 0.1562 (  5822 PWs)   bands (ev):

   -60.9495 -60.9494 -60.9382 -60.9353 -38.2972 -38.2431 -38.1536 -38.1182
   -37.9899 -37.9874 -37.9214 -37.8305 -25.1485 -25.1471 -25.1378 -25.1272
   -25.1228 -25.1194 -25.1053 -25.0938 -25.0643 -25.0642 -25.0600 -25.0507
   -10.7485 -10.5604 -10.2160  -9.9941  -9.7524  -9.6513  -9.5920  -9.5011
    -9.4761  -9.4407  -9.3061  -9.2950  -9.2674  -9.2423  -9.1079  -9.0943
    -8.8318  -8.7491  -8.5500  -8.5412  -8.4997  -8.3865  -8.3653  -8.3243
    17.8511  17.8608  17.9864  18.0056  18.0591  18.0695  18.1695  18.2197
    18.2515  18.4952  18.6433  18.6457  18.6746  18.8109  18.9035  18.9569
    19.0538  19.0572  19.1708  19.1868  21.2593  21.3736  21.5837  21.6926
    21.9839  22.0728  22.4873  22.7355  23.2342  23.3118  23.3596  23.4245
    23.8990  23.9420  23.9506  24.3529  24.3879  24.9243  24.9428  24.9591
    25.3347  25.4116  25.4990  25.6211  25.6278  25.8216  25.8489  26.4328
    26.4995  26.6447  26.8113  26.9144  27.1848  27.5061  27.7550  27.9873
    28.0525  28.1792  28.1826  28.4538  28.5132  28.8109  30.5068  30.6270
    30.8596  31.0556  31.2557  31.6494  32.3540  32.6958  33.3300  33.8292
    35.2171  36.5485  36.6607  36.7493  36.9690  38.0972  38.1896  38.2152
    38.6090  38.8643  38.9740  39.1176  39.3471  39.6387  39.8297  40.1447
    40.4164

          k =-0.5020-0.2898-0.3124 (  5804 PWs)   bands (ev):

   -60.9424 -60.9423 -60.9361 -60.9360 -38.2685 -38.2684 -38.1411 -38.1411
   -37.9881 -37.9881 -37.8702 -37.8702 -25.1445 -25.1445 -25.1302 -25.1302
   -25.1130 -25.1130 -25.0895 -25.0895 -25.0613 -25.0613 -25.0596 -25.0596
   -10.6784 -10.6784 -10.0688 -10.0688  -9.6506  -9.6506  -9.5705  -9.5705
    -9.5234  -9.5234  -9.2927  -9.2927  -9.2767  -9.2767  -9.0956  -9.0956
    -8.6661  -8.6661  -8.6175  -8.6175  -8.4159  -8.4159  -8.3710  -8.3710
    17.8978  17.8978  17.9794  17.9794  18.0546  18.0546  18.1143  18.1143
    18.3879  18.3880  18.7619  18.7619  18.7630  18.7631  18.9204  18.9205
    19.0557  19.0557  19.0834  19.0834  21.3323  21.3323  21.7689  21.7689
    21.9895  21.9895  22.6689  22.6689  22.9400  22.9400  23.4491  23.4491
    23.9039  23.9039  24.2009  24.2009  24.5186  24.5186  25.0283  25.0284
    25.3086  25.3086  25.6397  25.6397  25.8462  25.8462  26.2424  26.2424
    26.7932  26.7932  26.8492  26.8492  27.3549  27.3549  27.6252  27.6252
    28.0368  28.0368  28.2539  28.2539  28.5920  28.5920  30.3872  30.3872
    30.9234  30.9234  32.2461  32.2461  32.7787  32.7787  32.9975  32.9975
    35.4544  35.4544  36.8623  36.8623  37.4320  37.4320  38.5291  38.5292
    38.5626  38.5627  39.1428  39.1429  39.3464  39.3465  39.8726  39.8726
    40.6151

          k =-0.5020 0.0966 0.0000 (  5827 PWs)   bands (ev):

   -60.9496 -60.9447 -60.9437 -60.9382 -38.3089 -38.2337 -38.1576 -38.0974
   -37.9900 -37.9875 -37.9525 -37.8146 -25.1532 -25.1480 -25.1404 -25.1330
   -25.1271 -25.1109 -25.0983 -25.0850 -25.0689 -25.0650 -25.0621 -25.0579
   -10.7430 -10.4071 -10.3652 -10.0168  -9.8113  -9.7684  -9.7057  -9.4637
    -9.4109  -9.3914  -9.2934  -9.2279  -9.2082  -9.1464  -9.1208  -9.0008
    -8.8674  -8.7873  -8.5936  -8.4978  -8.4891  -8.4668  -8.4278  -8.2918
    17.8173  17.8670  17.9687  17.9959  18.0850  18.0961  18.2237  18.3230
    18.3788  18.4395  18.5003  18.5297  18.5915  18.6486  18.7586  18.9417
    19.1625  19.1914  19.2626  19.3377  21.0784  21.5038  21.5553  21.8349
    22.0754  22.4159  22.5012  22.6483  23.0120  23.3031  23.3908  23.5739
    23.8814  24.0201  24.1913  24.2057  24.5450  24.6322  24.6363  24.7024
    24.7650  25.1649  25.2978  25.4623  25.7333  25.7392  25.8558  26.1324
    26.7453  26.7998  26.8045  27.1726  27.3855  27.3995  27.4315  28.1986
    28.2266  28.2742  28.9330  29.1325  29.1369  29.1782  30.2329  30.4452
    30.5800  30.5944  30.8576  31.3862  31.7367  33.1941  33.4258  34.9426
    35.2854  35.6495  36.3461  36.9019  37.2017  37.3992  37.8393  38.3452
    38.7426  38.9487  39.1773  39.2558  39.4070  39.4534  39.7688  39.8751
    40.0180

          k =-0.5020 0.0966 0.1562 (  5825 PWs)   bands (ev):

   -60.9501 -60.9448 -60.9413 -60.9384 -38.2979 -38.2441 -38.1537 -38.1178
   -37.9887 -37.9875 -37.9225 -37.8295 -25.1503 -25.1467 -25.1379 -25.1353
   -25.1255 -25.1134 -25.0947 -25.0916 -25.0667 -25.0630 -25.0613 -25.0585
   -10.7198 -10.5379 -10.2220 -10.0374  -9.7944  -9.7120  -9.6726  -9.5272
    -9.4347  -9.4084  -9.3880  -9.3387  -9.1989  -9.1856  -8.9952  -8.9325
    -8.8191  -8.7559  -8.5690  -8.5348  -8.5007  -8.4566  -8.4333  -8.3229
    17.8475  17.8858  17.9412  17.9935  18.0659  18.1079  18.2033  18.2806
    18.3280  18.4696  18.5011  18.6001  18.6207  18.6544  18.8611  18.8885
    19.1281  19.1890  19.2104  19.3112  21.1956  21.4908  21.5768  21.8942
    22.0539  22.2243  22.6464  22.8241  23.1360  23.1709  23.2725  23.4112
    23.6981  23.9629  24.0687  24.1368  24.2887  24.5061  24.6830  24.8335
    25.0787  25.1242  25.5000  25.5870  25.7478  25.9309  26.0261  26.2073
    26.6415  26.8800  26.9477  27.2023  27.2919  27.3994  27.6235  27.8747
    28.1986  28.2274  28.6200  28.7916  29.0261  29.0986  30.0360  30.1113
    30.6818  30.7725  31.2715  31.9293  32.5920  32.9381  33.5084  34.4395
    35.1813  35.4453  36.1057  36.5299  37.1849  37.7469  38.1327  38.1913
    38.4151  38.6392  38.7887  39.3085  39.5416  39.7230  39.9597  40.0388
    40.3144

          k =-0.5020 0.0966-0.3124 (  5824 PWs)   bands (ev):

   -60.9455 -60.9454 -60.9415 -60.9414 -38.2703 -38.2703 -38.1427 -38.1427
   -37.9879 -37.9879 -37.8698 -37.8698 -25.1473 -25.1473 -25.1361 -25.1361
   -25.1186 -25.1185 -25.0918 -25.0917 -25.0657 -25.0657 -25.0622 -25.0622
   -10.6509 -10.6509 -10.0984 -10.0984  -9.6877  -9.6877  -9.6254  -9.6253
    -9.5027  -9.5027  -9.3889  -9.3888  -9.1946  -9.1946  -8.9247  -8.9247
    -8.7146  -8.7146  -8.5985  -8.5985  -8.4549  -8.4549  -8.4070  -8.4070
    17.9020  17.9020  17.9691  17.9691  18.0175  18.0175  18.2530  18.2530
    18.3866  18.3866  18.5493  18.5493  18.7550  18.7550  18.8286  18.8287
    19.1162  19.1162  19.2515  19.2515  21.3813  21.3813  21.7499  21.7499
    22.1758  22.1758  22.8130  22.8130  22.9941  22.9941  23.3203  23.3203
    23.6515  23.6515  24.0842  24.0842  24.5278  24.5278  24.6709  24.6709
    25.0285  25.0285  25.7453  25.7453  25.9118  25.9118  26.4166  26.4166
    26.7508  26.7508  26.9757  26.9757  27.2961  27.2962  27.8154  27.8154
    28.2204  28.2204  28.4192  28.4192  28.8378  28.8378  29.9449  29.9449
    30.7780  30.7780  32.2535  32.2535  33.0631  33.0631  33.6532  33.6532
    34.8603  34.8603  36.2536  36.2537  37.6306  37.6306  38.0534  38.0535
    38.3735  38.3735  39.0970  39.0970  39.5220  39.5222  40.1933  40.1936
    40.5503

     the Fermi energy is    31.4297 ev

!    total energy              =   -2783.56898563 Ry
     Harris-Foulkes estimate   =   -2783.56899241 Ry
     estimated scf accuracy    <       0.00000785 Ry

     The total energy is the sum of the following terms:

     one-electron contribution =    -270.93265638 Ry
     hartree contribution      =     346.81845753 Ry
     xc contribution           =    -268.25283412 Ry
     ewald contribution        =   -2590.84035077 Ry
     smearing contrib. (-TS)   =      -0.36160188 Ry

     convergence has been achieved in   8 iterations

     Forces acting on atoms (Ry/au):

     atom    1 type  1   force =     0.00000000    0.00000000   -0.00623414
     atom    2 type  1   force =     0.00000000    0.00000000   -0.00623414
     atom    3 type  1   force =     0.00000000    0.00000000    0.00623414
     atom    4 type  1   force =     0.00000000    0.00000000    0.00623414
     atom    5 type  2   force =     0.00000000    0.00000000    0.00000000
     atom    6 type  2   force =     0.00000000    0.00000000    0.00000000
     atom    7 type  2   force =     0.00000000    0.05297046    0.00000000
     atom    8 type  2   force =    -0.04587377    0.02648523    0.00000000
     atom    9 type  2   force =     0.04587377    0.02648523    0.00000000
     atom   10 type  2   force =    -0.04587377   -0.02648523    0.00000000
     atom   11 type  2   force =     0.04587377   -0.02648523    0.00000000
     atom   12 type  2   force =     0.00000000   -0.05297046    0.00000000

     Total force =     0.130348     Total SCF correction =     0.000000


     entering subroutine stress ...

          total   stress  (Ry/bohr**3)                   (kbar)     P=  802.65
   0.00542064   0.00000000   0.00000000        797.40      0.00      0.00
   0.00000000   0.00542064   0.00000000          0.00    797.40      0.00
   0.00000000   0.00000000   0.00552759          0.00      0.00    813.14


     number of scf cycles    =   3
     number of bfgs steps    =   2

     enthalpy old            =   -2783.8144809140 Ry
     enthalpy new            =   -2783.5689856258 Ry

     CASE: enthalpy_new > enthalpy_old

     new trust radius        =       0.2103318949 bohr

     trust_radius < trust_radius_min

     resetting bfgs history

     Message from routine bfgs:
     history already reset at previous step: stopping
     new conv_thr            =       0.0000159899 Ry

     new unit-cell volume =   1362.67130 a.u.^3 (   201.92705 Ang^3 )

CELL_PARAMETERS (alat=  9.92348860)
   1.000648671   0.000000000   0.000000000
  -0.500324335   0.866587169   0.000000000
   0.000000000   0.000000000   1.608066881

ATOMIC_POSITIONS (crystal)
Mg       0.333333000   0.666667000   0.063632724
Mg       0.666667000   0.333333000   0.563632724
Mg       0.666667000   0.333333000   0.936367276
Mg       0.333333000   0.666667000   0.436367276
Zn       0.000000000   0.000000000   0.000000000
Zn       0.000000000   0.000000000   0.500000000
Zn       0.169885157   0.339770315   0.750000000
Zn       0.830114843   0.169885157   0.250000000
Zn       0.339770315   0.169885157   0.250000000
Zn       0.660229685   0.830114843   0.750000000
Zn       0.169885157   0.830114843   0.750000000
Zn       0.830114843   0.660229685   0.250000000



     Writing output data file Prototype-La-hP12-MgZn2.save
     NEW-OLD atomic charge density approx. for the potential
     NEW k-points:
        k(    1) = (   0.0000000   0.0000000   0.0000000), wk =   0.0833333
        k(    2) = (   0.0000000   0.0000000   0.1554662), wk =   0.1666667
        k(    3) = (   0.0000000   0.0000000  -0.3109323), wk =   0.0833333
        k(    4) = (   0.0000000   0.3846507   0.0000000), wk =   0.1666667
        k(    5) = (   0.0000000   0.3846507   0.1554662), wk =   0.3333333
        k(    6) = (   0.0000000   0.3846507  -0.3109323), wk =   0.1666667
        k(    7) = (  -0.4996759  -0.2884880   0.0000000), wk =   0.0833333
        k(    8) = (  -0.4996759  -0.2884880   0.1554662), wk =   0.1666667
        k(    9) = (  -0.4996759  -0.2884880  -0.3109323), wk =   0.0833333
        k(   10) = (  -0.4996759   0.0961627   0.0000000), wk =   0.1666667
        k(   11) = (  -0.4996759   0.0961627   0.1554662), wk =   0.3333333
        k(   12) = (  -0.4996759   0.0961627  -0.3109323), wk =   0.1666667

     total cpu time spent up to now is      717.9 secs

     Self-consistent Calculation

     iteration #  1     ecut=    40.00 Ry     beta=0.70
     CG style diagonalization
     c_bands:  1 eigenvalues not converged
     c_bands:  1 eigenvalues not converged
     ethr =  1.00E-06,  avg # of iterations =  6.5

     total cpu time spent up to now is      742.2 secs

     total energy              =   -2783.60757566 Ry
     Harris-Foulkes estimate   =   -2783.72932419 Ry
     estimated scf accuracy    <       0.15449540 Ry

     iteration #  2     ecut=    40.00 Ry     beta=0.70
     CG style diagonalization
     ethr =  6.78E-05,  avg # of iterations =  3.8

     total cpu time spent up to now is      755.8 secs

     total energy              =   -2783.64579564 Ry
     Harris-Foulkes estimate   =   -2783.68530464 Ry
     estimated scf accuracy    <       0.06588594 Ry

     iteration #  3     ecut=    40.00 Ry     beta=0.70
     CG style diagonalization
     ethr =  2.89E-05,  avg # of iterations =  3.4

     total cpu time spent up to now is      768.3 secs

     total energy              =   -2783.66140374 Ry
     Harris-Foulkes estimate   =   -2783.66906424 Ry
     estimated scf accuracy    <       0.01630115 Ry

     iteration #  4     ecut=    40.00 Ry     beta=0.70
     CG style diagonalization
     ethr =  7.15E-06,  avg # of iterations =  3.5

     total cpu time spent up to now is      781.0 secs

     total energy              =   -2783.66492124 Ry
     Harris-Foulkes estimate   =   -2783.66512273 Ry
     estimated scf accuracy    <       0.00032942 Ry

     iteration #  5     ecut=    40.00 Ry     beta=0.70
     CG style diagonalization
     c_bands:  1 eigenvalues not converged
     ethr =  1.44E-07,  avg # of iterations =  3.6

     total cpu time spent up to now is      794.4 secs

     total energy              =   -2783.66503799 Ry
     Harris-Foulkes estimate   =   -2783.66511725 Ry
     estimated scf accuracy    <       0.00017226 Ry

     iteration #  6     ecut=    40.00 Ry     beta=0.70
     CG style diagonalization
     ethr =  7.56E-08,  avg # of iterations =  3.3

     total cpu time spent up to now is      805.8 secs

     End of self-consistent calculation

[...]
   -25.5532 -25.5532 -25.5234 -25.5056 -25.5055 -25.5004 -25.5004 -25.4955
   -11.6929 -11.3384 -10.8066 -10.3423 -10.3423 -10.2633 -10.2632 -10.1011
   -10.1010  -9.8648  -9.5556  -9.5556  -9.4757  -9.4446  -9.4446  -8.9830
    -8.9758  -8.8770  -8.8769  -8.8643  -8.8642  -8.8591  -8.7781  -8.7780
    17.4874  17.5188  17.5189  17.6495  17.6614  17.6615  17.9059  17.9060
    17.9848  17.9848  18.2649  18.3992  18.3993  18.4461  18.5206  18.5207
    18.6311  18.6311  18.7154  18.7154  18.7636  19.5402  19.8765  20.2828
    21.1947  21.5806  21.5806  21.9174  21.9174  22.1268  22.1269  22.3162
    22.5509  22.6692  22.9948  22.9949  24.2160  24.2160  24.3210  24.3210
    24.8211  24.8211  25.4574  25.9535  26.3045  26.3045  27.1219  27.2675
    27.5673  27.8405  27.8406  27.8759  27.8759  27.9669  27.9669  28.0539
    28.0539  29.0027  29.7644  29.7644  30.1693  30.1694  30.1694  31.3931
    31.6319  31.6319  31.6386  31.7817  31.7817  32.0868  32.0947  33.4390
    33.4391  33.8233  34.2021  34.8794  35.0486  35.0488  35.7806  37.3160
    37.3162  37.7132  37.9056  38.2077  38.2078  38.3403  38.3403  38.3703
    38.9722

          k = 0.0000 0.0000 0.1555 (  5780 PWs)   bands (ev):

   -61.3948 -61.3891 -61.3785 -61.3668 -38.8452 -38.7912 -38.4435 -38.4435
   -38.4420 -38.4420 -38.3915 -38.3315 -25.5824 -25.5804 -25.5689 -25.5689
   -25.5648 -25.5648 -25.5326 -25.5075 -25.5075 -25.5041 -25.5041 -25.5009
   -11.6599 -11.4242 -10.6721 -10.3379 -10.3379 -10.2865 -10.2864 -10.0585
   -10.0417 -10.0417  -9.7214  -9.7214  -9.3057  -9.2861  -9.2860  -8.9854
    -8.9822  -8.9569  -8.9569  -8.9116  -8.8234  -8.8233  -8.7846  -8.7846
    17.4624  17.5659  17.5659  17.6116  17.6932  17.6933  17.8408  17.8409
    17.9220  17.9220  18.3133  18.3343  18.4506  18.4506  18.5439  18.5440
    18.6256  18.6257  18.6779  18.6779  19.0166  19.6843  19.7680  20.3905
    20.9640  21.6733  21.6733  21.8955  21.8955  22.0303  22.2520  22.2520
    22.4940  22.6158  23.1318  23.1318  23.5229  23.5229  23.9577  23.9577
    25.6581  25.6581  26.0439  26.2293  26.5506  26.5507  27.0316  27.3079
    27.5197  27.7824  27.7824  27.8057  27.8057  27.9924  27.9925  28.0513
    28.0513  29.0500  29.5869  29.5869  29.9614  30.2128  30.2128  30.6240
    31.0797  31.0797  31.5002  31.5002  31.7607  32.0880  32.0930  33.4573
    34.3431  34.3432  34.3772  35.0522  35.3303  35.3304  36.3883  37.1545
    37.1545  37.4085  37.8440  37.8441  38.1942  38.5453  38.5455  39.0926
    39.0933

          k = 0.0000 0.0000-0.3109 (  5780 PWs)   bands (ev):

   -61.3909 -61.3908 -61.3727 -61.3726 -38.8227 -38.8227 -38.4404 -38.4404
   -38.4404 -38.4404 -38.3610 -38.3610 -25.5831 -25.5830 -25.5655 -25.5654
   -25.5654 -25.5654 -25.5294 -25.5293 -25.4994 -25.4994 -25.4994 -25.4993
   -11.5601 -11.5601 -10.3961 -10.3961 -10.3143 -10.3143 -10.3143 -10.3143
    -9.8988  -9.8988  -9.8988  -9.8988  -9.1002  -9.1002  -9.1001  -9.1001
    -9.0767  -9.0767  -8.9786  -8.9786  -8.7999  -8.7999  -8.7998  -8.7998
    17.5032  17.5032  17.6828  17.6828  17.6828  17.6829  17.8067  17.8067
    17.8067  17.8067  18.3111  18.3111  18.5442  18.5442  18.5442  18.5442
    18.6179  18.6179  18.6179  18.6179  19.5299  19.5300  19.9435  19.9435
    21.3842  21.3842  21.8176  21.8176  21.8176  21.8176  22.5205  22.5205
    22.7182  22.7182  22.7182  22.7182  23.4981  23.4981  23.4981  23.4981
    26.4007  26.4007  26.4822  26.4822  26.4822  26.4822  27.4128  27.4128
    27.7243  27.7243  27.7243  27.7243  28.0346  28.0346  28.0346  28.0346
    28.1129  28.1129  29.7252  29.7253  29.7253  29.7253  29.7854  29.7854
    31.0794  31.0794  31.0794  31.0794  32.0908  32.0908  32.6868  32.6868
    34.7149  34.7149  35.4111  35.4112  35.4112  35.4112  37.0619  37.0619
    37.1467  37.1467  37.1468  37.1468  38.9822  38.9822  38.9824  38.9942
    38.9942

          k = 0.0000 0.3847 0.0000 (  5787 PWs)   bands (ev):

   -61.3901 -61.3893 -61.3782 -61.3775 -38.7881 -38.7116 -38.5529 -38.5090
   -38.4427 -38.4407 -38.4080 -38.2866 -25.5869 -25.5846 -25.5726 -25.5714
   -25.5634 -25.5615 -25.5305 -25.5192 -25.5104 -25.5098 -25.4986 -25.4957
   -11.3163 -10.9801 -10.7724 -10.3248 -10.2037 -10.1716 -10.0978 -10.0613
    -9.9615  -9.7514  -9.7299  -9.6566  -9.5518  -9.5273  -9.5129  -9.2873
    -9.2777  -9.1918  -9.0310  -8.9471  -8.8991  -8.8737  -8.8283  -8.7823
    17.3686  17.4701  17.5453  17.6537  17.7122  17.7228  17.8184  17.8197
    17.9516  18.0803  18.1055  18.1912  18.2232  18.3644  18.4419  18.5390
    18.5476  18.6797  18.7590  18.7837  19.9102  20.6039  20.8047  21.2672
    21.3337  21.7380  22.2542  22.3961  22.5041  22.5239  22.8142  22.9942
    23.3218  23.3421  23.6023  23.8727  23.8854  23.9716  24.2020  24.2272
    24.5406  24.7366  24.8059  25.5274  25.5717  25.8399  25.8609  26.0131
    26.1498  26.8415  26.8454  27.2887  27.3376  27.6037  27.7090  27.8569
    27.9623  28.2478  28.4568  28.5578  28.6091  28.7143  29.9728  30.1530
    30.4416  30.5952  30.9318  31.3081  31.3520  31.5252  31.9991  34.0120
    34.2026  34.9048  35.4411  36.0341  36.7697  37.0034  37.5799  37.7286
    37.9841  38.1734  38.3405  38.3872  38.6407  38.8809  39.2552  39.4753
    39.7275

          k = 0.0000 0.3847 0.1555 (  5814 PWs)   bands (ev):

   -61.3980 -61.3913 -61.3874 -61.3842 -38.7787 -38.7250 -38.5512 -38.5238
   -38.4449 -38.4427 -38.3834 -38.3001 -25.5937 -25.5865 -25.5777 -25.5768
   -25.5689 -25.5654 -25.5361 -25.5313 -25.5130 -25.5097 -25.5084 -25.5037
   -11.2933 -11.0910 -10.6336 -10.3495 -10.2200 -10.0989 -10.0905 -10.0643
    -9.9578  -9.9438  -9.8086  -9.7172  -9.5530  -9.4703  -9.3869  -9.2919
    -9.2193  -9.1635  -8.9949  -8.9856  -8.9649  -8.8523  -8.8306  -8.8176
    17.3982  17.4929  17.5735  17.6178  17.6452  17.6924  17.8097  17.8614
    17.9592  18.0373  18.0564  18.2569  18.2791  18.3685  18.4511  18.5273
    18.6074  18.6528  18.6663  18.7835  20.0928  20.6260  20.7126  21.2788
    21.4427  21.7187  22.0851  22.4245  22.5712  22.6035  22.7903  22.9289
    23.0029  23.3062  23.4955  23.5744  23.8310  23.9126  24.1057  24.1697
    24.7900  24.9636  25.1727  25.4233  25.8570  26.0791  26.0980  26.1983
    26.4050  26.6691  26.6944  27.3536  27.3558  27.5065  27.5908  27.8723
    27.8800  27.9924  28.0243  28.5611  28.5940  28.6214  29.8800  30.2341
    30.2721  30.3719  30.7282  31.5357  31.9099  31.9853  32.1542  33.6103
    34.0449  35.1571  35.3043  35.8634  36.1869  37.3099  37.6633  37.8150
    37.9453  38.0841  38.2794  38.5875  38.8248  38.8414  39.5809  39.6124
    39.6443

          k = 0.0000 0.3847-0.3109 (  5820 PWs)   bands (ev):

   -61.3956 -61.3956 -61.3879 -61.3878 -38.7525 -38.7525 -38.5427 -38.5427
   -38.4446 -38.4446 -38.3364 -38.3364 -25.5888 -25.5887 -25.5783 -25.5782
   -25.5723 -25.5723 -25.5383 -25.5382 -25.5099 -25.5099 -25.5057 -25.5057
   -11.2169 -11.2169 -10.4484 -10.4484 -10.1522 -10.1522 -10.0714 -10.0714
    -9.9685  -9.9685  -9.8613  -9.8613  -9.4745  -9.4745  -9.3139  -9.3139
    -9.0903  -9.0903  -9.0715  -9.0715  -8.9020  -8.9020  -8.8354  -8.8354
    17.4897  17.4897  17.5620  17.5621  17.6348  17.6348  17.8538  17.8539
    17.9468  17.9468  18.2065  18.2065  18.3430  18.3430  18.4691  18.4691
    18.6432  18.6432  18.7022  18.7022  20.4350  20.4350  20.8948  20.8948
    21.7779  21.7779  22.1466  22.1466  22.5277  22.5277  22.8013  22.8013
    23.0343  23.0343  23.5684  23.5685  23.7998  23.7998  23.9898  23.9898
    25.0713  25.0714  25.6216  25.6216  25.9933  25.9933  26.3125  26.3125
    26.5547  26.5547  27.1665  27.1665  27.3960  27.3960  27.4577  27.4577
    27.7926  27.7926  28.1285  28.1285  28.5995  28.5995  29.8334  29.8334
    30.3389  30.3389  31.2960  31.2960  32.2248  32.2248  32.8320  32.8320
    34.2692  34.2692  36.1010  36.1010  36.2751  36.2752  37.7642  37.7643
    37.9869  37.9870  38.3758  38.3758  39.1694  39.1694  39.5101  39.5102
    39.9927

          k =-0.4997-0.2885 0.0000 (  5804 PWs)   bands (ev):

   -61.3950 -61.3930 -61.3854 -61.3768 -38.7456 -38.6781 -38.6026 -38.5466
   -38.4455 -38.4409 -38.4084 -38.2801 -25.5970 -25.5824 -25.5761 -25.5691
   -25.5631 -25.5497 -25.5482 -25.5388 -25.5102 -25.5086 -25.5079 -25.4945
   -11.1460 -10.8181 -10.7564 -10.3834 -10.1892 -10.0961 -10.0328  -9.8804
    -9.8591  -9.7694  -9.7361  -9.7330  -9.6675  -9.6440  -9.5588  -9.5291
    -9.3844  -9.2638  -9.0676  -8.9734  -8.9031  -8.8750  -8.8308  -8.7594
    17.4097  17.4717  17.5248  17.6017  17.6598  17.6693  17.7509  17.9157
    17.9430  18.0618  18.0715  18.1184  18.1499  18.3699  18.5250  18.5444
    18.5873  18.6234  18.7275  18.8446  20.8460  20.9990  21.1563  21.1960
    21.7250  21.7540  21.9293  22.2801  22.8878  22.9129  22.9959  23.5278
    23.5461  23.5678  23.5736  24.0937  24.2060  24.2099  24.3584  24.5028
    24.7849  24.8712  24.9892  25.0673  25.1637  25.2849  25.5805  25.8572
    25.9841  26.0007  26.3814  26.4055  26.6052  27.2945  27.5209  27.6367
    27.6397  27.7871  27.8592  27.9446  28.1078  28.4272  29.5752  30.0756
    30.3312  30.7798  30.9084  30.9610  31.2318  32.0292  32.4748  34.0471
    34.3853  35.8014  36.5685  36.6278  36.8091  36.9716  37.3661  37.6891
    38.5520  38.5697  38.6677  38.7674  38.9467  39.0723  39.2555  39.2888
    39.6333

          k =-0.4997-0.2885 0.1555 (  5822 PWs)   bands (ev):

   -61.3988 -61.3987 -61.3865 -61.3836 -38.7364 -38.6854 -38.6006 -38.5669
   -38.4463 -38.4435 -38.3805 -38.2952 -25.5931 -25.5918 -25.5819 -25.5713
   -25.5680 -25.5651 -25.5519 -25.5405 -25.5121 -25.5120 -25.5069 -25.4977
   -11.1255 -10.9445 -10.6134 -10.4001 -10.1652 -10.0681 -10.0127  -9.9251
    -9.9007  -9.8660  -9.7383  -9.7259  -9.7001  -9.6759  -9.5469  -9.5333
    -9.2827  -9.2033  -9.0123  -9.0059  -8.9639  -8.8553  -8.8348  -8.7975
    17.4496  17.4527  17.5758  17.5970  17.6445  17.6518  17.7554  17.8024
    17.8301  18.0655  18.2106  18.2179  18.2432  18.3767  18.4604  18.5146
    18.6101  18.6186  18.7228  18.7401  20.9056  21.0034  21.1996  21.2947
    21.6100  21.6721  22.1111  22.3540  22.8489  22.9174  22.9720  23.0333
    23.4870  23.5390  23.5430  23.9491  23.9872  24.5095  24.5221  24.5265
    24.9091  24.9843  25.0646  25.1863  25.1976  25.3865  25.4098  25.9891
    26.0364  26.1953  26.3477  26.4589  26.7249  27.0454  27.2922  27.5190
    27.5616  27.7101  27.7146  27.9751  28.0323  28.3223  29.9848  30.1116
    30.3197  30.5364  30.7149  31.1116  31.8119  32.1555  32.7735  33.2722
    34.6310  35.9911  36.0784  36.1909  36.4315  37.5651  37.6526  37.6602
    38.0456  38.3216  38.4573  38.5714  38.8099  39.0678  39.3219  39.5834
    39.8981

          k =-0.4997-0.2885-0.3109 (  5804 PWs)   bands (ev):

   -61.3913 -61.3912 -61.3843 -61.3842 -38.7091 -38.7091 -38.5885 -38.5885
   -38.4443 -38.4443 -38.3325 -38.3325 -25.5890 -25.5889 -25.5743 -25.5743
   -25.5582 -25.5582 -25.5361 -25.5360 -25.5083 -25.5083 -25.5075 -25.5074
   -11.0582 -11.0581 -10.4721 -10.4720 -10.0680 -10.0680  -9.9909  -9.9909
    -9.9456  -9.9456  -9.7248  -9.7248  -9.7085  -9.7085  -9.5345  -9.5345
    -9.1234  -9.1234  -9.0770  -9.0770  -8.8850  -8.8850  -8.8404  -8.8403
    17.4958  17.4958  17.5667  17.5668  17.6389  17.6389  17.6998  17.6999
    17.9610  17.9611  18.3250  18.3251  18.3334  18.3335  18.4779  18.4779
    18.6149  18.6149  18.6403  18.6404  20.9657  20.9657  21.3868  21.3868
    21.5897  21.5897  22.2949  22.2949  22.5551  22.5552  23.0581  23.0581
    23.4952  23.4952  23.8017  23.8017  24.1078  24.1078  24.5983  24.5983
    24.8834  24.8834  25.2086  25.2086  25.4052  25.4052  25.7937  25.7937
    26.3356  26.3356  26.3881  26.3881  26.8995  26.8995  27.1648  27.1648
    27.5731  27.5731  27.7735  27.7735  28.1098  28.1098  29.8704  29.8704
    30.3845  30.3845  31.7116  31.7116  32.2289  32.2290  32.4255  32.4255
    34.8933  34.8933  36.3218  36.3218  36.8628  36.8628  38.0073  38.0074
    38.0326  38.0327  38.5915  38.5916  38.7946  38.7946  39.3019  39.3019
    40.1042

          k =-0.4997 0.0962 0.0000 (  5837 PWs)   bands (ev):

   -61.4044 -61.3950 -61.3945 -61.3875 -38.7483 -38.6769 -38.6049 -38.5483
   -38.4466 -38.4440 -38.4100 -38.2806 -25.5986 -25.5955 -25.5863 -25.5823
   -25.5763 -25.5573 -25.5492 -25.5328 -25.5181 -25.5124 -25.5111 -25.5069
   -11.1211 -10.7984 -10.7566 -10.4230 -10.2248 -10.1803 -10.1208  -9.8901
    -9.8413  -9.8207  -9.7248  -9.6634  -9.6437  -9.5845  -9.5606  -9.4476
    -9.3175  -9.2411  -9.0566  -8.9631  -8.9544  -8.9327  -8.8955  -8.7675
    17.4111  17.4563  17.5610  17.5809  17.6765  17.6824  17.8060  17.9044
    17.9610  18.0143  18.0726  18.1030  18.1594  18.2211  18.3255  18.4978
    18.7132  18.7437  18.8114  18.8812  20.7000  21.1355  21.1766  21.4613
    21.6767  22.0417  22.1089  22.2668  22.6314  22.9177  22.9986  23.1804
    23.4760  23.6075  23.7828  23.7936  24.1227  24.2229  24.2272  24.2860
    24.3485  24.7457  24.8651  25.0345  25.2988  25.3003  25.4233  25.6920
    26.2914  26.3462  26.3491  26.7130  26.9178  26.9481  26.9660  27.7202
    27.7374  27.7986  28.4410  28.6322  28.6404  28.6813  29.7172  29.9246
    30.0582  30.0746  30.3291  30.8561  31.1996  32.6531  32.8792  34.3800
    34.7193  35.0889  35.7882  36.3278  36.6278  36.8520  37.2483  37.8037
    38.1942  38.3749  38.6128  38.7199  38.8486  38.9301  39.2796  39.3792
    39.4875

          k =-0.4997 0.0962 0.1555 (  5830 PWs)   bands (ev):

   -61.3998 -61.3947 -61.3914 -61.3888 -38.7375 -38.6868 -38.6012 -38.5666
   -38.4450 -38.4437 -38.3822 -38.2942 -25.5954 -25.5916 -25.5838 -25.5807
   -25.5711 -25.5602 -25.5420 -25.5395 -25.5148 -25.5114 -25.5099 -25.5086
   -11.0982 -10.9230 -10.6194 -10.4419 -10.2071 -10.1267 -10.0894  -9.9506
    -9.8611  -9.8362  -9.8166  -9.7687  -9.6348  -9.6216  -9.4391  -9.3791
    -9.2707  -9.2097  -9.0322  -8.9983  -8.9670  -8.9238  -8.9020  -8.7963
    17.4414  17.4763  17.5320  17.5798  17.6554  17.6955  17.7862  17.8592
    17.9081  18.0432  18.0786  18.1753  18.1923  18.2229  18.4214  18.4462
    18.6832  18.7392  18.7616  18.8557  20.8155  21.1199  21.1978  21.5173
    21.6666  21.8276  22.2692  22.4357  22.7520  22.7870  22.8807  23.0188
    23.3020  23.5522  23.6669  23.7318  23.8807  24.0969  24.2631  24.4136
    24.6568  24.7003  25.0706  25.1545  25.3090  25.4898  25.5877  25.7630
    26.1925  26.4226  26.4959  26.7429  26.8289  26.9444  27.1556  27.3993
    27.7173  27.7484  28.1375  28.3009  28.5301  28.6043  29.5226  29.5996
    30.1520  30.2426  30.7398  31.3832  32.0560  32.3908  32.9582  33.8712
    34.6040  34.8853  35.5418  35.9654  36.6322  37.1945  37.5836  37.6557
    37.8722  38.0847  38.2652  38.7621  39.0256  39.1658  39.4314  39.5341
    39.7802

          k =-0.4997 0.0962-0.3109 (  5832 PWs)   bands (ev):

   -61.3971 -61.3970 -61.3914 -61.3913 -38.7114 -38.7114 -38.5908 -38.5908
   -38.4445 -38.4445 -38.3323 -38.3323 -25.5935 -25.5934 -25.5826 -25.5825
   -25.5651 -25.5651 -25.5406 -25.5405 -25.5148 -25.5148 -25.5107 -25.5107
   -11.0320 -11.0320 -10.5012 -10.5012 -10.1049 -10.1049 -10.0441 -10.0441
    -9.9265  -9.9265  -9.8180  -9.8180  -9.6306  -9.6306  -9.3721  -9.3721
    -9.1706  -9.1706  -9.0595  -9.0595  -8.9225  -8.9225  -8.8774  -8.8774
    17.4950  17.4950  17.5584  17.5585  17.6050  17.6050  17.8346  17.8346
    17.9607  17.9608  18.1269  18.1269  18.3202  18.3202  18.3931  18.3931
    18.6702  18.6703  18.7984  18.7984  21.0067  21.0067  21.3624  21.3624
    21.7868  21.7868  22.4285  22.4285  22.6144  22.6144  22.9291  22.9291
    23.2550  23.2550  23.6830  23.6830  24.1122  24.1122  24.2535  24.2535
    24.6078  24.6078  25.3089  25.3089  25.4709  25.4709  25.9689  25.9689
    26.2991  26.2991  26.5200  26.5200  26.8393  26.8394  27.3417  27.3417
    27.7393  27.7394  27.9415  27.9415  28.3491  28.3491  29.4332  29.4332
    30.2457  30.2457  31.7055  31.7056  32.5072  32.5072  33.0959  33.0959
    34.2958  34.2958  35.6853  35.6853  37.0900  37.0900  37.5186  37.5186
    37.8362  37.8362  38.5573  38.5573  39.0053  39.0054  39.6824  39.6825
    40.0182

     the Fermi energy is    30.8985 ev

!    total energy              =   -2783.66975772 Ry
     Harris-Foulkes estimate   =   -2783.66976151 Ry
     estimated scf accuracy    <       0.00000429 Ry

     The total energy is the sum of the following terms:

     one-electron contribution =    -288.07066663 Ry
     hartree contribution      =     351.52913926 Ry
     xc contribution           =    -267.95542955 Ry
     ewald contribution        =   -2578.80727328 Ry
     smearing contrib. (-TS)   =      -0.36552753 Ry

     convergence has been achieved in  11 iterations

     Forces acting on atoms (Ry/au):

     atom    1 type  1   force =     0.00000000    0.00000000    0.00579957
     atom    2 type  1   force =     0.00000000    0.00000000    0.00579957
     atom    3 type  1   force =     0.00000000    0.00000000   -0.00579957
     atom    4 type  1   force =     0.00000000    0.00000000   -0.00579957
     atom    5 type  2   force =     0.00000000    0.00000000    0.00000000
     atom    6 type  2   force =     0.00000000    0.00000000    0.00000000
     atom    7 type  2   force =     0.00000000    0.04293960    0.00000000
     atom    8 type  2   force =    -0.03718678    0.02146980    0.00000000
     atom    9 type  2   force =     0.03718678    0.02146980    0.00000000
     atom   10 type  2   force =    -0.03718678   -0.02146980    0.00000000
     atom   11 type  2   force =     0.03718678   -0.02146980    0.00000000
     atom   12 type  2   force =     0.00000000   -0.04293960    0.00000000

     Total force =     0.105818     Total SCF correction =     0.000000


     entering subroutine stress ...

          total   stress  (Ry/bohr**3)                   (kbar)     P=  696.00
   0.00470462   0.00000000   0.00000000        692.07      0.00      0.00
   0.00000000   0.00470462   0.00000000          0.00    692.07      0.00
   0.00000000   0.00000000   0.00478480          0.00      0.00    703.87


     Writing output data file Prototype-La-hP12-MgZn2.save
 
     init_run     :      5.00s CPU      6.18s WALL (       2 calls)
     electrons    :    943.49s CPU   1135.07s WALL (       5 calls)
     update_pot   :      2.99s CPU      3.02s WALL (       3 calls)
     forces       :      6.29s CPU      6.82s WALL (       5 calls)
     stress       :     16.27s CPU     17.48s WALL (       5 calls)

     Called by init_run:
     wfcinit      :      3.90s CPU      5.06s WALL (       2 calls)
     potinit      :      0.48s CPU      0.49s WALL (       2 calls)

     Called by electrons:
     c_bands      :    913.25s CPU   1075.82s WALL (      42 calls)
     sum_band     :     29.38s CPU     39.90s WALL (      42 calls)
     v_of_rho     :      0.22s CPU      0.26s WALL (      47 calls)
     mix_rho      :      0.18s CPU      0.24s WALL (      42 calls)

     Called by c_bands:
     init_us_2    :      1.68s CPU      2.06s WALL (    1152 calls)
     ccgdiagg     :    816.90s CPU    951.52s WALL (     575 calls)
     wfcrot       :     98.61s CPU    126.61s WALL (     587 calls)

     Called by *cgdiagg:
     h_psi        :    560.34s CPU    698.22s WALL (  350248 calls)
     cdiaghg      :      4.93s CPU      5.61s WALL (     587 calls)

     Called by h_psi:
     add_vuspsi   :     80.00s CPU     91.69s WALL (  350248 calls)

     General routines
     calbec       :    228.30s CPU    250.76s WALL (  700029 calls)
     fft          :      0.29s CPU      0.37s WALL (     211 calls)
     fftw         :    357.08s CPU    451.57s WALL (  929208 calls)
     davcio       :      0.81s CPU      2.11s WALL (    1656 calls)
 
     Parallel routines
     fft_scatter  :    173.73s CPU    222.49s WALL (  929419 calls)
 
     PWSCF        : 16m14.43s CPU    19m32.15s WALL

 
   This run was terminated on:   1:15:31  23Mar2018            

=------------------------------------------------------------------------------=
   JOB DONE.
=------------------------------------------------------------------------------=
