
     Program PWSCF v.5.0.2 starts on 23Mar2018 at  0:55:58 

     This program is part of the open-source Quantum ESPRESSO suite
     for quantum simulation of materials; please cite
         "P. Giannozzi et al., J. Phys.:Condens. Matter 21 395502 (2009);
          URL http://www.quantum-espresso.org", 
     in publications or presentations arising from this work. More details at
     http://www.quantum-espresso.org/quote.php

     Parallel version (MPI), running on     4 processors
     R & G space division:  proc/nbgrp/npool/nimage =       4

     Current dimensions of program PWSCF are:
     Max number of different atomic species (ntypx) = 10
     Max number of k-points (npk) =  40000
     Max angular momentum in pseudopotentials (lmaxx) =  3
     Waiting for input...
     Reading input from standard input

     Subspace diagonalization in iterative solution of the eigenvalue problem:
     a serial algorithm will be used

 
     Parallelization info
     --------------------
     sticks:   dense  smooth     PW     G-vecs:    dense   smooth      PW
     Min         233     233     69                 5311     5311     851
     Max         234     234     70                 5314     5314     854
     Sum         933     933    277                21247    21247    3407
 


     bravais-lattice index     =            0
     lattice parameter (alat)  =       8.5346  a.u.
     unit-cell volume          =     621.6493 (a.u.)^3
     number of atoms/cell      =            8
     number of atomic types    =            2
     number of electrons       =       162.00
     number of Kohn-Sham states=           97
     kinetic-energy cutoff     =      40.0000  Ry
     charge density cutoff     =     160.0000  Ry
     convergence threshold     =      1.0E-04
     mixing beta               =       0.7000
     number of iterations used =            8  plain     mixing
     Exchange-correlation      = SLA-PZ-NOGX-NOGC ( 1 1 0 0 0)
     EXX-fraction              =        0.00
     nstep                     =           50


     celldm(1)=   8.534573  celldm(2)=   0.000000  celldm(3)=   0.000000
     celldm(4)=   0.000000  celldm(5)=   0.000000  celldm(6)=   0.000000

     crystal axes: (cart. coord. in units of alat)
               a(1) = (   1.000000   0.000000   0.000000 )  
               a(2) = (   0.000000   1.000000   0.000000 )  
               a(3) = (   0.000000   0.000000   1.000000 )  

     reciprocal axes: (cart. coord. in units 2 pi/alat)
               b(1) = (  1.000000  0.000000  0.000000 )  
               b(2) = (  0.000000  1.000000  0.000000 )  
               b(3) = (  0.000000  0.000000  1.000000 )  


     PseudoPot. # 1 for Ho read from file:
     /home/cwx6513/pp.La/Ho.UPF
     MD5 check sum: f307ee11bce99f5b724fa279e3790763
     Pseudo is Norm-conserving, Zval = 21.0
     Generated in analytical, separable form
     Using radial grid of 1265 points,  6 beta functions with: 
                l(1) =   0
                l(2) =   0
                l(3) =   1
                l(4) =   1
                l(5) =   2
                l(6) =   3

     PseudoPot. # 2 for Gd read from file:
     /home/cwx6513/pp.La/Gd.UPF
     MD5 check sum: 09a8be538722f05520810cb6aac0efd2
     Pseudo is Norm-conserving, Zval = 18.0
     Generated in analytical, separable form
     Using radial grid of 1263 points,  6 beta functions with: 
                l(1) =   0
                l(2) =   0
                l(3) =   1
                l(4) =   1
                l(5) =   2
                l(6) =   3

     atomic species   valence    mass     pseudopotential
        Cr            21.00    51.99610     Ho( 1.00)
        Si            18.00    28.08550     Gd( 1.00)

     48 Sym. Ops., with inversion, found (24 have fractional translation)



   Cartesian axes

     site n.     atom                  positions (alat units)
         1           Cr  tau(   1) = (   0.0000000   0.5000000   0.2500000  )
         2           Cr  tau(   2) = (   0.0000000   0.5000000   0.7500000  )
         3           Cr  tau(   3) = (   0.5000000   0.7500000   0.0000000  )
         4           Cr  tau(   4) = (   0.5000000   0.2500000   0.0000000  )
         5           Cr  tau(   5) = (   0.7500000   0.0000000   0.5000000  )
         6           Cr  tau(   6) = (   0.2500000   0.0000000   0.5000000  )
         7           Si  tau(   7) = (   0.5000000   0.5000000   0.5000000  )
         8           Si  tau(   8) = (   0.0000000   0.0000000   0.0000000  )

     number of k points=    48  gaussian smearing, width (Ry)=  0.1000
                       cart. coord. in units 2pi/alat
        k(    1) = (   0.0000000   0.0000000   0.0000000), wk =   0.0095238
        k(    2) = (   0.0000000   0.0000000   0.1428571), wk =   0.0190476
        k(    3) = (   0.0000000   0.0000000   0.2857143), wk =   0.0190476
        k(    4) = (   0.0000000   0.0000000   0.4285714), wk =   0.0190476
        k(    5) = (   0.0000000   0.1666667   0.0000000), wk =   0.0190476
        k(    6) = (   0.0000000   0.1666667   0.1428571), wk =   0.0380952
        k(    7) = (   0.0000000   0.1666667   0.2857143), wk =   0.0380952
        k(    8) = (   0.0000000   0.1666667   0.4285714), wk =   0.0380952
        k(    9) = (   0.0000000   0.3333333   0.0000000), wk =   0.0190476
        k(   10) = (   0.0000000   0.3333333   0.1428571), wk =   0.0380952
        k(   11) = (   0.0000000   0.3333333   0.2857143), wk =   0.0380952
        k(   12) = (   0.0000000   0.3333333   0.4285714), wk =   0.0380952
        k(   13) = (   0.0000000  -0.5000000   0.0000000), wk =   0.0095238
        k(   14) = (   0.0000000  -0.5000000   0.1428571), wk =   0.0190476
        k(   15) = (   0.0000000  -0.5000000   0.2857143), wk =   0.0190476
        k(   16) = (   0.0000000  -0.5000000   0.4285714), wk =   0.0190476
        k(   17) = (   0.2000000   0.0000000   0.0000000), wk =   0.0190476
        k(   18) = (   0.2000000   0.0000000   0.1428571), wk =   0.0380952
        k(   19) = (   0.2000000   0.0000000   0.2857143), wk =   0.0380952
        k(   20) = (   0.2000000   0.0000000   0.4285714), wk =   0.0380952
        k(   21) = (   0.2000000   0.1666667   0.0000000), wk =   0.0380952
        k(   22) = (   0.2000000   0.1666667   0.1428571), wk =   0.0761905
        k(   23) = (   0.2000000   0.1666667   0.2857143), wk =   0.0761905
        k(   24) = (   0.2000000   0.1666667   0.4285714), wk =   0.0761905
        k(   25) = (   0.2000000   0.3333333   0.0000000), wk =   0.0380952
        k(   26) = (   0.2000000   0.3333333   0.1428571), wk =   0.0761905
        k(   27) = (   0.2000000   0.3333333   0.2857143), wk =   0.0761905
        k(   28) = (   0.2000000   0.3333333   0.4285714), wk =   0.0761905
        k(   29) = (   0.2000000  -0.5000000   0.0000000), wk =   0.0190476
        k(   30) = (   0.2000000  -0.5000000   0.1428571), wk =   0.0380952
        k(   31) = (   0.2000000  -0.5000000   0.2857143), wk =   0.0380952
        k(   32) = (   0.2000000  -0.5000000   0.4285714), wk =   0.0380952
        k(   33) = (   0.4000000   0.0000000   0.0000000), wk =   0.0190476
        k(   34) = (   0.4000000   0.0000000   0.1428571), wk =   0.0380952
        k(   35) = (   0.4000000   0.0000000   0.2857143), wk =   0.0380952
        k(   36) = (   0.4000000   0.0000000   0.4285714), wk =   0.0380952
        k(   37) = (   0.4000000   0.1666667   0.0000000), wk =   0.0380952
        k(   38) = (   0.4000000   0.1666667   0.1428571), wk =   0.0761905
        k(   39) = (   0.4000000   0.1666667   0.2857143), wk =   0.0761905
        k(   40) = (   0.4000000   0.1666667   0.4285714), wk =   0.0761905
        k(   41) = (   0.4000000   0.3333333   0.0000000), wk =   0.0380952
        k(   42) = (   0.4000000   0.3333333   0.1428571), wk =   0.0761905
        k(   43) = (   0.4000000   0.3333333   0.2857143), wk =   0.0761905
        k(   44) = (   0.4000000   0.3333333   0.4285714), wk =   0.0761905
        k(   45) = (   0.4000000  -0.5000000   0.0000000), wk =   0.0190476
        k(   46) = (   0.4000000  -0.5000000   0.1428571), wk =   0.0380952
        k(   47) = (   0.4000000  -0.5000000   0.2857143), wk =   0.0380952
        k(   48) = (   0.4000000  -0.5000000   0.4285714), wk =   0.0380952

     Dense  grid:    21247 G-vectors     FFT dimensions: (  36,  36,  36)

     Largest allocated arrays     est. size (Mb)     dimensions
        Kohn-Sham Wavefunctions         1.01 Mb     (    683,   97)
        NL pseudopotentials             1.67 Mb     (    683,  160)
        Each V/rho on FFT grid          0.18 Mb     (  11664)
        Each G-vector array             0.04 Mb     (   5314)
        G-vector shells                 0.04 Mb     (   5314)
     Largest temporary arrays     est. size (Mb)     dimensions
        Each subspace H/S matrix        0.14 Mb     (  97,  97)
        Each <psi_i|beta_j> matrix      0.24 Mb     (    160,   97)
        Arrays for rho mixing           1.42 Mb     (  11664,   8)

     Initial potential from superposition of free atoms

     Starting from uniform charge
     Starting wfc are    0 randomized atomic wfcs

     total cpu time spent up to now is        4.6 secs

     Self-consistent Calculation

     iteration #  1     ecut=    40.00 Ry     beta=0.70
     CG style diagonalization
     c_bands:  5 eigenvalues not converged
     c_bands:  5 eigenvalues not converged
     c_bands:  5 eigenvalues not converged
     c_bands:  5 eigenvalues not converged
     c_bands:  4 eigenvalues not converged
     c_bands:  5 eigenvalues not converged
     c_bands:  4 eigenvalues not converged
     ethr =  1.00E-02,  avg # of iterations = 15.2

     total cpu time spent up to now is       70.2 secs

     total energy              =   -1863.20484389 Ry
     Harris-Foulkes estimate   =   -2450.98811663 Ry
     estimated scf accuracy    <     741.37483407 Ry

     iteration #  2     ecut=    40.00 Ry     beta=0.70
     CG style diagonalization
     c_bands:  1 eigenvalues not converged
     c_bands:  1 eigenvalues not converged
     c_bands:  2 eigenvalues not converged
     c_bands:  1 eigenvalues not converged
     c_bands:  1 eigenvalues not converged
     c_bands:  1 eigenvalues not converged
     c_bands:  1 eigenvalues not converged
     c_bands:  2 eigenvalues not converged
     c_bands:  1 eigenvalues not converged
     c_bands:  1 eigenvalues not converged
     c_bands:  1 eigenvalues not converged
     c_bands:  1 eigenvalues not converged
     c_bands:  3 eigenvalues not converged
     c_bands:  5 eigenvalues not converged
     c_bands:  1 eigenvalues not converged
     c_bands:  1 eigenvalues not converged
     c_bands:  1 eigenvalues not converged
     c_bands:  3 eigenvalues not converged
     c_bands:  2 eigenvalues not converged
     c_bands:  3 eigenvalues not converged
     ethr =  1.00E-02,  avg # of iterations = 12.1

     total cpu time spent up to now is      122.5 secs

     total energy              =   -1933.54278904 Ry
     Harris-Foulkes estimate   =   -2329.96497936 Ry
     estimated scf accuracy    <     721.50138722 Ry

     iteration #  3     ecut=    40.00 Ry     beta=0.70
     CG style diagonalization
     ethr =  1.00E-02,  avg # of iterations =  8.7

     total cpu time spent up to now is      160.2 secs

     total energy              =   -2142.36775079 Ry
     Harris-Foulkes estimate   =   -2183.81907292 Ry
     estimated scf accuracy    <      85.81270726 Ry

     iteration #  4     ecut=    40.00 Ry     beta=0.70
     CG style diagonalization
     ethr =  1.00E-02,  avg # of iterations =  4.3

     total cpu time spent up to now is      178.5 secs

     total energy              =   -2155.02829148 Ry
     Harris-Foulkes estimate   =   -2155.81341980 Ry
     estimated scf accuracy    <       1.84985586 Ry

     iteration #  5     ecut=    40.00 Ry     beta=0.70
     CG style diagonalization
     ethr =  1.14E-03,  avg # of iterations =  4.0

     total cpu time spent up to now is      195.9 secs

     total energy              =   -2155.20168105 Ry
     Harris-Foulkes estimate   =   -2155.35700509 Ry
     estimated scf accuracy    <       0.26986997 Ry

     iteration #  6     ecut=    40.00 Ry     beta=0.70
     CG style diagonalization
     c_bands:  1 eigenvalues not converged
     c_bands:  1 eigenvalues not converged
     c_bands:  1 eigenvalues not converged
     c_bands:  1 eigenvalues not converged
     c_bands:  1 eigenvalues not converged
     ethr =  1.67E-04,  avg # of iterations =  4.1

     total cpu time spent up to now is      213.6 secs

     total energy              =   -2155.27700254 Ry
     Harris-Foulkes estimate   =   -2155.29275285 Ry
     estimated scf accuracy    <       0.02839832 Ry

     iteration #  7     ecut=    40.00 Ry     beta=0.70
     CG style diagonalization
     c_bands:  1 eigenvalues not converged
     c_bands:  1 eigenvalues not converged
     c_bands:  1 eigenvalues not converged
     c_bands:  1 eigenvalues not converged
     c_bands:  2 eigenvalues not converged
     c_bands:  1 eigenvalues not converged
     c_bands:  1 eigenvalues not converged
     c_bands:  1 eigenvalues not converged
     c_bands:  1 eigenvalues not converged
     ethr =  1.75E-05,  avg # of iterations =  4.2

     total cpu time spent up to now is      231.4 secs

     total energy              =   -2155.28515529 Ry
     Harris-Foulkes estimate   =   -2155.28528459 Ry
     estimated scf accuracy    <       0.00028701 Ry

     iteration #  8     ecut=    40.00 Ry     beta=0.70
     CG style diagonalization
     c_bands:  1 eigenvalues not converged
     c_bands:  1 eigenvalues not converged
     c_bands:  1 eigenvalues not converged
     c_bands:  1 eigenvalues not converged
     c_bands:  1 eigenvalues not converged
     ethr =  1.77E-07,  avg # of iterations =  5.2

     total cpu time spent up to now is      253.7 secs

     total energy              =   -2155.28549114 Ry
     Harris-Foulkes estimate   =   -2155.28564353 Ry
     estimated scf accuracy    <       0.00028960 Ry

     iteration #  9     ecut=    40.00 Ry     beta=0.70
     CG style diagonalization
     c_bands:  1 eigenvalues not converged
     ethr =  1.77E-07,  avg # of iterations =  3.3

     total cpu time spent up to now is      267.3 secs

     End of self-consistent calculation

          k = 0.0000 0.0000 0.0000 (  2601 PWs)   bands (ev):

   -45.4761 -45.4514 -45.4514 -44.9314 -44.9314 -44.9314 -22.2768 -22.2418
   -11.8637 -11.8637 -11.6027 -10.1095 -10.1095 -10.1095  -9.4562  -9.4562
    -9.4562  -9.3832  -9.3832  -9.3832  -9.2116  -9.2116  -9.2116  -8.5091
    -8.5091  -8.5091   6.0944   6.0944   6.0944   6.1353   6.1353   6.1353
    27.5173  27.5173  27.7194  28.6310  28.6310  28.6310  30.6544  30.7393
    31.3345  31.3345  31.3345  31.6974  31.6974  31.6974  31.8096  31.8096
    31.8794  34.7441  34.7441  34.7441  36.0117  36.0117  36.0117  36.0904
    36.0904  36.0904  36.2081  36.2081  36.2081  36.2642  36.2642  36.6367
    36.6367  40.4011  40.4011  40.4011  40.9133  40.9133  42.1608  42.1608
    42.1608  44.6635  44.6635  44.6635  49.6162  49.8248  49.8248  51.4333
    51.4459  51.4459  51.4459  52.1272  52.1272  52.1272  54.8420  54.8421
    55.6608  55.6608  55.6610  55.8323  55.8324  55.8325  56.0166  56.0168
    56.0173

          k = 0.0000 0.0000 0.1429 (  2657 PWs)   bands (ev):

   -45.4819 -45.4619 -45.4264 -45.0152 -44.9856 -44.9856 -22.2774 -22.2567
   -11.8970 -11.8384 -11.5763 -10.1067 -10.1067 -10.0685  -9.5236  -9.5236
    -9.4554  -9.4198  -9.3763  -9.3763  -9.2705  -9.2705  -9.2628  -8.6917
    -8.5250  -8.5250   6.0642   6.0822   6.0822   6.1206   6.1363   6.1363
    27.5193  27.6514  28.0630  28.5082  28.7491  28.7491  30.8053  30.8684
    30.8930  31.1213  31.1213  31.6830  31.8188  31.8322  31.8322  32.0040
    32.1397  34.5333  34.5394  34.5394  35.5354  35.5354  35.7349  35.7355
    35.8875  36.0260  36.0260  36.3185  36.5472  36.6540  36.6540  36.8306
    37.0065  40.5515  40.7319  40.8235  40.8235  41.3973  41.5973  41.5973
    42.1366  43.0451  45.2356  45.2356  49.3231  49.4068  50.5422  51.1567
    51.4389  51.6467  51.6467  52.4338  52.4951  52.4951  54.0264  54.2555
    54.2556  54.9728  55.0270  55.0271  55.4531  56.4534  56.6868  56.9888
    57.0413

          k = 0.0000 0.0000 0.2857 (  2677 PWs)   bands (ev):

   -45.4973 -45.4719 -45.3796 -45.0813 -44.9954 -44.9954 -22.2798 -22.2658
   -11.8868 -11.8027 -11.2334 -10.0884 -10.0884  -9.9570  -9.5785  -9.5785
    -9.5493  -9.3986  -9.3390  -9.3390  -9.3062  -9.3062  -9.2930  -9.2289
    -8.5351  -8.5351   6.0383   6.0758   6.0941   6.0941   6.1409   6.1409
    27.5341  27.6897  28.3997  29.0350  29.0350  29.3139  29.9985  30.8153
    30.8153  30.9871  31.3396  31.6214  31.8143  32.0007  32.0007  32.6128
    32.6367  34.1219  34.1921  34.1921  34.7031  34.7031  34.7932  35.3812
    35.6029  36.2096  36.2096  36.4619  36.7395  37.1552  37.1552  37.2284
    37.2445  40.1366  40.1366  40.2118  40.7816  40.9298  42.0292  42.3027
    42.3027  42.3916  46.1801  46.1801  48.1138  48.7596  49.7932  51.6709
    52.0828  52.1080  52.1080  52.3827  52.3827  53.1805  53.3051  53.3051
    54.1635  54.1635  54.6414  55.3633  55.7626  56.6338  56.9159  57.3308
    57.5071

          k = 0.0000 0.0000 0.4286 (  2658 PWs)   bands (ev):

   -45.4841 -45.4561 -45.2780 -45.1722 -44.9877 -44.9877 -22.2767 -22.2703
   -11.8632 -11.8281 -10.6191 -10.0747 -10.0747  -9.9036  -9.7811  -9.6422
    -9.5893  -9.5893  -9.3612  -9.3417  -9.3417  -9.3216  -9.2733  -9.2733
    -8.5281  -8.5281   6.0300   6.0504   6.1050   6.1050   6.1467   6.1467
    27.6001  27.6751  28.5612  29.0787  29.2884  29.2884  30.5985  30.5985
    31.2127  31.2351  31.4696  31.6779  31.7433  32.3231  32.3231  33.0073
    33.2914  33.3296  33.4199  33.4199  34.3932  34.4365  34.4365  35.2331
    35.3335  36.1312  36.4728  36.4728  36.6344  36.7538  37.6095  37.6095
    37.7411  38.5698  39.1416  39.1416  41.3807  41.4563  41.7751  42.5767
    43.2803  43.2803  47.0919  47.0919  47.4164  47.9871  49.9318  50.7029
    50.7164  50.7164  52.4800  52.4800  53.2675  53.2675  53.4375  54.3851
    54.4244  54.4245  55.2380  55.6871  55.8533  56.5796  56.8055  56.8701
    58.2027

          k = 0.0000 0.1667 0.0000 (  2653 PWs)   bands (ev):

   -45.4777 -45.4553 -45.4171 -45.0240 -44.9862 -44.9862 -22.2774 -22.2570
   -11.8955 -11.8230 -11.5445 -10.0995 -10.0995 -10.0429  -9.5334  -9.5334
    -9.4634  -9.4170  -9.3651  -9.3651  -9.2749  -9.2749  -9.2664  -8.7496
    -8.5224  -8.5224   6.0624   6.0852   6.0852   6.1162   6.1373   6.1373
    27.5206  27.6620  28.2206  28.4788  28.7891  28.7891  30.7347  30.8285
    30.9658  31.0694  31.0694  31.6773  31.8202  31.8601  31.8601  32.0697
    32.2169  34.4688  34.4863  34.4863  35.4024  35.4024  35.6105  35.6676
    35.8467  36.0430  36.0430  36.3374  36.5916  36.7385  36.7385  36.8896
    37.0850  40.6031  40.6785  40.8701  40.8701  41.5383  41.5383  41.5547
    42.1266  42.6152  45.3905  45.3905  49.1560  49.3132  50.3721  51.4974
    51.5164  51.7191  51.7191  52.4008  52.6180  52.6180  53.9754  53.9755
    54.0002  54.8493  54.8494  55.0731  55.4133  56.5149  56.7883  57.0371
    57.1362

          k = 0.0000 0.1667 0.1429 (  2662 PWs)   bands (ev):

   -45.4952 -45.4378 -45.4165 -45.0225 -45.0157 -44.9891 -22.2782 -22.2619
   -11.8712 -11.7397 -11.5236 -10.0858 -10.0616 -10.0440  -9.5704  -9.5696
    -9.4477  -9.4154  -9.3791  -9.3368  -9.3119  -9.2905  -9.2443  -8.7720
    -8.7067  -8.5242   6.0647   6.0729   6.0909   6.1167   6.1229   6.1406
    27.5964  28.0471  28.2285  28.5897  28.6903  28.9162  30.6204  30.8420
    30.8513  31.0967  31.1768  31.3108  31.7169  32.0163  32.0621  32.2139
    32.4492  33.9602  34.2739  34.5782  35.1062  35.3272  35.5360  35.6686
    35.7828  35.8625  35.9268  36.1603  36.5034  36.6807  37.0382  37.2305
    37.4900  40.5351  40.6546  40.9649  41.0424  41.1122  41.5697  41.6779
    42.0400  42.9654  44.1995  45.7990  49.0046  50.1025  50.2814  50.6132
    51.2545  51.5839  51.9766  52.7693  52.9544  53.2532  53.2535  53.5825
    53.6945  54.8680  55.3744  55.5002  55.5326  56.2435  56.6835  56.9152
    57.4127

          k = 0.0000 0.1667 0.2857 (  2666 PWs)   bands (ev):

   -45.4882 -45.4393 -45.3646 -45.0840 -45.0260 -44.9918 -22.2803 -22.2676
   -11.8637 -11.6455 -11.2382 -10.0577 -10.0336  -9.9505  -9.6158  -9.6121
    -9.4857  -9.4251  -9.3633  -9.3284  -9.3172  -9.3036  -9.2492  -9.2015
    -8.7744  -8.5260   6.0456   6.0809   6.0866   6.1078   6.1205   6.1410
    27.6319  28.2029  28.5852  28.8563  29.2299  29.3450  30.0311  30.6250
    30.6419  31.1094  31.3590  31.4534  31.6904  32.0786  32.4627  32.5413
    32.9018  33.6439  33.9332  34.1350  34.4123  34.7361  35.0110  35.2316
    35.5990  35.8091  35.9351  36.2728  36.8348  36.8867  37.4025  37.5138
    37.7520  39.5334  39.9700  40.4037  41.0805  41.4179  42.0147  42.3392
    42.4147  42.5286  44.4089  46.6131  48.1545  48.8055  49.4451  50.8628
    51.8003  51.8623  52.1333  52.5293  53.0999  53.6098  53.6964  54.0222
    54.2503  54.2798  55.3424  55.4751  55.9712  56.4795  56.9776  57.4133
    57.6747

          k = 0.0000 0.1667 0.4286 (  2658 PWs)   bands (ev):

   -45.4634 -45.4429 -45.2769 -45.1701 -45.0198 -44.9979 -22.2778 -22.2736
   -11.8641 -11.6493 -10.6233 -10.0346 -10.0278  -9.8924  -9.7921  -9.6578
    -9.6265  -9.5303  -9.4582  -9.3646  -9.3207  -9.3023  -9.2764  -9.2653
    -8.7745  -8.5160   6.0339   6.0574   6.0897   6.1175   6.1294   6.1483
    27.6689  28.2119  28.7081  29.1081  29.2139  29.5153  30.3565  30.5955
    31.2015  31.2550  31.4778  31.5483  31.7544  32.2152  32.6792  33.0260
    33.1388  33.2613  33.3560  33.6932  33.9080  34.2522  34.6522  34.9313
    35.5286  35.8304  35.9767  36.3858  36.5617  36.8657  37.2260  37.7289
    38.1617  38.7076  39.2725  39.4102  41.6645  41.6681  41.9691  42.5250
    42.9749  43.3300  45.4136  46.9447  47.4548  47.6287  49.0275  50.4766
    51.0776  52.1989  52.5302  53.0047  53.0112  53.4805  53.9282  54.1007
    54.5338  54.8868  55.8401  55.9297  55.9411  56.6335  56.9740  57.0458
    57.5643

          k = 0.0000 0.3333 0.0000 (  2677 PWs)   bands (ev):

   -45.4996 -45.4754 -45.3434 -45.1277 -44.9872 -44.9872 -22.2794 -22.2684
   -11.8811 -11.8030 -11.0696 -10.0859 -10.0859  -9.9042  -9.6023  -9.5878
    -9.5878  -9.4035  -9.3868  -9.3427  -9.3427  -9.2976  -9.2976  -9.2954
    -8.5437  -8.5437   6.0305   6.0686   6.0976   6.0976   6.1408   6.1408
    27.5488  27.6914  28.4181  29.1357  29.1357  29.5549  30.0284  30.7268
    30.7268  31.0658  31.4620  31.5821  31.8006  32.0815  32.0815  32.7564
    32.9731  33.9766  33.9766  34.0242  34.3586  34.5358  34.5358  35.3042
    35.5028  36.3032  36.3032  36.5201  36.7631  37.0547  37.3171  37.3171
    37.3828  39.5808  39.7612  39.7612  40.8148  41.0779  41.9631  42.6215
    42.6986  42.6986  46.4973  46.4973  47.7346  48.5240  49.7382  51.3331
    51.7667  51.7667  52.2669  52.2669  52.4621  53.3980  53.3980  53.7125
    54.1268  54.1268  54.9398  55.4567  56.0634  56.5202  56.8774  57.3501
    57.7638

          k = 0.0000 0.3333 0.1429 (  2660 PWs)   bands (ev):

   -45.4758 -45.4403 -45.3381 -45.1096 -45.0179 -44.9937 -22.2795 -22.2683
   -11.8647 -11.6984 -11.0549 -10.0547 -10.0394  -9.8911  -9.6278  -9.6111
    -9.5208  -9.4232  -9.4105  -9.3488  -9.3323  -9.3012  -9.2890  -9.2596
    -8.7072  -8.5183   6.0379   6.0771   6.0903   6.1107   6.1260   6.1438
    27.6343  28.0649  28.5481  29.0013  29.2891  29.5811  30.0605  30.5729
    30.6652  31.1476  31.4112  31.4952  31.6874  32.1136  32.4462  32.8049
    32.9778  33.6642  33.8509  33.9912  34.2349  34.3930  34.8052  35.1715
    35.5314  35.9571  36.0595  36.3807  36.8664  36.9883  37.2389  37.4863
    37.8193  39.2875  39.7151  39.9529  41.0786  41.4129  41.9828  42.5451
    42.6882  42.7574  45.0042  46.8037  47.8158  48.4940  49.3780  50.9743
    51.4744  51.8386  52.2771  52.6161  53.0373  53.4258  53.7461  53.9701
    54.2294  54.3698  55.4435  55.6431  56.2002  56.7807  56.8393  57.3931
    57.4516

          k = 0.0000 0.3333 0.2857 (  2658 PWs)   bands (ev):

   -45.4576 -45.3951 -45.3295 -45.1117 -45.0805 -45.0020 -22.2803 -22.2740
   -11.8685 -11.2931 -11.0552 -10.0030  -9.9388  -9.8971  -9.6645  -9.6426
    -9.5107  -9.4881  -9.4278  -9.3630  -9.3340  -9.3017  -9.2788  -9.2415
    -9.1768  -8.5191   6.0415   6.0659   6.0816   6.1047   6.1271   6.1450
    27.6916  28.6633  28.7904  29.3948  29.6880  29.7421  30.1782  30.1796
    30.3003  31.2307  31.3339  31.7115  31.8230  32.0039  32.7423  32.7907
    33.3686  33.4361  33.5608  33.7405  33.7770  34.4339  34.6642  34.8504
    35.2531  35.3921  35.7989  36.3981  36.4086  37.0328  37.6256  37.6634
    37.9117  38.8826  39.6081  40.2512  41.6955  41.7898  42.4660  42.4987
    42.8998  42.9177  43.3201  46.8095  47.4933  47.5051  48.5119  50.6326
    51.3537  52.5168  53.0218  53.0391  53.6751  53.7532  54.2451  54.7397
    54.9470  55.1139  55.6102  55.8243  56.0871  56.0883  56.6424  57.1135
    57.2590

          k = 0.0000 0.3333 0.4286 (  2654 PWs)   bands (ev):

   -45.4555 -45.3562 -45.2798 -45.1708 -45.1069 -44.9953 -22.2806 -22.2780
   -11.8733 -11.0899 -10.6320  -9.9745  -9.9574  -9.8366  -9.8208  -9.6825
    -9.6481  -9.5947  -9.5167  -9.3934  -9.3561  -9.3406  -9.2704  -9.2592
    -9.2434  -8.5297   6.0340   6.0617   6.0759   6.0992   6.1363   6.1474
    27.7330  28.6816  28.8273  29.7769  29.8689  29.8727  30.1110  30.5965
    30.9543  31.3276  31.4474  31.6674  32.0898  32.1925  32.5564  32.7366
    33.0977  33.1193  33.4799  33.5995  33.9240  34.0831  34.1987  34.7835
    34.8108  35.1642  35.8035  35.9560  36.5961  36.7461  36.9391  37.7240
    38.3468  38.6036  39.5318  40.8666  41.8659  41.9942  42.2838  42.6445
    42.9233  43.4272  43.8855  45.2792  46.8817  47.6572  48.2259  49.6450
    52.1425  53.1612  53.3669  53.4481  53.4907  53.9536  54.5880  55.1143
    55.1240  55.4924  55.6122  56.0153  56.0574  56.2109  56.6906  57.1439
    57.2148

          k = 0.0000-0.5000 0.0000 (  2666 PWs)   bands (ev):

   -45.4760 -45.4760 -45.2287 -45.2287 -44.9894 -44.9894 -22.2743 -22.2743
   -11.8525 -11.8525 -10.2696 -10.2696 -10.0730 -10.0730  -9.7192  -9.7192
    -9.5934  -9.5934  -9.3540  -9.3540  -9.3430  -9.3430  -9.2675  -9.2675
    -8.5289  -8.5289   6.0339   6.0339   6.1040   6.1040   6.1461   6.1461
    27.6425  27.6425  28.7730  28.7730  29.3276  29.3276  30.5657  30.5657
    31.3594  31.3594  31.6535  31.6535  32.3349  32.3349  32.4554  32.4554
    33.1983  33.1983  33.2068  33.2068  34.4260  34.4260  35.2163  35.2163
    35.2548  35.2548  36.5221  36.5221  36.7062  36.7062  37.7123  37.7123
    38.0893  38.0893  38.9522  38.9522  41.5914  41.5914  42.0898  42.0898
    43.4221  43.4221  47.2999  47.2999  47.6031  47.6031  50.2678  50.2678
    50.3887  50.3887  52.5294  52.5294  53.1934  53.1934  54.2068  54.2069
    54.5196  54.5196  55.2344  55.2345  56.3189  56.3189  56.7523  56.7523
    58.2937

          k = 0.0000-0.5000 0.1429 (  2666 PWs)   bands (ev):

   -45.4713 -45.4567 -45.2308 -45.2278 -45.0132 -44.9934 -22.2764 -22.2763
   -11.8573 -11.7043 -10.2852 -10.2732 -10.0409 -10.0198  -9.7477  -9.7048
    -9.6189  -9.5587  -9.4472  -9.3654  -9.3262  -9.2976  -9.2806  -9.2687
    -8.7160  -8.5246   6.0343   6.0435   6.0940   6.1154   6.1345   6.1489
    27.6680  28.0758  28.7886  28.9491  29.2011  29.4993  30.3802  30.5854
    31.2846  31.5232  31.5532  31.5806  32.2324  32.2331  32.4418  32.7512
    33.1235  33.1416  33.3376  33.3677  33.9893  34.3883  34.9856  35.0537
    35.3619  35.4705  36.1231  36.3049  36.6508  36.7949  37.3171  37.7787
    38.3068  38.4828  39.1070  39.1137  41.6903  41.8478  42.0701  42.2626
    43.0736  43.4574  46.3668  46.5191  47.5374  47.5602  49.1740  50.2474
    50.9135  51.9773  52.6036  52.8246  53.1099  53.1662  54.2088  54.4638
    54.4769  54.5537  55.4449  55.9433  56.0450  56.5667  56.9661  57.0757
    57.9613

          k = 0.0000-0.5000 0.2857 (  2658 PWs)   bands (ev):

   -45.4542 -45.3846 -45.2287 -45.2272 -45.0783 -45.0018 -22.2790 -22.2790
   -11.8754 -11.2779 -10.3044 -10.2707  -9.9768  -9.9094  -9.7766  -9.6732
    -9.6674  -9.5705  -9.4904  -9.3892  -9.3319  -9.2779  -9.2697  -9.2611
    -9.1822  -8.5304   6.0342   6.0648   6.0688   6.1108   6.1301   6.1473
    27.7221  28.6522  28.9239  29.4365  29.4974  29.9582  29.9755  30.6442
    31.2120  31.2611  31.4104  31.9702  32.0894  32.3411  32.6552  32.6983
    32.9462  32.9912  33.4509  33.4819  33.8837  34.1743  34.3243  34.6680
    35.1140  35.2708  35.8397  36.0646  36.6717  36.8066  36.8753  37.7702
    38.3668  38.4207  39.4223  40.5026  41.8413  41.9716  42.5180  42.5202
    42.6244  43.5346  44.7218  45.1255  47.0752  47.8624  48.1799  49.6892
    52.0908  52.9230  53.1729  53.2356  53.4480  53.7464  54.7954  54.8954
    55.1294  55.3502  55.4620  55.6017  56.0646  56.4808  56.5565  57.1835
    57.7074

          k = 0.0000-0.5000 0.4286 (  2662 PWs)   bands (ev):

   -45.4645 -45.3032 -45.2332 -45.2325 -45.1630 -44.9926 -22.2824 -22.2823
   -11.8725 -10.6673 -10.3198 -10.2791  -9.9543  -9.8924  -9.8134  -9.7674
    -9.7010  -9.6867  -9.6596  -9.4250  -9.4100  -9.3942  -9.2488  -9.2431
    -9.2423  -8.5393   6.0227   6.0519   6.0780   6.0868   6.1468   6.1484
    27.7650  28.6831  28.7153  29.6606  30.2958  30.3922  30.5446  30.8137
    31.0118  31.5896  31.6112  31.7512  32.1791  32.2752  32.4175  32.5612
    32.8578  33.0476  33.6251  33.6398  33.7622  33.8969  33.9640  34.0385
    34.3871  35.0873  35.7018  35.7031  36.2440  36.6949  36.7666  37.6543
    38.5787  39.0200  39.6728  41.7243  41.9018  41.9117  42.0901  42.1576
    43.4741  43.6125  44.2392  44.4551  46.1494  46.9700  48.7165  48.9376
    52.9720  53.2567  53.2744  53.5132  54.0568  54.4462  54.6686  54.7170
    54.9176  55.3241  55.7223  56.1891  56.7598  56.9574  57.0208  57.3857
    57.4176

          k = 0.2000 0.0000 0.0000 (  2661 PWs)   bands (ev):

   -45.4955 -45.4575 -45.4078 -45.0379 -44.9868 -44.9868 -22.2773 -22.2609
   -11.8929 -11.8077 -11.4822 -10.0962 -10.0962 -10.0189  -9.5516  -9.5516
    -9.4931  -9.4121  -9.3550  -9.3550  -9.2812  -9.2812  -9.2722  -8.8662
    -8.5307  -8.5307   6.0536   6.0866   6.0866   6.1092   6.1388   6.1388
    27.5225  27.6726  28.4425  28.4810  28.8520  28.8520  30.5299  30.8662
    30.9959  30.9959  31.0739  31.6667  31.8213  31.8970  31.8970  32.1847
    32.3294  34.3721  34.4124  34.4124  35.2031  35.2031  35.4169  35.5770
    35.7835  36.0765  36.0765  36.3678  36.6458  36.8561  36.8561  36.9781
    37.1814  40.5996  40.6848  40.7720  40.7720  41.6325  41.6325  41.7924
    42.0021  42.1079  45.6108  45.6108  48.8860  49.1623  50.1434  51.6104
    51.8145  51.8145  52.0189  52.2573  52.7913  52.7913  53.5707  53.5707
    54.0831  54.6161  54.6163  55.2228  55.3695  56.5806  56.8824  57.1168
    57.2321

          k = 0.2000 0.0000 0.1429 (  2667 PWs)   bands (ev):

   -45.4948 -45.4430 -45.4076 -45.0369 -45.0152 -44.9954 -22.2798 -22.2629
   -11.8707 -11.7156 -11.4710 -10.0812 -10.0581 -10.0237  -9.5862  -9.5852
    -9.4546  -9.4148  -9.3730  -9.3350  -9.3224  -9.2932  -9.2475  -8.8817
    -8.7120  -8.5246   6.0611   6.0761   6.0945   6.1048   6.1218   6.1397
    27.6035  28.0576  28.4695  28.5646  28.7570  28.9832  30.4709  30.7943
    30.8282  31.0706  31.2712  31.2995  31.7049  32.0265  32.1575  32.2747
    32.5570  33.8642  34.1935  34.4949  34.9525  35.1968  35.4015  35.5697
    35.7155  35.8468  35.9416  36.1846  36.5872  36.7388  37.1261  37.3461
    37.5610  40.2977  40.5145  40.8961  41.1294  41.1525  41.7247  41.8324
    42.0358  42.6536  44.2987  45.9894  48.8270  49.8016  50.0285  50.7185
    51.4892  51.6871  52.0987  52.8305  52.8672  53.1911  53.3603  53.6407
    53.7529  54.7305  55.2793  55.4003  55.6110  56.3280  56.7920  57.1257
    57.4194

          k = 0.2000 0.0000 0.2857 (  2659 PWs)   bands (ev):

   -45.4756 -45.4274 -45.3601 -45.0803 -45.0384 -44.9941 -22.2803 -22.2681
   -11.8634 -11.5635 -11.2320 -10.0467 -10.0111  -9.9475  -9.6268  -9.6123
    -9.4653  -9.4334  -9.3635  -9.3241  -9.3236  -9.2987  -9.2460  -9.2007
    -8.8712  -8.5218   6.0479   6.0772   6.0899   6.1143   6.1159   6.1406
    27.6451  28.4025  28.7012  28.8060  29.3098  29.3556  30.0561  30.5353
    30.5407  31.1206  31.3957  31.4383  31.7342  32.0628  32.5519  32.5649
    33.0118  33.5578  33.8446  34.0672  34.3090  34.7497  34.9844  35.1288
    35.6188  35.6831  35.8093  36.2627  36.8077  36.9431  37.4634  37.5699
    37.8496  39.3941  39.9061  40.3569  41.2125  41.5577  42.0649  42.3323
    42.4620  42.6332  43.9905  46.7750  48.0591  48.4891  49.2986  50.8592
    51.6529  51.8780  52.2425  52.6613  53.3411  53.7901  53.7982  54.1134
    54.4065  54.4569  55.4166  55.4267  56.0002  56.3199  57.1083  57.3035
    57.6024

          k = 0.2000 0.0000 0.4286 (  2660 PWs)   bands (ev):

   -45.4625 -45.4309 -45.2772 -45.1737 -45.0334 -44.9997 -22.2785 -22.2746
   -11.8669 -11.5664 -10.6298 -10.0215 -10.0138  -9.8870  -9.7971  -9.6637
    -9.6391  -9.5171  -9.4852  -9.3733  -9.3137  -9.3089  -9.2737  -9.2561
    -8.8772  -8.5153   6.0360   6.0591   6.0817   6.1212   6.1230   6.1476
    27.6819  28.4085  28.7996  29.0538  29.2835  29.6108  30.2597  30.5830
    31.1725  31.2689  31.4062  31.6330  31.7615  32.2089  32.7561  33.0121
    33.0622  33.3327  33.3402  33.7499  33.7598  34.2006  34.6751  34.7921
    35.5900  35.7044  35.7762  36.3332  36.5626  36.8987  37.2051  37.7490
    38.1704  38.6696  39.3210  39.6523  41.7296  41.7406  42.1023  42.4718
    42.9156  43.3489  45.0039  46.6156  47.5248  47.5969  48.7427  50.3575
    51.3040  52.4787  52.6936  53.0647  53.0767  53.5997  54.1243  54.1336
    54.6469  55.0036  55.8412  55.8927  56.0973  56.5193  56.9347  57.0521
    57.3675

          k = 0.2000 0.1667 0.0000 (  2672 PWs)   bands (ev):

   -45.4997 -45.4427 -45.3992 -45.0419 -45.0308 -44.9955 -22.2811 -22.2636
   -11.8728 -11.6772 -11.4713 -10.0737 -10.0448 -10.0234  -9.5968  -9.5953
    -9.4481  -9.4194  -9.3738  -9.3366  -9.3248  -9.3110  -9.2464  -8.8846
    -8.7715  -8.5288   6.0592   6.0743   6.0982   6.1053   6.1146   6.1354
    27.6112  28.2082  28.4631  28.6086  28.7405  29.0280  30.4491  30.7156
    30.8031  31.0809  31.2689  31.3255  31.6915  32.0517  32.1704  32.3362
    32.6293  33.7847  34.1322  34.4539  34.8719  35.1822  35.3465  35.5125
    35.7290  35.7884  35.8966  36.1538  36.5995  36.7859  37.1814  37.4358
    37.6159  40.1562  40.4373  40.9289  41.1129  41.2330  41.7779  41.8567
    42.0317  42.7307  44.0577  46.1052  48.7548  49.7104  49.9579  50.6129
    51.5022  51.7251  52.1883  52.7018  52.9557  53.2851  53.4943  53.6462
    53.8104  54.7676  55.3154  55.3200  55.6410  56.2495  56.8899  57.1934
    57.4196

          k = 0.2000 0.1667 0.1429 (  2665 PWs)   bands (ev):

   -45.4799 -45.4262 -45.4084 -45.0408 -45.0282 -45.0073 -22.2802 -22.2659
   -11.7356 -11.6689 -11.4668 -10.0414 -10.0326 -10.0169  -9.6642  -9.5103
    -9.4838  -9.3769  -9.3718  -9.3561  -9.3403  -9.2845  -9.2638  -8.8814
    -8.7759  -8.7055   6.0663   6.0796   6.0857   6.1097   6.1186   6.1251
    28.0552  28.2361  28.4913  28.7158  28.8540  28.9426  30.4656  30.6051
    30.7511  30.9506  31.2921  31.5098  31.5545  32.0618  32.0975  32.4915
    32.8600  33.5750  33.5953  34.8471  34.9069  34.9790  35.1653  35.4906
    35.6353  35.8326  35.8518  36.1311  36.2487  36.9321  37.0112  37.7908
    37.8389  40.0540  40.1551  40.8359  41.3386  41.6067  41.6232  41.8538
    41.8836  43.1387  44.3160  44.7464  49.3357  49.5099  50.4737  50.8171
    51.1050  51.1834  51.4359  52.1244  53.3836  53.5152  53.9083  54.0363
    54.3381  54.5173  55.3339  55.5291  55.9790  56.3583  56.4882  57.5537
    57.6753

          k = 0.2000 0.1667 0.2857 (  2655 PWs)   bands (ev):

   -45.4476 -45.4129 -45.3625 -45.0836 -45.0341 -45.0216 -22.2795 -22.2713
   -11.6703 -11.5565 -11.2453 -10.0065  -9.9899  -9.9348  -9.6950  -9.5258
    -9.4861  -9.4255  -9.3804  -9.3507  -9.3205  -9.2845  -9.2624  -9.1854
    -8.8694  -8.7668   6.0565   6.0846   6.0928   6.0942   6.1188   6.1286
    28.2448  28.5006  28.8226  29.0144  29.1426  29.3999  30.0633  30.4355
    30.7339  30.9233  31.1096  31.5433  31.7257  32.0764  32.3193  32.7222
    33.1205  33.2737  33.3984  34.3712  34.5525  34.7476  34.8639  35.1949
    35.5028  35.6431  35.8028  36.0679  36.3218  37.0011  37.2683  37.7888
    38.0860  39.5692  39.8498  40.2527  41.5688  41.7820  41.8693  42.2007
    42.2852  43.0495  44.3140  44.8622  48.3160  48.5535  49.9573  50.2581
    51.1692  51.3187  52.0078  52.6955  53.7520  53.8826  54.1822  54.4795
    54.4999  55.2804  55.3542  55.6238  56.2934  56.5568  56.6880  57.3062
    57.9395

          k = 0.2000 0.1667 0.4286 (  2655 PWs)   bands (ev):

   -45.4365 -45.4196 -45.2754 -45.1764 -45.0339 -45.0195 -22.2798 -22.2761
   -11.6595 -11.5673 -10.6373 -10.0111  -9.9796  -9.8804  -9.7932  -9.7092
    -9.5721  -9.5471  -9.4413  -9.4135  -9.3064  -9.2950  -9.2830  -9.2666
    -8.8702  -8.7702   6.0473   6.0591   6.0930   6.1038   6.1262   6.1312
    28.2841  28.5126  28.9300  29.2697  29.3378  29.4672  30.4304  30.6135
    31.0760  31.1169  31.2386  31.5059  31.6296  32.1748  32.5760  32.6759
    32.8831  33.4639  33.6556  33.7559  34.0613  34.2487  34.4369  35.0231
    35.3533  35.4115  35.8502  36.1386  36.4940  36.5864  37.3340  37.4945
    38.4182  38.9465  39.6140  39.8060  41.8486  41.9610  41.9930  42.4599
    42.9520  43.0581  45.1574  45.7552  46.7574  47.1336  49.3018  49.6402
    51.5251  51.7910  52.8326  53.3524  53.5730  53.8099  54.2876  54.8709
    54.9402  55.3486  56.0233  56.2141  56.2858  56.4169  56.8200  57.0805
    57.5170

          k = 0.2000 0.3333 0.0000 (  2656 PWs)   bands (ev):

   -45.4705 -45.4280 -45.3334 -45.1096 -45.0335 -44.9920 -22.2793 -22.2705
   -11.8608 -11.5573 -11.0554 -10.0376 -10.0076  -9.8953  -9.6316  -9.6297
    -9.4977  -9.4519  -9.4185  -9.3498  -9.3163  -9.3102  -9.2874  -9.2458
    -8.8725  -8.5219   6.0407   6.0781   6.0823   6.1169   6.1200   6.1450
    27.6583  28.3929  28.7223  28.9103  29.4279  29.6233  30.0914  30.4257
    30.5532  31.1670  31.4068  31.4838  31.7539  32.0945  32.6078  32.7777
    33.1433  33.5201  33.7375  33.9210  34.0426  34.4401  34.8372  34.9835
    35.5828  35.7212  35.8084  36.3569  36.8023  36.9559  37.4020  37.5726
    37.9676  39.1176  39.6771  40.0347  41.3041  41.6280  42.0851  42.4896
    42.7335  42.8098  44.2367  47.0588  47.6141  48.0620  49.0747  51.0164
    51.1924  52.0543  52.4983  52.8292  53.3243  53.7692  53.8720  54.1590
    54.3756  54.7055  55.6182  55.6944  56.1846  56.4250  57.0557  57.1471
    57.3281

          k = 0.2000 0.3333 0.1429 (  2657 PWs)   bands (ev):

   -45.4539 -45.4185 -45.3344 -45.1149 -45.0317 -45.0152 -22.2798 -22.2726
   -11.7168 -11.5574 -11.0643 -10.0093  -9.9938  -9.8864  -9.6960  -9.5547
    -9.5094  -9.4361  -9.4219  -9.3879  -9.3164  -9.3043  -9.2861  -9.2622
    -8.8741  -8.7061   6.0476   6.0809   6.0857   6.1031   6.1210   6.1318
    28.1047  28.4781  28.8040  29.0761  29.3082  29.6327  30.1070  30.4313
    30.7729  30.8964  31.1293  31.6052  31.6914  32.1125  32.5601  32.6741
    33.0490  33.3102  33.5771  34.1294  34.3285  34.4959  34.7465  35.1276
    35.4661  35.6649  35.8115  36.1411  36.4835  36.8570  37.3716  37.6401
    38.1432  39.3075  39.7111  40.0682  41.5654  41.7544  41.9371  42.3807
    42.6513  42.9295  44.4701  45.4067  47.7781  48.2205  49.7307  50.0510
    51.3449  51.5320  52.3585  52.9041  53.6519  53.8654  54.0198  54.4623
    54.5445  55.3205  55.5945  55.8986  56.4220  56.6210  56.6737  57.1824
    57.7036

          k = 0.2000 0.3333 0.2857 (  2656 PWs)   bands (ev):

   -45.4216 -45.3843 -45.3394 -45.1103 -45.0732 -45.0364 -22.2816 -22.2770
   -11.5789 -11.2879 -11.0699  -9.9525  -9.9190  -9.8735  -9.7467  -9.5315
    -9.5173  -9.4757  -9.4439  -9.3880  -9.3327  -9.3043  -9.2881  -9.2708
    -9.1819  -8.8704   6.0582   6.0773   6.0862   6.1019   6.1030   6.1225
    28.5613  28.9898  29.1279  29.4094  29.5315  29.7499  30.1328  30.2543
    30.6636  30.7138  31.2573  31.4752  31.7467  31.8933  32.3642  32.5736
    32.8107  33.4054  33.6508  34.1019  34.1722  34.3739  34.7334  34.8836
    35.3240  35.5186  35.6693  35.8833  36.3540  36.5144  37.1550  38.0940
    38.3324  39.3857  39.5868  40.3086  41.8012  42.1113  42.1720  42.2764
    42.7124  43.2112  43.7059  44.9277  46.9881  47.8464  48.6406  49.7976
    51.1322  51.9019  52.3726  53.5641  53.8766  54.3952  54.8099  54.8716
    54.9626  55.3714  56.1705  56.2783  56.4139  56.8290  57.0977  57.2212
    57.4259

          k = 0.2000 0.3333 0.4286 (  2643 PWs)   bands (ev):

   -45.4051 -45.3526 -45.2716 -45.1684 -45.0928 -45.0367 -22.2822 -22.2793
   -11.5797 -11.0894 -10.6425  -9.9815  -9.8935  -9.8183  -9.8055  -9.7231
    -9.5726  -9.5626  -9.4841  -9.4141  -9.3543  -9.3440  -9.2965  -9.2842
    -9.2687  -8.8624   6.0538   6.0749   6.0764   6.0987   6.1155   6.1270
    28.6169  29.0455  29.1935  29.7203  29.9081  29.9715  30.2664  30.6730
    30.8228  31.1310  31.3690  31.4534  31.5755  31.8597  32.0126  32.4150
    32.8646  33.4846  33.6285  33.7403  33.8313  34.2903  34.3784  34.7273
    35.0044  35.2018  35.4813  35.8124  35.8911  36.8200  37.1438  37.7444
    38.7840  39.1175  39.6210  40.8818  41.8354  42.2530  42.3594  42.5302
    42.9568  43.0053  43.9786  45.4267  45.5070  47.0623  48.1584  48.6893
    51.5615  52.0731  53.1026  53.8465  54.5516  54.7892  55.0495  55.2889
    55.5846  55.7894  56.0679  56.3327  56.3440  56.7541  57.2352  57.4326
    57.7365

          k = 0.2000-0.5000 0.0000 (  2658 PWs)   bands (ev):

   -45.4630 -45.4267 -45.2271 -45.2256 -45.0346 -44.9932 -22.2769 -22.2766
   -11.8634 -11.5655 -10.2929 -10.2717 -10.0185  -9.9770  -9.7619  -9.6874
    -9.6346  -9.5286  -9.4933  -9.3746  -9.3109  -9.3062  -9.2681  -9.2531
    -8.8713  -8.5175   6.0345   6.0516   6.0853   6.1232   6.1255   6.1504
    27.6886  28.4204  28.8606  29.0600  29.1632  29.6591  30.2181  30.5926
    31.3017  31.4166  31.4799  31.6749  32.1890  32.2413  32.4941  32.9248
    33.0414  33.0592  33.4250  33.5073  33.7111  34.3272  34.7485  34.8854
    35.4123  35.6089  35.7551  36.2088  36.6557  36.8416  37.1606  37.7990
    38.3083  38.4759  39.2260  39.5799  41.7564  42.0368  42.1038  42.3862
    42.8335  43.4862  45.7002  45.9009  47.4206  47.7859  48.6533  50.0834
    51.3960  52.6058  52.7349  52.9068  53.1549  53.4828  54.1728  54.6246
    54.7232  54.8156  55.4547  55.8657  56.2683  56.5489  56.9403  57.0806
    57.6101

          k = 0.2000-0.5000 0.1429 (  2658 PWs)   bands (ev):

   -45.4424 -45.4243 -45.2267 -45.2266 -45.0345 -45.0145 -22.2784 -22.2782
   -11.7146 -11.5714 -10.2900 -10.2798  -9.9872  -9.9697  -9.7504  -9.7223
    -9.5964  -9.5594  -9.4475  -9.4092  -9.3031  -9.2880  -9.2831  -9.2716
    -8.8708  -8.7075   6.0448   6.0529   6.0917   6.1076   6.1257   6.1364
    28.1398  28.4950  28.9873  29.1039  29.2955  29.5449  30.3841  30.5789
    31.2147  31.2217  31.4300  31.6360  31.9495  32.0410  32.5654  32.5670
    33.1325  33.1705  33.4823  33.5978  34.0779  34.3980  34.6556  34.6984
    35.2358  35.3900  35.9051  36.2774  36.5028  36.5628  37.2593  37.4887
    38.5823  38.6486  39.4702  39.7513  41.8252  42.0046  42.2118  42.3742
    42.9150  43.1590  45.8783  45.9296  46.4789  46.8248  49.1191  49.7173
    51.5644  52.0243  53.0406  53.0597  53.4132  53.6523  54.6974  54.8703
    55.0157  55.0306  55.7743  55.8439  56.3663  56.6620  56.8576  56.9398
    57.6383

          k = 0.2000-0.5000 0.2857 (  2648 PWs)   bands (ev):

   -45.4109 -45.3821 -45.2242 -45.2238 -45.0659 -45.0346 -22.2808 -22.2805
   -11.5766 -11.2847 -10.3018 -10.2888  -9.9170  -9.8864  -9.7722  -9.7335
    -9.5827  -9.5608  -9.4480  -9.4165  -9.3276  -9.3001  -9.2832  -9.2678
    -9.1876  -8.8672   6.0527   6.0659   6.0817   6.1085   6.1110   6.1274
    28.6007  29.0060  29.2711  29.4838  29.4858  29.8056  30.3234  30.6825
    31.1317  31.1390  31.2424  31.4419  31.7685  31.8631  32.2146  32.4077
    33.2303  33.2604  33.5877  33.6484  34.1011  34.1607  34.3706  34.3943
    35.1504  35.3308  35.4180  35.9385  36.2842  36.7107  37.3329  37.4095
    38.8465  38.8875  39.7139  40.5028  41.8571  42.1603  42.3004  42.6046
    42.7850  43.0394  45.0729  45.1304  45.8187  46.4818  48.5869  48.9439
    51.5933  51.7059  53.5322  53.6307  54.2722  54.7638  55.1247  55.2256
    55.3815  55.7782  55.8546  55.8674  56.3183  56.5998  57.1189  57.3425
    57.7432

          k = 0.2000-0.5000 0.4286 (  2646 PWs)   bands (ev):

   -45.4035 -45.2859 -45.2278 -45.2237 -45.1583 -45.0384 -22.2833 -22.2831
   -11.5907 -10.6697 -10.3182 -10.2915  -9.9675  -9.8402  -9.8260  -9.7489
    -9.6785  -9.5992  -9.5984  -9.4297  -9.3845  -9.3753  -9.2932  -9.2793
    -9.2769  -8.8642   6.0473   6.0653   6.0818   6.0878   6.1225   6.1255
    28.6604  29.0534  29.0860  29.8886  30.4195  30.4866  30.5318  30.9109
    30.9251  31.3001  31.3770  31.5518  31.5669  31.8083  31.9039  32.1673
    32.7026  33.4246  33.5854  33.6168  33.6574  34.0396  34.0682  34.6640
    34.8191  35.0075  35.1265  35.3312  35.5857  37.1111  37.4106  37.4315
    39.1661  39.2633  39.7643  41.7669  41.8624  42.3049  42.3215  42.3919
    42.5898  43.4667  44.2449  44.2951  45.6256  46.9040  47.3504  47.7731
    51.9466  52.5667  53.0352  53.9429  54.3540  55.2078  55.7344  55.8285
    56.0603  56.1179  56.2880  56.2997  56.7882  57.0110  57.2835  57.5269
    58.0263

          k = 0.4000 0.0000 0.0000 (  2657 PWs)   bands (ev):

   -45.4819 -45.4622 -45.2997 -45.1520 -44.9836 -44.9836 -22.2757 -22.2703
   -11.8667 -11.8176 -10.7525 -10.0762 -10.0762  -9.8094  -9.7620  -9.6078
    -9.5911  -9.5911  -9.3640  -9.3387  -9.3387  -9.3083  -9.2819  -9.2819
    -8.5316  -8.5316   6.0294   6.0590   6.1034   6.1034   6.1473   6.1473
    27.5827  27.6835  28.5024  29.2232  29.2528  29.2528  30.6284  30.6284
    30.8449  31.1838  31.5084  31.6059  31.7658  32.2420  32.2420  32.9401
    33.3156  33.5807  33.5807  33.6346  34.1610  34.4496  34.4496  35.2424
    35.3781  36.4298  36.4298  36.4703  36.6020  36.7639  37.5304  37.5304
    37.6248  38.8192  39.2979  39.2979  41.2201  41.2932  41.8397  42.6710
    43.1471  43.1471  46.9298  46.9298  47.4388  48.1544  49.8369  50.8847
    50.9903  50.9903  52.4358  52.4358  53.1150  53.3191  53.3191  54.2491
    54.3282  54.3282  55.2085  55.7073  55.9898  56.4770  56.8244  57.0875
    58.0941

          k = 0.4000 0.0000 0.1429 (  2659 PWs)   bands (ev):

   -45.4699 -45.4462 -45.2941 -45.1535 -45.0117 -44.9980 -22.2779 -22.2720
   -11.8629 -11.6990 -10.7629 -10.0445 -10.0349  -9.8139  -9.7606  -9.6378
    -9.6174  -9.5318  -9.4361  -9.3596  -9.3284  -9.2984  -9.2838  -9.2693
    -8.7127  -8.5158   6.0335   6.0607   6.0924   6.1138   6.1329   6.1475
    27.6531  28.0699  28.6189  29.1180  29.2956  29.4168  30.4548  30.6105
    30.8631  31.2245  31.4794  31.5258  31.7131  32.1909  32.5514  33.0153
    33.1909  33.3631  33.5242  33.8526  34.0543  34.1270  34.6231  35.0518
    35.4899  36.0020  36.1018  36.5094  36.6021  36.8572  37.2149  37.6515
    38.0328  38.8719  39.3578  39.4311  41.4195  41.5535  41.9314  42.6030
    42.9732  43.1878  45.4695  47.2102  47.3590  47.8841  49.2511  50.7886
    50.9544  51.9241  52.4270  52.8381  53.0934  53.5057  53.5631  54.0749
    54.4329  54.7066  55.7059  55.8769  56.0985  56.7610  56.8291  57.0949
    57.5975

          k = 0.4000 0.0000 0.2857 (  2657 PWs)   bands (ev):

   -45.4564 -45.3852 -45.2958 -45.1565 -45.0795 -44.9997 -22.2799 -22.2765
   -11.8735 -11.2835 -10.7700  -9.9891  -9.9488  -9.8332  -9.7557  -9.6719
    -9.6429  -9.5474  -9.4751  -9.3772  -9.3381  -9.2898  -9.2679  -9.2456
    -9.1808  -8.5254   6.0368   6.0671   6.0740   6.1060   6.1288   6.1460
    27.7099  28.6465  28.8804  29.4148  29.6408  29.8529  30.0493  30.4776
    30.8083  31.3029  31.3255  31.7013  31.8663  32.1640  32.7525  32.7824
    33.1910  33.3937  33.4905  33.5431  33.9134  34.1009  34.4610  34.7600
    35.1506  35.3986  35.8276  36.0971  36.5240  36.9818  37.2176  37.7301
    38.1162  38.6686  39.4914  40.3796  41.8228  41.8576  42.3462  42.5829
    42.8532  43.2809  43.8536  46.0305  47.2238  47.8657  48.1429  50.1161
    51.7076  52.9284  53.1307  53.3491  53.4427  53.5823  54.4794  54.8873
    54.9124  55.2921  55.7517  56.0328  56.0483  56.2069  56.7032  56.9524
    57.1896

          k = 0.4000 0.0000 0.4286 (  2657 PWs)   bands (ev):

   -45.4572 -45.3109 -45.2776 -45.1848 -45.1458 -44.9969 -22.2815 -22.2805
   -11.8754 -10.8083 -10.6294  -9.9704  -9.9262  -9.8709  -9.7943  -9.7275
    -9.7015  -9.6486  -9.6446  -9.4191  -9.3848  -9.3785  -9.2611  -9.2484
    -9.2411  -8.5359   6.0278   6.0564   6.0784   6.0917   6.1426   6.1481
    27.7528  28.6997  28.7450  29.7387  30.1119  30.2023  30.3577  30.7191
    31.0973  31.4080  31.5915  31.6051  31.9380  32.2845  32.5381  32.5498
    33.0094  33.0872  33.5123  33.6737  33.7895  34.0121  34.1492  34.3297
    34.7499  35.0762  35.4750  36.1180  36.2721  36.6265  36.8837  37.6826
    38.4991  38.7991  39.6171  41.3473  41.8960  42.0627  42.1866  42.3440
    43.3286  43.4564  43.9103  44.8057  46.4867  47.2384  48.4943  49.2542
    52.5317  53.1694  53.3767  53.6007  54.0520  54.1510  54.6060  54.9269
    54.9561  55.4362  55.8337  55.9004  56.6089  56.7097  56.8411  57.1149
    57.1628

          k = 0.4000 0.1667 0.0000 (  2659 PWs)   bands (ev):

   -45.4663 -45.4399 -45.2942 -45.1541 -45.0200 -45.0000 -22.2786 -22.2723
   -11.8651 -11.6469 -10.7645 -10.0371 -10.0230  -9.8143  -9.7594  -9.6415
    -9.6256  -9.5224  -9.4543  -9.3623  -9.3242  -9.3031  -9.2821  -9.2624
    -8.7760  -8.5149   6.0345   6.0619   6.0891   6.1165   6.1281   6.1471
    27.6626  28.2078  28.6664  29.0797  29.3276  29.4743  30.3933  30.5968
    30.8642  31.2288  31.4661  31.5189  31.7274  32.1835  32.6183  33.0168
    33.2072  33.3177  33.5082  33.8918  33.9469  34.1085  34.6509  34.9675
    35.5325  35.9003  35.9736  36.5033  36.5782  36.8874  37.2059  37.6769
    38.0843  38.8405  39.3767  39.5350  41.4837  41.6228  41.9845  42.5606
    42.9465  43.2012  45.1540  47.2090  47.3033  47.7774  49.0823  50.7104
    51.0502  52.1137  52.5033  52.9239  53.1009  53.5989  53.7068  54.0455
    54.5091  54.8008  55.8004  55.8915  56.1166  56.6646  56.9030  57.0661
    57.4340

          k = 0.4000 0.1667 0.1429 (  2662 PWs)   bands (ev):

   -45.4531 -45.4336 -45.2956 -45.1623 -45.0228 -45.0157 -22.2800 -22.2742
   -11.7165 -11.6451 -10.7716 -10.0149 -10.0095  -9.8161  -9.7668  -9.6801
    -9.5733  -9.5408  -9.4326  -9.4080  -9.3049  -9.3033  -9.2923  -9.2681
    -8.7760  -8.7127   6.0412   6.0630   6.0955   6.1019   6.1289   6.1323
    28.0986  28.2665  28.7765  29.2494  29.3318  29.3852  30.4604  30.6419
    30.8892  31.1026  31.1325  31.5801  31.6800  32.2355  32.5553  32.8881
    32.9124  33.3164  33.7711  33.8653  34.0022  34.3168  34.4863  35.1540
    35.3375  35.7403  35.9375  36.2607  36.5116  36.6833  37.4001  37.4567
    38.2692  39.0102  39.5041  39.7092  41.6981  41.7594  41.9115  42.5230
    42.9670  43.0187  45.2849  45.7689  47.3283  47.6198  49.5667  49.8704
    51.5361  51.7037  52.5462  53.0898  53.4433  53.5340  53.9268  54.5132
    54.7134  55.1504  56.0046  56.1640  56.3476  56.5048  56.7626  57.2272
    57.4309

          k = 0.4000 0.1667 0.2857 (  2650 PWs)   bands (ev):

   -45.4262 -45.3821 -45.2972 -45.1487 -45.0711 -45.0229 -22.2815 -22.2771
   -11.6667 -11.2806 -10.7733  -9.9597  -9.9319  -9.8220  -9.7650  -9.7059
    -9.5726  -9.5349  -9.4596  -9.3982  -9.3376  -9.2959  -9.2787  -9.2619
    -9.1846  -8.7651   6.0504   6.0732   6.0788   6.1068   6.1145   6.1303
    28.3265  28.8864  29.1306  29.4402  29.6130  29.7355  30.2592  30.5980
    30.7959  30.9522  31.2937  31.5400  31.6778  31.9648  32.3066  32.6799
    32.8270  33.4957  33.7576  33.8422  33.8955  34.2236  34.5732  34.8618
    35.2477  35.3009  35.5910  36.0282  36.2654  36.5980  37.2517  37.7422
    38.4383  39.0590  39.5658  40.4776  41.8142  42.1487  42.2386  42.3921
    42.9641  43.0270  44.0254  45.6714  46.1718  47.4842  48.6992  49.3253
    51.5239  52.0089  52.9380  53.6139  53.9779  54.5424  54.6215  54.8264
    55.1621  55.7182  55.8520  56.1081  56.4387  56.5253  57.1035  57.1779
    57.5241

          k = 0.4000 0.1667 0.4286 (  2652 PWs)   bands (ev):

   -45.4185 -45.3145 -45.2751 -45.1758 -45.1427 -45.0303 -22.2831 -22.2813
   -11.6763 -10.8068 -10.6382  -9.9772  -9.8977  -9.8606  -9.8060  -9.7248
    -9.6960  -9.6044  -9.5902  -9.4265  -9.3842  -9.3713  -9.2850  -9.2759
    -9.2669  -8.7675   6.0429   6.0646   6.0807   6.0894   6.1252   6.1300
    28.3786  28.9579  29.0041  29.8511  30.1975  30.2655  30.3713  30.7034
    31.0645  31.2524  31.4672  31.5347  31.7228  31.7818  31.9156  32.3741
    32.7382  33.4120  33.5463  33.7108  33.7891  34.1300  34.5343  34.8202
    34.8795  34.9256  35.1290  35.6865  35.8210  36.9567  37.1254  37.5482
    38.9052  39.0410  39.6444  41.4630  41.8345  42.2855  42.3714  42.4656
    42.7993  43.2896  43.8316  44.8677  45.8323  47.4123  47.8865  48.1040
    52.0192  52.5688  53.0508  53.7354  54.6771  54.8857  55.1127  55.2577
    55.4816  55.8767  56.0537  56.2391  56.6092  56.8581  57.1071  57.2249
    58.0684

          k = 0.4000 0.3333 0.0000 (  2652 PWs)   bands (ev):

   -45.4568 -45.3532 -45.2947 -45.1538 -45.1066 -44.9937 -22.2805 -22.2772
   -11.8712 -11.0958 -10.7674  -9.9653  -9.9177  -9.8402  -9.7478  -9.6808
    -9.6382  -9.5809  -9.5109  -9.3908  -9.3602  -9.3299  -9.2715  -9.2595
    -9.2404  -8.5294   6.0363   6.0623   6.0790   6.0984   6.1366   6.1470
    27.7271  28.6910  28.8130  29.7942  29.8790  29.8992  30.0575  30.4883
    30.7923  31.3211  31.4027  31.6261  32.0366  32.1297  32.6119  32.7299
    33.2040  33.2437  33.4764  33.6313  33.8385  34.1559  34.2813  34.8281
    34.8607  35.2201  35.8017  35.9359  36.5476  36.9408  36.9772  37.7179
    38.2726  38.6423  39.5404  40.7516  41.8579  41.9948  42.3116  42.7038
    42.8977  43.3138  43.6488  45.5499  46.9633  47.7957  48.0993  49.8173
    51.9847  53.1439  53.3267  53.5173  53.5195  53.7976  54.5038  55.1151
    55.1270  55.4737  55.7081  56.0236  56.0408  56.1888  56.7569  56.9197
    57.1898

          k = 0.4000 0.3333 0.1429 (  2654 PWs)   bands (ev):

   -45.4302 -45.3543 -45.2961 -45.1543 -45.1049 -45.0220 -22.2818 -22.2788
   -11.7248 -11.0985 -10.7723  -9.9465  -9.9069  -9.8329  -9.7608  -9.7011
    -9.5884  -9.5726  -9.5001  -9.4053  -9.3586  -9.3399  -9.2857  -9.2790
    -9.2577  -8.7046   6.0465   6.0667   6.0790   6.0966   6.1227   6.1333
    28.1869  28.8775  29.0012  29.7594  29.8666  29.9498  30.1647  30.5399
    30.7753  31.0642  31.4442  31.5882  31.7849  31.9204  32.1070  32.6941
    32.8347  33.4832  33.6159  33.7888  33.8407  34.3305  34.5391  34.8156
    34.9862  35.1518  35.6570  35.9250  36.0871  36.7154  37.2126  37.6684
    38.5151  38.9439  39.5437  40.8697  41.8157  42.2153  42.3358  42.5031
    42.9799  43.0666  43.6839  45.6477  46.0014  47.5757  48.4756  48.9416
    51.8699  52.2536  53.1355  53.5840  54.2326  54.5021  54.6992  54.9860
    55.3289  55.5839  55.8272  56.0192  56.4260  56.6318  56.9989  57.1182
    57.7466

          k = 0.4000 0.3333 0.2857 (  2651 PWs)   bands (ev):

   -45.3732 -45.3453 -45.2975 -45.1519 -45.1060 -45.0768 -22.2841 -22.2820
   -11.2940 -11.1008 -10.7878  -9.9010  -9.8801  -9.8086  -9.7949  -9.7008
    -9.5526  -9.5280  -9.4815  -9.4252  -9.3640  -9.3451  -9.3210  -9.3066
    -9.3000  -9.1812   6.0674   6.0780   6.0828   6.0941   6.0959   6.1051
    29.3252  29.4780  29.5549  29.7845  29.8000  29.9703  30.3332  30.5266
    30.8231  30.8380  31.1324  31.3812  31.5505  31.6658  32.0124  32.1663
    32.6610  33.4148  33.6627  33.7576  33.8748  34.1216  34.3211  34.6575
    35.0617  35.2543  35.4719  35.5545  35.8974  36.4701  37.2049  38.4155
    39.0006  39.4099  39.8058  40.4356  41.9841  42.2409  42.4774  42.6659
    42.9649  43.0849  43.7874  44.4550  45.7409  46.5366  47.5160  48.6202
    51.2656  51.9923  52.8201  53.9442  54.8005  55.1125  55.4317  55.6254
    55.7649  55.8234  56.2578  56.7965  57.1499  57.2682  57.4762  57.4836
    57.9064

          k = 0.4000 0.3333 0.4286 (  2646 PWs)   bands (ev):

   -45.3397 -45.3022 -45.2762 -45.1708 -45.1422 -45.1033 -22.2857 -22.2847
   -11.1063 -10.8011 -10.6552  -9.9851  -9.8767  -9.8541  -9.8277  -9.7220
    -9.6365  -9.5517  -9.5227  -9.4513  -9.3999  -9.3642  -9.3554  -9.3307
    -9.3229  -9.3142   6.0718   6.0805   6.0829   6.0877   6.0941   6.0967
    29.6468  29.7172  30.0104  30.0446  30.1338  30.2820  30.4964  30.7605
    30.9111  31.0838  31.2543  31.3341  31.4178  31.4330  31.6295  31.7629
    32.7967  33.2594  33.3614  33.4048  33.5287  34.0471  34.3702  34.5298
    34.7583  35.0288  35.0934  35.2818  35.4009  36.0201  38.1501  38.7960
    39.4798  39.6821  39.9549  40.5630  42.2372  42.5227  42.6910  42.8534
    42.9078  43.1780  43.6287  44.2149  44.6485  45.8445  46.5305  47.4479
    51.7019  52.4887  53.0427  53.9985  54.8541  55.4683  55.6653  56.0595
    56.1931  56.6033  56.7430  57.1402  57.1536  57.7071  57.9642  58.2208
    58.2678

          k = 0.4000-0.5000 0.0000 (  2650 PWs)   bands (ev):

   -45.4530 -45.3080 -45.2278 -45.2264 -45.1452 -44.9927 -22.2810 -22.2808
   -11.8715 -10.7936 -10.3154 -10.2741  -9.9078  -9.8509  -9.8143  -9.7173
    -9.6960  -9.6670  -9.6541  -9.4110  -9.3915  -9.3771  -9.2491  -9.2466
    -9.2417  -8.5363   6.0274   6.0575   6.0775   6.0936   6.1457   6.1490
    27.7594  28.6820  28.7444  29.6989  30.1266  30.2898  30.4477  30.9000
    31.0527  31.2898  31.6733  31.7356  32.2391  32.2757  32.5243  32.5341
    32.8605  32.9539  33.5924  33.5934  33.8376  33.9391  33.9870  34.2401
    34.6232  34.9547  35.7910  35.8825  36.1688  36.6918  36.8048  37.6730
    38.5348  38.8892  39.6386  41.5707  41.9041  41.9261  42.1516  42.2769
    43.3514  43.5925  44.1870  44.5286  46.3412  47.0865  48.6420  49.0600
    52.8033  53.2481  53.2866  53.3969  54.2022  54.4601  54.4908  54.8598
    54.9188  55.3624  55.8108  56.0655  56.6376  56.7550  56.7762  57.3416
    57.4475

          k = 0.4000-0.5000 0.1429 (  2650 PWs)   bands (ev):

   -45.4247 -45.3094 -45.2261 -45.2259 -45.1440 -45.0206 -22.2821 -22.2819
   -11.7268 -10.7947 -10.3187 -10.2859  -9.8959  -9.8486  -9.8227  -9.7258
    -9.6921  -9.6199  -9.6194  -9.4216  -9.3904  -9.3739  -9.2712  -9.2712
    -9.2540  -8.7024   6.0373   6.0619   6.0772   6.0912   6.1326   6.1371
    28.2232  28.8730  28.9352  29.8001  30.2113  30.3628  30.4010  30.9531
    30.9907  31.2538  31.5088  31.6407  31.7507  32.0509  32.0519  32.3716
    32.6876  33.3026  33.5868  33.6052  33.8540  34.1324  34.1636  34.6971
    34.7776  34.8376  35.4550  35.5248  35.9424  36.8946  37.0777  37.4986
    38.8830  39.0052  39.6855  41.6648  41.8454  42.1473  42.3375  42.3610
    42.8875  43.3597  44.2647  44.4553  45.9891  47.4081  47.7759  48.2214
    52.4328  52.4811  53.3637  53.5793  54.6162  54.6752  55.1746  55.3249
    55.4257  55.4656  56.0914  56.1993  56.5986  56.8327  57.0425  57.5147
    57.9606

          k = 0.4000-0.5000 0.2857 (  2640 PWs)   bands (ev):

   -45.3618 -45.3030 -45.2196 -45.2180 -45.1392 -45.0765 -22.2841 -22.2840
   -11.3004 -10.7948 -10.3149 -10.3012  -9.8709  -9.8363  -9.8312  -9.6924
    -9.6632  -9.5579  -9.5430  -9.4403  -9.3860  -9.3582  -9.3348  -9.3068
    -9.3049  -9.1804   6.0634   6.0788   6.0808   6.0915   6.1030   6.1070
    29.4138  29.4466  29.5328  29.9754  30.2594  30.4419  30.5219  30.8365
    30.9354  31.1648  31.2713  31.3006  31.4284  31.5922  31.7248  31.8637
    33.0284  33.3897  33.4228  33.4681  33.5857  33.7949  34.1574  34.5677
    34.8774  35.0090  35.0743  35.3310  35.3661  36.5247  38.0663  38.1056
    39.4164  39.5434  39.9004  40.9864  42.0050  42.3845  42.5469  42.7190
    42.8376  43.1639  44.2252  44.3429  44.9965  45.6780  46.8711  47.7700
    51.5062  52.3367  53.2692  54.2039  54.5218  55.5412  55.5655  55.8252
    56.3821  56.6140  56.8364  57.0225  57.0265  57.3296  57.6882  57.8342
    57.8715

          k = 0.4000-0.5000 0.4286 (  2640 PWs)   bands (ev):

   -45.2921 -45.2738 -45.2206 -45.2177 -45.1624 -45.1469 -22.2865 -22.2864
   -10.8035 -10.6672 -10.3217 -10.3183  -9.9877  -9.8687  -9.8452  -9.8422
    -9.5888  -9.5578  -9.5049  -9.4892  -9.4420  -9.4236  -9.3584  -9.3527
    -9.3470  -9.3436   6.0771   6.0815   6.0855   6.0862   6.0899   6.0905
    30.0070  30.0316  30.1840  30.2583  30.4608  30.4788  30.8225  30.9849
    31.0871  31.1371  31.2034  31.2380  31.3324  31.3336  31.4180  31.5314
    32.9639  32.9643  33.0919  33.1857  33.5986  33.6280  34.3085  34.4609
    34.5411  34.6559  34.8939  34.9622  35.1976  35.3249  39.3257  39.3264
    39.8592  39.9237  40.2628  40.4427  42.6875  42.7081  42.8849  42.9036
    42.9660  43.2658  43.5283  43.6018  44.4814  44.5790  45.7654  46.1590
    52.6328  52.9104  53.7361  54.1264  54.5748  54.9230  55.9956  56.2414
    56.3900  56.4120  56.8014  56.8497  58.1557  58.1972  58.3594  58.4078
    58.5508

     the Fermi energy is    51.5715 ev

!    total energy              =   -2155.28553268 Ry
     Harris-Foulkes estimate   =   -2155.28553815 Ry
     estimated scf accuracy    <       0.00000658 Ry

     The total energy is the sum of the following terms:

     one-electron contribution =      73.32013083 Ry
     hartree contribution      =     196.30562430 Ry
     xc contribution           =    -204.72334218 Ry
     ewald contribution        =   -2220.00331926 Ry
     smearing contrib. (-TS)   =      -0.18462637 Ry

     convergence has been achieved in   9 iterations

     Forces acting on atoms (Ry/au):

     atom    1 type  1   force =     0.00000000    0.00000000    0.00000000
     atom    2 type  1   force =     0.00000000    0.00000000    0.00000000
     atom    3 type  1   force =     0.00000000    0.00000000    0.00000000
     atom    4 type  1   force =     0.00000000    0.00000000    0.00000000
     atom    5 type  1   force =     0.00000000    0.00000000    0.00000000
     atom    6 type  1   force =     0.00000000    0.00000000    0.00000000
     atom    7 type  2   force =     0.00000000    0.00000000    0.00000000
     atom    8 type  2   force =     0.00000000    0.00000000    0.00000000

     Total force =     0.000000     Total SCF correction =     0.000000


     entering subroutine stress ...

          total   stress  (Ry/bohr**3)                   (kbar)     P= 5695.49
   0.03871716   0.00000000   0.00000000       5695.49      0.00      0.00
   0.00000000   0.03871716   0.00000000          0.00   5695.49      0.00
   0.00000000   0.00000000   0.03871716          0.00      0.00   5695.49


     BFGS Geometry Optimization

     number of scf cycles    =   1
     number of bfgs steps    =   0

     enthalpy new            =   -2155.2855326794 Ry

     new trust radius        =       0.5000000000 bohr
     new conv_thr            =       0.0001000000 Ry

     new unit-cell volume =    828.02266 a.u.^3 (   122.70030 Ang^3 )

CELL_PARAMETERS (alat=  8.53457320)
   1.100269143   0.000000000   0.000000000
   0.000000000   1.100269143   0.000000000
   0.000000000   0.000000000   1.100269143

ATOMIC_POSITIONS (crystal)
Cr       0.000000000   0.500000000   0.250000000
Cr       0.000000000   0.500000000   0.750000000
Cr       0.500000000   0.750000000   0.000000000
Cr       0.500000000   0.250000000   0.000000000
Cr       0.750000000   0.000000000   0.500000000
Cr       0.250000000   0.000000000   0.500000000
Si       0.500000000   0.500000000   0.500000000
Si       0.000000000   0.000000000   0.000000000



     Writing output data file Prototype-La-cP8-Cr3Si.save
     NEW-OLD atomic charge density approx. for the potential
     NEW k-points:
        k(    1) = (   0.0000000   0.0000000   0.0000000), wk =   0.0095238
        k(    2) = (   0.0000000   0.0000000   0.1298384), wk =   0.0190476
        k(    3) = (   0.0000000   0.0000000   0.2596767), wk =   0.0190476
        k(    4) = (   0.0000000   0.0000000   0.3895151), wk =   0.0190476
        k(    5) = (   0.0000000   0.1514781   0.0000000), wk =   0.0190476
        k(    6) = (   0.0000000   0.1514781   0.1298384), wk =   0.0380952
        k(    7) = (   0.0000000   0.1514781   0.2596767), wk =   0.0380952
        k(    8) = (   0.0000000   0.1514781   0.3895151), wk =   0.0380952
        k(    9) = (   0.0000000   0.3029562   0.0000000), wk =   0.0190476
        k(   10) = (   0.0000000   0.3029562   0.1298384), wk =   0.0380952
        k(   11) = (   0.0000000   0.3029562   0.2596767), wk =   0.0380952
        k(   12) = (   0.0000000   0.3029562   0.3895151), wk =   0.0380952
        k(   13) = (   0.0000000  -0.4544343   0.0000000), wk =   0.0095238
        k(   14) = (   0.0000000  -0.4544343   0.1298384), wk =   0.0190476
        k(   15) = (   0.0000000  -0.4544343   0.2596767), wk =   0.0190476
        k(   16) = (   0.0000000  -0.4544343   0.3895151), wk =   0.0190476
        k(   17) = (   0.1817737   0.0000000   0.0000000), wk =   0.0190476
        k(   18) = (   0.1817737   0.0000000   0.1298384), wk =   0.0380952
        k(   19) = (   0.1817737   0.0000000   0.2596767), wk =   0.0380952
        k(   20) = (   0.1817737   0.0000000   0.3895151), wk =   0.0380952
        k(   21) = (   0.1817737   0.1514781   0.0000000), wk =   0.0380952
        k(   22) = (   0.1817737   0.1514781   0.1298384), wk =   0.0761905
        k(   23) = (   0.1817737   0.1514781   0.2596767), wk =   0.0761905
        k(   24) = (   0.1817737   0.1514781   0.3895151), wk =   0.0761905
        k(   25) = (   0.1817737   0.3029562   0.0000000), wk =   0.0380952
        k(   26) = (   0.1817737   0.3029562   0.1298384), wk =   0.0761905
        k(   27) = (   0.1817737   0.3029562   0.2596767), wk =   0.0761905
        k(   28) = (   0.1817737   0.3029562   0.3895151), wk =   0.0761905
        k(   29) = (   0.1817737  -0.4544343   0.0000000), wk =   0.0190476
        k(   30) = (   0.1817737  -0.4544343   0.1298384), wk =   0.0380952
        k(   31) = (   0.1817737  -0.4544343   0.2596767), wk =   0.0380952
        k(   32) = (   0.1817737  -0.4544343   0.3895151), wk =   0.0380952
        k(   33) = (   0.3635474   0.0000000   0.0000000), wk =   0.0190476
        k(   34) = (   0.3635474   0.0000000   0.1298384), wk =   0.0380952
        k(   35) = (   0.3635474   0.0000000   0.2596767), wk =   0.0380952
        k(   36) = (   0.3635474   0.0000000   0.3895151), wk =   0.0380952
        k(   37) = (   0.3635474   0.1514781   0.0000000), wk =   0.0380952
        k(   38) = (   0.3635474   0.1514781   0.1298384), wk =   0.0761905
        k(   39) = (   0.3635474   0.1514781   0.2596767), wk =   0.0761905
        k(   40) = (   0.3635474   0.1514781   0.3895151), wk =   0.0761905
        k(   41) = (   0.3635474   0.3029562   0.0000000), wk =   0.0380952
        k(   42) = (   0.3635474   0.3029562   0.1298384), wk =   0.0761905
        k(   43) = (   0.3635474   0.3029562   0.2596767), wk =   0.0761905
        k(   44) = (   0.3635474   0.3029562   0.3895151), wk =   0.0761905
        k(   45) = (   0.3635474  -0.4544343   0.0000000), wk =   0.0190476
        k(   46) = (   0.3635474  -0.4544343   0.1298384), wk =   0.0380952
        k(   47) = (   0.3635474  -0.4544343   0.2596767), wk =   0.0380952
        k(   48) = (   0.3635474  -0.4544343   0.3895151), wk =   0.0380952

     total cpu time spent up to now is      272.4 secs

     Self-consistent Calculation

     iteration #  1     ecut=    40.00 Ry     beta=0.70
     CG style diagonalization
     c_bands:  1 eigenvalues not converged
     c_bands:  1 eigenvalues not converged
     c_bands:  1 eigenvalues not converged
     c_bands:  1 eigenvalues not converged
     c_bands:  1 eigenvalues not converged
     c_bands:  1 eigenvalues not converged
     c_bands:  1 eigenvalues not converged
     c_bands:  1 eigenvalues not converged
     c_bands:  1 eigenvalues not converged
     c_bands:  1 eigenvalues not converged
     c_bands:  3 eigenvalues not converged
     c_bands:  1 eigenvalues not converged
     c_bands:  1 eigenvalues not converged
     c_bands:  1 eigenvalues not converged
     c_bands:  2 eigenvalues not converged
     c_bands:  1 eigenvalues not converged
     c_bands:  3 eigenvalues not converged
     ethr =  1.00E-06,  avg # of iterations = 22.0

     total cpu time spent up to now is      361.5 secs

     total energy              =   -2145.98082910 Ry
     Harris-Foulkes estimate   =   -2177.76949613 Ry
     estimated scf accuracy    <      40.50229729 Ry

     iteration #  2     ecut=    40.00 Ry     beta=0.70
     CG style diagonalization
     ethr =  1.00E-02,  avg # of iterations =  4.0

     total cpu time spent up to now is      378.0 secs

     total energy              =   -2157.79733944 Ry
     Harris-Foulkes estimate   =   -2161.52080938 Ry
     estimated scf accuracy    <       5.61189389 Ry

     iteration #  3     ecut=    40.00 Ry     beta=0.70
     CG style diagonalization
     ethr =  3.46E-03,  avg # of iterations =  3.6

     total cpu time spent up to now is      392.7 secs

     total energy              =   -2159.16791728 Ry
     Harris-Foulkes estimate   =   -2159.36357084 Ry
     estimated scf accuracy    <       0.35162767 Ry

     iteration #  4     ecut=    40.00 Ry     beta=0.70
     CG style diagonalization
     ethr =  2.17E-04,  avg # of iterations =  3.5

     total cpu time spent up to now is      407.3 secs

     total energy              =   -2159.26281116 Ry
     Harris-Foulkes estimate   =   -2159.26383885 Ry
     estimated scf accuracy    <       0.00175500 Ry

     iteration #  5     ecut=    40.00 Ry     beta=0.70
     CG style diagonalization
     c_bands:  1 eigenvalues not converged
     c_bands:  1 eigenvalues not converged
     c_bands:  1 eigenvalues not converged
     c_bands:  1 eigenvalues not converged
     c_bands:  1 eigenvalues not converged
     c_bands:  1 eigenvalues not converged
     c_bands:  1 eigenvalues not converged
     c_bands:  1 eigenvalues not converged
     c_bands:  2 eigenvalues not converged
     c_bands:  1 eigenvalues not converged
     c_bands:  1 eigenvalues not converged
     ethr =  1.08E-06,  avg # of iterations =  5.0

     total cpu time spent up to now is      428.9 secs

     total energy              =   -2159.26389507 Ry
     Harris-Foulkes estimate   =   -2159.26450087 Ry
     estimated scf accuracy    <       0.00089100 Ry

     iteration #  6     ecut=    40.00 Ry     beta=0.70
     CG style diagonalization
     c_bands:  1 eigenvalues not converged
     c_bands:  1 eigenvalues not converged
     ethr =  5.50E-07,  avg # of iterations =  3.6

     total cpu time spent up to now is      444.6 secs

     total energy              =   -2159.26417880 Ry
     Harris-Foulkes estimate   =   -2159.26423820 Ry
     estimated scf accuracy    <       0.00010398 Ry

     iteration #  7     ecut=    40.00 Ry     beta=0.70
     CG style diagonalization
     c_bands:  1 eigenvalues not converged
     ethr =  6.42E-08,  avg # of iterations =  3.5

     total cpu time spent up to now is      458.6 secs

     End of self-consistent calculation

          k = 0.0000 0.0000 0.0000 (  2601 PWs)   bands (ev):

   -56.5383 -56.5383 -56.3189 -56.1696 -56.1696 -56.1696 -33.5391 -33.5019
   -21.8183 -21.8183 -21.7551 -21.0140 -21.0140 -21.0140 -20.8002 -20.8002
   -20.8002 -20.7068 -20.7068 -20.7068 -20.6667 -20.6667 -20.6667 -20.4647
   -20.4647 -20.4647  -4.7342  -4.7342  -4.7342  -4.7187  -4.7187  -4.7187
    18.3881  18.3881  18.4599  19.4657  19.4657  19.4657  20.9470  20.9470
    20.9470  20.9541  21.0346  21.4210  21.6107  21.6107  21.6240  21.6240
    21.6240  23.1625  23.1625  23.1625  23.9597  23.9597  24.0680  24.0680
    24.0680  24.0689  24.0689  24.0689  24.3770  24.3770  24.3770  26.2813
    26.2813  29.6083  29.6083  29.6083  29.6302  29.6302  29.9028  29.9028
    29.9028  31.0737  31.0737  31.0737  34.3884  35.3907  35.3907  37.8983
    37.8983  37.8983  39.1235  39.1235  39.4369  40.0886  40.0886  40.0886
    41.5888  41.5888  41.5888  42.3854  42.3855  42.9386  43.4671  43.4671
    44.4733

          k = 0.0000 0.0000 0.1298 (  2657 PWs)   bands (ev):

   -56.5556 -56.5074 -56.3599 -56.3332 -56.3107 -56.3107 -33.5560 -33.5419
   -21.8663 -21.8532 -21.7679 -21.0162 -21.0162 -21.0036 -20.8175 -20.8175
   -20.7759 -20.7664 -20.7664 -20.7606 -20.7271 -20.7271 -20.7213 -20.5410
   -20.4858 -20.4858  -4.7589  -4.7589  -4.7581  -4.7387  -4.7365  -4.7365
    18.3909  18.4412  18.7068  19.4074  19.5381  19.5381  20.7178  20.9595
    20.9595  20.9967  21.1942  21.5565  21.5776  21.5776  21.6164  21.6413
    21.7248  23.0708  23.1079  23.1079  23.7369  23.7369  23.7525  23.8250
    24.0814  24.0814  24.0916  24.1714  24.2308  24.6052  24.6052  26.2815
    26.4012  29.3609  29.3609  29.4388  29.6500  29.8601  29.8826  29.8826
    29.9216  30.0241  31.6110  31.6110  34.6035  35.2197  36.2757  36.8380
    37.7727  38.0100  38.0100  39.3699  39.3699  39.4832  40.4073  41.3044
    41.5977  41.6355  41.6355  42.5037  42.5038  42.6103  42.9797  43.4064
    43.5607

          k = 0.0000 0.0000 0.2597 (  2677 PWs)   bands (ev):

   -56.5535 -56.4990 -56.4627 -56.3541 -56.3355 -56.3355 -33.5640 -33.5557
   -21.8664 -21.8473 -21.6069 -21.0044 -21.0044 -20.9738 -20.8405 -20.8405
   -20.8332 -20.7913 -20.7719 -20.7719 -20.7570 -20.7453 -20.7453 -20.7339
   -20.5009 -20.5009  -4.7678  -4.7655  -4.7604  -4.7604  -4.7411  -4.7411
    18.4035  18.4534  19.3631  19.5321  19.7165  19.7165  20.2538  21.0038
    21.0038  21.1235  21.4748  21.5138  21.5138  21.5750  21.6289  21.9090
    22.1402  22.8741  22.9469  22.9469  23.2217  23.2217  23.3408  23.5381
    23.6421  24.1305  24.1305  24.2860  24.3576  24.9036  24.9036  25.7837
    26.6974  28.5921  28.7169  28.7169  29.3836  29.7561  29.9574  30.2764
    30.2764  30.3716  32.6072  32.6072  34.3247  34.5510  36.0905  36.5362
    37.5445  37.5445  38.2698  38.8990  38.8990  39.8405  41.4652  41.6751
    41.6751  41.7226  42.0008  42.0008  42.2863  42.8611  43.1144  43.1492
    44.5986

          k = 0.0000 0.0000 0.3895 (  2658 PWs)   bands (ev):

   -56.4893 -56.4687 -56.4235 -56.3754 -56.3147 -56.3147 -33.5522 -33.5499
   -21.8623 -21.8526 -21.3360 -21.0375 -20.9971 -20.9971 -20.8969 -20.8647
   -20.8321 -20.8321 -20.7517 -20.7517 -20.7447 -20.7347 -20.7347 -20.7340
   -20.4950 -20.4950  -4.7601  -4.7518  -4.7511  -4.7511  -4.7421  -4.7421
    18.4295  18.4512  19.4749  19.7793  19.8708  19.8708  20.7636  20.9989
    20.9989  21.2997  21.4678  21.6093  21.6398  21.6627  21.6627  22.0926
    22.3529  22.4394  22.4394  22.5053  23.0823  23.0823  23.2013  23.4436
    23.4943  24.1856  24.1856  24.3681  24.3982  24.4860  25.1068  25.1068
    27.1296  27.7391  28.2921  28.2921  29.8755  29.9156  29.9507  30.5391
    30.5704  30.5704  33.7031  33.7031  33.8120  33.9012  35.9028  36.0493
    36.2319  36.2319  39.4590  39.4590  40.1397  40.4553  40.9333  40.9333
    41.4452  41.8988  42.0647  42.2346  42.2346  42.6168  43.0707  43.1724
    45.3311

          k = 0.0000 0.1515 0.0000 (  2653 PWs)   bands (ev):

   -56.5342 -56.4994 -56.3540 -56.3365 -56.3118 -56.3118 -33.5529 -33.5419
   -21.8657 -21.8477 -21.7519 -21.0087 -21.0087 -20.9855 -20.8200 -20.8200
   -20.7796 -20.7633 -20.7633 -20.7598 -20.7287 -20.7287 -20.7226 -20.5588
   -20.4828 -20.4828  -4.7566  -4.7566  -4.7542  -4.7394  -4.7363  -4.7363
    18.3934  18.4448  18.8096  19.3941  19.5633  19.5633  20.6489  20.9658
    20.9658  21.0128  21.2448  21.5640  21.5640  21.5842  21.6128  21.6662
    21.7666  23.0419  23.0917  23.0917  23.6515  23.6515  23.7121  23.7948
    23.9965  24.0873  24.0873  24.1922  24.2578  24.6570  24.6570  26.2605
    26.4414  29.2530  29.2530  29.3733  29.6645  29.7866  29.9281  29.9371
    29.9390  29.9390  31.7599  31.7599  34.5856  35.1497  36.5836  36.6676
    37.5157  38.0383  38.0383  39.1865  39.1865  39.5261  40.6528  41.5189
    41.6077  41.6874  41.6874  42.3977  42.3977  42.6749  43.0058  43.3844
    43.7153

          k = 0.0000 0.1515 0.1298 (  2662 PWs)   bands (ev):

   -56.5165 -56.5002 -56.4327 -56.3338 -56.3215 -56.3190 -33.5619 -33.5436
   -21.8658 -21.8061 -21.7433 -21.0025 -21.0007 -20.9903 -20.8349 -20.8306
   -20.7806 -20.7744 -20.7743 -20.7473 -20.7409 -20.7361 -20.7126 -20.5906
   -20.5557 -20.4882  -4.7637  -4.7611  -4.7578  -4.7505  -4.7333  -4.7332
    18.4229  18.7104  18.8151  19.4536  19.5309  19.6455  20.6786  20.7641
    20.9918  21.0408  21.3471  21.3917  21.5330  21.7418  21.7553  21.7611
    21.7783  22.8678  23.0207  23.1136  23.4315  23.5960  23.7218  23.7883
    23.8565  23.9637  24.0833  24.1118  24.2943  24.5666  24.8147  26.3388
    26.4918  28.9669  29.0304  29.1597  29.6049  29.8668  29.9125  29.9339
    29.9915  30.5628  31.0100  32.0951  34.7496  35.7757  36.1192  36.6045
    36.7497  38.2130  38.5660  38.5961  38.6887  40.1982  40.9250  41.7405
    41.8663  41.9451  42.0054  42.0546  42.4452  42.6480  42.9035  43.4642
    43.6282

          k = 0.0000 0.1515 0.2597 (  2666 PWs)   bands (ev):

   -56.5110 -56.4695 -56.4582 -56.3610 -56.3340 -56.3258 -33.5583 -33.5528
   -21.8681 -21.7740 -21.6090 -20.9876 -20.9862 -20.9674 -20.8555 -20.8411
   -20.8025 -20.7784 -20.7760 -20.7516 -20.7460 -20.7458 -20.7425 -20.7176
   -20.5897 -20.4921  -4.7621  -4.7593  -4.7550  -4.7535  -4.7423  -4.7421
    18.4394  18.8218  19.4585  19.5193  19.6815  19.8457  20.3229  20.8002
    20.9866  21.1088  21.3366  21.3590  21.6213  21.7777  21.8508  22.0371
    22.1560  22.6990  22.8527  22.9130  23.0383  23.2666  23.4092  23.5239
    23.6585  23.9411  23.9761  24.1304  24.3780  24.6145  25.0139  25.9521
    26.6929  28.3099  28.6066  28.6285  29.6165  29.9653  30.0515  30.2599
    30.3316  30.5153  31.4625  32.9067  34.3081  34.6454  35.4876  36.8088
    37.3425  37.8328  38.7035  38.7241  38.7962  40.6473  41.2178  41.4197
    41.5088  41.9264  42.4566  42.5548  42.5869  42.8482  43.1054  43.4923
    44.3620

          k = 0.0000 0.1515 0.3895 (  2658 PWs)   bands (ev):

   -56.4862 -56.4602 -56.4138 -56.3672 -56.3421 -56.3240 -33.5540 -33.5495
   -21.8745 -21.7751 -21.3331 -21.0423 -20.9748 -20.9661 -20.9025 -20.8654
   -20.8429 -20.8112 -20.7864 -20.7690 -20.7469 -20.7395 -20.7388 -20.7238
   -20.5907 -20.4798  -4.7599  -4.7550  -4.7495  -4.7466  -4.7459  -4.7411
    18.4548  18.8284  19.5583  19.7984  19.8811  20.0234  20.7419  20.8711
    20.9639  21.2740  21.3299  21.4872  21.5857  21.8183  21.9372  22.1248
    22.3757  22.4084  22.4196  22.6073  22.8083  22.9936  23.3095  23.3175
    23.6228  23.9484  24.0270  24.2061  24.4004  24.5770  24.9502  25.1333
    27.0715  27.6314  28.3468  28.4509  30.0162  30.0335  30.1050  30.3631
    30.5868  30.6355  32.3609  33.3235  33.8663  33.9124  35.0913  36.0477
    36.9505  37.8115  38.8950  39.4187  40.1828  40.5184  40.6776  41.1967
    41.6803  42.0925  42.4908  42.5184  42.5316  42.7543  43.3674  43.5392
    44.9357

          k = 0.0000 0.3030 0.0000 (  2677 PWs)   bands (ev):

   -56.5512 -56.5168 -56.4344 -56.4077 -56.3139 -56.3139 -33.5642 -33.5555
   -21.8666 -21.8415 -21.5501 -21.0068 -21.0068 -20.9546 -20.8684 -20.8426
   -20.8426 -20.8288 -20.7698 -20.7698 -20.7528 -20.7436 -20.7436 -20.7259
   -20.5120 -20.5120  -4.7684  -4.7596  -4.7596  -4.7573  -4.7464  -4.7464
    18.4103  18.4540  19.3799  19.7781  19.7781  19.8870  20.1102  21.0110
    21.0110  21.1791  21.5315  21.5315  21.5473  21.5479  21.6341  22.0128
    22.3652  22.7996  22.7996  22.8283  23.0053  23.1352  23.1352  23.4897
    23.5856  24.1508  24.1508  24.3178  24.3799  24.9872  24.9872  25.3974
    26.8256  28.2723  28.5377  28.5377  29.4825  29.7978  29.9623  30.4000
    30.4000  30.5089  32.9834  32.9834  34.1807  34.2466  35.9690  36.3080
    37.0905  37.0905  38.9458  39.0725  39.0725  40.0256  41.3939  41.3939
[...]
   -28.6789 -28.6523 -12.3334 -12.3325 -12.3306 -12.3298 -12.3266 -12.3265
    12.8490  13.6610  13.6731  13.9858  14.1367  14.1638  14.2668  14.2750
    14.3501  14.4627  14.5029  14.6812  14.6872  14.7254  14.7259  14.8554
    15.0714  15.1013  15.2041  15.2299  15.3256  15.4784  15.5042  15.5622
    15.7181  15.7585  15.9166  15.9440  16.0249  16.6236  18.4322  18.4596
    19.2093  19.3122  21.0028  21.5152  22.6847  22.7010  22.9363  22.9645
    23.1126  23.5285  23.6848  23.6974  24.2920  24.6964  25.0945  25.1569
    29.2371  29.7785  30.3818  30.5987  31.2478  32.1399  32.4853  33.1015
    33.2072  33.4340  33.8253  34.0009  34.1604  34.2915  34.9296  35.2141
    35.2651

          k = 0.3362 0.0000 0.0000 (  4476 PWs)   bands (ev):

   -64.6325 -64.6312 -64.6134 -64.5944 -64.5834 -64.5834 -41.2579 -41.2568
   -29.2428 -29.2221 -29.0050 -28.8071 -28.7889 -28.7889 -28.7479 -28.7286
   -28.7285 -28.7224 -28.6992 -28.6929 -28.6928 -28.6765 -28.6737 -28.6737
   -28.5970 -28.5970 -12.3313 -12.3313 -12.3260 -12.3259 -12.3256 -12.3256
    12.4319  12.4404  13.3368  13.5749  13.5749  13.5950  13.8578  14.4079
    14.4079  14.5551  14.7210  14.7262  14.7262  14.8099  14.8851  15.0281
    15.2963  15.2963  15.2971  15.3532  15.6223  15.6223  15.8062  15.8436
    16.1780  16.2587  16.2587  16.3834  16.4024  16.9544  16.9544  17.6231
    20.1256  20.9006  21.5066  21.5066  22.3826  22.5667  22.6252  22.6635
    22.6635  22.9583  25.1209  25.1340  25.1340  25.3196  26.5268  26.5808
    27.1675  27.1675  30.0433  30.0433  30.3712  30.8794  31.5169  31.9991
    31.9991  32.4548  32.9268  33.1204  33.8437  33.9316  33.9316  34.0551
    36.3488

          k = 0.3362 0.0000 0.1201 (  4474 PWs)   bands (ev):

   -64.6266 -64.6235 -64.6123 -64.6017 -64.5864 -64.5859 -41.2578 -41.2568
   -29.2314 -29.2000 -29.0107 -28.8129 -28.7773 -28.7765 -28.7489 -28.7294
   -28.7292 -28.7151 -28.7075 -28.6979 -28.6892 -28.6871 -28.6779 -28.6734
   -28.6245 -28.5903 -12.3327 -12.3308 -12.3271 -12.3258 -12.3257 -12.3231
    12.4410  12.6344  13.3817  13.5512  13.6447  13.6508  13.8611  14.3625
    14.3971  14.5104  14.5974  14.6708  14.8370  14.8923  14.9049  15.0505
    15.2707  15.2855  15.3180  15.3928  15.5050  15.6154  15.7718  15.8995
    16.0310  16.2467  16.2674  16.3907  16.4174  16.7572  16.9667  17.7730
    19.9887  20.7443  21.4817  21.4989  22.3928  22.5162  22.6641  22.6742
    22.8671  22.9579  24.1795  25.0033  25.2406  25.4357  26.0357  27.1512
    27.2569  28.2182  29.3818  29.7851  30.4245  30.9679  31.4049  31.9445
    32.5634  32.7670  33.1289  33.3979  33.6385  34.0992  34.1961  34.3408
    36.1720

          k = 0.3362 0.0000 0.2401 (  4470 PWs)   bands (ev):

   -64.6230 -64.6164 -64.6116 -64.6038 -64.5904 -64.5879 -41.2582 -41.2563
   -29.2338 -29.1173 -29.0148 -28.8181 -28.7683 -28.7617 -28.7544 -28.7321
   -28.7314 -28.7251 -28.7132 -28.7079 -28.6957 -28.6932 -28.6800 -28.6725
   -28.6687 -28.5812 -12.3326 -12.3309 -12.3301 -12.3248 -12.3241 -12.3215
    12.4516  13.1863  13.4687  13.5155  13.7983  13.8540  13.8966  14.2285
    14.2778  14.4873  14.5519  14.7265  14.8000  14.9789  15.0093  15.1008
    15.1635  15.2205  15.2800  15.3172  15.5091  15.5634  15.6679  15.8407
    15.9039  16.0120  16.1818  16.2729  16.3721  16.8440  16.9834  18.1546
    19.3552  20.2043  21.4844  21.7395  22.4785  22.5196  22.7810  22.8325
    22.9187  23.1671  23.7071  24.3926  25.0846  25.3160  25.5563  27.0226
    28.3809  29.0334  29.3599  29.7338  30.2882  30.5441  31.3406  32.1705
    33.1812  33.1867  33.5730  33.6989  34.0179  34.3326  34.7011  34.9049
    35.4505

          k = 0.3362 0.0000 0.3602 (  4472 PWs)   bands (ev):

   -64.6154 -64.6126 -64.6110 -64.6035 -64.5989 -64.5976 -41.2577 -41.2574
   -29.2391 -29.0192 -28.9911 -28.8434 -28.8149 -28.7572 -28.7525 -28.7431
   -28.7369 -28.7270 -28.7250 -28.7109 -28.7083 -28.7067 -28.6853 -28.6778
   -28.6719 -28.5734 -12.3349 -12.3314 -12.3286 -12.3252 -12.3252 -12.3224
    12.4599  13.4827  13.4972  13.8239  13.9858  14.0770  14.0996  14.1847
    14.2201  14.4619  14.5760  14.6781  14.8365  14.9070  15.0285  15.0387
    15.0580  15.0966  15.2321  15.2462  15.4676  15.5289  15.5584  15.6159
    15.6172  15.7719  16.0968  16.2819  16.3307  16.9895  17.4987  18.3000
    18.8404  19.4939  21.4760  22.2178  22.4691  22.6212  22.8672  22.9047
    22.9615  23.3931  23.7142  23.9551  24.6195  24.7733  26.0498  26.6324
    28.6791  28.9125  29.3006  29.7928  30.5450  31.3698  31.9891  32.2298
    33.4604  33.5530  33.5751  33.6498  33.7721  34.0717  34.9951  35.1329
    35.5914

          k = 0.3362 0.1401 0.0000 (  4465 PWs)   bands (ev):

   -64.6247 -64.6184 -64.6103 -64.6002 -64.5846 -64.5823 -41.2571 -41.2564
   -29.2314 -29.1873 -29.0097 -28.8130 -28.7749 -28.7742 -28.7469 -28.7266
   -28.7257 -28.7125 -28.7123 -28.6938 -28.6880 -28.6807 -28.6760 -28.6690
   -28.6272 -28.5884 -12.3317 -12.3290 -12.3268 -12.3251 -12.3236 -12.3223
    12.4426  12.7047  13.3955  13.5446  13.6638  13.6773  13.8626  14.3454
    14.3839  14.5059  14.5733  14.6851  14.8204  14.9172  14.9202  15.0620
    15.2647  15.2807  15.3084  15.4129  15.4735  15.6103  15.7555  15.9167
    15.9949  16.2021  16.2663  16.3892  16.4631  16.6917  16.9700  17.8246
    19.9221  20.6793  21.4966  21.4970  22.3985  22.5067  22.6876  22.6889
    22.9149  22.9556  24.0615  24.9031  25.2787  25.3964  25.9204  27.1424
    27.4743  28.4539  29.2995  29.7104  30.3942  30.9611  31.2642  32.0870
    32.6477  32.8372  33.2538  33.4513  33.6507  34.1210  34.2915  34.4076
    36.0988

          k = 0.3362 0.1401 0.1201 (  4458 PWs)   bands (ev):

   -64.6246 -64.6152 -64.6109 -64.5931 -64.5875 -64.5773 -41.2567 -41.2561
   -29.2012 -29.1835 -29.0070 -28.8132 -28.7696 -28.7666 -28.7424 -28.7339
   -28.7214 -28.7170 -28.6986 -28.6945 -28.6877 -28.6854 -28.6731 -28.6683
   -28.6277 -28.6152 -12.3295 -12.3291 -12.3289 -12.3234 -12.3219 -12.3213
    12.6414  12.7103  13.4533  13.6224  13.6552  13.7003  13.8685  14.3552
    14.4091  14.4666  14.4927  14.6664  14.7735  14.9230  14.9663  15.0976
    15.1802  15.2256  15.3859  15.4100  15.5382  15.5803  15.7605  15.8325
    16.0193  16.0769  16.1924  16.2453  16.6557  16.7098  16.7966  17.9845
    19.9332  20.6739  21.1335  21.4562  22.5176  22.5404  22.6448  22.7928
    22.9668  22.9957  24.0173  24.3274  24.8529  25.3500  26.5410  26.8192
    27.7511  28.4403  29.4106  29.6602  30.8205  31.0986  31.6974  32.0686
    32.5929  33.0941  33.2583  33.2946  34.0816  34.1825  34.2822  34.7418
    35.9843

          k = 0.3362 0.1401 0.2401 (  4469 PWs)   bands (ev):

   -64.6235 -64.6175 -64.6119 -64.6039 -64.5910 -64.5855 -41.2577 -41.2569
   -29.1887 -29.1140 -29.0155 -28.8176 -28.7654 -28.7598 -28.7486 -28.7375
   -28.7233 -28.7187 -28.7129 -28.7064 -28.6982 -28.6928 -28.6894 -28.6764
   -28.6724 -28.6310 -12.3328 -12.3315 -12.3273 -12.3262 -12.3250 -12.3217
    12.7217  13.2002  13.5651  13.6245  13.8091  13.8413  13.9157  14.2545
    14.3452  14.4367  14.4945  14.6760  14.7651  14.8810  15.0200  15.0440
    15.1041  15.1932  15.3648  15.4074  15.5244  15.5635  15.6673  15.7935
    15.8754  15.9278  16.0494  16.1669  16.2199  16.7215  17.1414  18.3931
    19.5327  20.3386  20.9386  21.4296  22.5455  22.7032  22.7867  22.9363
    22.9587  23.2225  23.6697  24.1829  24.3850  25.0211  25.9512  26.3460
    28.5620  29.0853  29.3683  30.4336  30.9097  31.5291  31.7414  32.1484
    32.8929  33.3401  33.5640  33.8747  34.2051  34.3229  34.7471  35.1270
    35.5207

          k = 0.3362 0.1401 0.3602 (  4478 PWs)   bands (ev):

   -64.6200 -64.6165 -64.6122 -64.6073 -64.5993 -64.5957 -41.2580 -41.2579
   -29.1944 -29.0212 -28.9908 -28.8465 -28.8153 -28.7612 -28.7538 -28.7494
   -28.7394 -28.7288 -28.7230 -28.7142 -28.7080 -28.7056 -28.6839 -28.6813
   -28.6747 -28.6251 -12.3344 -12.3315 -12.3295 -12.3268 -12.3253 -12.3252
    12.7306  13.5991  13.6145  13.8400  13.9955  14.0679  14.1138  14.2360
    14.2616  14.4545  14.5899  14.6002  14.7763  14.8191  14.8716  14.9540
    15.0671  15.1448  15.2377  15.2891  15.4461  15.5281  15.5730  15.6355
    15.7326  15.7523  15.9279  16.0506  16.1178  16.7332  17.8024  18.6156
    19.0143  19.6763  21.0805  21.6373  22.5952  22.7210  22.9082  22.9452
    23.0464  23.4361  23.6543  23.8954  24.2980  24.8071  25.4597  25.6578
    29.0980  29.4018  29.8235  30.6790  30.9256  31.8561  32.1995  32.3819
    33.3485  33.5077  33.8083  33.9569  34.1438  34.2828  34.9419  35.0354
    35.3811

          k = 0.3362 0.2801 0.0000 (  4477 PWs)   bands (ev):

   -64.6254 -64.6171 -64.6153 -64.6075 -64.5917 -64.5905 -41.2581 -41.2574
   -29.2332 -29.0817 -29.0212 -28.8167 -28.7665 -28.7665 -28.7570 -28.7445
   -28.7352 -28.7297 -28.7282 -28.7145 -28.7054 -28.7015 -28.6823 -28.6723
   -28.6665 -28.5829 -12.3349 -12.3323 -12.3299 -12.3251 -12.3240 -12.3238
    12.4549  13.3938  13.4907  13.5453  13.8296  13.9356  13.9620  14.1829
    14.2385  14.4692  14.5880  14.6865  14.8545  14.9766  15.0293  15.0582
    15.1407  15.1686  15.2728  15.2779  15.5351  15.5424  15.6420  15.7807
    15.8029  15.9458  16.0430  16.2757  16.3598  16.9865  17.0365  18.3073
    19.0698  19.9717  21.4805  21.8915  22.4736  22.5983  22.8111  22.8860
    22.8989  23.2595  23.6647  24.2182  24.9122  25.1060  25.7046  26.9240
    28.5363  29.0416  29.2826  30.0251  30.2703  30.6094  31.5978  32.0496
    33.3085  33.4700  33.5688  33.7239  33.9953  34.3660  34.8367  35.1697
    35.1794

          k = 0.3362 0.2801 0.1201 (  4476 PWs)   bands (ev):

   -64.6237 -64.6198 -64.6126 -64.6059 -64.5926 -64.5919 -41.2584 -41.2570
   -29.2013 -29.0813 -29.0161 -28.8191 -28.7661 -28.7628 -28.7557 -28.7436
   -28.7355 -28.7286 -28.7193 -28.7127 -28.7035 -28.7030 -28.6857 -28.6794
   -28.6743 -28.6155 -12.3332 -12.3321 -12.3310 -12.3260 -12.3249 -12.3230
    12.6546  13.4282  13.5670  13.6044  13.8355  13.9242  13.9784  14.1995
    14.2924  14.4514  14.5355  14.6775  14.8043  14.8904  14.9544  15.0654
    15.0787  15.1857  15.3278  15.3355  15.5284  15.5571  15.6543  15.7726
    15.8245  15.9142  15.9610  16.1130  16.1993  16.7956  17.2667  18.5011
    19.2146  20.0916  21.0891  21.6110  22.5147  22.7089  22.8408  22.9346
    22.9599  23.2965  23.6315  24.1939  24.3386  24.9866  25.9074  26.1346
    28.7619  29.1956  29.4419  30.4616  30.7570  31.4440  31.7251  32.1200
    33.0961  33.4396  33.6688  34.0472  34.1710  34.3746  34.7882  35.0545
    35.3430

          k = 0.3362 0.2801 0.2401 (  4476 PWs)   bands (ev):

   -64.6220 -64.6188 -64.6162 -64.6066 -64.5940 -64.5914 -41.2582 -41.2577
   -29.1113 -29.0759 -29.0151 -28.8192 -28.7611 -28.7570 -28.7551 -28.7463
   -28.7414 -28.7259 -28.7203 -28.7159 -28.7109 -28.6998 -28.6976 -28.6909
   -28.6861 -28.6805 -12.3317 -12.3311 -12.3291 -12.3275 -12.3262 -12.3254
    13.2200  13.4645  13.7712  13.8042  13.8625  13.9305  14.0288  14.2424
    14.3291  14.4068  14.4482  14.6345  14.7660  14.8128  14.9038  14.9362
    15.0165  15.2617  15.3432  15.3584  15.4376  15.5272  15.6184  15.6479
    15.7296  15.8494  15.8995  15.9409  15.9943  16.2414  17.7801  18.9574
    19.5709  20.3328  20.3816  20.8859  22.7841  22.8552  22.9134  22.9864
    23.1247  23.3990  23.4326  23.7803  24.0189  24.6016  24.9502  25.7099
    29.2938  29.5285  29.9023  31.5372  32.0566  32.1565  32.3385  32.6302
    33.0845  33.4035  33.4899  34.1038  34.1636  34.5108  34.9265  35.3811
    35.5938

          k = 0.3362 0.2801 0.3602 (  4479 PWs)   bands (ev):

   -64.6203 -64.6148 -64.6132 -64.6082 -64.6007 -64.5975 -41.2588 -41.2575
   -29.0721 -29.0172 -28.9914 -28.8472 -28.8190 -28.7594 -28.7525 -28.7457
   -28.7435 -28.7368 -28.7278 -28.7178 -28.7164 -28.7075 -28.7059 -28.6936
   -28.6895 -28.6858 -12.3324 -12.3303 -12.3303 -12.3285 -12.3277 -12.3248
    13.4788  13.8392  13.9277  13.9532  14.0206  14.0839  14.1513  14.2627
    14.3626  14.4198  14.4459  14.6044  14.7095  14.7205  14.7852  14.8022
    15.0319  15.1746  15.2020  15.2613  15.2855  15.4212  15.5338  15.6052
    15.6316  15.7098  15.8017  15.8205  15.8583  16.0085  18.4658  19.2469
    19.5212  20.1011  20.3267  20.6397  22.8627  22.9171  22.9609  22.9976
    23.2233  23.2406  23.4809  23.5548  23.8051  24.3501  24.5699  24.9832
    29.7854  30.2091  30.5208  31.9322  32.3126  32.7279  32.7685  33.1033
    33.5565  33.6228  33.8193  34.1210  34.1609  34.4382  34.5826  35.2386
    35.3818

          k = 0.3362-0.4202 0.0000 (  4472 PWs)   bands (ev):

   -64.6188 -64.6117 -64.6076 -64.6058 -64.6004 -64.5951 -41.2576 -41.2575
   -29.2379 -29.0154 -28.9185 -28.9162 -28.8187 -28.7534 -28.7516 -28.7482
   -28.7347 -28.7277 -28.7276 -28.7121 -28.7091 -28.7053 -28.6815 -28.6770
   -28.6760 -28.5744 -12.3325 -12.3312 -12.3293 -12.3278 -12.3239 -12.3238
    12.4611  13.4813  13.5058  13.8309  14.0433  14.1193  14.1706  14.2422
    14.3691  14.3993  14.5574  14.7273  14.8171  14.8356  14.8700  15.0261
    15.0628  15.1002  15.2268  15.2398  15.4297  15.4823  15.5008  15.6109
    15.6126  15.7649  16.1124  16.2855  16.3188  16.9900  17.8910  17.9079
    19.0542  19.2194  21.4753  22.3790  22.4686  22.5344  22.8814  22.9245
    22.9798  23.4263  23.8045  23.8424  24.5471  24.6648  26.2745  26.4167
    28.7603  28.8078  29.3996  29.5885  30.7454  31.3772  32.4365  32.4723
    33.1394  33.3527  33.4738  33.5684  33.7670  34.2753  34.9298  35.2840
    35.6551

          k = 0.3362-0.4202 0.1201 (  4482 PWs)   bands (ev):

   -64.6217 -64.6194 -64.6132 -64.6096 -64.5979 -64.5967 -41.2582 -41.2582
   -29.2073 -29.0202 -28.9202 -28.9183 -28.8198 -28.7622 -28.7558 -28.7467
   -28.7376 -28.7365 -28.7279 -28.7127 -28.7119 -28.7056 -28.6846 -28.6826
   -28.6709 -28.6147 -12.3330 -12.3319 -12.3302 -12.3291 -12.3258 -12.3257
    12.6609  13.5681  13.5937  13.8417  14.0557  14.1147  14.2271  14.2563
    14.3679  14.4313  14.5295  14.6967  14.7475  14.7898  14.7970  14.9493
    15.0718  15.0808  15.2258  15.2466  15.4134  15.5033  15.5123  15.6364
    15.7200  15.7365  15.9964  16.0854  16.1564  16.8023  18.1163  18.1386
    19.2152  19.3427  21.1942  21.8283  22.6137  22.6402  22.8998  22.9508
    23.0415  23.4537  23.7648  23.7895  24.4033  24.7539  25.5379  25.7237
    29.1747  29.2281  29.8932  30.2091  30.9536  31.6906  32.4457  32.7577
    33.1969  33.2362  33.6911  33.9383  33.9959  34.2804  34.9501  35.2849
    35.3684

          k = 0.3362-0.4202 0.2401 (  4486 PWs)   bands (ev):

   -64.6261 -64.6189 -64.6127 -64.6121 -64.6028 -64.5955 -41.2586 -41.2586
   -29.1120 -29.0212 -28.9243 -28.9235 -28.8134 -28.7550 -28.7513 -28.7476
   -28.7419 -28.7310 -28.7275 -28.7150 -28.7131 -28.7126 -28.7087 -28.6936
   -28.6881 -28.6830 -12.3338 -12.3334 -12.3294 -12.3288 -12.3270 -12.3269
    13.2278  13.7965  13.8439  13.8861  14.0912  14.1127  14.2987  14.3327
    14.3911  14.4683  14.4992  14.5294  14.6331  14.6572  14.7692  14.8379
    15.0853  15.1058  15.1966  15.2357  15.3288  15.4176  15.5134  15.6249
    15.6331  15.7766  15.7991  15.8321  15.8952  16.2498  18.6382  18.6601
    19.6456  19.6756  20.6476  20.8915  22.7941  22.8274  22.9430  22.9893
    23.2340  23.4668  23.5104  23.5317  24.0801  24.2709  24.8339  24.9342
    29.4955  30.0787  31.0042  31.0148  32.0362  32.4475  32.6913  33.2201
    33.4520  33.5144  33.9327  34.0684  34.4109  34.4186  34.8348  34.8608
    35.4644

          k = 0.3362-0.4202 0.3602 (  4492 PWs)   bands (ev):

   -64.6196 -64.6171 -64.6139 -64.6125 -64.6068 -64.6060 -41.2588 -41.2588
   -29.0149 -28.9906 -28.9238 -28.9237 -28.8495 -28.8221 -28.7527 -28.7522
   -28.7328 -28.7312 -28.7257 -28.7231 -28.7194 -28.7152 -28.7099 -28.7068
   -28.6992 -28.6977 -12.3322 -12.3321 -12.3307 -12.3307 -12.3287 -12.3287
    13.8644  14.0202  14.1234  14.1275  14.1880  14.1938  14.3392  14.3401
    14.3828  14.3919  14.4994  14.5103  14.6043  14.6061  14.6920  14.7001
    15.0399  15.0402  15.1087  15.1218  15.1710  15.1936  15.3979  15.5107
    15.6233  15.6693  15.7239  15.7426  15.7899  15.7922  19.2716  19.2779
    19.8774  19.8848  20.2524  20.2976  22.7368  22.7377  22.9979  23.0104
    23.0228  23.0342  23.5701  23.6559  23.9808  24.0042  24.3620  24.4400
    30.4641  30.7322  31.5214  31.5475  32.5074  32.9090  33.3633  33.4296
    33.7248  33.7326  34.0678  34.1082  34.3675  34.4797  34.8354  34.8512
    35.0839

     the Fermi energy is    28.3316 ev

!    total energy              =   -2163.71076285 Ry
     Harris-Foulkes estimate   =   -2163.71076349 Ry
     estimated scf accuracy    <       0.00000081 Ry

     The total energy is the sum of the following terms:

     one-electron contribution =    -433.76021442 Ry
     hartree contribution      =     332.44250407 Ry
     xc contribution           =    -196.45050477 Ry
     ewald contribution        =   -1865.77896934 Ry
     smearing contrib. (-TS)   =      -0.16357839 Ry

     convergence has been achieved in  11 iterations

     Forces acting on atoms (Ry/au):

     atom    1 type  1   force =     0.00000000    0.00000000    0.00000000
     atom    2 type  1   force =     0.00000000    0.00000000    0.00000000
     atom    3 type  1   force =     0.00000000    0.00000000    0.00000000
     atom    4 type  1   force =     0.00000000    0.00000000    0.00000000
     atom    5 type  1   force =     0.00000000    0.00000000    0.00000000
     atom    6 type  1   force =     0.00000000    0.00000000    0.00000000
     atom    7 type  2   force =     0.00000000    0.00000000    0.00000000
     atom    8 type  2   force =     0.00000000    0.00000000    0.00000000

     Total force =     0.000000     Total SCF correction =     0.000000


     entering subroutine stress ...

          total   stress  (Ry/bohr**3)                   (kbar)     P=   98.85
   0.00067198   0.00000000   0.00000000         98.85      0.00      0.00
   0.00000000   0.00067198   0.00000000          0.00     98.85      0.00
   0.00000000   0.00000000   0.00067198          0.00      0.00     98.85


     Writing output data file Prototype-La-cP8-Cr3Si.save
 
     init_run     :      8.24s CPU     10.56s WALL (       2 calls)
     electrons    :   1520.91s CPU   1828.92s WALL (       5 calls)
     update_pot   :      1.42s CPU      1.44s WALL (       3 calls)
     forces       :      5.26s CPU      5.74s WALL (       5 calls)
     stress       :     15.31s CPU     15.78s WALL (       5 calls)

     Called by init_run:
     wfcinit      :      7.08s CPU      9.38s WALL (       2 calls)
     potinit      :      0.26s CPU      0.27s WALL (       2 calls)

     Called by electrons:
     c_bands      :   1476.35s CPU   1753.74s WALL (      45 calls)
     sum_band     :     44.26s CPU     59.99s WALL (      45 calls)
     v_of_rho     :      0.06s CPU      0.07s WALL (      50 calls)
     mix_rho      :      0.06s CPU      0.07s WALL (      45 calls)

     Called by c_bands:
     init_us_2    :      2.73s CPU      3.65s WALL (    4896 calls)
     ccgdiagg     :   1323.70s CPU   1549.40s WALL (    2554 calls)
     wfcrot       :    156.59s CPU    205.97s WALL (    2602 calls)

     Called by *cgdiagg:
     h_psi        :    981.78s CPU   1221.84s WALL ( 1245484 calls)
     cdiaghg      :      9.12s CPU      9.78s WALL (    2602 calls)

     Called by h_psi:
     add_vuspsi   :     97.81s CPU    133.60s WALL ( 1245484 calls)

     General routines
     calbec       :    333.60s CPU    341.57s WALL ( 2488846 calls)
     fft          :      0.14s CPU      0.15s WALL (     223 calls)
     fftw         :    686.37s CPU    851.82s WALL ( 3200072 calls)
     davcio       :      1.96s CPU      6.74s WALL (    7056 calls)
 
     Parallel routines
     fft_scatter  :    301.11s CPU    364.90s WALL ( 3200295 calls)
 
     PWSCF        : 25m51.75s CPU    31m 5.20s WALL

 
   This run was terminated on:   1:27: 3  23Mar2018            

=------------------------------------------------------------------------------=
   JOB DONE.
=------------------------------------------------------------------------------=
