
     Program PWSCF v.5.0.2 starts on 23Mar2018 at  2:16:52 

     This program is part of the open-source Quantum ESPRESSO suite
     for quantum simulation of materials; please cite
         "P. Giannozzi et al., J. Phys.:Condens. Matter 21 395502 (2009);
          URL http://www.quantum-espresso.org", 
     in publications or presentations arising from this work. More details at
     http://www.quantum-espresso.org/quote.php

     Parallel version (MPI), running on     4 processors
     R & G space division:  proc/nbgrp/npool/nimage =       4

     Current dimensions of program PWSCF are:
     Max number of different atomic species (ntypx) = 10
     Max number of k-points (npk) =  40000
     Max angular momentum in pseudopotentials (lmaxx) =  3
     Waiting for input...
     Reading input from standard input

     Subspace diagonalization in iterative solution of the eigenvalue problem:
     a serial algorithm will be used

 
     Parallelization info
     --------------------
     sticks:   dense  smooth     PW     G-vecs:    dense   smooth      PW
     Min         164     164     48                 3132     3132     524
     Max         165     165     49                 3135     3135     527
     Sum         657     657    193                12533    12533    2103
 


     bravais-lattice index     =            0
     lattice parameter (alat)  =       7.1317  a.u.
     unit-cell volume          =     362.7211 (a.u.)^3
     number of atoms/cell      =            4
     number of atomic types    =            2
     number of electrons       =        78.00
     number of Kohn-Sham states=           47
     kinetic-energy cutoff     =      40.0000  Ry
     charge density cutoff     =     160.0000  Ry
     convergence threshold     =      1.0E-04
     mixing beta               =       0.7000
     number of iterations used =            8  plain     mixing
     Exchange-correlation      = SLA-PZ-NOGX-NOGC ( 1 1 0 0 0)
     EXX-fraction              =        0.00
     nstep                     =           50


     celldm(1)=   7.131665  celldm(2)=   0.000000  celldm(3)=   0.000000
     celldm(4)=   0.000000  celldm(5)=   0.000000  celldm(6)=   0.000000

     crystal axes: (cart. coord. in units of alat)
               a(1) = (   1.000000   0.000000   0.000000 )  
               a(2) = (   0.000000   1.000000   0.000000 )  
               a(3) = (   0.000000   0.000000   1.000000 )  

     reciprocal axes: (cart. coord. in units 2 pi/alat)
               b(1) = (  1.000000  0.000000  0.000000 )  
               b(2) = (  0.000000  1.000000  0.000000 )  
               b(3) = (  0.000000  0.000000  1.000000 )  


     PseudoPot. # 1 for Dy read from file:
     /home/cwx6513/pp.La/Dy.UPF
     MD5 check sum: 9597327bec62616a94a14d07f3fd9936
     Pseudo is Norm-conserving, Zval = 20.0
     Generated in analytical, separable form
     Using radial grid of 1265 points,  6 beta functions with: 
                l(1) =   0
                l(2) =   0
                l(3) =   1
                l(4) =   1
                l(5) =   2
                l(6) =   3

     PseudoPot. # 2 for Gd read from file:
     /home/cwx6513/pp.La/Gd.UPF
     MD5 check sum: 09a8be538722f05520810cb6aac0efd2
     Pseudo is Norm-conserving, Zval = 18.0
     Generated in analytical, separable form
     Using radial grid of 1263 points,  6 beta functions with: 
                l(1) =   0
                l(2) =   0
                l(3) =   1
                l(4) =   1
                l(5) =   2
                l(6) =   3

     atomic species   valence    mass     pseudopotential
        Cu            20.00    63.54600     Dy( 1.00)
        Au            18.00   196.96600     Gd( 1.00)

     48 Sym. Ops., with inversion, found



   Cartesian axes

     site n.     atom                  positions (alat units)
         1           Cu  tau(   1) = (   0.0000000   0.5000000   0.5000000  )
         2           Cu  tau(   2) = (   0.5000000   0.5000000   0.0000000  )
         3           Cu  tau(   3) = (   0.5000000   0.0000000   0.5000000  )
         4           Au  tau(   4) = (   0.0000000   0.0000000   0.0000000  )

     number of k points=   100  gaussian smearing, width (Ry)=  0.1000

     Number of k-points >= 100: set verbosity='high' to print them.

     Dense  grid:    12533 G-vectors     FFT dimensions: (  30,  30,  30)

     Largest allocated arrays     est. size (Mb)     dimensions
        Kohn-Sham Wavefunctions         0.29 Mb     (    400,   47)
        NL pseudopotentials             0.49 Mb     (    400,   80)
        Each V/rho on FFT grid          0.11 Mb     (   7200)
        Each G-vector array             0.02 Mb     (   3134)
        G-vector shells                 0.02 Mb     (   3134)
     Largest temporary arrays     est. size (Mb)     dimensions
        Each subspace H/S matrix        0.03 Mb     (  47,  47)
        Each <psi_i|beta_j> matrix      0.06 Mb     (     80,   47)
        Arrays for rho mixing           0.88 Mb     (   7200,   8)

     Initial potential from superposition of free atoms

     Starting from uniform charge
     Starting wfc are    0 randomized atomic wfcs

     total cpu time spent up to now is        2.6 secs

     Self-consistent Calculation

     iteration #  1     ecut=    40.00 Ry     beta=0.70
     CG style diagonalization
     c_bands:  1 eigenvalues not converged
     c_bands:  1 eigenvalues not converged
     c_bands:  2 eigenvalues not converged
     c_bands:  1 eigenvalues not converged
     c_bands:  1 eigenvalues not converged
     c_bands:  2 eigenvalues not converged
     c_bands:  1 eigenvalues not converged
     c_bands:  1 eigenvalues not converged
     c_bands:  1 eigenvalues not converged
     c_bands:  1 eigenvalues not converged
     c_bands:  1 eigenvalues not converged
     ethr =  1.00E-02,  avg # of iterations = 11.3

     total cpu time spent up to now is       22.3 secs

     total energy              =    -904.18341553 Ry
     Harris-Foulkes estimate   =   -1118.19408686 Ry
     estimated scf accuracy    <     280.52340088 Ry

     iteration #  2     ecut=    40.00 Ry     beta=0.70
     CG style diagonalization
     ethr =  1.00E-02,  avg # of iterations =  7.7

     total cpu time spent up to now is       35.2 secs

     total energy              =    -975.41506603 Ry
     Harris-Foulkes estimate   =    -989.80485389 Ry
     estimated scf accuracy    <      20.33107880 Ry

     iteration #  3     ecut=    40.00 Ry     beta=0.70
     CG style diagonalization
     ethr =  1.00E-02,  avg # of iterations =  4.1

     total cpu time spent up to now is       44.5 secs

     total energy              =    -980.48322302 Ry
     Harris-Foulkes estimate   =    -982.31870652 Ry
     estimated scf accuracy    <       3.65288154 Ry

     iteration #  4     ecut=    40.00 Ry     beta=0.70
     CG style diagonalization
     ethr =  4.68E-03,  avg # of iterations =  3.3

     total cpu time spent up to now is       50.3 secs

     total energy              =    -981.20747240 Ry
     Harris-Foulkes estimate   =    -981.30867513 Ry
     estimated scf accuracy    <       0.18780192 Ry

     iteration #  5     ecut=    40.00 Ry     beta=0.70
     CG style diagonalization
     c_bands:  1 eigenvalues not converged
     c_bands:  1 eigenvalues not converged
     c_bands:  1 eigenvalues not converged
     c_bands:  1 eigenvalues not converged
     c_bands:  1 eigenvalues not converged
     ethr =  2.41E-04,  avg # of iterations =  4.2

     total cpu time spent up to now is       57.5 secs

     total energy              =    -981.23645218 Ry
     Harris-Foulkes estimate   =    -981.27895157 Ry
     estimated scf accuracy    <       0.08381579 Ry

     iteration #  6     ecut=    40.00 Ry     beta=0.70
     CG style diagonalization
     ethr =  1.07E-04,  avg # of iterations =  3.5

     total cpu time spent up to now is       63.6 secs

     total energy              =    -981.24582681 Ry
     Harris-Foulkes estimate   =    -981.24785116 Ry
     estimated scf accuracy    <       0.00372403 Ry

     iteration #  7     ecut=    40.00 Ry     beta=0.70
     CG style diagonalization
     c_bands:  1 eigenvalues not converged
     c_bands:  1 eigenvalues not converged
     c_bands:  1 eigenvalues not converged
     c_bands:  2 eigenvalues not converged
     c_bands:  1 eigenvalues not converged
     c_bands:  1 eigenvalues not converged
     c_bands:  1 eigenvalues not converged
     c_bands:  1 eigenvalues not converged
     c_bands:  1 eigenvalues not converged
     c_bands:  1 eigenvalues not converged
     c_bands:  2 eigenvalues not converged
     c_bands:  1 eigenvalues not converged
     c_bands:  1 eigenvalues not converged
     c_bands:  1 eigenvalues not converged
     c_bands:  1 eigenvalues not converged
     c_bands:  1 eigenvalues not converged
     c_bands:  1 eigenvalues not converged
     c_bands:  1 eigenvalues not converged
     c_bands:  1 eigenvalues not converged
     c_bands:  1 eigenvalues not converged
     c_bands:  1 eigenvalues not converged
     c_bands:  1 eigenvalues not converged
     c_bands:  1 eigenvalues not converged
     c_bands:  1 eigenvalues not converged
     c_bands:  1 eigenvalues not converged
     c_bands:  1 eigenvalues not converged
     ethr =  4.77E-06,  avg # of iterations =  4.5

     total cpu time spent up to now is       71.0 secs

     End of self-consistent calculation

     Number of k-points >= 100: set verbosity='high' to print the bands.

     the Fermi energy is    41.6538 ev

!    total energy              =    -981.24705330 Ry
     Harris-Foulkes estimate   =    -981.24713426 Ry
     estimated scf accuracy    <       0.00009594 Ry

     The total energy is the sum of the following terms:

     one-electron contribution =      -4.66256159 Ry
     hartree contribution      =      97.01231201 Ry
     xc contribution           =     -94.75224743 Ry
     ewald contribution        =    -978.78120739 Ry
     smearing contrib. (-TS)   =      -0.06334890 Ry

     convergence has been achieved in   7 iterations

     Forces acting on atoms (Ry/au):

     atom    1 type  1   force =     0.00000000    0.00000000    0.00000000
     atom    2 type  1   force =     0.00000000    0.00000000    0.00000000
     atom    3 type  1   force =     0.00000000    0.00000000    0.00000000
     atom    4 type  2   force =     0.00000000    0.00000000    0.00000000

     Total force =     0.000000     Total SCF correction =     0.000000


     entering subroutine stress ...

          total   stress  (Ry/bohr**3)                   (kbar)     P= 2716.34
   0.01846532   0.00000000   0.00000000       2716.34      0.00      0.00
   0.00000000   0.01846532   0.00000000          0.00   2716.34      0.00
   0.00000000   0.00000000   0.01846532          0.00      0.00   2716.34


     BFGS Geometry Optimization

     number of scf cycles    =   1
     number of bfgs steps    =   0

     enthalpy new            =    -981.2470532981 Ry

     new trust radius        =       0.5000000000 bohr
     new conv_thr            =       0.0001000000 Ry

     new unit-cell volume =    525.13076 a.u.^3 (    77.81635 Ang^3 )

CELL_PARAMETERS (alat=  7.13166486)
   1.131266415   0.000000000   0.000000000
   0.000000000   1.131266415   0.000000000
   0.000000000   0.000000000   1.131266415

ATOMIC_POSITIONS (crystal)
Cu       0.000000000   0.500000000   0.500000000
Cu       0.500000000   0.500000000   0.000000000
Cu       0.500000000   0.000000000   0.500000000
Au       0.000000000   0.000000000   0.000000000



     Writing output data file Prototype-La-cP4-Cu3Au.save
     NEW-OLD atomic charge density approx. for the potential
     NEW k-points: (use verbosity='high' to print them)

     total cpu time spent up to now is       73.7 secs

     Self-consistent Calculation

     iteration #  1     ecut=    40.00 Ry     beta=0.70
     CG style diagonalization
     c_bands:  1 eigenvalues not converged
     c_bands:  5 eigenvalues not converged
     c_bands:  4 eigenvalues not converged
     c_bands:  1 eigenvalues not converged
     c_bands:  1 eigenvalues not converged
     c_bands:  2 eigenvalues not converged
     c_bands:  1 eigenvalues not converged
     c_bands:  1 eigenvalues not converged
     c_bands:  1 eigenvalues not converged
     c_bands:  1 eigenvalues not converged
     c_bands:  1 eigenvalues not converged
     c_bands:  1 eigenvalues not converged
     ethr =  1.00E-06,  avg # of iterations = 21.1

     total cpu time spent up to now is      111.9 secs

     total energy              =    -970.24713674 Ry
     Harris-Foulkes estimate   =    -996.96581127 Ry
     estimated scf accuracy    <      34.09205336 Ry

     iteration #  2     ecut=    40.00 Ry     beta=0.70
     CG style diagonalization
     ethr =  1.00E-02,  avg # of iterations =  4.1

     total cpu time spent up to now is      119.7 secs

     total energy              =    -979.69326041 Ry
     Harris-Foulkes estimate   =    -984.49537936 Ry
     estimated scf accuracy    <       7.51578921 Ry

     iteration #  3     ecut=    40.00 Ry     beta=0.70
     CG style diagonalization
     ethr =  9.64E-03,  avg # of iterations =  3.6

     total cpu time spent up to now is      126.7 secs

     total energy              =    -981.66826986 Ry
     Harris-Foulkes estimate   =    -982.25735782 Ry
     estimated scf accuracy    <       1.24442004 Ry

     iteration #  4     ecut=    40.00 Ry     beta=0.70
     CG style diagonalization
     ethr =  1.60E-03,  avg # of iterations =  3.2

     total cpu time spent up to now is      133.6 secs

     total energy              =    -981.85934373 Ry
     Harris-Foulkes estimate   =    -981.87269977 Ry
     estimated scf accuracy    <       0.03188934 Ry

     iteration #  5     ecut=    40.00 Ry     beta=0.70
     CG style diagonalization
     c_bands:  1 eigenvalues not converged
     c_bands:  1 eigenvalues not converged
     c_bands:  1 eigenvalues not converged
     ethr =  4.09E-05,  avg # of iterations =  4.0

     total cpu time spent up to now is      141.5 secs

     total energy              =    -981.86853085 Ry
     Harris-Foulkes estimate   =    -981.86968582 Ry
     estimated scf accuracy    <       0.00160171 Ry

     iteration #  6     ecut=    40.00 Ry     beta=0.70
     CG style diagonalization
     c_bands:  1 eigenvalues not converged
     c_bands:  1 eigenvalues not converged
     c_bands:  1 eigenvalues not converged
     c_bands:  2 eigenvalues not converged
     c_bands:  1 eigenvalues not converged
     c_bands:  1 eigenvalues not converged
     c_bands:  2 eigenvalues not converged
     ethr =  2.05E-06,  avg # of iterations =  4.3

     total cpu time spent up to now is      149.8 secs

     total energy              =    -981.86915384 Ry
     Harris-Foulkes estimate   =    -981.86956135 Ry
     estimated scf accuracy    <       0.00138985 Ry

     iteration #  7     ecut=    40.00 Ry     beta=0.70
     CG style diagonalization
     c_bands:  1 eigenvalues not converged
     ethr =  1.78E-06,  avg # of iterations =  3.1

     total cpu time spent up to now is      156.0 secs

     total energy              =    -981.86910775 Ry
     Harris-Foulkes estimate   =    -981.86924417 Ry
     estimated scf accuracy    <       0.00030632 Ry

     iteration #  8     ecut=    40.00 Ry     beta=0.70
     CG style diagonalization
     ethr =  3.93E-07,  avg # of iterations =  3.2

     total cpu time spent up to now is      161.5 secs

     End of self-consistent calculation

     Number of k-points >= 100: set verbosity='high' to print the bands.

     the Fermi energy is    26.5537 ev

!    total energy              =    -981.86916917 Ry
     Harris-Foulkes estimate   =    -981.86917164 Ry
     estimated scf accuracy    <       0.00000303 Ry

     The total energy is the sum of the following terms:

     one-electron contribution =    -165.72100200 Ry
     hartree contribution      =     141.17949193 Ry
     xc contribution           =     -92.04464579 Ry
     ewald contribution        =    -865.20840496 Ry
     smearing contrib. (-TS)   =      -0.07460834 Ry

     convergence has been achieved in   8 iterations

     Forces acting on atoms (Ry/au):

     atom    1 type  1   force =     0.00000000    0.00000000    0.00000000
     atom    2 type  1   force =     0.00000000    0.00000000    0.00000000
     atom    3 type  1   force =     0.00000000    0.00000000    0.00000000
     atom    4 type  2   force =     0.00000000    0.00000000    0.00000000

     Total force =     0.000000     Total SCF correction =     0.000000


     entering subroutine stress ...

          total   stress  (Ry/bohr**3)                   (kbar)     P= -658.25
  -0.00447467   0.00000000   0.00000000       -658.25      0.00      0.00
   0.00000000  -0.00447467   0.00000000          0.00   -658.25      0.00
   0.00000000   0.00000000  -0.00447467          0.00      0.00   -658.25


     number of scf cycles    =   2
     number of bfgs steps    =   1

     enthalpy old            =    -981.2470532981 Ry
     enthalpy new            =    -981.8691691716 Ry

     CASE: enthalpy_new < enthalpy_old

     small trust_radius: resetting bfgs history

     new trust radius        =       0.5127013045 bohr
     new conv_thr            =       0.0000010000 Ry

     new unit-cell volume =    367.87644 a.u.^3 (    54.51366 Ang^3 )

CELL_PARAMETERS (alat=  7.13166486)
   1.004715411   0.000000000   0.000000000
   0.000000000   1.004715411   0.000000000
   0.000000000   0.000000000   1.004715411

ATOMIC_POSITIONS (crystal)
Cu       0.000000000   0.500000000   0.500000000
Cu       0.500000000   0.500000000   0.000000000
Cu       0.500000000   0.000000000   0.500000000
Au       0.000000000   0.000000000   0.000000000



     Writing output data file Prototype-La-cP4-Cu3Au.save
     NEW-OLD atomic charge density approx. for the potential
     NEW k-points: (use verbosity='high' to print them)

     total cpu time spent up to now is      164.5 secs

     Self-consistent Calculation

     iteration #  1     ecut=    40.00 Ry     beta=0.70
     CG style diagonalization
     c_bands:  1 eigenvalues not converged
     c_bands:  1 eigenvalues not converged
     c_bands:  3 eigenvalues not converged
     c_bands:  5 eigenvalues not converged
     c_bands:  1 eigenvalues not converged
     c_bands:  2 eigenvalues not converged
     c_bands:  2 eigenvalues not converged
     c_bands:  3 eigenvalues not converged
     c_bands:  1 eigenvalues not converged
     c_bands:  3 eigenvalues not converged
     c_bands:  2 eigenvalues not converged
     c_bands:  2 eigenvalues not converged
     c_bands:  3 eigenvalues not converged
     c_bands:  1 eigenvalues not converged
     c_bands:  3 eigenvalues not converged
     c_bands:  1 eigenvalues not converged
     c_bands:  1 eigenvalues not converged
     c_bands:  1 eigenvalues not converged
     c_bands:  1 eigenvalues not converged
     c_bands:  1 eigenvalues not converged
     c_bands:  1 eigenvalues not converged
     c_bands:  2 eigenvalues not converged
     c_bands:  2 eigenvalues not converged
     c_bands:  1 eigenvalues not converged
     c_bands:  1 eigenvalues not converged
     c_bands:  1 eigenvalues not converged
     c_bands:  1 eigenvalues not converged
     c_bands:  1 eigenvalues not converged
     c_bands:  2 eigenvalues not converged
     c_bands:  1 eigenvalues not converged
     c_bands:  1 eigenvalues not converged
     c_bands:  1 eigenvalues not converged
     c_bands:  2 eigenvalues not converged
     c_bands:  1 eigenvalues not converged
     c_bands:  2 eigenvalues not converged
     c_bands:  1 eigenvalues not converged
     c_bands:  2 eigenvalues not converged
     c_bands:  4 eigenvalues not converged
     c_bands:  2 eigenvalues not converged
     c_bands:  1 eigenvalues not converged
     c_bands:  1 eigenvalues not converged
     c_bands:  1 eigenvalues not converged
     c_bands:  2 eigenvalues not converged
     c_bands:  2 eigenvalues not converged
     ethr =  1.00E-06,  avg # of iterations = 21.4

     total cpu time spent up to now is      202.1 secs

     total energy              =    -971.31063295 Ry
     Harris-Foulkes estimate   =    -995.77560742 Ry
     estimated scf accuracy    <      30.88026736 Ry

     iteration #  2     ecut=    40.00 Ry     beta=0.70
     CG style diagonalization
     ethr =  1.00E-02,  avg # of iterations =  4.4

     total cpu time spent up to now is      210.2 secs

     total energy              =    -980.55645801 Ry
     Harris-Foulkes estimate   =    -982.95020474 Ry
     estimated scf accuracy    <       3.68261761 Ry

     iteration #  3     ecut=    40.00 Ry     beta=0.70
     CG style diagonalization
     ethr =  4.72E-03,  avg # of iterations =  3.6

     total cpu time spent up to now is      216.5 secs

     total energy              =    -981.32249302 Ry
     Harris-Foulkes estimate   =    -981.34677789 Ry
     estimated scf accuracy    <       0.03903995 Ry

     iteration #  4     ecut=    40.00 Ry     beta=0.70
     CG style diagonalization
     c_bands:  1 eigenvalues not converged
     c_bands:  1 eigenvalues not converged
     c_bands:  3 eigenvalues not converged
     c_bands:  1 eigenvalues not converged
     c_bands:  1 eigenvalues not converged
     c_bands:  1 eigenvalues not converged
     c_bands:  1 eigenvalues not converged
     c_bands:  1 eigenvalues not converged
     c_bands:  1 eigenvalues not converged
     c_bands:  1 eigenvalues not converged
     c_bands:  1 eigenvalues not converged
     ethr =  5.01E-05,  avg # of iterations =  4.5

     total cpu time spent up to now is      224.9 secs

     total energy              =    -981.33074282 Ry
     Harris-Foulkes estimate   =    -981.34567405 Ry
     estimated scf accuracy    <       0.02939371 Ry

     iteration #  5     ecut=    40.00 Ry     beta=0.70
     CG style diagonalization
     c_bands:  1 eigenvalues not converged
     c_bands:  1 eigenvalues not converged
     c_bands:  1 eigenvalues not converged
     ethr =  3.77E-05,  avg # of iterations =  3.4

     total cpu time spent up to now is      231.5 secs

     total energy              =    -981.33709958 Ry
     Harris-Foulkes estimate   =    -981.33732137 Ry
     estimated scf accuracy    <       0.00042408 Ry

     iteration #  6     ecut=    40.00 Ry     beta=0.70
     CG style diagonalization
     c_bands:  1 eigenvalues not converged
     c_bands:  1 eigenvalues not converged
     c_bands:  1 eigenvalues not converged
     c_bands:  1 eigenvalues not converged
     c_bands:  1 eigenvalues not converged
     c_bands:  1 eigenvalues not converged
     c_bands:  1 eigenvalues not converged
     c_bands:  1 eigenvalues not converged
     c_bands:  1 eigenvalues not converged
     ethr =  5.44E-07,  avg # of iterations =  4.5

     total cpu time spent up to now is      239.5 secs

     total energy              =    -981.33726042 Ry
     Harris-Foulkes estimate   =    -981.33729434 Ry
     estimated scf accuracy    <       0.00005423 Ry

     iteration #  7     ecut=    40.00 Ry     beta=0.70
     CG style diagonalization
     ethr =  6.95E-08,  avg # of iterations =  3.7

     total cpu time spent up to now is      246.0 secs

     End of self-consistent calculation

     Number of k-points >= 100: set verbosity='high' to print the bands.

     the Fermi energy is    40.9748 ev

!    total energy              =    -981.33727671 Ry
     Harris-Foulkes estimate   =    -981.33727706 Ry
     estimated scf accuracy    <       0.00000048 Ry

     The total energy is the sum of the following terms:

     one-electron contribution =     -10.97777766 Ry
     hartree contribution      =      98.50572999 Ry
     xc contribution           =     -94.61439511 Ry
     ewald contribution        =    -974.18751304 Ry
     smearing contrib. (-TS)   =      -0.06332090 Ry

     convergence has been achieved in   7 iterations

     Forces acting on atoms (Ry/au):

     atom    1 type  1   force =     0.00000000    0.00000000    0.00000000
     atom    2 type  1   force =     0.00000000    0.00000000    0.00000000
     atom    3 type  1   force =     0.00000000    0.00000000    0.00000000
     atom    4 type  2   force =     0.00000000    0.00000000    0.00000000

     Total force =     0.000000     Total SCF correction =     0.000000


     entering subroutine stress ...

          total   stress  (Ry/bohr**3)                   (kbar)     P= 2466.22
   0.01676502   0.00000000   0.00000000       2466.22      0.00      0.00
   0.00000000   0.01676502   0.00000000          0.00   2466.22      0.00
   0.00000000   0.00000000   0.01676502          0.00      0.00   2466.22


     number of scf cycles    =   3
     number of bfgs steps    =   2

     enthalpy old            =    -981.8691691716 Ry
     enthalpy new            =    -981.3372767103 Ry

     CASE: enthalpy_new > enthalpy_old

     new trust radius        =       0.1442751951 bohr

     trust_radius < trust_radius_min

     resetting bfgs history

     Message from routine bfgs:
     history already reset at previous step: stopping
     new conv_thr            =       0.0000010000 Ry

     new unit-cell volume =    363.05676 a.u.^3 (    53.79946 Ang^3 )

CELL_PARAMETERS (alat=  7.13166486)
   1.000308397   0.000000000   0.000000000
   0.000000000   1.000308397   0.000000000
   0.000000000   0.000000000   1.000308397

ATOMIC_POSITIONS (crystal)
Cu       0.000000000   0.500000000   0.500000000
Cu       0.500000000   0.500000000   0.000000000
Cu       0.500000000   0.000000000   0.500000000
Au       0.000000000   0.000000000   0.000000000



     Writing output data file Prototype-La-cP4-Cu3Au.save
     NEW-OLD atomic charge density approx. for the potential
     NEW k-points: (use verbosity='high' to print them)

     total cpu time spent up to now is      249.0 secs

     Self-consistent Calculation

     iteration #  1     ecut=    40.00 Ry     beta=0.70
     CG style diagonalization
     c_bands:  1 eigenvalues not converged
     c_bands:  1 eigenvalues not converged
     c_bands:  1 eigenvalues not converged
     ethr =  1.00E-06,  avg # of iterations =  6.2

     total cpu time spent up to now is      260.8 secs

     total energy              =    -981.24033040 Ry
     Harris-Foulkes estimate   =    -981.27149155 Ry
     estimated scf accuracy    <       0.03977251 Ry

     iteration #  2     ecut=    40.00 Ry     beta=0.70
     CG style diagonalization
     ethr =  5.10E-05,  avg # of iterations =  3.8

     total cpu time spent up to now is      268.1 secs

     total energy              =    -981.25230773 Ry
     Harris-Foulkes estimate   =    -981.25512975 Ry
     estimated scf accuracy    <       0.00429882 Ry

     iteration #  3     ecut=    40.00 Ry     beta=0.70
     CG style diagonalization
     ethr =  5.51E-06,  avg # of iterations =  3.6

     total cpu time spent up to now is      275.3 secs

     total energy              =    -981.25322647 Ry
     Harris-Foulkes estimate   =    -981.25323583 Ry
     estimated scf accuracy    <       0.00001657 Ry

     iteration #  4     ecut=    40.00 Ry     beta=0.70
     CG style diagonalization
     c_bands:  1 eigenvalues not converged
     ethr =  2.12E-08,  avg # of iterations =  4.0

     total cpu time spent up to now is      283.0 secs

     total energy              =    -981.25323880 Ry
     Harris-Foulkes estimate   =    -981.25324017 Ry
     estimated scf accuracy    <       0.00000243 Ry

     iteration #  5     ecut=    40.00 Ry     beta=0.70
     CG style diagonalization
     ethr =  3.12E-09,  avg # of iterations =  3.5

     total cpu time spent up to now is      289.1 secs

     End of self-consistent calculation

     Number of k-points >= 100: set verbosity='high' to print the bands.

     the Fermi energy is    41.6136 ev

!    total energy              =    -981.25323904 Ry
     Harris-Foulkes estimate   =    -981.25323929 Ry
     estimated scf accuracy    <       0.00000029 Ry

     The total energy is the sum of the following terms:

     one-electron contribution =      -5.01848759 Ry
     hartree contribution      =      97.04144280 Ry
     xc contribution           =     -94.73340565 Ry
     ewald contribution        =    -978.47944697 Ry
     smearing contrib. (-TS)   =      -0.06334163 Ry

     convergence has been achieved in   5 iterations

     Forces acting on atoms (Ry/au):

     atom    1 type  1   force =     0.00000000    0.00000000    0.00000000
     atom    2 type  1   force =     0.00000000    0.00000000    0.00000000
     atom    3 type  1   force =     0.00000000    0.00000000    0.00000000
     atom    4 type  2   force =     0.00000000    0.00000000    0.00000000

     Total force =     0.000000     Total SCF correction =     0.000000


     entering subroutine stress ...

          total   stress  (Ry/bohr**3)                   (kbar)     P= 2663.45
   0.01810577   0.00000000   0.00000000       2663.45      0.00      0.00
   0.00000000   0.01810577   0.00000000          0.00   2663.45      0.00
   0.00000000   0.00000000   0.01810577          0.00      0.00   2663.45


     The maximum number of steps has been reached.

     End of BFGS Geometry Optimization
Begin final coordinates
     new unit-cell volume =    363.05676 a.u.^3 (    53.79946 Ang^3 )

CELL_PARAMETERS (alat=  7.13166486)
   1.000308397   0.000000000   0.000000000
   0.000000000   1.000308397   0.000000000
   0.000000000   0.000000000   1.000308397

ATOMIC_POSITIONS (crystal)
Cu       0.000000000   0.500000000   0.500000000
Cu       0.500000000   0.500000000   0.000000000
Cu       0.500000000   0.000000000   0.500000000
Au       0.000000000   0.000000000   0.000000000
End final coordinates



     A final scf calculation at the relaxed structure.
     The G-vectors are recalculated for the final unit cell
     Results may differ from those at the preceding step.
 
     Parallelization info
     --------------------
     sticks:   dense  smooth     PW     G-vecs:    dense   smooth      PW
     Min         164     164     48                 3132     3132     524
     Max         165     165     49                 3135     3135     527
     Sum         657     657    193                12533    12533    2103
 


     bravais-lattice index     =            0
     lattice parameter (alat)  =       7.1317  a.u.
     unit-cell volume          =     363.0568 (a.u.)^3
     number of atoms/cell      =            4
     number of atomic types    =            2
     number of electrons       =        78.00
     number of Kohn-Sham states=           47
     kinetic-energy cutoff     =      40.0000  Ry
     charge density cutoff     =     160.0000  Ry
     convergence threshold     =      1.0E-06
     mixing beta               =       0.7000
     number of iterations used =            8  plain     mixing
     Exchange-correlation      = SLA-PZ-NOGX-NOGC ( 1 1 0 0 0)
     EXX-fraction              =        0.00

     celldm(1)=   7.131665  celldm(2)=   0.000000  celldm(3)=   0.000000
     celldm(4)=   0.000000  celldm(5)=   0.000000  celldm(6)=   0.000000

     crystal axes: (cart. coord. in units of alat)
               a(1) = (   1.000308   0.000000   0.000000 )  
               a(2) = (   0.000000   1.000308   0.000000 )  
               a(3) = (   0.000000   0.000000   1.000308 )  

     reciprocal axes: (cart. coord. in units 2 pi/alat)
               b(1) = (  0.999692  0.000000  0.000000 )  
               b(2) = (  0.000000  0.999692  0.000000 )  
               b(3) = (  0.000000  0.000000  0.999692 )  


     PseudoPot. # 1 for Dy read from file:
     /home/cwx6513/pp.La/Dy.UPF
     MD5 check sum: 9597327bec62616a94a14d07f3fd9936
     Pseudo is Norm-conserving, Zval = 20.0
     Generated in analytical, separable form
     Using radial grid of 1265 points,  6 beta functions with: 
                l(1) =   0
                l(2) =   0
                l(3) =   1
                l(4) =   1
                l(5) =   2
                l(6) =   3

     PseudoPot. # 2 for Gd read from file:
     /home/cwx6513/pp.La/Gd.UPF
     MD5 check sum: 09a8be538722f05520810cb6aac0efd2
     Pseudo is Norm-conserving, Zval = 18.0
     Generated in analytical, separable form
     Using radial grid of 1263 points,  6 beta functions with: 
                l(1) =   0
                l(2) =   0
                l(3) =   1
                l(4) =   1
                l(5) =   2
                l(6) =   3

     atomic species   valence    mass     pseudopotential
        Cu            20.00    63.54600     Dy( 1.00)
        Au            18.00   196.96600     Gd( 1.00)

     48 Sym. Ops., with inversion, found



   Cartesian axes

     site n.     atom                  positions (alat units)
         1           Cu  tau(   1) = (   0.0000000   0.5001542   0.5001542  )
         2           Cu  tau(   2) = (   0.5001542   0.5001542   0.0000000  )
         3           Cu  tau(   3) = (   0.5001542   0.0000000   0.5001542  )
         4           Au  tau(   4) = (   0.0000000   0.0000000   0.0000000  )

     number of k points=   100  gaussian smearing, width (Ry)=  0.1000

     Number of k-points >= 100: set verbosity='high' to print them.

     Dense  grid:    12533 G-vectors     FFT dimensions: (  30,  30,  30)

     Largest allocated arrays     est. size (Mb)     dimensions
        Kohn-Sham Wavefunctions         0.29 Mb     (    402,   47)
        NL pseudopotentials             0.49 Mb     (    402,   80)
        Each V/rho on FFT grid          0.11 Mb     (   7200)
        Each G-vector array             0.02 Mb     (   3134)
        G-vector shells                 0.00 Mb     (    175)
     Largest temporary arrays     est. size (Mb)     dimensions
        Each subspace H/S matrix        0.03 Mb     (  47,  47)
        Each <psi_i|beta_j> matrix      0.06 Mb     (     80,   47)
        Arrays for rho mixing           0.88 Mb     (   7200,   8)

     Initial potential from superposition of free atoms

     Starting from uniform charge
     Starting wfc are    0 randomized atomic wfcs

     Writing output data file Prototype-La-cP4-Cu3Au.save

     total cpu time spent up to now is      293.7 secs

     Self-consistent Calculation

     iteration #  1     ecut=    40.00 Ry     beta=0.70
     CG style diagonalization
     c_bands:  4 eigenvalues not converged
     c_bands:  3 eigenvalues not converged
     c_bands:  5 eigenvalues not converged
     c_bands:  5 eigenvalues not converged
     c_bands:  1 eigenvalues not converged
     c_bands:  5 eigenvalues not converged
     c_bands:  4 eigenvalues not converged
     c_bands:  4 eigenvalues not converged
     c_bands:  5 eigenvalues not converged
     c_bands:  5 eigenvalues not converged
     c_bands:  5 eigenvalues not converged
     c_bands:  4 eigenvalues not converged
     c_bands:  2 eigenvalues not converged
     c_bands:  5 eigenvalues not converged
     c_bands:  4 eigenvalues not converged
     c_bands:  4 eigenvalues not converged
     c_bands:  5 eigenvalues not converged
     c_bands:  5 eigenvalues not converged
     c_bands:  4 eigenvalues not converged
     c_bands:  4 eigenvalues not converged
     c_bands:  2 eigenvalues not converged
     c_bands:  5 eigenvalues not converged
     c_bands:  5 eigenvalues not converged
     c_bands:  4 eigenvalues not converged
     c_bands:  4 eigenvalues not converged
     c_bands:  5 eigenvalues not converged
     c_bands:  1 eigenvalues not converged
     c_bands:  5 eigenvalues not converged
     c_bands:  2 eigenvalues not converged
     c_bands:  3 eigenvalues not converged
     c_bands:  2 eigenvalues not converged
     c_bands:  4 eigenvalues not converged
     c_bands:  3 eigenvalues not converged
     c_bands:  4 eigenvalues not converged
     c_bands:  4 eigenvalues not converged
     c_bands:  3 eigenvalues not converged
     c_bands:  4 eigenvalues not converged
     c_bands:  3 eigenvalues not converged
     c_bands:  3 eigenvalues not converged
     c_bands:  4 eigenvalues not converged
     c_bands:  5 eigenvalues not converged
     c_bands:  5 eigenvalues not converged
     c_bands:  2 eigenvalues not converged
     c_bands:  2 eigenvalues not converged
     c_bands:  5 eigenvalues not converged
     c_bands:  4 eigenvalues not converged
     c_bands:  5 eigenvalues not converged
     c_bands:  3 eigenvalues not converged
     c_bands:  3 eigenvalues not converged
     c_bands:  5 eigenvalues not converged
     c_bands:  4 eigenvalues not converged
     c_bands:  4 eigenvalues not converged
     c_bands:  4 eigenvalues not converged
     c_bands:  3 eigenvalues not converged
     c_bands:  4 eigenvalues not converged
     c_bands:  5 eigenvalues not converged
     c_bands:  4 eigenvalues not converged
     c_bands:  2 eigenvalues not converged
     c_bands:  4 eigenvalues not converged
     c_bands:  4 eigenvalues not converged
     c_bands:  4 eigenvalues not converged
     c_bands:  5 eigenvalues not converged
     c_bands:  4 eigenvalues not converged
     c_bands:  4 eigenvalues not converged
     c_bands:  5 eigenvalues not converged
     c_bands:  5 eigenvalues not converged
     c_bands:  3 eigenvalues not converged
     c_bands:  4 eigenvalues not converged
     c_bands:  3 eigenvalues not converged
     c_bands:  4 eigenvalues not converged
     c_bands:  1 eigenvalues not converged
     c_bands:  4 eigenvalues not converged
     c_bands:  4 eigenvalues not converged
     c_bands:  4 eigenvalues not converged
     c_bands:  3 eigenvalues not converged
     c_bands:  5 eigenvalues not converged
     c_bands:  3 eigenvalues not converged
     c_bands:  3 eigenvalues not converged
     c_bands:  3 eigenvalues not converged
     c_bands:  5 eigenvalues not converged
     c_bands:  5 eigenvalues not converged
     c_bands:  4 eigenvalues not converged
     c_bands:  4 eigenvalues not converged
     c_bands:  4 eigenvalues not converged
     c_bands:  4 eigenvalues not converged
     c_bands:  5 eigenvalues not converged
     c_bands:  5 eigenvalues not converged
     c_bands:  5 eigenvalues not converged
     c_bands:  5 eigenvalues not converged
     c_bands:  5 eigenvalues not converged
     c_bands:  4 eigenvalues not converged
     c_bands:  5 eigenvalues not converged
     c_bands:  4 eigenvalues not converged
     c_bands:  5 eigenvalues not converged
     c_bands:  3 eigenvalues not converged
     c_bands:  4 eigenvalues not converged
     ethr =  1.00E-06,  avg # of iterations = 48.8

     total cpu time spent up to now is      376.4 secs

     total energy              =    -901.64378621 Ry
     Harris-Foulkes estimate   =   -1119.08005456 Ry
     estimated scf accuracy    <     284.87002855 Ry

     iteration #  2     ecut=    40.00 Ry     beta=0.70
     CG style diagonalization
     ethr =  1.00E-02,  avg # of iterations =  7.7

     total cpu time spent up to now is      391.1 secs

     total energy              =    -973.76269290 Ry
     Harris-Foulkes estimate   =    -991.09648782 Ry
     estimated scf accuracy    <      24.42326519 Ry

     iteration #  3     ecut=    40.00 Ry     beta=0.70
     CG style diagonalization
     ethr =  1.00E-02,  avg # of iterations =  4.4

     total cpu time spent up to now is      399.5 secs

     total energy              =    -979.97945515 Ry
     Harris-Foulkes estimate   =    -982.93675101 Ry
     estimated scf accuracy    <       6.15256663 Ry

     iteration #  4     ecut=    40.00 Ry     beta=0.70
     CG style diagonalization
     ethr =  7.89E-03,  avg # of iterations =  3.2

     total cpu time spent up to now is      405.9 secs

     total energy              =    -981.19787289 Ry
     Harris-Foulkes estimate   =    -981.32281436 Ry
     estimated scf accuracy    <       0.23160297 Ry

     iteration #  5     ecut=    40.00 Ry     beta=0.70
     CG style diagonalization
     c_bands:  1 eigenvalues not converged
     c_bands:  1 eigenvalues not converged
     c_bands:  1 eigenvalues not converged
     c_bands:  1 eigenvalues not converged
     c_bands:  1 eigenvalues not converged
     c_bands:  1 eigenvalues not converged
     ethr =  2.97E-04,  avg # of iterations =  4.3

     total cpu time spent up to now is      414.5 secs

     total energy              =    -981.23968756 Ry
     Harris-Foulkes estimate   =    -981.30030613 Ry
     estimated scf accuracy    <       0.11654986 Ry

     iteration #  6     ecut=    40.00 Ry     beta=0.70
     CG style diagonalization
     ethr =  1.49E-04,  avg # of iterations =  3.5

     total cpu time spent up to now is      421.1 secs

     total energy              =    -981.25390689 Ry
     Harris-Foulkes estimate   =    -981.25593387 Ry
     estimated scf accuracy    <       0.00407488 Ry

     iteration #  7     ecut=    40.00 Ry     beta=0.70
     CG style diagonalization
     c_bands:  1 eigenvalues not converged
     c_bands:  1 eigenvalues not converged
     c_bands:  1 eigenvalues not converged
     c_bands:  1 eigenvalues not converged
     c_bands:  1 eigenvalues not converged
     c_bands:  1 eigenvalues not converged
     c_bands:  1 eigenvalues not converged
     c_bands:  1 eigenvalues not converged
     c_bands:  1 eigenvalues not converged
     c_bands:  2 eigenvalues not converged
     c_bands:  1 eigenvalues not converged
     c_bands:  1 eigenvalues not converged
     c_bands:  1 eigenvalues not converged
     c_bands:  2 eigenvalues not converged
     c_bands:  1 eigenvalues not converged
     c_bands:  2 eigenvalues not converged
     c_bands:  2 eigenvalues not converged
     c_bands:  1 eigenvalues not converged
     c_bands:  1 eigenvalues not converged
     c_bands:  1 eigenvalues not converged
     c_bands:  1 eigenvalues not converged
     c_bands:  1 eigenvalues not converged
     c_bands:  2 eigenvalues not converged
     c_bands:  1 eigenvalues not converged
     c_bands:  1 eigenvalues not converged
     c_bands:  2 eigenvalues not converged
     c_bands:  1 eigenvalues not converged
     c_bands:  1 eigenvalues not converged
     c_bands:  1 eigenvalues not converged
     c_bands:  1 eigenvalues not converged
     c_bands:  2 eigenvalues not converged
     c_bands:  1 eigenvalues not converged
     c_bands:  2 eigenvalues not converged
     c_bands:  2 eigenvalues not converged
     c_bands:  1 eigenvalues not converged
     ethr =  5.22E-06,  avg # of iterations =  4.5

     total cpu time spent up to now is      430.7 secs

     total energy              =    -981.25522006 Ry
     Harris-Foulkes estimate   =    -981.25522755 Ry
     estimated scf accuracy    <       0.00003732 Ry

     iteration #  8     ecut=    40.00 Ry     beta=0.70
     CG style diagonalization
     c_bands:  1 eigenvalues not converged
     c_bands:  1 eigenvalues not converged
     c_bands:  1 eigenvalues not converged
     c_bands:  1 eigenvalues not converged
     c_bands:  1 eigenvalues not converged
     c_bands:  1 eigenvalues not converged
     c_bands:  1 eigenvalues not converged
     c_bands:  1 eigenvalues not converged
     c_bands:  1 eigenvalues not converged
     c_bands:  1 eigenvalues not converged
     ethr =  4.78E-08,  avg # of iterations =  4.8

     total cpu time spent up to now is      439.8 secs

     total energy              =    -981.25525259 Ry
     Harris-Foulkes estimate   =    -981.25527260 Ry
     estimated scf accuracy    <       0.00004462 Ry

     iteration #  9     ecut=    40.00 Ry     beta=0.70
     CG style diagonalization
     ethr =  4.78E-08,  avg # of iterations =  3.3

     total cpu time spent up to now is      446.5 secs

     total energy              =    -981.25525609 Ry
     Harris-Foulkes estimate   =    -981.25525778 Ry
     estimated scf accuracy    <       0.00000292 Ry

     iteration # 10     ecut=    40.00 Ry     beta=0.70
     CG style diagonalization
     ethr =  3.75E-09,  avg # of iterations =  3.6

     total cpu time spent up to now is      453.2 secs

     End of self-consistent calculation

     Number of k-points >= 100: set verbosity='high' to print the bands.

     the Fermi energy is    41.6131 ev

!    total energy              =    -981.25525688 Ry
     Harris-Foulkes estimate   =    -981.25525700 Ry
     estimated scf accuracy    <       0.00000016 Ry

     The total energy is the sum of the following terms:

     one-electron contribution =      -5.02182197 Ry
     hartree contribution      =      97.04318078 Ry
     xc contribution           =     -94.73382498 Ry
     ewald contribution        =    -978.47944697 Ry
     smearing contrib. (-TS)   =      -0.06334374 Ry

     convergence has been achieved in  10 iterations

     Forces acting on atoms (Ry/au):

     atom    1 type  1   force =     0.00000000    0.00000000    0.00000000
     atom    2 type  1   force =     0.00000000    0.00000000    0.00000000
     atom    3 type  1   force =     0.00000000    0.00000000    0.00000000
     atom    4 type  2   force =     0.00000000    0.00000000    0.00000000

     Total force =     0.000000     Total SCF correction =     0.000000


     entering subroutine stress ...

          total   stress  (Ry/bohr**3)                   (kbar)     P= 2666.35
   0.01812551   0.00000000   0.00000000       2666.35      0.00      0.00
   0.00000000   0.01812551   0.00000000          0.00   2666.35      0.00
   0.00000000   0.00000000   0.01812551          0.00      0.00   2666.35


     Writing output data file Prototype-La-cP4-Cu3Au.save
 
     init_run     :      3.45s CPU      3.73s WALL (       2 calls)
     electrons    :    401.37s CPU    437.34s WALL (       5 calls)
     update_pot   :      0.84s CPU      0.90s WALL (       3 calls)
     forces       :      2.18s CPU      2.51s WALL (       5 calls)
     stress       :      5.99s CPU      6.07s WALL (       5 calls)

     Called by init_run:
     wfcinit      :      3.04s CPU      3.28s WALL (       2 calls)
     potinit      :      0.13s CPU      0.13s WALL (       2 calls)

     Called by electrons:
     c_bands      :    383.45s CPU    404.91s WALL (      37 calls)
     sum_band     :     17.72s CPU     18.71s WALL (      37 calls)
     v_of_rho     :      0.03s CPU      0.03s WALL (      42 calls)
     mix_rho      :      0.02s CPU      0.02s WALL (      37 calls)

     Called by c_bands:
     init_us_2    :      1.81s CPU      2.08s WALL (    8600 calls)
     ccgdiagg     :    328.67s CPU    342.50s WALL (    4185 calls)
     wfcrot       :     55.92s CPU     61.70s WALL (    4285 calls)

     Called by *cgdiagg:
     h_psi        :    262.10s CPU    282.26s WALL (  928920 calls)
     cdiaghg      :      3.60s CPU      3.88s WALL (    4285 calls)

     Called by h_psi:
     add_vuspsi   :     20.86s CPU     29.11s WALL (  928920 calls)

     General routines
     calbec       :     66.49s CPU     65.23s WALL ( 1854555 calls)
     fft          :      0.04s CPU      0.05s WALL (     191 calls)
     fftw         :    202.92s CPU    206.41s WALL ( 2425960 calls)
     davcio       :      1.54s CPU      3.49s WALL (   12300 calls)
 
     Parallel routines
     fft_scatter  :     66.97s CPU     72.44s WALL ( 2426151 calls)
 
     PWSCF        :  6m54.89s CPU     7m35.04s WALL

 
   This run was terminated on:   2:24:27  23Mar2018            

=------------------------------------------------------------------------------=
   JOB DONE.
=------------------------------------------------------------------------------=
