
     Program PWSCF v.5.0.2 starts on 22Mar2018 at 22:50:30 

     This program is part of the open-source Quantum ESPRESSO suite
     for quantum simulation of materials; please cite
         "P. Giannozzi et al., J. Phys.:Condens. Matter 21 395502 (2009);
          URL http://www.quantum-espresso.org", 
     in publications or presentations arising from this work. More details at
     http://www.quantum-espresso.org/quote.php

     Parallel version (MPI), running on     4 processors
     R & G space division:  proc/nbgrp/npool/nimage =       4

     Current dimensions of program PWSCF are:
     Max number of different atomic species (ntypx) = 10
     Max number of k-points (npk) =  40000
     Max angular momentum in pseudopotentials (lmaxx) =  3
     Waiting for input...
     Reading input from standard input

     Subspace diagonalization in iterative solution of the eigenvalue problem:
     a serial algorithm will be used

 
     Parallelization info
     --------------------
     sticks:   dense  smooth     PW     G-vecs:    dense   smooth      PW
     Min          93      93     30                 1717     1717     310
     Max          94      94     31                 1720     1720     313
     Sum         373     373    121                 6871     6871    1247
 


     bravais-lattice index     =            0
     lattice parameter (alat)  =       5.4125  a.u.
     unit-cell volume          =     202.7222 (a.u.)^3
     number of atoms/cell      =            2
     number of atomic types    =            2
     number of electrons       =        42.00
     number of Kohn-Sham states=           25
     kinetic-energy cutoff     =      40.0000  Ry
     charge density cutoff     =     160.0000  Ry
     convergence threshold     =      1.0E-04
     mixing beta               =       0.7000
     number of iterations used =            8  plain     mixing
     Exchange-correlation      = SLA-PZ-NOGX-NOGC ( 1 1 0 0 0)
     EXX-fraction              =        0.00
     nstep                     =           50


     celldm(1)=   5.412493  celldm(2)=   0.000000  celldm(3)=   0.000000
     celldm(4)=   0.000000  celldm(5)=   0.000000  celldm(6)=   0.000000

     crystal axes: (cart. coord. in units of alat)
               a(1) = (   1.000000   0.000000   0.000000 )  
               a(2) = (   0.000000   1.000000   0.000000 )  
               a(3) = (   0.000000   0.000000   1.278525 )  

     reciprocal axes: (cart. coord. in units 2 pi/alat)
               b(1) = (  1.000000  0.000000  0.000000 )  
               b(2) = (  0.000000  1.000000  0.000000 )  
               b(3) = (  0.000000  0.000000  0.782151 )  


     PseudoPot. # 1 for Gd read from file:
     /home/cwx6513/pp.La/Gd.UPF
     MD5 check sum: 09a8be538722f05520810cb6aac0efd2
     Pseudo is Norm-conserving, Zval = 18.0
     Generated in analytical, separable form
     Using radial grid of 1263 points,  6 beta functions with: 
                l(1) =   0
                l(2) =   0
                l(3) =   1
                l(4) =   1
                l(5) =   2
                l(6) =   3

     PseudoPot. # 2 for Yb read from file:
     /home/cwx6513/pp.La/Yb.UPF
     MD5 check sum: 3e859b81cc28c53ec6aa3a2e888efcdf
     Pseudo is Norm-conserving, Zval = 24.0
     Generated in analytical, separable form
     Using radial grid of 1269 points,  6 beta functions with: 
                l(1) =   0
                l(2) =   0
                l(3) =   1
                l(4) =   1
                l(5) =   2
                l(6) =   3

     atomic species   valence    mass     pseudopotential
        Cu            18.00    63.54600     Gd( 1.00)
        Au            24.00   196.96600     Yb( 1.00)

     16 Sym. Ops., with inversion, found



   Cartesian axes

     site n.     atom                  positions (alat units)
         1           Cu  tau(   1) = (   0.5000000   0.5000000   0.6392626  )
         2           Au  tau(   2) = (   0.0000000   0.0000000   0.0000000  )

     number of k points=   100  gaussian smearing, width (Ry)=  0.1000

     Number of k-points >= 100: set verbosity='high' to print them.

     Dense  grid:     6871 G-vectors     FFT dimensions: (  24,  24,  27)

     Largest allocated arrays     est. size (Mb)     dimensions
        Kohn-Sham Wavefunctions         0.09 Mb     (    228,   25)
        NL pseudopotentials             0.14 Mb     (    228,   40)
        Each V/rho on FFT grid          0.06 Mb     (   4032)
        Each G-vector array             0.01 Mb     (   1720)
        G-vector shells                 0.01 Mb     (   1720)
     Largest temporary arrays     est. size (Mb)     dimensions
        Each subspace H/S matrix        0.01 Mb     (  25,  25)
        Each <psi_i|beta_j> matrix      0.02 Mb     (     40,   25)
        Arrays for rho mixing           0.49 Mb     (   4032,   8)

     Initial potential from superposition of free atoms

     Starting from uniform charge
     Starting wfc are    0 randomized atomic wfcs

     total cpu time spent up to now is        0.9 secs

     Self-consistent Calculation

     iteration #  1     ecut=    40.00 Ry     beta=0.70
     CG style diagonalization
     c_bands:  1 eigenvalues not converged
     c_bands:  1 eigenvalues not converged
     c_bands:  1 eigenvalues not converged
     c_bands:  1 eigenvalues not converged
     c_bands:  1 eigenvalues not converged
     c_bands:  1 eigenvalues not converged
     c_bands:  1 eigenvalues not converged
     c_bands:  1 eigenvalues not converged
     c_bands:  1 eigenvalues not converged
     c_bands:  1 eigenvalues not converged
     c_bands:  1 eigenvalues not converged
     c_bands:  1 eigenvalues not converged
     c_bands:  2 eigenvalues not converged
     c_bands:  1 eigenvalues not converged
     c_bands:  1 eigenvalues not converged
     c_bands:  1 eigenvalues not converged
     c_bands:  1 eigenvalues not converged
     ethr =  1.00E-02,  avg # of iterations = 13.5

     total cpu time spent up to now is        8.1 secs

     total energy              =    -432.65783033 Ry
     Harris-Foulkes estimate   =    -769.90796858 Ry
     estimated scf accuracy    <     410.12726342 Ry

     iteration #  2     ecut=    40.00 Ry     beta=0.70
     CG style diagonalization
     c_bands:  1 eigenvalues not converged
     c_bands:  1 eigenvalues not converged
     c_bands:  1 eigenvalues not converged
     c_bands:  2 eigenvalues not converged
     c_bands:  1 eigenvalues not converged
     c_bands:  1 eigenvalues not converged
     c_bands:  1 eigenvalues not converged
     c_bands:  2 eigenvalues not converged
     c_bands:  1 eigenvalues not converged
     c_bands:  2 eigenvalues not converged
     c_bands:  3 eigenvalues not converged
     c_bands:  2 eigenvalues not converged
     c_bands:  1 eigenvalues not converged
     c_bands:  1 eigenvalues not converged
     c_bands:  2 eigenvalues not converged
     c_bands:  1 eigenvalues not converged
     c_bands:  1 eigenvalues not converged
     c_bands:  2 eigenvalues not converged
     c_bands:  1 eigenvalues not converged
     c_bands:  1 eigenvalues not converged
     c_bands:  2 eigenvalues not converged
     c_bands:  1 eigenvalues not converged
     c_bands:  1 eigenvalues not converged
     c_bands:  1 eigenvalues not converged
     c_bands:  2 eigenvalues not converged
     c_bands:  1 eigenvalues not converged
     c_bands:  1 eigenvalues not converged
     c_bands:  1 eigenvalues not converged
     c_bands:  1 eigenvalues not converged
     c_bands:  1 eigenvalues not converged
     c_bands:  1 eigenvalues not converged
     c_bands:  1 eigenvalues not converged
     c_bands:  1 eigenvalues not converged
     c_bands:  1 eigenvalues not converged
     c_bands:  1 eigenvalues not converged
     ethr =  1.00E-02,  avg # of iterations = 11.7

     total cpu time spent up to now is       14.1 secs

     total energy              =    -482.56136821 Ry
     Harris-Foulkes estimate   =    -753.52080539 Ry
     estimated scf accuracy    <     520.10823713 Ry

     iteration #  3     ecut=    40.00 Ry     beta=0.70
     CG style diagonalization
     c_bands:  1 eigenvalues not converged
     c_bands:  1 eigenvalues not converged
     ethr =  1.00E-02,  avg # of iterations = 11.1

     total cpu time spent up to now is       19.2 secs

     total energy              =    -603.40470441 Ry
     Harris-Foulkes estimate   =    -619.85993750 Ry
     estimated scf accuracy    <      31.44498287 Ry

     iteration #  4     ecut=    40.00 Ry     beta=0.70
     CG style diagonalization
     ethr =  1.00E-02,  avg # of iterations =  5.1

     total cpu time spent up to now is       22.3 secs

     total energy              =    -610.13534361 Ry
     Harris-Foulkes estimate   =    -610.56815117 Ry
     estimated scf accuracy    <       1.01811144 Ry

     iteration #  5     ecut=    40.00 Ry     beta=0.70
     CG style diagonalization
     ethr =  2.42E-03,  avg # of iterations =  3.6

     total cpu time spent up to now is       24.0 secs

     total energy              =    -610.21578033 Ry
     Harris-Foulkes estimate   =    -610.29155415 Ry
     estimated scf accuracy    <       0.14082334 Ry

     iteration #  6     ecut=    40.00 Ry     beta=0.70
     CG style diagonalization
     ethr =  3.35E-04,  avg # of iterations =  4.2

     total cpu time spent up to now is       26.7 secs

     total energy              =    -610.25612650 Ry
     Harris-Foulkes estimate   =    -610.26503232 Ry
     estimated scf accuracy    <       0.01471597 Ry

     iteration #  7     ecut=    40.00 Ry     beta=0.70
     CG style diagonalization
     c_bands:  1 eigenvalues not converged
     c_bands:  1 eigenvalues not converged
     ethr =  3.50E-05,  avg # of iterations =  4.1

     total cpu time spent up to now is       29.4 secs

     total energy              =    -610.25984315 Ry
     Harris-Foulkes estimate   =    -610.25992068 Ry
     estimated scf accuracy    <       0.00021850 Ry

     iteration #  8     ecut=    40.00 Ry     beta=0.70
     CG style diagonalization
     c_bands:  1 eigenvalues not converged
     c_bands:  1 eigenvalues not converged
     c_bands:  1 eigenvalues not converged
     ethr =  5.20E-07,  avg # of iterations =  5.1

     total cpu time spent up to now is       31.7 secs

     End of self-consistent calculation

     Number of k-points >= 100: set verbosity='high' to print the bands.

     the Fermi energy is    39.4263 ev

!    total energy              =    -610.26003779 Ry
     Harris-Foulkes estimate   =    -610.26006550 Ry
     estimated scf accuracy    <       0.00003403 Ry

     The total energy is the sum of the following terms:

     one-electron contribution =     -86.19119691 Ry
     hartree contribution      =      81.26905572 Ry
     xc contribution           =     -53.09798120 Ry
     ewald contribution        =    -552.19573947 Ry
     smearing contrib. (-TS)   =      -0.04417594 Ry

     convergence has been achieved in   8 iterations

     Forces acting on atoms (Ry/au):

     atom    1 type  1   force =     0.00000000    0.00000000    0.00000000
     atom    2 type  2   force =     0.00000000    0.00000000    0.00000000

     Total force =     0.000000     Total SCF correction =     0.000000


     entering subroutine stress ...

          total   stress  (Ry/bohr**3)                   (kbar)     P= 1645.84
   0.01080723   0.00000000   0.00000000       1589.80      0.00      0.00
   0.00000000   0.01080723   0.00000000          0.00   1589.80      0.00
   0.00000000   0.00000000   0.01195004          0.00      0.00   1757.91


     BFGS Geometry Optimization

     number of scf cycles    =   1
     number of bfgs steps    =   0

     enthalpy new            =    -610.2600377904 Ry

     new trust radius        =       0.5000000000 bohr
     new conv_thr            =       0.0001000000 Ry

     new unit-cell volume =    320.01337 a.u.^3 (    47.42109 Ang^3 )

CELL_PARAMETERS (alat=  5.41249258)
   1.158794145   0.000000000   0.000000000
   0.000000000   1.158794145   0.000000000
   0.000000000   0.000000000   1.503015978

ATOMIC_POSITIONS (crystal)
Cu       0.500000000   0.500000000   0.500000000
Au       0.000000000   0.000000000   0.000000000



     Writing output data file Prototype-La-tP2-AuCu.save
     NEW-OLD atomic charge density approx. for the potential
     NEW k-points: (use verbosity='high' to print them)

     total cpu time spent up to now is       33.1 secs

     Self-consistent Calculation

     iteration #  1     ecut=    40.00 Ry     beta=0.70
     CG style diagonalization
     c_bands:  1 eigenvalues not converged
     c_bands:  1 eigenvalues not converged
     c_bands:  1 eigenvalues not converged
     c_bands:  3 eigenvalues not converged
     c_bands:  4 eigenvalues not converged
     c_bands:  4 eigenvalues not converged
     c_bands:  1 eigenvalues not converged
     c_bands:  2 eigenvalues not converged
     c_bands:  5 eigenvalues not converged
     c_bands:  2 eigenvalues not converged
     c_bands:  5 eigenvalues not converged
     c_bands:  1 eigenvalues not converged
     c_bands:  4 eigenvalues not converged
     c_bands:  1 eigenvalues not converged
     c_bands:  3 eigenvalues not converged
     c_bands:  2 eigenvalues not converged
     c_bands:  5 eigenvalues not converged
     c_bands:  4 eigenvalues not converged
     c_bands:  3 eigenvalues not converged
     c_bands:  1 eigenvalues not converged
     c_bands:  4 eigenvalues not converged
     c_bands:  4 eigenvalues not converged
     c_bands:  1 eigenvalues not converged
     c_bands:  2 eigenvalues not converged
     c_bands:  1 eigenvalues not converged
     c_bands:  1 eigenvalues not converged
     c_bands:  1 eigenvalues not converged
     c_bands:  4 eigenvalues not converged
     c_bands:  4 eigenvalues not converged
     c_bands:  1 eigenvalues not converged
     c_bands:  5 eigenvalues not converged
     c_bands:  4 eigenvalues not converged
     c_bands:  2 eigenvalues not converged
     c_bands:  5 eigenvalues not converged
     c_bands:  5 eigenvalues not converged
     c_bands:  1 eigenvalues not converged
     c_bands:  3 eigenvalues not converged
     c_bands:  3 eigenvalues not converged
     c_bands:  5 eigenvalues not converged
     c_bands:  4 eigenvalues not converged
     c_bands:  5 eigenvalues not converged
     c_bands:  3 eigenvalues not converged
     c_bands:  1 eigenvalues not converged
     c_bands:  4 eigenvalues not converged
     c_bands:  4 eigenvalues not converged
     c_bands:  4 eigenvalues not converged
     c_bands:  3 eigenvalues not converged
     c_bands:  2 eigenvalues not converged
     c_bands:  3 eigenvalues not converged
     c_bands:  4 eigenvalues not converged
     c_bands:  3 eigenvalues not converged
     c_bands:  5 eigenvalues not converged
     c_bands:  5 eigenvalues not converged
     c_bands:  5 eigenvalues not converged
     c_bands:  4 eigenvalues not converged
     c_bands:  4 eigenvalues not converged
     c_bands:  5 eigenvalues not converged
     c_bands:  3 eigenvalues not converged
     c_bands:  3 eigenvalues not converged
     c_bands:  4 eigenvalues not converged
     c_bands:  2 eigenvalues not converged
     ethr =  1.00E-06,  avg # of iterations = 17.7

     total cpu time spent up to now is       41.8 secs

     total energy              =    -600.85713860 Ry
     Harris-Foulkes estimate   =    -623.07809307 Ry
     estimated scf accuracy    <      27.89546587 Ry

     iteration #  2     ecut=    40.00 Ry     beta=0.70
     CG style diagonalization
     ethr =  1.00E-02,  avg # of iterations =  4.5

     total cpu time spent up to now is       43.9 secs

     total energy              =    -607.81416396 Ry
     Harris-Foulkes estimate   =    -612.09587125 Ry
     estimated scf accuracy    <       6.62676002 Ry

     iteration #  3     ecut=    40.00 Ry     beta=0.70
     CG style diagonalization
     ethr =  1.00E-02,  avg # of iterations =  3.8

     total cpu time spent up to now is       46.3 secs

     total energy              =    -609.73776802 Ry
     Harris-Foulkes estimate   =    -610.65454299 Ry
     estimated scf accuracy    <       2.06068125 Ry

     iteration #  4     ecut=    40.00 Ry     beta=0.70
     CG style diagonalization
     ethr =  4.91E-03,  avg # of iterations =  3.3

     total cpu time spent up to now is       48.3 secs

     total energy              =    -610.02435219 Ry
     Harris-Foulkes estimate   =    -610.05691616 Ry
     estimated scf accuracy    <       0.08442960 Ry

     iteration #  5     ecut=    40.00 Ry     beta=0.70
     CG style diagonalization
     ethr =  2.01E-04,  avg # of iterations =  3.9

     total cpu time spent up to now is       51.0 secs

     total energy              =    -610.04784941 Ry
     Harris-Foulkes estimate   =    -610.05004513 Ry
     estimated scf accuracy    <       0.00338018 Ry

     iteration #  6     ecut=    40.00 Ry     beta=0.70
     CG style diagonalization
     ethr =  8.05E-06,  avg # of iterations =  4.1

     total cpu time spent up to now is       53.2 secs

     total energy              =    -610.04882214 Ry
     Harris-Foulkes estimate   =    -610.04891877 Ry
     estimated scf accuracy    <       0.00031676 Ry

     iteration #  7     ecut=    40.00 Ry     beta=0.70
     CG style diagonalization
     ethr =  7.54E-07,  avg # of iterations =  3.8

     total cpu time spent up to now is       55.2 secs

     total energy              =    -610.04877032 Ry
     Harris-Foulkes estimate   =    -610.04893416 Ry
     estimated scf accuracy    <       0.00030050 Ry

     iteration #  8     ecut=    40.00 Ry     beta=0.70
     CG style diagonalization
     ethr =  7.15E-07,  avg # of iterations =  3.4

     total cpu time spent up to now is       56.9 secs

     End of self-consistent calculation

     Number of k-points >= 100: set verbosity='high' to print the bands.

     the Fermi energy is    22.5730 ev

!    total energy              =    -610.04884304 Ry
     Harris-Foulkes estimate   =    -610.04885931 Ry
     estimated scf accuracy    <       0.00001762 Ry

     The total energy is the sum of the following terms:

     one-electron contribution =    -199.53628050 Ry
     hartree contribution      =     115.27638500 Ry
     xc contribution           =     -51.51306984 Ry
     ewald contribution        =    -474.21271155 Ry
     smearing contrib. (-TS)   =      -0.06316615 Ry

     convergence has been achieved in   8 iterations

     Forces acting on atoms (Ry/au):

     atom    1 type  1   force =     0.00000000    0.00000000    0.00000000
     atom    2 type  2   force =     0.00000000    0.00000000    0.00000000

     Total force =     0.000000     Total SCF correction =     0.000000


     entering subroutine stress ...

          total   stress  (Ry/bohr**3)                   (kbar)     P=-1392.74
  -0.00919580   0.00000000   0.00000000      -1352.75      0.00      0.00
   0.00000000  -0.00919580   0.00000000          0.00  -1352.75      0.00
   0.00000000   0.00000000  -0.01001142          0.00      0.00  -1472.73


     number of scf cycles    =   2
     number of bfgs steps    =   1

     enthalpy old            =    -610.2600377904 Ry
     enthalpy new            =    -610.0488430362 Ry

     CASE: enthalpy_new > enthalpy_old

     new trust radius        =       0.2248364127 bohr

     trust_radius < trust_radius_min

     resetting bfgs history

     new conv_thr            =       0.0001000000 Ry

     new unit-cell volume =    309.09410 a.u.^3 (    45.80302 Ang^3 )

CELL_PARAMETERS (alat=  5.41249258)
   1.144364122   0.000000000   0.000000000
   0.000000000   1.144364122   0.000000000
   0.000000000   0.000000000   1.488573595

ATOMIC_POSITIONS (crystal)
Cu       0.500000000   0.500000000   0.500000000
Au       0.000000000   0.000000000   0.000000000



     Writing output data file Prototype-La-tP2-AuCu.save
     NEW-OLD atomic charge density approx. for the potential
     NEW k-points: (use verbosity='high' to print them)

     total cpu time spent up to now is       58.4 secs

     Self-consistent Calculation

     iteration #  1     ecut=    40.00 Ry     beta=0.70
     CG style diagonalization
     ethr =  1.00E-06,  avg # of iterations =  7.4

     total cpu time spent up to now is       62.2 secs

     total energy              =    -610.07305839 Ry
     Harris-Foulkes estimate   =    -610.22999814 Ry
     estimated scf accuracy    <       0.19478664 Ry

     iteration #  2     ecut=    40.00 Ry     beta=0.70
     CG style diagonalization
     ethr =  4.64E-04,  avg # of iterations =  3.8

     total cpu time spent up to now is       65.5 secs

     total energy              =    -610.12390588 Ry
     Harris-Foulkes estimate   =    -610.17196931 Ry
     estimated scf accuracy    <       0.07878349 Ry

     iteration #  3     ecut=    40.00 Ry     beta=0.70
     CG style diagonalization
     ethr =  1.88E-04,  avg # of iterations =  3.4

     total cpu time spent up to now is       67.8 secs

     total energy              =    -610.14268403 Ry
     Harris-Foulkes estimate   =    -610.15043172 Ry
     estimated scf accuracy    <       0.01562739 Ry

     iteration #  4     ecut=    40.00 Ry     beta=0.70
     CG style diagonalization
     ethr =  3.72E-05,  avg # of iterations =  3.3

     total cpu time spent up to now is       69.5 secs

     End of self-consistent calculation

     Number of k-points >= 100: set verbosity='high' to print the bands.

     the Fermi energy is    23.6060 ev

!    total energy              =    -610.14624068 Ry
     Harris-Foulkes estimate   =    -610.14631369 Ry
     estimated scf accuracy    <       0.00008833 Ry

     The total energy is the sum of the following terms:

     one-electron contribution =    -191.41872723 Ry
     hartree contribution      =     112.67812510 Ry
     xc contribution           =     -51.62042815 Ry
     ewald contribution        =    -479.72528390 Ry
     smearing contrib. (-TS)   =      -0.05992650 Ry

     convergence has been achieved in   4 iterations

     Forces acting on atoms (Ry/au):

     atom    1 type  1   force =     0.00000000    0.00000000    0.00000000
     atom    2 type  2   force =     0.00000000    0.00000000    0.00000000

     Total force =     0.000000     Total SCF correction =     0.000000


     entering subroutine stress ...

          total   stress  (Ry/bohr**3)                   (kbar)     P=-1227.21
  -0.00804009   0.00000000   0.00000000      -1182.74      0.00      0.00
   0.00000000  -0.00804009   0.00000000          0.00  -1182.74      0.00
   0.00000000   0.00000000  -0.00894698          0.00      0.00  -1316.15


     number of scf cycles    =   3
     number of bfgs steps    =   1

     enthalpy old            =    -610.2600377904 Ry
     enthalpy new            =    -610.1462406794 Ry

     CASE: enthalpy_new > enthalpy_old

     new trust radius        =       0.2234119622 bohr

     trust_radius < trust_radius_min

     resetting bfgs history

     Message from routine bfgs:
     history already reset at previous step: stopping
     new conv_thr            =       0.0001000000 Ry

     new unit-cell volume =    309.58396 a.u.^3 (    45.87561 Ang^3 )

CELL_PARAMETERS (alat=  5.41249258)
   1.144646239   0.000000000   0.000000000
   0.000000000   1.144646239   0.000000000
   0.000000000   0.000000000   1.490197869

ATOMIC_POSITIONS (crystal)
Cu       0.500000000   0.500000000   0.500000000
Au       0.000000000   0.000000000   0.000000000



     Writing output data file Prototype-La-tP2-AuCu.save
     NEW-OLD atomic charge density approx. for the potential
     NEW k-points: (use verbosity='high' to print them)

     total cpu time spent up to now is       71.6 secs

     Self-consistent Calculation

     iteration #  1     ecut=    40.00 Ry     beta=0.70
     CG style diagonalization
     ethr =  1.00E-06,  avg # of iterations =  4.5

     total cpu time spent up to now is       74.7 secs

     total energy              =    -610.14189927 Ry
     Harris-Foulkes estimate   =    -610.14215006 Ry
     estimated scf accuracy    <       0.00032060 Ry

     iteration #  2     ecut=    40.00 Ry     beta=0.70
     CG style diagonalization
     ethr =  7.63E-07,  avg # of iterations =  3.7

     total cpu time spent up to now is       76.9 secs

     total energy              =    -610.14196528 Ry
     Harris-Foulkes estimate   =    -610.14204779 Ry
     estimated scf accuracy    <       0.00012777 Ry

     iteration #  3     ecut=    40.00 Ry     beta=0.70
     CG style diagonalization
     ethr =  3.04E-07,  avg # of iterations =  3.4

     total cpu time spent up to now is       78.6 secs

     End of self-consistent calculation

     Number of k-points >= 100: set verbosity='high' to print the bands.

     the Fermi energy is    23.5662 ev

!    total energy              =    -610.14199018 Ry
     Harris-Foulkes estimate   =    -610.14201954 Ry
     estimated scf accuracy    <       0.00003720 Ry

     The total energy is the sum of the following terms:

     one-electron contribution =    -191.73567585 Ry
     hartree contribution      =     112.72633573 Ry
     xc contribution           =     -51.60213360 Ry
     ewald contribution        =    -479.47004346 Ry
     smearing contrib. (-TS)   =      -0.06047299 Ry

     convergence has been achieved in   3 iterations

     Forces acting on atoms (Ry/au):

     atom    1 type  1   force =     0.00000000    0.00000000    0.00000000
     atom    2 type  2   force =     0.00000000    0.00000000    0.00000000

     Total force =     0.000000     Total SCF correction =     0.000000


     entering subroutine stress ...

          total   stress  (Ry/bohr**3)                   (kbar)     P=-1273.55
  -0.00834782   0.00000000   0.00000000      -1228.01      0.00      0.00
   0.00000000  -0.00834782   0.00000000          0.00  -1228.01      0.00
   0.00000000   0.00000000  -0.00927668          0.00      0.00  -1364.65


     The maximum number of steps has been reached.

     End of BFGS Geometry Optimization
Begin final coordinates
     new unit-cell volume =    309.58396 a.u.^3 (    45.87561 Ang^3 )

CELL_PARAMETERS (alat=  5.41249258)
   1.144646239   0.000000000   0.000000000
   0.000000000   1.144646239   0.000000000
   0.000000000   0.000000000   1.490197869

ATOMIC_POSITIONS (crystal)
Cu       0.500000000   0.500000000   0.500000000
Au       0.000000000   0.000000000   0.000000000
End final coordinates



     A final scf calculation at the relaxed structure.
     The G-vectors are recalculated for the final unit cell
     Results may differ from those at the preceding step.
 
     Parallelization info
     --------------------
     sticks:   dense  smooth     PW     G-vecs:    dense   smooth      PW
     Min         122     122     36                 2646     2646     454
     Max         123     123     37                 2651     2651     457
     Sum         489     489    145                10593    10593    1819
 


     bravais-lattice index     =            0
     lattice parameter (alat)  =       5.4125  a.u.
     unit-cell volume          =     309.5840 (a.u.)^3
     number of atoms/cell      =            2
     number of atomic types    =            2
     number of electrons       =        42.00
     number of Kohn-Sham states=           25
     kinetic-energy cutoff     =      40.0000  Ry
     charge density cutoff     =     160.0000  Ry
     convergence threshold     =      1.0E-04
     mixing beta               =       0.7000
     number of iterations used =            8  plain     mixing
     Exchange-correlation      = SLA-PZ-NOGX-NOGC ( 1 1 0 0 0)
     EXX-fraction              =        0.00

     celldm(1)=   5.412493  celldm(2)=   0.000000  celldm(3)=   0.000000
     celldm(4)=   0.000000  celldm(5)=   0.000000  celldm(6)=   0.000000

     crystal axes: (cart. coord. in units of alat)
               a(1) = (   1.144646   0.000000   0.000000 )  
               a(2) = (   0.000000   1.144646   0.000000 )  
               a(3) = (   0.000000   0.000000   1.490198 )  

     reciprocal axes: (cart. coord. in units 2 pi/alat)
               b(1) = (  0.873632  0.000000  0.000000 )  
               b(2) = (  0.000000  0.873632  0.000000 )  
               b(3) = (  0.000000  0.000000  0.671052 )  


     PseudoPot. # 1 for Gd read from file:
     /home/cwx6513/pp.La/Gd.UPF
     MD5 check sum: 09a8be538722f05520810cb6aac0efd2
     Pseudo is Norm-conserving, Zval = 18.0
     Generated in analytical, separable form
     Using radial grid of 1263 points,  6 beta functions with: 
                l(1) =   0
                l(2) =   0
                l(3) =   1
                l(4) =   1
                l(5) =   2
                l(6) =   3

     PseudoPot. # 2 for Yb read from file:
     /home/cwx6513/pp.La/Yb.UPF
     MD5 check sum: 3e859b81cc28c53ec6aa3a2e888efcdf
     Pseudo is Norm-conserving, Zval = 24.0
     Generated in analytical, separable form
     Using radial grid of 1269 points,  6 beta functions with: 
                l(1) =   0
                l(2) =   0
                l(3) =   1
                l(4) =   1
                l(5) =   2
                l(6) =   3

     atomic species   valence    mass     pseudopotential
        Cu            18.00    63.54600     Gd( 1.00)
        Au            24.00   196.96600     Yb( 1.00)

     16 Sym. Ops., with inversion, found



   Cartesian axes

     site n.     atom                  positions (alat units)
         1           Cu  tau(   1) = (   0.5723231   0.5723231   0.7450989  )
         2           Au  tau(   2) = (   0.0000000   0.0000000   0.0000000  )

     number of k points=   100  gaussian smearing, width (Ry)=  0.1000

     Number of k-points >= 100: set verbosity='high' to print them.

     Dense  grid:    10593 G-vectors     FFT dimensions: (  25,  25,  36)

     Largest allocated arrays     est. size (Mb)     dimensions
        Kohn-Sham Wavefunctions         0.13 Mb     (    338,   25)
        NL pseudopotentials             0.21 Mb     (    338,   40)
        Each V/rho on FFT grid          0.09 Mb     (   5625)
        Each G-vector array             0.02 Mb     (   2648)
        G-vector shells                 0.01 Mb     (    683)
     Largest temporary arrays     est. size (Mb)     dimensions
        Each subspace H/S matrix        0.01 Mb     (  25,  25)
        Each <psi_i|beta_j> matrix      0.02 Mb     (     40,   25)
        Arrays for rho mixing           0.69 Mb     (   5625,   8)

     Initial potential from superposition of free atoms

     Starting from uniform charge
     Starting wfc are    0 randomized atomic wfcs

     Writing output data file Prototype-La-tP2-AuCu.save

     total cpu time spent up to now is       80.1 secs

     Self-consistent Calculation

     iteration #  1     ecut=    40.00 Ry     beta=0.70
     CG style diagonalization
     c_bands:  1 eigenvalues not converged
     c_bands:  1 eigenvalues not converged
     c_bands:  1 eigenvalues not converged
     c_bands:  1 eigenvalues not converged
     c_bands:  1 eigenvalues not converged
     c_bands:  1 eigenvalues not converged
     c_bands:  1 eigenvalues not converged
     c_bands:  1 eigenvalues not converged
     c_bands:  1 eigenvalues not converged
     c_bands:  1 eigenvalues not converged
     c_bands:  1 eigenvalues not converged
     c_bands:  1 eigenvalues not converged
     c_bands:  1 eigenvalues not converged
     c_bands:  2 eigenvalues not converged
     c_bands:  1 eigenvalues not converged
     c_bands:  1 eigenvalues not converged
     c_bands:  1 eigenvalues not converged
     c_bands:  1 eigenvalues not converged
     c_bands:  1 eigenvalues not converged
     c_bands:  1 eigenvalues not converged
     c_bands:  1 eigenvalues not converged
     c_bands:  1 eigenvalues not converged
     c_bands:  1 eigenvalues not converged
     c_bands:  1 eigenvalues not converged
     c_bands:  1 eigenvalues not converged
     c_bands:  1 eigenvalues not converged
     c_bands:  1 eigenvalues not converged
     c_bands:  1 eigenvalues not converged
     c_bands:  1 eigenvalues not converged
     c_bands:  1 eigenvalues not converged
     c_bands:  1 eigenvalues not converged
     c_bands:  1 eigenvalues not converged
     c_bands:  1 eigenvalues not converged
     c_bands:  1 eigenvalues not converged
     c_bands:  1 eigenvalues not converged
     c_bands:  2 eigenvalues not converged
     c_bands:  1 eigenvalues not converged
     c_bands:  1 eigenvalues not converged
     c_bands:  1 eigenvalues not converged
     c_bands:  1 eigenvalues not converged
     c_bands:  1 eigenvalues not converged
     c_bands:  1 eigenvalues not converged
     c_bands:  1 eigenvalues not converged
     c_bands:  1 eigenvalues not converged
     c_bands:  1 eigenvalues not converged
     c_bands:  1 eigenvalues not converged
     c_bands:  1 eigenvalues not converged
     c_bands:  1 eigenvalues not converged
     c_bands:  1 eigenvalues not converged
     c_bands:  1 eigenvalues not converged
     c_bands:  1 eigenvalues not converged
     c_bands:  2 eigenvalues not converged
     c_bands:  1 eigenvalues not converged
     c_bands:  1 eigenvalues not converged
     c_bands:  1 eigenvalues not converged
     c_bands:  1 eigenvalues not converged
     c_bands:  1 eigenvalues not converged
     c_bands:  1 eigenvalues not converged
     c_bands:  1 eigenvalues not converged
     c_bands:  1 eigenvalues not converged
     c_bands:  1 eigenvalues not converged
     c_bands:  1 eigenvalues not converged
     c_bands:  1 eigenvalues not converged
     c_bands:  1 eigenvalues not converged
     c_bands:  1 eigenvalues not converged
     c_bands:  1 eigenvalues not converged
     c_bands:  1 eigenvalues not converged
     c_bands:  1 eigenvalues not converged
     c_bands:  1 eigenvalues not converged
     c_bands:  1 eigenvalues not converged
     c_bands:  1 eigenvalues not converged
     c_bands:  1 eigenvalues not converged
     c_bands:  1 eigenvalues not converged
     c_bands:  1 eigenvalues not converged
     c_bands:  1 eigenvalues not converged
     c_bands:  1 eigenvalues not converged
     c_bands:  1 eigenvalues not converged
     c_bands:  1 eigenvalues not converged
     c_bands:  1 eigenvalues not converged
     c_bands:  1 eigenvalues not converged
     c_bands:  1 eigenvalues not converged
     c_bands:  1 eigenvalues not converged
     c_bands:  1 eigenvalues not converged
     c_bands:  1 eigenvalues not converged
     c_bands:  1 eigenvalues not converged
     c_bands:  1 eigenvalues not converged
     c_bands:  1 eigenvalues not converged
     c_bands:  1 eigenvalues not converged
     c_bands:  1 eigenvalues not converged
     c_bands:  1 eigenvalues not converged
     c_bands:  1 eigenvalues not converged
     c_bands:  1 eigenvalues not converged
     c_bands:  1 eigenvalues not converged
     c_bands:  1 eigenvalues not converged
     c_bands:  1 eigenvalues not converged
     c_bands:  1 eigenvalues not converged
     ethr =  1.00E-06,  avg # of iterations = 45.6

     total cpu time spent up to now is      110.1 secs

     total energy              =    -420.24702067 Ry
     Harris-Foulkes estimate   =    -827.25498502 Ry
     estimated scf accuracy    <     492.79937737 Ry

     iteration #  2     ecut=    40.00 Ry     beta=0.70
     CG style diagonalization
     c_bands:  1 eigenvalues not converged
     c_bands:  1 eigenvalues not converged
     c_bands:  1 eigenvalues not converged
     c_bands:  1 eigenvalues not converged
     c_bands:  2 eigenvalues not converged
     c_bands:  1 eigenvalues not converged
     c_bands:  2 eigenvalues not converged
     c_bands:  1 eigenvalues not converged
     c_bands:  1 eigenvalues not converged
     c_bands:  1 eigenvalues not converged
     c_bands:  1 eigenvalues not converged
     c_bands:  1 eigenvalues not converged
     c_bands:  1 eigenvalues not converged
     c_bands:  1 eigenvalues not converged
     c_bands:  2 eigenvalues not converged
     c_bands:  1 eigenvalues not converged
     c_bands:  2 eigenvalues not converged
     c_bands:  1 eigenvalues not converged
     c_bands:  1 eigenvalues not converged
     c_bands:  2 eigenvalues not converged
     c_bands:  1 eigenvalues not converged
     c_bands:  1 eigenvalues not converged
     c_bands:  2 eigenvalues not converged
     c_bands:  1 eigenvalues not converged
     c_bands:  1 eigenvalues not converged
     c_bands:  1 eigenvalues not converged
     c_bands:  1 eigenvalues not converged
     c_bands:  1 eigenvalues not converged
     c_bands:  1 eigenvalues not converged
     c_bands:  1 eigenvalues not converged
     c_bands:  3 eigenvalues not converged
     c_bands:  1 eigenvalues not converged
     c_bands:  2 eigenvalues not converged
     c_bands:  2 eigenvalues not converged
     c_bands:  1 eigenvalues not converged
     c_bands:  2 eigenvalues not converged
     c_bands:  1 eigenvalues not converged
     c_bands:  1 eigenvalues not converged
     c_bands:  1 eigenvalues not converged
     c_bands:  2 eigenvalues not converged
     c_bands:  1 eigenvalues not converged
     c_bands:  1 eigenvalues not converged
     c_bands:  2 eigenvalues not converged
     c_bands:  1 eigenvalues not converged
     ethr =  1.00E-02,  avg # of iterations = 12.1

     total cpu time spent up to now is      118.2 secs

     total energy              =    -456.80122670 Ry
     Harris-Foulkes estimate   =    -783.82529322 Ry
     estimated scf accuracy    <     627.83861800 Ry

     iteration #  3     ecut=    40.00 Ry     beta=0.70
     CG style diagonalization
     ethr =  1.00E-02,  avg # of iterations = 10.9

     total cpu time spent up to now is      125.8 secs

     total energy              =    -600.02864550 Ry
     Harris-Foulkes estimate   =    -626.24115864 Ry
     estimated scf accuracy    <      53.75598832 Ry

     iteration #  4     ecut=    40.00 Ry     beta=0.70
     CG style diagonalization
     ethr =  1.00E-02,  avg # of iterations =  6.2

     total cpu time spent up to now is      130.1 secs

     total energy              =    -610.86600370 Ry
     Harris-Foulkes estimate   =    -611.78693661 Ry
     estimated scf accuracy    <       2.15056169 Ry

     iteration #  5     ecut=    40.00 Ry     beta=0.70
     CG style diagonalization
     ethr =  5.12E-03,  avg # of iterations =  3.3

     total cpu time spent up to now is      133.2 secs

     total energy              =    -610.98646790 Ry
     Harris-Foulkes estimate   =    -611.13206760 Ry
     estimated scf accuracy    <       0.26863616 Ry

     iteration #  6     ecut=    40.00 Ry     beta=0.70
     CG style diagonalization
     ethr =  6.40E-04,  avg # of iterations =  4.0

     total cpu time spent up to now is      136.0 secs

     total energy              =    -611.06386992 Ry
     Harris-Foulkes estimate   =    -611.07848447 Ry
     estimated scf accuracy    <       0.03105618 Ry

     iteration #  7     ecut=    40.00 Ry     beta=0.70
     CG style diagonalization
     c_bands:  1 eigenvalues not converged
     ethr =  7.39E-05,  avg # of iterations =  3.8

     total cpu time spent up to now is      140.7 secs

     total energy              =    -611.07119685 Ry
     Harris-Foulkes estimate   =    -611.07190402 Ry
     estimated scf accuracy    <       0.00101135 Ry

     iteration #  8     ecut=    40.00 Ry     beta=0.70
     CG style diagonalization
     c_bands:  2 eigenvalues not converged
     ethr =  2.41E-06,  avg # of iterations =  5.1

     total cpu time spent up to now is      144.4 secs

     total energy              =    -611.07194149 Ry
     Harris-Foulkes estimate   =    -611.07219965 Ry
     estimated scf accuracy    <       0.00049534 Ry

     iteration #  9     ecut=    40.00 Ry     beta=0.70
     CG style diagonalization
     ethr =  1.18E-06,  avg # of iterations =  3.5

     total cpu time spent up to now is      146.8 secs

     End of self-consistent calculation

     Number of k-points >= 100: set verbosity='high' to print the bands.

     the Fermi energy is    23.5296 ev

!    total energy              =    -611.07201793 Ry
     Harris-Foulkes estimate   =    -611.07203132 Ry
     estimated scf accuracy    <       0.00001615 Ry

     The total energy is the sum of the following terms:

     one-electron contribution =    -193.22160638 Ry
     hartree contribution      =     113.39884910 Ry
     xc contribution           =     -51.71976803 Ry
     ewald contribution        =    -479.47003321 Ry
     smearing contrib. (-TS)   =      -0.05945941 Ry

     convergence has been achieved in   9 iterations

     Forces acting on atoms (Ry/au):

     atom    1 type  1   force =     0.00000000    0.00000000    0.00000000
     atom    2 type  2   force =     0.00000000    0.00000000    0.00000000

     Total force =     0.000000     Total SCF correction =     0.000000


     entering subroutine stress ...

          total   stress  (Ry/bohr**3)                   (kbar)     P= -368.99
  -0.00241453   0.00000000   0.00000000       -355.19      0.00      0.00
   0.00000000  -0.00241453   0.00000000          0.00   -355.19      0.00
   0.00000000   0.00000000  -0.00269592          0.00      0.00   -396.58


     Writing output data file Prototype-La-tP2-AuCu.save
 
     init_run     :      1.27s CPU      1.45s WALL (       2 calls)
     electrons    :    124.55s CPU    139.54s WALL (       5 calls)
     update_pot   :      0.45s CPU      0.46s WALL (       3 calls)
     forces       :      0.66s CPU      0.67s WALL (       5 calls)
     stress       :      1.70s CPU      1.73s WALL (       5 calls)

     Called by init_run:
     wfcinit      :      1.01s CPU      1.17s WALL (       2 calls)
     potinit      :      0.09s CPU      0.09s WALL (       2 calls)

     Called by electrons:
     c_bands      :    118.95s CPU    126.75s WALL (      32 calls)
     sum_band     :      5.40s CPU      5.97s WALL (      32 calls)
     v_of_rho     :      0.01s CPU      0.01s WALL (      37 calls)
     mix_rho      :      0.01s CPU      0.01s WALL (      32 calls)

     Called by c_bands:
     init_us_2    :      0.91s CPU      0.94s WALL (    7600 calls)
     ccgdiagg     :     98.70s CPU    104.13s WALL (    3447 calls)
     wfcrot       :     20.43s CPU     21.79s WALL (    3547 calls)

     Called by *cgdiagg:
     h_psi        :     86.58s CPU     93.31s WALL (  482530 calls)
     cdiaghg      :      0.62s CPU      0.81s WALL (    3547 calls)

     Called by h_psi:
     add_vuspsi   :      4.79s CPU      6.15s WALL (  482530 calls)

     General routines
     calbec       :     14.33s CPU     15.46s WALL (  962513 calls)
     fft          :      0.01s CPU      0.02s WALL (     171 calls)
     fftw         :     71.30s CPU     74.19s WALL ( 1215316 calls)
     davcio       :      0.48s CPU      1.90s WALL (   10800 calls)
 
     Parallel routines
     fft_scatter  :     24.10s CPU     27.15s WALL ( 1215487 calls)
 
     PWSCF        :  2m 9.52s CPU     2m27.69s WALL

 
   This run was terminated on:  22:52:57  22Mar2018            

=------------------------------------------------------------------------------=
   JOB DONE.
=------------------------------------------------------------------------------=
