
     Program PWSCF v.5.0.2 starts on 22Mar2018 at 22:50:30 

     This program is part of the open-source Quantum ESPRESSO suite
     for quantum simulation of materials; please cite
         "P. Giannozzi et al., J. Phys.:Condens. Matter 21 395502 (2009);
          URL http://www.quantum-espresso.org", 
     in publications or presentations arising from this work. More details at
     http://www.quantum-espresso.org/quote.php

     Parallel version (MPI), running on     4 processors
     R & G space division:  proc/nbgrp/npool/nimage =       4

     Current dimensions of program PWSCF are:
     Max number of different atomic species (ntypx) = 10
     Max number of k-points (npk) =  40000
     Max angular momentum in pseudopotentials (lmaxx) =  3
     Waiting for input...
     Reading input from standard input

     Subspace diagonalization in iterative solution of the eigenvalue problem:
     a serial algorithm will be used

 
     Parallelization info
     --------------------
     sticks:   dense  smooth     PW     G-vecs:    dense   smooth      PW
     Min         396     396    112                10116    10116    1566
     Max         397     397    113                10119    10119    1567
     Sum        1585    1585    451                40467    40467    6267
 


     bravais-lattice index     =            0
     lattice parameter (alat)  =      12.0168  a.u.
     unit-cell volume          =    1187.3413 (a.u.)^3
     number of atoms/cell      =            8
     number of atomic types    =            2
     number of electrons       =       156.00
     number of Kohn-Sham states=           94
     kinetic-energy cutoff     =      40.0000  Ry
     charge density cutoff     =     160.0000  Ry
     convergence threshold     =      1.0E-04
     mixing beta               =       0.7000
     number of iterations used =            8  plain     mixing
     Exchange-correlation      = SLA-PZ-NOGX-NOGC ( 1 1 0 0 0)
     EXX-fraction              =        0.00
     nstep                     =           50


     celldm(1)=  12.016801  celldm(2)=   0.000000  celldm(3)=   0.000000
     celldm(4)=   0.000000  celldm(5)=   0.000000  celldm(6)=   0.000000

     crystal axes: (cart. coord. in units of alat)
               a(1) = (   1.000000   0.000000   0.000000 )  
               a(2) = (  -0.500000   0.866025   0.000000 )  
               a(3) = (   0.000000   0.000000   0.790093 )  

     reciprocal axes: (cart. coord. in units 2 pi/alat)
               b(1) = (  1.000000  0.577350  0.000000 )  
               b(2) = (  0.000000  1.154701  0.000000 )  
               b(3) = (  0.000000  0.000000  1.265674 )  


     PseudoPot. # 1 for Gd read from file:
     /home/cwx6513/pp.La/Gd.UPF
     MD5 check sum: 09a8be538722f05520810cb6aac0efd2
     Pseudo is Norm-conserving, Zval = 18.0
     Generated in analytical, separable form
     Using radial grid of 1263 points,  6 beta functions with: 
                l(1) =   0
                l(2) =   0
                l(3) =   1
                l(4) =   1
                l(5) =   2
                l(6) =   3

     PseudoPot. # 2 for Yb read from file:
     /home/cwx6513/pp.La/Yb.UPF
     MD5 check sum: 3e859b81cc28c53ec6aa3a2e888efcdf
     Pseudo is Norm-conserving, Zval = 24.0
     Generated in analytical, separable form
     Using radial grid of 1269 points,  6 beta functions with: 
                l(1) =   0
                l(2) =   0
                l(3) =   1
                l(4) =   1
                l(5) =   2
                l(6) =   3

     atomic species   valence    mass     pseudopotential
        Mg            18.00    24.30500     Gd( 1.00)
        Cd            24.00   112.41100     Yb( 1.00)

     24 Sym. Ops., with inversion, found (12 have fractional translation)



   Cartesian axes

     site n.     atom                  positions (alat units)
         1           Mg  tau(   1) = (   0.2478935   0.7204716   0.1975233  )
         2           Mg  tau(   2) = (   0.7478935   0.1455538   0.5925699  )
         3           Mg  tau(   3) = (   0.2521065   0.1455538   0.5925699  )
         4           Mg  tau(   4) = (  -0.2478935   0.7204716   0.1975233  )
         5           Mg  tau(   5) = (   0.0000000   0.2911075   0.1975233  )
         6           Mg  tau(   6) = (   0.5000000   0.5749179   0.5925699  )
         7           Cd  tau(   7) = (   0.5000005   0.2886748   0.1975233  )
         8           Cd  tau(   8) = (  -0.0000005   0.5773506   0.5925699  )

     number of k points=    64  gaussian smearing, width (Ry)=  0.1000
                       cart. coord. in units 2pi/alat
        k(    1) = (   0.0000000   0.0000000   0.0000000), wk =   0.0095238
        k(    2) = (   0.0000000   0.0000000   0.1808105), wk =   0.0190476
        k(    3) = (   0.0000000   0.0000000   0.3616210), wk =   0.0190476
        k(    4) = (   0.0000000   0.0000000   0.5424315), wk =   0.0190476
        k(    5) = (   0.0000000   0.1924501   0.0000000), wk =   0.0190476
        k(    6) = (   0.0000000   0.1924501   0.1808105), wk =   0.0380952
        k(    7) = (   0.0000000   0.1924501   0.3616210), wk =   0.0380952
        k(    8) = (   0.0000000   0.1924501   0.5424315), wk =   0.0380952
        k(    9) = (   0.0000000   0.3849002   0.0000000), wk =   0.0190476
        k(   10) = (   0.0000000   0.3849002   0.1808105), wk =   0.0380952
        k(   11) = (   0.0000000   0.3849002   0.3616210), wk =   0.0380952
        k(   12) = (   0.0000000   0.3849002   0.5424315), wk =   0.0380952
        k(   13) = (   0.0000000  -0.5773503   0.0000000), wk =   0.0095238
        k(   14) = (   0.0000000  -0.5773503   0.1808105), wk =   0.0190476
        k(   15) = (   0.0000000  -0.5773503   0.3616210), wk =   0.0190476
        k(   16) = (   0.0000000  -0.5773503   0.5424315), wk =   0.0190476
        k(   17) = (   0.2000000   0.1154701   0.0000000), wk =   0.0190476
        k(   18) = (   0.2000000   0.1154701   0.1808105), wk =   0.0380952
        k(   19) = (   0.2000000   0.1154701   0.3616210), wk =   0.0380952
        k(   20) = (   0.2000000   0.1154701   0.5424315), wk =   0.0380952
        k(   21) = (   0.2000000   0.3079201   0.0000000), wk =   0.0190476
        k(   22) = (   0.2000000   0.3079201   0.1808105), wk =   0.0380952
        k(   23) = (   0.2000000   0.3079201   0.3616210), wk =   0.0380952
        k(   24) = (   0.2000000   0.3079201   0.5424315), wk =   0.0380952
        k(   25) = (   0.2000000   0.5003702   0.0000000), wk =   0.0190476
        k(   26) = (   0.2000000   0.5003702   0.1808105), wk =   0.0380952
        k(   27) = (   0.2000000   0.5003702   0.3616210), wk =   0.0380952
        k(   28) = (   0.2000000   0.5003702   0.5424315), wk =   0.0380952
        k(   29) = (   0.2000000  -0.4618802   0.0000000), wk =   0.0190476
        k(   30) = (   0.2000000  -0.4618802   0.1808105), wk =   0.0380952
        k(   31) = (   0.2000000  -0.4618802   0.3616210), wk =   0.0380952
        k(   32) = (   0.2000000  -0.4618802   0.5424315), wk =   0.0380952
        k(   33) = (   0.2000000  -0.2694301   0.0000000), wk =   0.0190476
        k(   34) = (   0.2000000  -0.2694301   0.1808105), wk =   0.0380952
        k(   35) = (   0.2000000  -0.2694301   0.3616210), wk =   0.0380952
        k(   36) = (   0.2000000  -0.2694301   0.5424315), wk =   0.0380952
        k(   37) = (   0.2000000  -0.0769800   0.0000000), wk =   0.0190476
        k(   38) = (   0.2000000  -0.0769800   0.1808105), wk =   0.0380952
        k(   39) = (   0.2000000  -0.0769800   0.3616210), wk =   0.0380952
        k(   40) = (   0.2000000  -0.0769800   0.5424315), wk =   0.0380952
        k(   41) = (   0.4000000   0.2309401   0.0000000), wk =   0.0190476
        k(   42) = (   0.4000000   0.2309401   0.1808105), wk =   0.0380952
        k(   43) = (   0.4000000   0.2309401   0.3616210), wk =   0.0380952
        k(   44) = (   0.4000000   0.2309401   0.5424315), wk =   0.0380952
        k(   45) = (   0.4000000   0.4233902   0.0000000), wk =   0.0190476
        k(   46) = (   0.4000000   0.4233902   0.1808105), wk =   0.0380952
        k(   47) = (   0.4000000   0.4233902   0.3616210), wk =   0.0380952
        k(   48) = (   0.4000000   0.4233902   0.5424315), wk =   0.0380952
        k(   49) = (   0.4000000   0.6158403   0.0000000), wk =   0.0190476
        k(   50) = (   0.4000000   0.6158403   0.1808105), wk =   0.0380952
        k(   51) = (   0.4000000   0.6158403   0.3616210), wk =   0.0380952
        k(   52) = (   0.4000000   0.6158403   0.5424315), wk =   0.0380952
        k(   53) = (   0.4000000  -0.3464102   0.0000000), wk =   0.0190476
        k(   54) = (   0.4000000  -0.3464102   0.1808105), wk =   0.0380952
        k(   55) = (   0.4000000  -0.3464102   0.3616210), wk =   0.0380952
        k(   56) = (   0.4000000  -0.3464102   0.5424315), wk =   0.0380952
        k(   57) = (   0.4000000  -0.1539601   0.0000000), wk =   0.0190476
        k(   58) = (   0.4000000  -0.1539601   0.1808105), wk =   0.0380952
        k(   59) = (   0.4000000  -0.1539601   0.3616210), wk =   0.0380952
        k(   60) = (   0.4000000  -0.1539601   0.5424315), wk =   0.0380952
        k(   61) = (   0.4000000   0.0384900   0.0000000), wk =   0.0190476
        k(   62) = (   0.4000000   0.0384900   0.1808105), wk =   0.0380952
        k(   63) = (   0.4000000   0.0384900   0.3616210), wk =   0.0380952
        k(   64) = (   0.4000000   0.0384900   0.5424315), wk =   0.0380952

     Dense  grid:    40467 G-vectors     FFT dimensions: (  50,  50,  40)

     Largest allocated arrays     est. size (Mb)     dimensions
        Kohn-Sham Wavefunctions         1.86 Mb     (   1298,   94)
        NL pseudopotentials             3.17 Mb     (   1298,  160)
        Each V/rho on FFT grid          0.38 Mb     (  25000)
        Each G-vector array             0.08 Mb     (  10119)
        G-vector shells                 0.08 Mb     (  10119)
     Largest temporary arrays     est. size (Mb)     dimensions
        Each subspace H/S matrix        0.13 Mb     (  94,  94)
        Each <psi_i|beta_j> matrix      0.23 Mb     (    160,   94)
        Arrays for rho mixing           3.05 Mb     (  25000,   8)

     Initial potential from superposition of free atoms

     Starting from uniform charge
     Starting wfc are    0 randomized atomic wfcs

     total cpu time spent up to now is        9.4 secs

     Self-consistent Calculation

     iteration #  1     ecut=    40.00 Ry     beta=0.70
     CG style diagonalization
     ethr =  1.00E-02,  avg # of iterations = 17.7

     total cpu time spent up to now is      258.1 secs

     total energy              =   -1433.86409564 Ry
     Harris-Foulkes estimate   =   -2666.78352495 Ry
     estimated scf accuracy    <    1492.05609520 Ry

     iteration #  2     ecut=    40.00 Ry     beta=0.70
     CG style diagonalization
     c_bands:  3 eigenvalues not converged
     c_bands:  4 eigenvalues not converged
     c_bands:  4 eigenvalues not converged
     c_bands:  5 eigenvalues not converged
     c_bands:  3 eigenvalues not converged
     c_bands:  3 eigenvalues not converged
     c_bands:  4 eigenvalues not converged
     c_bands:  4 eigenvalues not converged
     c_bands:  3 eigenvalues not converged
     c_bands:  4 eigenvalues not converged
     c_bands:  5 eigenvalues not converged
     c_bands:  3 eigenvalues not converged
     c_bands:  4 eigenvalues not converged
     c_bands:  4 eigenvalues not converged
     c_bands:  4 eigenvalues not converged
     c_bands:  2 eigenvalues not converged
     c_bands:  2 eigenvalues not converged
     c_bands:  5 eigenvalues not converged
     c_bands:  4 eigenvalues not converged
     c_bands:  4 eigenvalues not converged
     c_bands:  4 eigenvalues not converged
     c_bands:  3 eigenvalues not converged
     c_bands:  2 eigenvalues not converged
     c_bands:  3 eigenvalues not converged
     c_bands:  5 eigenvalues not converged
     c_bands:  2 eigenvalues not converged
     c_bands:  2 eigenvalues not converged
     c_bands:  4 eigenvalues not converged
     c_bands:  2 eigenvalues not converged
     c_bands:  4 eigenvalues not converged
     c_bands:  1 eigenvalues not converged
     c_bands:  3 eigenvalues not converged
     c_bands:  5 eigenvalues not converged
     c_bands:  4 eigenvalues not converged
     c_bands:  5 eigenvalues not converged
     c_bands:  3 eigenvalues not converged
     c_bands:  3 eigenvalues not converged
     c_bands:  2 eigenvalues not converged
     c_bands:  4 eigenvalues not converged
     c_bands:  2 eigenvalues not converged
     c_bands:  5 eigenvalues not converged
     c_bands:  5 eigenvalues not converged
     c_bands:  4 eigenvalues not converged
     c_bands:  3 eigenvalues not converged
     c_bands:  3 eigenvalues not converged
     c_bands:  3 eigenvalues not converged
     c_bands:  2 eigenvalues not converged
     c_bands:  2 eigenvalues not converged
     c_bands:  3 eigenvalues not converged
     c_bands:  4 eigenvalues not converged
     ethr =  1.00E-02,  avg # of iterations = 12.2

     total cpu time spent up to now is      443.4 secs

     total energy              =   -1739.78484976 Ry
     Harris-Foulkes estimate   =   -2550.48818997 Ry
     estimated scf accuracy    <    1438.96051639 Ry

     iteration #  3     ecut=    40.00 Ry     beta=0.70
     CG style diagonalization
     c_bands:  2 eigenvalues not converged
     c_bands:  2 eigenvalues not converged
     c_bands:  1 eigenvalues not converged
     c_bands:  1 eigenvalues not converged
     c_bands:  1 eigenvalues not converged
     c_bands:  1 eigenvalues not converged
     c_bands:  1 eigenvalues not converged
     c_bands:  3 eigenvalues not converged
     c_bands:  2 eigenvalues not converged
     c_bands:  2 eigenvalues not converged
     c_bands:  3 eigenvalues not converged
     c_bands:  1 eigenvalues not converged
     c_bands:  1 eigenvalues not converged
     c_bands:  1 eigenvalues not converged
     c_bands:  1 eigenvalues not converged
     c_bands:  1 eigenvalues not converged
     c_bands:  1 eigenvalues not converged
     c_bands:  2 eigenvalues not converged
     c_bands:  3 eigenvalues not converged
     c_bands:  2 eigenvalues not converged
     c_bands:  1 eigenvalues not converged
     c_bands:  2 eigenvalues not converged
     c_bands:  1 eigenvalues not converged
     c_bands:  1 eigenvalues not converged
     c_bands:  2 eigenvalues not converged
     c_bands:  1 eigenvalues not converged
     c_bands:  1 eigenvalues not converged
     c_bands:  1 eigenvalues not converged
     c_bands:  1 eigenvalues not converged
     c_bands:  1 eigenvalues not converged
     c_bands:  1 eigenvalues not converged
     c_bands:  1 eigenvalues not converged
     c_bands:  2 eigenvalues not converged
     c_bands:  3 eigenvalues not converged
     c_bands:  1 eigenvalues not converged
     c_bands:  1 eigenvalues not converged
     c_bands:  1 eigenvalues not converged
     c_bands:  1 eigenvalues not converged
     ethr =  1.00E-02,  avg # of iterations = 12.2

     total cpu time spent up to now is      629.9 secs

     total energy              =   -1988.40604275 Ry
     Harris-Foulkes estimate   =   -2078.53797758 Ry
     estimated scf accuracy    <     169.81536559 Ry

     iteration #  4     ecut=    40.00 Ry     beta=0.70
     CG style diagonalization
     ethr =  1.00E-02,  avg # of iterations =  6.1

     total cpu time spent up to now is      718.1 secs

     total energy              =   -2024.44613093 Ry
     Harris-Foulkes estimate   =   -2032.70346508 Ry
     estimated scf accuracy    <      17.53383001 Ry

     iteration #  5     ecut=    40.00 Ry     beta=0.70
     CG style diagonalization
     ethr =  1.00E-02,  avg # of iterations =  3.4

     total cpu time spent up to now is      765.6 secs

     total energy              =   -2027.57456486 Ry
     Harris-Foulkes estimate   =   -2027.65910984 Ry
     estimated scf accuracy    <       0.16273760 Ry

     iteration #  6     ecut=    40.00 Ry     beta=0.70
     CG style diagonalization
     c_bands:  1 eigenvalues not converged
     c_bands:  1 eigenvalues not converged
     c_bands:  1 eigenvalues not converged
     c_bands:  1 eigenvalues not converged
     c_bands:  1 eigenvalues not converged
     c_bands:  2 eigenvalues not converged
     c_bands:  1 eigenvalues not converged
     c_bands:  1 eigenvalues not converged
     c_bands:  1 eigenvalues not converged
     c_bands:  1 eigenvalues not converged
     c_bands:  2 eigenvalues not converged
     c_bands:  1 eigenvalues not converged
     c_bands:  1 eigenvalues not converged
     c_bands:  1 eigenvalues not converged
     c_bands:  3 eigenvalues not converged
     c_bands:  1 eigenvalues not converged
     c_bands:  2 eigenvalues not converged
     c_bands:  1 eigenvalues not converged
     c_bands:  1 eigenvalues not converged
     c_bands:  1 eigenvalues not converged
     c_bands:  1 eigenvalues not converged
     c_bands:  3 eigenvalues not converged
     c_bands:  1 eigenvalues not converged
     c_bands:  1 eigenvalues not converged
     c_bands:  1 eigenvalues not converged
     c_bands:  2 eigenvalues not converged
     c_bands:  2 eigenvalues not converged
     c_bands:  1 eigenvalues not converged
     c_bands:  1 eigenvalues not converged
     c_bands:  1 eigenvalues not converged
     c_bands:  1 eigenvalues not converged
     ethr =  1.04E-04,  avg # of iterations =  5.9

     total cpu time spent up to now is      852.0 secs

     total energy              =   -2027.74683156 Ry
     Harris-Foulkes estimate   =   -2027.79815599 Ry
     estimated scf accuracy    <       0.08437712 Ry

     iteration #  7     ecut=    40.00 Ry     beta=0.70
     CG style diagonalization
     ethr =  5.41E-05,  avg # of iterations =  3.7

     total cpu time spent up to now is      901.5 secs

     total energy              =   -2027.73801945 Ry
     Harris-Foulkes estimate   =   -2027.78728670 Ry
     estimated scf accuracy    <       0.06605029 Ry

     iteration #  8     ecut=    40.00 Ry     beta=0.70
     CG style diagonalization
     ethr =  4.23E-05,  avg # of iterations =  3.8

     total cpu time spent up to now is      955.5 secs

     total energy              =   -2027.76024202 Ry
     Harris-Foulkes estimate   =   -2027.78440211 Ry
     estimated scf accuracy    <       0.04925489 Ry

     iteration #  9     ecut=    40.00 Ry     beta=0.70
     CG style diagonalization
     ethr =  3.16E-05,  avg # of iterations =  3.4

     total cpu time spent up to now is     1002.0 secs

     total energy              =   -2027.76731443 Ry
     Harris-Foulkes estimate   =   -2027.76796924 Ry
     estimated scf accuracy    <       0.00109968 Ry

     iteration # 10     ecut=    40.00 Ry     beta=0.70
     CG style diagonalization
     c_bands:  1 eigenvalues not converged
     c_bands:  1 eigenvalues not converged
     c_bands:  2 eigenvalues not converged
     c_bands:  1 eigenvalues not converged
     c_bands:  1 eigenvalues not converged
     c_bands:  1 eigenvalues not converged
     c_bands:  1 eigenvalues not converged
     c_bands:  1 eigenvalues not converged
     c_bands:  1 eigenvalues not converged
     c_bands:  1 eigenvalues not converged
     c_bands:  1 eigenvalues not converged
     c_bands:  1 eigenvalues not converged
     c_bands:  1 eigenvalues not converged
     c_bands:  1 eigenvalues not converged
     c_bands:  1 eigenvalues not converged
     c_bands:  1 eigenvalues not converged
     ethr =  7.05E-07,  avg # of iterations =  4.5

     total cpu time spent up to now is     1069.9 secs

     total energy              =   -2027.76788129 Ry
     Harris-Foulkes estimate   =   -2027.76817411 Ry
     estimated scf accuracy    <       0.00062968 Ry

     iteration # 11     ecut=    40.00 Ry     beta=0.70
     CG style diagonalization
     c_bands:  1 eigenvalues not converged
     c_bands:  1 eigenvalues not converged
     c_bands:  1 eigenvalues not converged
     c_bands:  1 eigenvalues not converged
     ethr =  4.04E-07,  avg # of iterations =  3.4

     total cpu time spent up to now is     1118.1 secs

     End of self-consistent calculation

          k = 0.0000 0.0000 0.0000 (  5047 PWs)   bands (ev):

  -101.8029-101.7917 -60.5772 -60.5744 -60.5666 -60.5666 -60.5617 -60.5617
   -45.4816 -45.4437 -45.4436 -45.4394 -45.4237 -45.4236 -16.6966 -16.6593
   -16.5689 -16.5430 -16.5429 -16.5343 -16.5342 -16.5056 -16.5056 -16.4178
   -16.3325 -16.3324 -16.2566 -16.2451 -16.2414 -16.2413 -16.2310 -16.2310
    -2.3496  -2.3450  -2.3436  -2.3436  -2.3367  -2.3367  -2.3278  -2.3278
    -2.3237  -2.3237   9.9532  10.7952  15.5184  16.4791  16.5377  16.5378
    16.7608  16.7608  16.7784  16.9436  16.9437  16.9613  17.4173  17.4175
    18.0439  18.5342  18.5342  18.5660  18.5660  18.6809  19.6026  19.6524
    19.6525  19.8797  19.8798  20.2379  20.2765  20.2766  20.3916  20.3916
    20.4307  21.4895  21.8203  21.8382  21.8932  21.8932  22.3185  22.3185
    24.2227  24.2714  24.7909  25.9514  25.9514  28.2999  28.4077  28.4078
    28.6966  28.6967  28.7331  28.7332  29.3663  29.9084

          k = 0.0000 0.0000 0.1808 (  5065 PWs)   bands (ev):

  -101.8185-101.8060 -60.5762 -60.5752 -60.5689 -60.5689 -60.5662 -60.5662
   -45.4819 -45.4456 -45.4455 -45.4417 -45.4240 -45.4239 -16.6841 -16.6721
   -16.5985 -16.5985 -16.5604 -16.5264 -16.5264 -16.4731 -16.4730 -16.4041
   -16.3236 -16.3236 -16.2827 -16.2566 -16.2443 -16.2442 -16.2336 -16.2336
    -2.3493  -2.3455  -2.3452  -2.3452  -2.3365  -2.3365  -2.3267  -2.3267
    -2.3252  -2.3252  10.0304  10.7674  15.7279  16.0749  16.6405  16.6406
    16.7360  16.8157  16.8158  16.8396  16.8397  17.0976  17.3997  17.3998
    18.1740  18.4639  18.4639  18.8164  18.8164  18.9971  19.1049  19.6858
    19.6858  19.7348  19.7348  20.1343  20.1343  20.3411  20.3535  20.3536
    20.4708  21.3810  21.6660  21.8083  22.0192  22.0192  22.1451  22.1452
    22.8779  24.8268  26.0469  26.0469  26.1493  27.6732  27.6733  27.7894
    28.5173  28.5174  29.5300  29.5302  29.7338  30.3151

          k = 0.0000 0.0000 0.3616 (  5047 PWs)   bands (ev):

  -101.8116-101.7849 -60.5722 -60.5694 -60.5694 -60.5655 -60.5655 -60.5654
   -45.4786 -45.4421 -45.4420 -45.4419 -45.4262 -45.4261 -16.6698 -16.6603
   -16.6255 -16.6255 -16.5704 -16.5704 -16.5218 -16.3980 -16.3979 -16.3846
   -16.3399 -16.3096 -16.3095 -16.2804 -16.2406 -16.2406 -16.2374 -16.2374
    -2.3486  -2.3470  -2.3470  -2.3459  -2.3377  -2.3377  -2.3267  -2.3267
    -2.3247  -2.3247  10.2266  10.7105  15.6053  16.0605  16.6737  16.6738
    16.8010  16.8010  16.8036  17.0239  17.0239  17.2455  17.4545  17.4546
    18.1691  18.2526  18.2526  18.5542  19.2339  19.2340  19.4645  19.5676
    19.5677  19.5860  19.5860  20.1244  20.1245  20.1727  20.1727  20.2886
    20.5684  20.7485  21.6269  21.7753  21.8016  21.8016  21.9674  22.0447
    22.0447  25.2795  26.2825  26.2825  27.0987  27.0987  27.5611  27.6567
    28.4392  28.4393  29.9032  29.9033  30.0606  30.5646

          k = 0.0000 0.0000 0.5424 (  5041 PWs)   bands (ev):

  -101.8050-101.7830 -60.5728 -60.5671 -60.5667 -60.5667 -60.5643 -60.5643
   -45.4654 -45.4541 -45.4356 -45.4355 -45.4324 -45.4323 -16.6577 -16.6569
   -16.6297 -16.6297 -16.6079 -16.6079 -16.4648 -16.3950 -16.3522 -16.3475
   -16.3474 -16.3146 -16.3146 -16.3129 -16.2435 -16.2434 -16.2403 -16.2402
    -2.3477  -2.3470  -2.3459  -2.3459  -2.3417  -2.3417  -2.3260  -2.3260
    -2.3246  -2.3246  10.4507  10.6135  15.4927  15.7688  16.6539  16.6540
    16.7512  16.7512  17.2971  17.2971  17.4215  17.5305  17.5305  17.6372
    17.6897  18.3558  18.3559  18.7848  18.9116  18.9117  19.1559  19.3977
    19.3978  19.4766  19.4766  19.9233  20.2073  20.2541  20.3273  20.3274
    20.4236  20.4237  21.5696  21.5696  21.6708  21.7256  21.7466  21.7466
    22.8794  24.2623  26.5130  26.5131  26.7478  26.7479  28.5852  28.6868
    28.8963  28.8964  29.5630  29.5631  30.0998  30.1775

          k = 0.0000 0.1925 0.0000 (  5083 PWs)   bands (ev):

  -101.8359-101.8152 -60.5808 -60.5772 -60.5725 -60.5704 -60.5669 -60.5662
   -45.4825 -45.4497 -45.4466 -45.4387 -45.4256 -45.4250 -16.6875 -16.6484
   -16.5561 -16.5483 -16.5480 -16.5392 -16.5381 -16.5016 -16.4886 -16.4255
   -16.3444 -16.3353 -16.2713 -16.2656 -16.2588 -16.2540 -16.2533 -16.2337
    -2.3480  -2.3444  -2.3435  -2.3422  -2.3350  -2.3340  -2.3275  -2.3251
    -2.3250  -2.3244  10.0549  10.8210  15.6163  16.0055  16.2422  16.5124
    16.6238  16.7174  16.7839  16.9119  17.1964  17.2439  17.3505  17.5988
    18.1190  18.2623  18.4168  18.6000  18.6247  18.7918  19.0573  19.4853
    19.7652  19.7738  19.9075  20.1528  20.2161  20.3595  20.4495  20.4852
    21.1999  21.3512  21.5229  21.7643  21.8975  22.0055  22.4399  22.7729
    23.7697  24.2413  24.4964  26.0215  27.3135  27.5977  27.7108  28.2032
    28.3610  28.4262  29.0757  29.4728  29.7314  29.9428

          k = 0.0000 0.1925 0.1808 (  5077 PWs)   bands (ev):

  -101.8352-101.8076 -60.5799 -60.5745 -60.5717 -60.5707 -60.5671 -60.5656
   -45.4815 -45.4466 -45.4455 -45.4402 -45.4267 -45.4261 -16.6751 -16.6481
   -16.5969 -16.5929 -16.5508 -16.5262 -16.5135 -16.4806 -16.4730 -16.4109
   -16.3338 -16.3250 -16.2837 -16.2704 -16.2697 -16.2510 -16.2501 -16.2343
    -2.3479  -2.3449  -2.3446  -2.3437  -2.3349  -2.3339  -2.3266  -2.3259
    -2.3252  -2.3238  10.1292  10.8046  15.7709  16.1075  16.1511  16.3131
    16.5732  16.7440  16.8762  16.9717  17.1078  17.2088  17.4112  17.6322
    18.1765  18.3221  18.5519  18.6003  18.6659  18.7535  18.9709  19.5484
    19.7183  19.7217  19.8019  20.1710  20.1814  20.3508  20.3681  20.5656
    20.8402  21.2816  21.4580  21.5786  21.9917  22.0973  22.3401  22.5110
    23.1016  24.7804  24.9943  26.1258  26.7663  27.4990  27.7129  28.1517
    28.8297  28.8942  29.3613  29.5022  29.6476  30.3102

          k = 0.0000 0.1925 0.3616 (  5061 PWs)   bands (ev):

  -101.8254-101.7928 -60.5748 -60.5728 -60.5705 -60.5694 -60.5651 -60.5649
   -45.4762 -45.4445 -45.4423 -45.4422 -45.4289 -45.4274 -16.6545 -16.6476
   -16.6234 -16.6174 -16.5674 -16.5568 -16.5167 -16.4260 -16.4045 -16.3696
   -16.3446 -16.3251 -16.3074 -16.2789 -16.2737 -16.2522 -16.2492 -16.2365
    -2.3474  -2.3459  -2.3456  -2.3449  -2.3361  -2.3357  -2.3274  -2.3261
    -2.3246  -2.3226  10.3166  10.7575  15.6680  15.9577  16.4025  16.4355
    16.7199  16.8879  16.9314  16.9575  17.0960  17.2421  17.5894  17.6528
    17.8917  18.1291  18.1745  18.6340  18.8634  18.9015  19.3961  19.4766
    19.5891  19.7259  19.8599  20.1075  20.1204  20.1979  20.2555  20.4093
    20.6817  20.9404  21.3868  21.6143  21.6253  21.7674  21.8933  22.2407
    22.9965  24.6786  25.7866  26.3710  27.0344  27.3310  27.7419  28.4623
    28.7568  28.9160  29.6715  29.9325  30.2682  30.3188

          k = 0.0000 0.1925 0.5424 (  5050 PWs)   bands (ev):

  -101.8118-101.7910 -60.5725 -60.5699 -60.5695 -60.5679 -60.5653 -60.5644
   -45.4642 -45.4523 -45.4381 -45.4378 -45.4335 -45.4326 -16.6499 -16.6444
   -16.6271 -16.6226 -16.6067 -16.5996 -16.4595 -16.3942 -16.3860 -16.3496
   -16.3487 -16.3237 -16.3174 -16.2918 -16.2653 -16.2554 -16.2466 -16.2422
    -2.3466  -2.3459  -2.3447  -2.3441  -2.3404  -2.3403  -2.3262  -2.3246
    -2.3245  -2.3229  10.5267  10.6755  15.5439  15.7771  16.4471  16.5855
    16.6225  16.8164  17.1729  17.3616  17.4329  17.6254  17.6422  17.6842
    17.6912  17.9330  18.0846  18.5360  18.5484  18.8786  19.1125  19.5060
    19.5481  19.6502  19.7671  20.0152  20.1599  20.1729  20.2870  20.3501
    20.6099  21.0240  21.3389  21.3573  21.3961  21.5085  21.7985  22.0533
    23.2488  23.9766  26.5567  26.5896  26.7900  27.2597  28.3546  28.6266
    29.0894  29.3475  29.5706  29.6991  30.3339  30.4800

          k = 0.0000 0.3849 0.0000 (  5079 PWs)   bands (ev):

  -101.8411-101.8077 -60.5771 -60.5752 -60.5749 -60.5724 -60.5661 -60.5653
   -45.4791 -45.4556 -45.4469 -45.4368 -45.4257 -45.4240 -16.6721 -16.6024
   -16.5537 -16.5478 -16.5429 -16.5225 -16.5189 -16.4587 -16.4550 -16.4327
   -16.3493 -16.3423 -16.3301 -16.3095 -16.3093 -16.2691 -16.2517 -16.2326
    -2.3454  -2.3432  -2.3427  -2.3384  -2.3309  -2.3286  -2.3277  -2.3258
    -2.3244  -2.3193  10.3197  10.8506  15.3135  15.8836  15.9281  15.9979
    16.5182  16.5603  16.9481  17.2504  17.2672  17.4248  17.7285  17.8260
    17.9866  18.0992  18.2334  18.7437  18.7541  18.7613  18.8709  19.2643
    19.5471  19.7989  19.9157  20.0548  20.1175  20.2340  20.3120  20.4000
    20.7665  21.3226  21.6177  21.6315  22.0733  22.3820  22.8354  22.8959
    24.1512  24.5386  25.1485  26.2152  26.4696  26.9764  27.4971  28.0030
    28.3350  28.8804  29.2742  29.6194  30.1708  30.3738

          k = 0.0000 0.3849 0.1808 (  5090 PWs)   bands (ev):

  -101.8455-101.8186 -60.5801 -60.5752 -60.5740 -60.5735 -60.5680 -60.5679
   -45.4770 -45.4542 -45.4471 -45.4391 -45.4272 -45.4268 -16.6595 -16.6160
   -16.5822 -16.5750 -16.5411 -16.4960 -16.4952 -16.4747 -16.4654 -16.4139
   -16.3532 -16.3386 -16.3375 -16.3034 -16.3014 -16.2678 -16.2653 -16.2357
    -2.3454  -2.3435  -2.3434  -2.3397  -2.3306  -2.3291  -2.3289  -2.3252
    -2.3251  -2.3187  10.3806  10.8473  15.3889  15.8109  16.0083  16.1160
    16.3604  16.5957  17.0057  17.2276  17.3083  17.3569  17.7163  17.8431
    18.0924  18.2773  18.3932  18.4772  18.6733  18.7197  18.8062  19.2808
    19.5043  19.6476  19.7577  20.1204  20.2110  20.2378  20.2866  20.3277
    20.7552  21.2133  21.4970  21.5372  22.1716  22.2101  22.6910  22.7701
    24.2787  24.4899  24.9911  26.3536  26.3875  27.3095  27.5173  28.3864
    28.5275  29.1790  29.2003  29.6099  30.4513  30.5158

          k = 0.0000 0.3849 0.3616 (  5078 PWs)   bands (ev):

  -101.8363-101.8083 -60.5803 -60.5718 -60.5717 -60.5701 -60.5680 -60.5680
   -45.4707 -45.4504 -45.4430 -45.4422 -45.4317 -45.4291 -16.6421 -16.6320
   -16.6000 -16.5904 -16.5576 -16.5233 -16.4862 -16.4599 -16.4214 -16.3698
   -16.3598 -16.3455 -16.3374 -16.2977 -16.2897 -16.2788 -16.2627 -16.2414
    -2.3452  -2.3443  -2.3436  -2.3409  -2.3332  -2.3329  -2.3284  -2.3242
    -2.3237  -2.3179  10.5337  10.8403  15.5084  15.6281  16.2229  16.2249
    16.4311  16.7368  16.9841  17.1410  17.4054  17.4383  17.6899  17.8095
    17.8900  18.2565  18.2635  18.5571  18.6167  18.7221  18.9285  19.3499
    19.4555  19.6315  19.6807  19.9011  20.0674  20.0845  20.3820  20.4132
    20.5697  20.7709  21.1435  21.6995  21.7154  22.1887  22.4932  22.7457
    23.2822  25.1157  25.2459  26.6247  27.1081  27.3849  27.5044  28.5497
    28.6841  29.4571  29.9255  30.2009  30.3485  30.3944

          k = 0.0000 0.3849 0.5424 (  5051 PWs)   bands (ev):

  -101.8121-101.7917 -60.5753 -60.5706 -60.5690 -60.5662 -60.5659 -60.5634
   -45.4608 -45.4503 -45.4413 -45.4376 -45.4362 -45.4322 -16.6430 -16.6293
   -16.5976 -16.5839 -16.5706 -16.5674 -16.4498 -16.4221 -16.4052 -16.3869
   -16.3602 -16.3428 -16.3055 -16.3052 -16.2912 -16.2766 -16.2574 -16.2459
    -2.3446  -2.3441  -2.3427  -2.3402  -2.3384  -2.3372  -2.3262  -2.3245
    -2.3207  -2.3185  10.7006  10.8053  15.4786  15.5704  16.3450  16.3594
    16.5248  16.8001  17.0103  17.1956  17.4613  17.6226  17.7394  17.8177
    17.8754  17.9054  18.1669  18.3363  18.5637  18.8167  18.9777  19.3842
    19.4591  19.5867  19.7766  19.7932  19.9237  20.0462  20.1953  20.3343
    20.8051  20.8724  20.9952  21.2154  21.5060  21.8470  22.1417  22.3511
    23.7638  24.5956  26.3313  26.8372  27.0388  27.2861  28.2895  28.7464
    28.9625  29.4186  29.5951  30.3566  30.8095  30.8125

          k = 0.0000-0.5774 0.0000 (  5068 PWs)   bands (ev):

  -101.8197-101.8124 -60.5776 -60.5754 -60.5700 -60.5690 -60.5658 -60.5647
   -45.4727 -45.4612 -45.4476 -45.4365 -45.4242 -45.4225 -16.6694 -16.5725
   -16.5637 -16.5445 -16.5428 -16.4994 -16.4834 -16.4545 -16.4049 -16.3974
   -16.3920 -16.3661 -16.3535 -16.3510 -16.3342 -16.2725 -16.2464 -16.2357
    -2.3445  -2.3425  -2.3424  -2.3353  -2.3307  -2.3282  -2.3253  -2.3250
    -2.3247  -2.3162  10.5279  10.8034  15.0362  15.7225  15.8066  16.2162
    16.2328  16.4855  17.1376  17.2092  17.4130  17.6888  17.7433  17.9252
    17.9586  17.9957  18.2821  18.7029  18.8149  18.8247  19.1616  19.3425
    19.3801  19.5916  19.6626  19.8269  20.0649  20.0743  20.2827  20.2965
    20.3706  21.3875  21.5746  21.5808  22.0658  22.7267  23.1927  23.4944
    23.5270  25.5586  25.9400  25.9763  26.3315  26.3930  27.0350  28.0059
    28.3396  28.3659  28.8328  30.2778  30.6273  30.7521

          k = 0.0000-0.5774 0.1808 (  5072 PWs)   bands (ev):

  -101.8205-101.8166 -60.5752 -60.5744 -60.5742 -60.5690 -60.5672 -60.5657
   -45.4704 -45.4595 -45.4457 -45.4384 -45.4274 -45.4242 -16.6571 -16.6143
   -16.5599 -16.5585 -16.5367 -16.4935 -16.4689 -16.4387 -16.4228 -16.4227
   -16.3903 -16.3803 -16.3534 -16.3213 -16.3034 -16.2706 -16.2603 -16.2373
    -2.3443  -2.3430  -2.3426  -2.3360  -2.3318  -2.3277  -2.3274  -2.3247
    -2.3239  -2.3157  10.5735  10.8211  15.1329  15.5676  15.8924  16.2221
    16.3258  16.5232  17.1467  17.2910  17.3461  17.5816  17.8286  17.9363
    17.9617  18.3167  18.3215  18.3955  18.7381  18.9352  19.0432  19.1654
    19.3338  19.4938  19.5584  19.6327  20.1693  20.1966  20.2633  20.2790
    20.3523  21.2116  21.5390  21.6680  22.2618  22.4490  23.0258  23.0792
    23.9125  24.6188  26.0076  26.5874  26.6013  26.9856  27.0802  27.7092
    28.4441  28.8079  28.9523  29.9693  30.6612  30.9984

          k = 0.0000-0.5774 0.3616 (  5090 PWs)   bands (ev):

  -101.8356-101.8272 -60.5778 -60.5755 -60.5734 -60.5728 -60.5705 -60.5686
   -45.4633 -45.4571 -45.4435 -45.4418 -45.4344 -45.4309 -16.6417 -16.6281
   -16.5891 -16.5771 -16.5287 -16.5001 -16.4781 -16.4457 -16.4426 -16.3950
   -16.3845 -16.3799 -16.3476 -16.3007 -16.2928 -16.2807 -16.2659 -16.2453
    -2.3442  -2.3435  -2.3430  -2.3375  -2.3346  -2.3323  -2.3268  -2.3246
    -2.3217  -2.3154  10.6863  10.8527  15.3377  15.3697  16.1428  16.2409
    16.3466  16.6409  17.1197  17.2418  17.5884  17.6433  17.7762  17.8074
    17.9171  18.0762  18.4462  18.5635  18.8025  18.8335  18.8418  19.1127
    19.3072  19.3543  19.4363  19.4902  20.0199  20.0237  20.3724  20.4493
    20.4692  20.6103  21.2442  21.7688  21.8855  22.4431  22.5929  22.8898
    23.5713  24.8022  26.5985  26.9278  27.0607  27.1127  27.3833  27.5166
    28.6524  28.8295  30.1568  30.2619  30.4630  31.2478

          k = 0.0000-0.5774 0.5424 (  5080 PWs)   bands (ev):

  -101.8327-101.8154 -60.5798 -60.5789 -60.5701 -60.5689 -60.5675 -60.5667
   -45.4551 -45.4532 -45.4440 -45.4420 -45.4381 -45.4354 -16.6429 -16.6294
   -16.5840 -16.5554 -16.5489 -16.5292 -16.4503 -16.4484 -16.4410 -16.4179
   -16.3782 -16.3596 -16.3235 -16.3074 -16.3012 -16.2709 -16.2644 -16.2518
    -2.3437  -2.3433  -2.3419  -2.3379  -2.3377  -2.3370  -2.3259  -2.3251
    -2.3188  -2.3163  10.8032  10.8629  15.3171  15.3910  16.3076  16.3252
    16.5072  16.7367  17.0585  17.1794  17.6094  17.6251  17.7124  17.7506
    17.9337  17.9400  18.4480  18.5779  18.6653  18.7251  18.9323  19.3055
    19.3107  19.3625  19.4351  19.5671  19.7162  19.8735  20.3055  20.3407
    20.7297  20.7844  20.9175  21.3159  21.5356  21.8942  22.3860  22.4668
    24.3448  25.4459  25.9359  26.7239  27.0778  27.2877  28.3952  28.5560
    28.6146  28.8880  30.4494  30.7299  30.7546  30.9885

          k = 0.2000 0.1155 0.0000 (  5087 PWs)   bands (ev):

  -101.8407-101.8169 -60.5796 -60.5766 -60.5752 -60.5728 -60.5671 -60.5654
   -45.4838 -45.4506 -45.4466 -45.4388 -45.4258 -45.4240 -16.6852 -16.6406
   -16.5533 -16.5484 -16.5465 -16.5398 -16.5361 -16.4967 -16.4826 -16.4252
   -16.3451 -16.3349 -16.2916 -16.2714 -16.2630 -16.2575 -16.2567 -16.2333
    -2.3474  -2.3442  -2.3433  -2.3417  -2.3344  -2.3332  -2.3272  -2.3255
    -2.3244  -2.3239  10.0977  10.8309  15.6580  15.8523  16.1695  16.4199
    16.6824  16.6870  16.7310  16.9665  17.2519  17.3285  17.3396  17.6516
    18.1435  18.2024  18.3508  18.6266  18.6558  18.7994  18.9558  19.4290
    19.7341  19.7889  19.9202  20.1239  20.1977  20.3508  20.4522  20.5235
    21.2808  21.4272  21.4319  21.7376  21.7959  22.0307  22.5103  22.9981
    23.6240  24.2431  24.5893  26.0518  27.3579  27.5230  27.7056  28.0827
    28.3499  28.4014  29.0229  29.6491  29.8955  29.9898

          k = 0.2000 0.1155 0.1808 (  5078 PWs)   bands (ev):

  -101.8361-101.8084 -60.5795 -60.5746 -60.5732 -60.5699 -60.5677 -60.5653
   -45.4814 -45.4485 -45.4451 -45.4400 -45.4261 -45.4258 -16.6728 -16.6390
   -16.5979 -16.5889 -16.5454 -16.5224 -16.5069 -16.4811 -16.4738 -16.4101
   -16.3365 -16.3248 -16.2909 -16.2757 -16.2751 -16.2585 -16.2551 -16.2353
    -2.3474  -2.3446  -2.3443  -2.3430  -2.3342  -2.3329  -2.3269  -2.3259
    -2.3252  -2.3229  10.1713  10.8165  15.7626  15.9985  16.1587  16.2420
    16.4946  16.7157  16.9061  16.9851  17.1547  17.2893  17.4261  17.6920
    18.1875  18.2811  18.5137  18.5873  18.6189  18.7420  18.9136  19.4961
    19.6893  19.7134  19.8094  20.1789  20.2019  20.3287  20.3718  20.5722
    20.9967  21.2404  21.3467  21.5469  21.9943  22.1218  22.4167  22.5295
    23.3366  24.7621  24.8617  26.1613  26.6342  27.4640  28.0486  28.0645
    28.7843  28.8743  29.3621  29.6671  29.7173  30.3147

          k = 0.2000 0.1155 0.3616 (  5067 PWs)   bands (ev):

  -101.8291-101.7981 -60.5760 -60.5729 -60.5703 -60.5691 -60.5678 -60.5657
   -45.4755 -45.4452 -45.4429 -45.4428 -45.4294 -45.4276 -16.6528 -16.6426
   -16.6210 -16.6147 -16.5665 -16.5528 -16.5138 -16.4344 -16.4065 -16.3668
   -16.3463 -16.3305 -16.3075 -16.2813 -16.2787 -16.2593 -16.2528 -16.2375
    -2.3470  -2.3455  -2.3450  -2.3443  -2.3354  -2.3350  -2.3277  -2.3258
    -2.3245  -2.3217  10.3534  10.7751  15.6826  15.8860  16.3694  16.3860
    16.6241  16.8947  16.9075  16.9776  17.1677  17.2668  17.6397  17.7098
    17.8230  18.1220  18.1761  18.6415  18.7874  18.8241  19.3184  19.4656
    19.6186  19.7063  19.8520  20.0935  20.1235  20.2041  20.2896  20.3815
    20.6580  21.0371  21.2643  21.6206  21.6243  21.8600  21.9329  22.2942
    23.2014  24.5730  25.6680  26.4101  27.0315  27.3447  27.7138  28.7611
    28.8190  29.1032  29.5842  29.8710  30.2422  30.4154

          k = 0.2000 0.1155 0.5424 (  5053 PWs)   bands (ev):

  -101.8142-101.7931 -60.5733 -60.5695 -60.5690 -60.5689 -60.5670 -60.5639
   -45.4630 -45.4517 -45.4388 -45.4380 -45.4343 -45.4337 -16.6463 -16.6410
   -16.6203 -16.6185 -16.6045 -16.5951 -16.4582 -16.3942 -16.3936 -16.3586
   -16.3512 -16.3218 -16.3214 -16.2889 -16.2717 -16.2625 -16.2495 -16.2403
    -2.3463  -2.3456  -2.3443  -2.3435  -2.3399  -2.3397  -2.3262  -2.3246
    -2.3239  -2.3221  10.5573  10.7001  15.5543  15.7599  16.4039  16.5656
    16.5701  16.8251  17.1216  17.3829  17.3914  17.6019  17.6797  17.7080
    17.7535  17.8985  18.0320  18.4533  18.5178  18.8804  19.0872  19.5093
    19.5292  19.6751  19.8288  20.0443  20.1200  20.1284  20.2464  20.3270
    20.6975  21.1870  21.2535  21.2915  21.3320  21.4974  21.8527  22.1167
    23.3652  23.9676  26.5558  26.6265  26.8184  27.3496  28.3646  28.6251
    29.1272  29.2998  29.7146  29.7489  30.4262  30.5893

          k = 0.2000 0.3079 0.0000 (  5075 PWs)   bands (ev):

  -101.8328-101.8089 -60.5754 -60.5746 -60.5743 -60.5717 -60.5666 -60.5655
   -45.4790 -45.4526 -45.4481 -45.4361 -45.4256 -45.4251 -16.6748 -16.6068
   -16.5527 -16.5458 -16.5373 -16.5317 -16.5271 -16.4809 -16.4422 -16.4320
   -16.3467 -16.3313 -16.3310 -16.3207 -16.2756 -16.2567 -16.2497 -16.2486
    -2.3451  -2.3428  -2.3425  -2.3390  -2.3311  -2.3300  -2.3275  -2.3250
    -2.3246  -2.3202  10.2960  10.8544  15.5101  15.6655  15.8545  16.2994
    16.3700  16.5595  16.9643  17.2303  17.2315  17.5180  17.5827  17.8335
    17.9981  18.1120  18.1878  18.7379  18.7418  18.8323  18.8366  19.2333
    19.5341  19.8883  19.9135  20.0198  20.1586  20.2740  20.3780  20.4298
    21.0406  21.1723  21.5597  21.6370  22.0314  22.2820  22.9006  22.9618
    24.2235  24.3562  24.7372  26.4463  26.4585  26.7179  27.4691  28.4551
    28.6929  29.1149  29.3442  29.6460  29.6746  30.0845

          k = 0.2000 0.3079 0.1808 (  5088 PWs)   bands (ev):

  -101.8396-101.8210 -60.5793 -60.5762 -60.5741 -60.5727 -60.5686 -60.5662
   -45.4762 -45.4527 -45.4494 -45.4380 -45.4276 -45.4268 -16.6601 -16.6112
   -16.5987 -16.5773 -16.5283 -16.5176 -16.4863 -16.4845 -16.4633 -16.4152
   -16.3486 -16.3484 -16.3153 -16.3118 -16.2803 -16.2644 -16.2553 -16.2499
    -2.3453  -2.3433  -2.3432  -2.3403  -2.3309  -2.3298  -2.3287  -2.3261
    -2.3240  -2.3197  10.3589  10.8478  15.5956  15.6702  16.0526  16.1038
    16.4097  16.4715  17.0237  17.1815  17.3478  17.4128  17.5649  17.8616
    18.0855  18.2841  18.3987  18.5590  18.6185  18.7091  18.7899  19.2052
    19.4902  19.7488  19.9245  20.0372  20.1424  20.2442  20.2712  20.5625
    21.0391  21.1460  21.3623  21.4639  22.0492  22.1304  22.6719  22.9453
    24.2900  24.4850  24.6352  26.1801  26.6186  26.8420  28.1325  28.4857
    28.8174  29.3245  29.4564  29.5268  29.6030  30.5428

          k = 0.2000 0.3079 0.3616 (  5068 PWs)   bands (ev):

  -101.8303-101.8005 -60.5791 -60.5725 -60.5705 -60.5691 -60.5671 -60.5641
   -45.4711 -45.4470 -45.4461 -45.4404 -45.4303 -45.4296 -16.6367 -16.6208
   -16.6159 -16.5927 -16.5475 -16.5368 -16.4864 -16.4586 -16.4099 -16.3716
   -16.3644 -16.3545 -16.3070 -16.2986 -16.2952 -16.2745 -16.2547 -16.2495
    -2.3452  -2.3439  -2.3435  -2.3416  -2.3334  -2.3329  -2.3280  -2.3254
    -2.3228  -2.3189  10.5149  10.8382  15.6274  15.6800  16.0308  16.3849
    16.4679  16.5531  17.0497  17.1394  17.3314  17.4851  17.6342  17.8517
    17.8589  18.1967  18.3174  18.4529  18.6011  18.7620  18.9570  19.3599
    19.4577  19.6430  19.8443  19.9123  20.0510  20.1793  20.2052  20.5964
    20.6742  20.8816  21.2707  21.3560  21.7451  22.2430  22.3315  22.4171
    24.0200  24.3269  25.2225  26.6693  27.0250  27.3907  28.1016  28.3018
    28.9903  29.1315  30.1925  30.3151  30.3346  30.3595

          k = 0.2000 0.3079 0.5424 (  5058 PWs)   bands (ev):

  -101.8119-101.8030 -60.5750 -60.5718 -60.5689 -60.5677 -60.5665 -60.5656
   -45.4612 -45.4510 -45.4414 -45.4383 -45.4353 -45.4337 -16.6313 -16.6241
   -16.6113 -16.6080 -16.5710 -16.5669 -16.4516 -16.4261 -16.3950 -16.3906
   -16.3559 -16.3307 -16.3067 -16.3021 -16.3003 -16.2766 -16.2561 -16.2495
    -2.3446  -2.3439  -2.3424  -2.3409  -2.3384  -2.3378  -2.3259  -2.3246
    -2.3213  -2.3195  10.6861  10.7945  15.5385  15.6150  16.3570  16.3622
    16.4903  16.6726  17.1613  17.2107  17.4162  17.5957  17.6638  17.8210
    17.8476  17.9262  18.1806  18.2502  18.6257  18.8195  18.8872  19.4446
    19.4895  19.5956  19.8469  19.9276  19.9724  20.0448  20.1545  20.3030
    20.8621  20.9517  21.0213  21.2721  21.4832  21.5380  22.3231  22.3851
    23.8607  24.0331  26.1609  26.7178  27.3810  27.7336  28.2114  28.6300
    28.7505  29.3831  29.9499  30.4041  30.6930  30.7454

          k = 0.2000 0.5004 0.0000 (  5072 PWs)   bands (ev):

  -101.8244-101.8141 -60.5752 -60.5745 -60.5739 -60.5691 -60.5681 -60.5647
   -45.4718 -45.4576 -45.4521 -45.4340 -45.4269 -45.4238 -16.6640 -16.5649
   -16.5562 -16.5486 -16.5310 -16.5119 -16.4947 -16.4726 -16.4317 -16.4036
   -16.3799 -16.3601 -16.3472 -16.3363 -16.3078 -16.2811 -16.2557 -16.2445
    -2.3430  -2.3419  -2.3418  -2.3353  -2.3307  -2.3284  -2.3261  -2.3248
    -2.3234  -2.3178  10.5554  10.8040  15.1302  15.5918  15.8655  16.1553
    16.2209  16.3706  17.1065  17.2948  17.5067  17.6183  17.6511  17.8739
    17.9758  18.1612  18.2000  18.4969  18.8695  18.9054  19.0749  19.2055
    19.2940  19.8176  19.9534  20.0046  20.0199  20.0583  20.2375  20.3410
    20.5874  21.0461  21.5570  21.5601  21.7276  23.0817  23.3415  23.5918
    23.9911  24.8015  25.1543  25.5520  26.1788  26.9392  27.3763  28.4604
    28.7283  28.8133  29.1055  29.8683  30.1101  30.7579

          k = 0.2000 0.5004 0.1808 (  5079 PWs)   bands (ev):

  -101.8347-101.8142 -60.5778 -60.5748 -60.5735 -60.5710 -60.5687 -60.5650
   -45.4702 -45.4569 -45.4510 -45.4354 -45.4284 -45.4264 -16.6520 -16.5995
   -16.5742 -16.5533 -16.5321 -16.5004 -16.4756 -16.4558 -16.4270 -16.4148
   -16.4057 -16.3847 -16.3233 -16.3161 -16.2970 -16.2801 -16.2589 -16.2551
    -2.3430  -2.3425  -2.3419  -2.3362  -2.3320  -2.3282  -2.3265  -2.3253
    -2.3229  -2.3174  10.5987  10.8211  15.2554  15.5784  15.7851  16.1949
    16.2554  16.3631  17.2331  17.2672  17.4649  17.5429  17.7816  17.9188
    18.0977  18.1491  18.3121  18.5437  18.6703  18.7375  18.9977  19.0556
    19.1612  19.7208  19.7948  19.8923  20.0305  20.2565  20.2742  20.4144
    20.5855  21.1025  21.2154  21.6987  21.8454  22.7059  23.0212  23.5466
    23.9970  24.5081  25.3381  25.9678  26.3026  26.9752  27.9262  28.3924
    28.5214  29.1727  29.2301  30.0174  30.4133  30.6441

          k = 0.2000 0.5004 0.3616 (  5085 PWs)   bands (ev):

  -101.8394-101.8180 -60.5804 -60.5752 -60.5744 -60.5707 -60.5689 -60.5654
   -45.4647 -45.4537 -45.4487 -45.4383 -45.4337 -45.4311 -16.6251 -16.6162
   -16.5998 -16.5686 -16.5374 -16.5212 -16.4629 -16.4464 -16.4205 -16.4123
   -16.3943 -16.3786 -16.3291 -16.3016 -16.2931 -16.2781 -16.2749 -16.2565
    -2.3434  -2.3428  -2.3422  -2.3379  -2.3345  -2.3321  -2.3257  -2.3241
    -2.3220  -2.3170  10.7081  10.8569  15.4499  15.5036  15.8299  16.2216
    16.3643  16.4649  17.2069  17.3536  17.5147  17.6560  17.7957  17.8612
    17.9414  18.1184  18.2604  18.3381  18.6556  18.7748  18.9301  19.1087
    19.1299  19.6128  19.7026  19.7449  19.9438  20.0820  20.3628  20.4490
    20.6558  20.6931  21.1483  21.5925  21.7614  22.1009  22.6204  23.1090
    24.1464  24.6880  25.4294  26.5901  26.9032  27.0186  28.0986  28.5771
    28.8120  29.2683  30.1647  30.2973  30.4071  30.8575

          k = 0.2000 0.5004 0.5424 (  5080 PWs)   bands (ev):

  -101.8280-101.8197 -60.5793 -60.5763 -60.5715 -60.5685 -60.5683 -60.5674
   -45.4563 -45.4514 -45.4463 -45.4411 -45.4374 -45.4353 -16.6255 -16.6072
   -16.5995 -16.5766 -16.5517 -16.5336 -16.4514 -16.4457 -16.4230 -16.4169
   -16.3660 -16.3545 -16.3267 -16.3243 -16.2940 -16.2770 -16.2687 -16.2610
    -2.3428  -2.3424  -2.3414  -2.3382  -2.3375  -2.3369  -2.3245  -2.3237
    -2.3201  -2.3179  10.8205  10.8708  15.4135  15.4547  16.1457  16.2254
    16.5413  16.6024  17.1967  17.3040  17.5159  17.6245  17.6590  17.7066
    17.8238  17.8830  18.3949  18.5241  18.6436  18.7496  18.8704  19.2752
    19.3689  19.4725  19.6472  19.7087  19.7954  19.8885  20.3238  20.3665
    20.7310  20.8102  20.9030  21.2291  21.3842  21.4442  22.7991  23.1104
    24.1020  24.7346  25.6051  26.1441  27.9620  28.0598  28.3398  28.4733
    28.9439  29.1830  30.2563  30.5419  30.7534  30.9293

          k = 0.2000-0.4619 0.0000 (  5078 PWs)   bands (ev):

  -101.8327-101.8144 -60.5757 -60.5749 -60.5747 -60.5718 -60.5675 -60.5652
   -45.4732 -45.4570 -45.4521 -45.4343 -45.4271 -45.4243 -16.6679 -16.5702
   -16.5577 -16.5487 -16.5305 -16.5154 -16.5015 -16.4723 -16.4359 -16.3995
   -16.3837 -16.3560 -16.3482 -16.3341 -16.3037 -16.2743 -16.2566 -16.2461
    -2.3433  -2.3421  -2.3420  -2.3361  -2.3301  -2.3286  -2.3271  -2.3248
    -2.3234  -2.3180  10.5090  10.8206  15.1824  15.5687  15.9541  16.0941
    16.2320  16.4110  17.1277  17.2606  17.4364  17.6045  17.6944  17.8523
    17.9573  18.1673  18.2051  18.4993  18.8570  18.8848  19.1437  19.1810
    19.2439  19.8741  19.9436  19.9983  20.0085  20.0768  20.2622  20.3687
    20.6857  21.0558  21.5536  21.5665  21.7672  23.0444  23.1344  23.4810
    24.0785  24.7855  25.1358  25.6777  26.1165  26.9531  27.3290  28.6156
    28.6787  28.8290  29.1791  29.9181  30.0272  30.5165

          k = 0.2000-0.4619 0.1808 (  5075 PWs)   bands (ev):

  -101.8299-101.8124 -60.5775 -60.5746 -60.5725 -60.5710 -60.5676 -60.5646
   -45.4707 -45.4556 -45.4509 -45.4356 -45.4277 -45.4263 -16.6523 -16.5987
   -16.5785 -16.5571 -16.5266 -16.5053 -16.4760 -16.4634 -16.4240 -16.4223
   -16.3941 -16.3762 -16.3224 -16.3169 -16.2935 -16.2743 -16.2593 -16.2551
    -2.3433  -2.3426  -2.3420  -2.3370  -2.3313  -2.3283  -2.3269  -2.3258
    -2.3228  -2.3176  10.5581  10.8343  15.3070  15.5575  15.8568  16.1713
    16.2661  16.3847  17.2288  17.2461  17.4007  17.5364  17.7606  17.9540
    18.0730  18.1743  18.3044  18.5592  18.6631  18.7283  18.9732  19.0539
    19.1947  19.7681  19.7940  19.9072  20.0217  20.2540  20.2672  20.4571
    20.6782  21.0944  21.2368  21.6817  21.8676  22.5749  22.9914  23.4543
    24.0949  24.5055  25.2102  25.9628  26.3336  27.0269  27.9440  28.3610
    28.5654  29.2546  29.2821  29.9096  30.3763  30.6042

          k = 0.2000-0.4619 0.3616 (  5078 PWs)   bands (ev):

  -101.8358-101.8111 -60.5800 -60.5744 -60.5727 -60.5704 -60.5682 -60.5643
   -45.4654 -45.4519 -45.4482 -45.4386 -45.4328 -45.4311 -16.6252 -16.6163
   -16.6027 -16.5729 -16.5361 -16.5243 -16.4665 -16.4541 -16.4174 -16.4040
   -16.3886 -16.3733 -16.3236 -16.3023 -16.2919 -16.2757 -16.2728 -16.2545
    -2.3437  -2.3428  -2.3424  -2.3386  -2.3340  -2.3321  -2.3260  -2.3246
    -2.3219  -2.3172  10.6768  10.8613  15.4699  15.5400  15.8431  16.2673
    16.3691  16.4641  17.1748  17.3140  17.4889  17.5995  17.7836  17.8727
    17.9602  18.1707  18.2569  18.3472  18.6397  18.7710  18.9025  19.1198
    19.1759  19.6615  19.7047  19.7606  19.9527  20.0990  20.3456  20.5008
    20.6586  20.7145  21.1655  21.5297  21.7511  22.1496  22.6033  22.9769
    24.1595  24.7305  25.1821  26.7773  26.9586  27.0488  28.0109  28.4869
    28.8474  29.2839  30.1668  30.2826  30.4711  30.8302

          k = 0.2000-0.4619 0.5424 (  5069 PWs)   bands (ev):

  -101.8208-101.8102 -60.5762 -60.5741 -60.5703 -60.5687 -60.5677 -60.5662
   -45.4571 -45.4507 -45.4447 -45.4401 -45.4369 -45.4348 -16.6264 -16.6074
   -16.6017 -16.5840 -16.5508 -16.5367 -16.4506 -16.4466 -16.4176 -16.4098
   -16.3630 -16.3477 -16.3235 -16.3190 -16.2947 -16.2753 -16.2668 -16.2585
    -2.3430  -2.3426  -2.3414  -2.3386  -2.3376  -2.3368  -2.3247  -2.3238
    -2.3202  -2.3181  10.8014  10.8643  15.4378  15.4746  16.1680  16.2535
    16.5396  16.5995  17.1847  17.2750  17.4932  17.6137  17.6782  17.7136
    17.8452  17.8758  18.3990  18.5471  18.6367  18.7023  18.8368  19.2758
    19.3810  19.4788  19.7080  19.7675  19.8238  19.8935  20.3030  20.3666
    20.7645  20.8130  20.9268  21.2140  21.4148  21.4545  22.7481  22.9912
    24.0748  24.5608  25.7013  26.3149  27.9010  28.0029  28.2700  28.4919
    28.9051  29.2133  30.2587  30.5634  30.7331  30.8428

          k = 0.2000-0.2694 0.0000 (  5077 PWs)   bands (ev):

  -101.8309-101.8142 -60.5755 -60.5746 -60.5737 -60.5711 -60.5689 -60.5658
   -45.4793 -45.4527 -45.4479 -45.4367 -45.4256 -45.4251 -16.6766 -16.6157
   -16.5524 -16.5454 -16.5406 -16.5359 -16.5319 -16.4854 -16.4528 -16.4296
   -16.3460 -16.3309 -16.3204 -16.3099 -16.2733 -16.2550 -16.2499 -16.2430
    -2.3457  -2.3432  -2.3427  -2.3396  -2.3319  -2.3306  -2.3270  -2.3257
    -2.3245  -2.3211  10.2470  10.8520  15.5787  15.7637  15.8031  16.3228
    16.4633  16.5963  16.8898  17.1769  17.2557  17.4504  17.5345  17.7948
    18.0865  18.1116  18.1866  18.7113  18.7753  18.7786  18.8348  19.2729
    19.5910  19.8651  19.9051  20.0374  20.1730  20.3753  20.4025  20.4215
    21.0767  21.2302  21.5879  21.6594  22.0804  22.0853  22.7681  22.9903
    24.1168  24.2332  24.7224  26.3296  26.6582  26.9506  27.5158  28.4128
    28.6016  28.9273  29.1924  29.6561  29.8214  30.0888

          k = 0.2000-0.2694 0.1808 (  5087 PWs)   bands (ev):

  -101.8430-101.8163 -60.5812 -60.5765 -60.5745 -60.5709 -60.5684 -60.5655
   -45.4778 -45.4517 -45.4482 -45.4386 -45.4274 -45.4266 -16.6631 -16.6177
   -16.5982 -16.5803 -16.5338 -16.5198 -16.4903 -16.4850 -16.4697 -16.4134
   -16.3442 -16.3393 -16.3128 -16.3051 -16.2761 -16.2672 -16.2540 -16.2437
    -2.3458  -2.3436  -2.3435  -2.3411  -2.3317  -2.3304  -2.3282  -2.3260
    -2.3244  -2.3203  10.3108  10.8438  15.6305  15.7787  16.0373  16.1355
    16.4356  16.5186  16.9910  17.1337  17.3445  17.3709  17.5128  17.8269
    18.1284  18.2751  18.3856  18.5612  18.6608  18.7304  18.7437  19.2914
    19.5382  19.7356  19.8955  20.0794  20.1698  20.2654  20.3307  20.5521
    21.0825  21.1840  21.3690  21.4118  22.0641  22.1024  22.6102  22.7990
    24.0777  24.5450  24.6828  26.2470  26.5138  26.9944  28.1442  28.5694
    28.7324  29.1226  29.3914  29.6252  29.6500  30.5090

          k = 0.2000-0.2694 0.3616 (  5068 PWs)   bands (ev):

  -101.8319-101.7985 -60.5783 -60.5720 -60.5713 -60.5685 -60.5673 -60.5652
   -45.4722 -45.4461 -45.4454 -45.4412 -45.4303 -45.4291 -16.6406 -16.6266
   -16.6165 -16.5979 -16.5542 -16.5394 -16.4954 -16.4538 -16.4087 -16.3689
   -16.3556 -16.3506 -16.3065 -16.2948 -16.2904 -16.2755 -16.2531 -16.2455
    -2.3457  -2.3443  -2.3438  -2.3423  -2.3337  -2.3333  -2.3281  -2.3255
    -2.3233  -2.3195  10.4748  10.8259  15.6700  15.7030  16.1104  16.3818
    16.4839  16.6330  17.0254  17.0961  17.2853  17.4763  17.5910  17.8298
    17.8493  18.1562  18.2829  18.5057  18.6213  18.7638  19.0623  19.4158
    19.4960  19.6415  19.8574  19.9634  20.0861  20.1568  20.2166  20.5802
    20.6742  20.9236  21.2311  21.4191  21.7398  22.1633  22.2404  22.3687
    23.8087  24.3798  25.3191  26.6018  27.0068  27.3884  28.0465  28.3987
    29.0548  29.1541  29.9946  30.1531  30.2774  30.3909

          k = 0.2000-0.2694 0.5424 (  5058 PWs)   bands (ev):

  -101.8151-101.7998 -60.5749 -60.5713 -60.5689 -60.5677 -60.5667 -60.5658
   -45.4621 -45.4516 -45.4412 -45.4376 -45.4352 -45.4332 -16.6351 -16.6246
   -16.6146 -16.6098 -16.5813 -16.5744 -16.4531 -16.4191 -16.3937 -16.3815
   -16.3549 -16.3308 -16.3078 -16.2970 -16.2936 -16.2778 -16.2536 -16.2499
    -2.3450  -2.3443  -2.3428  -2.3416  -2.3387  -2.3382  -2.3261  -2.3246
    -2.3219  -2.3200  10.6548  10.7726  15.5505  15.6559  16.3658  16.4225
    16.4872  16.7152  17.1413  17.2364  17.4075  17.5824  17.6817  17.8033
    17.8493  17.9565  18.1178  18.1898  18.6055  18.8560  18.9348  19.4663
    19.5268  19.6323  19.8660  19.9511  20.0147  20.0821  20.1301  20.2881
    20.8976  20.9587  21.0600  21.2897  21.4830  21.5467  22.1723  22.2928
    23.7316  24.0189  26.2658  26.7199  27.2200  27.6650  28.2430  28.6216
    28.8326  29.4472  29.7789  30.3199  30.6653  30.7557

          k = 0.2000-0.0770 0.0000 (  5083 PWs)   bands (ev):

  -101.8365-101.8153 -60.5794 -60.5770 -60.5738 -60.5710 -60.5678 -60.5650
   -45.4831 -45.4506 -45.4463 -45.4381 -45.4255 -45.4247 -16.6861 -16.6430
   -16.5539 -16.5493 -16.5461 -16.5401 -16.5354 -16.4989 -16.4860 -16.4255
   -16.3444 -16.3339 -16.2819 -16.2698 -16.2597 -16.2581 -16.2530 -16.2341
    -2.3477  -2.3443  -2.3433  -2.3419  -2.3347  -2.3335  -2.3272  -2.3253
    -2.3245  -2.3243  10.0784  10.8274  15.6392  15.9293  16.1765  16.4780
    16.6555  16.6950  16.7543  16.9475  17.2287  17.2939  17.3374  17.6294
    18.1322  18.2274  18.3816  18.6146  18.6399  18.7975  18.9980  19.4553
    19.7469  19.7842  19.9093  20.1323  20.2109  20.3645  20.4497  20.5074
    21.3184  21.3285  21.4614  21.7493  21.8239  22.0542  22.4606  22.9086
    23.6778  24.2436  24.5388  26.0451  27.4594  27.4748  27.6709  28.0607
    28.3585  28.5156  29.0459  29.5180  29.8441  29.9715

          k = 0.2000-0.0770 0.1808 (  5080 PWs)   bands (ev):

  -101.8357-101.8119 -60.5800 -60.5751 -60.5719 -60.5708 -60.5682 -60.5656
   -45.4812 -45.4482 -45.4457 -45.4400 -45.4265 -45.4260 -16.6736 -16.6439
   -16.5983 -16.5909 -16.5471 -16.5243 -16.5102 -16.4808 -16.4748 -16.4113
   -16.3360 -16.3253 -16.2856 -16.2770 -16.2706 -16.2587 -16.2503 -16.2346
    -2.3476  -2.3447  -2.3445  -2.3433  -2.3345  -2.3333  -2.3267  -2.3260
    -2.3252  -2.3234  10.1522  10.8108  15.7714  16.0507  16.1556  16.2534
    16.5427  16.7169  16.9011  16.9747  17.1423  17.2526  17.4133  17.6669
    18.1808  18.3061  18.5151  18.5997  18.6433  18.7421  18.9385  19.5226
    19.6916  19.7240  19.8142  20.1694  20.1978  20.2848  20.4272  20.5743
    20.9234  21.2610  21.3990  21.5533  21.9809  22.1229  22.3818  22.5265
    23.2246  24.7697  24.9119  26.1497  26.6888  27.4466  27.9040  28.1623
    28.7692  28.9180  29.3575  29.5885  29.6674  30.3148

          k = 0.2000-0.0770 0.3616 (  5063 PWs)   bands (ev):

  -101.8285-101.7927 -60.5764 -60.5729 -60.5697 -60.5690 -60.5662 -60.5646
   -45.4760 -45.4449 -45.4426 -45.4422 -45.4288 -45.4276 -16.6534 -16.6435
   -16.6222 -16.6161 -16.5668 -16.5547 -16.5153 -16.4303 -16.4052 -16.3679
   -16.3460 -16.3282 -16.3073 -16.2778 -16.2770 -16.2604 -16.2491 -16.2358
    -2.3471  -2.3457  -2.3452  -2.3446  -2.3357  -2.3352  -2.3276  -2.3259
    -2.3246  -2.3221  10.3366  10.7681  15.6776  15.9210  16.3758  16.4097
    16.6724  16.8730  16.9279  16.9716  17.1272  17.2720  17.6032  17.6890
    17.8578  18.1145  18.1800  18.6388  18.8128  18.8597  19.3630  19.4737
    19.5970  19.7229  19.8601  20.0908  20.1188  20.2024  20.2385  20.4460
    20.6716  20.9930  21.3254  21.5793  21.6500  21.8122  21.9132  22.2663
    23.1250  24.6048  25.7152  26.3947  27.0180  27.3481  27.7697  28.5473
    28.8261  29.0474  29.6106  29.9155  30.2464  30.3802

          k = 0.2000-0.0770 0.5424 (  5055 PWs)   bands (ev):

  -101.8127-101.7975 -60.5717 -60.5710 -60.5694 -60.5686 -60.5668 -60.5655
   -45.4635 -45.4521 -45.4392 -45.4385 -45.4340 -45.4327 -16.6477 -16.6427
   -16.6254 -16.6202 -16.6066 -16.5968 -16.4589 -16.3941 -16.3894 -16.3559
   -16.3508 -16.3236 -16.3203 -16.2905 -16.2688 -16.2604 -16.2479 -16.2416
    -2.3465  -2.3457  -2.3445  -2.3438  -2.3402  -2.3400  -2.3262  -2.3247
    -2.3242  -2.3225  10.5438  10.6883  15.5508  15.7695  16.4240  16.5608
    16.6058  16.8147  17.1544  17.3569  17.4234  17.6030  17.6650  17.6916
    17.7384  17.9142  18.0498  18.4608  18.5481  18.8836  19.0931  19.5193
    19.5462  19.6649  19.8015  20.0205  20.1374  20.1465  20.2673  20.3281
    20.6843  21.1132  21.2768  21.3345  21.3512  21.5084  21.8271  22.0842
    23.3200  23.9565  26.5434  26.6091  26.8181  27.3326  28.3452  28.6169
    29.1127  29.3350  29.6044  29.7736  30.3852  30.5387

          k = 0.4000 0.2309 0.0000 (  5085 PWs)   bands (ev):

  -101.8397-101.8172 -60.5793 -60.5743 -60.5735 -60.5734 -60.5681 -60.5666
   -45.4757 -45.4582 -45.4478 -45.4379 -45.4252 -45.4251 -16.6717 -16.5855
   -16.5618 -16.5470 -16.5444 -16.5149 -16.5010 -16.4530 -16.4348 -16.4221
   -16.3695 -16.3517 -16.3395 -16.3329 -16.3307 -16.2727 -16.2486 -16.2334
    -2.3448  -2.3429  -2.3426  -2.3367  -2.3294  -2.3294  -2.3268  -2.3254
    -2.3246  -2.3174  10.4331  10.8330  15.1381  15.8287  15.8511  16.0191
    16.4082  16.5136  17.0585  17.2244  17.4239  17.4881  17.7818  17.8884
    17.9312  18.0754  18.2638  18.7198  18.7506  18.7880  19.0179  19.2717
    19.4506  19.7512  19.8641  19.9164  20.0563  20.0853  20.2937  20.3469
    20.5273  21.3520  21.5951  21.5968  22.0713  22.7505  22.8576  23.0721
    23.9813  25.0967  25.5598  26.1593  26.3086  26.6427  27.2258  27.9712
    28.3365  28.8497  28.9085  30.0875  30.2381  30.6268

          k = 0.4000 0.2309 0.1808 (  5088 PWs)   bands (ev):

  -101.8396-101.8214 -60.5787 -60.5755 -60.5735 -60.5727 -60.5682 -60.5682
   -45.4744 -45.4574 -45.4468 -45.4392 -45.4277 -45.4253 -16.6569 -16.6147
   -16.5673 -16.5672 -16.5385 -16.4949 -16.4820 -16.4571 -16.4481 -16.4171
   -16.3734 -16.3591 -16.3472 -16.3184 -16.3054 -16.2709 -16.2637 -16.2371
    -2.3447  -2.3432  -2.3430  -2.3378  -2.3307  -2.3289  -2.3278  -2.3249
    -2.3246  -2.3169  10.4864  10.8401  15.2273  15.6691  15.9348  16.1663
    16.3464  16.5507  17.0820  17.2959  17.3509  17.4311  17.7986  17.8534
    18.1199  18.2734  18.3393  18.4195  18.7324  18.7499  18.9294  19.1933
    19.4179  19.5961  19.7024  19.8110  20.1799  20.2215  20.2793  20.2794
    20.5192  21.2107  21.5164  21.6430  22.2418  22.3114  22.8954  22.9236
    24.1142  24.5786  25.5009  26.4547  26.4722  27.1605  27.2215  28.2250
    28.3491  29.0190  29.0490  29.8352  30.6488  30.7134

          k = 0.4000 0.2309 0.3616 (  5084 PWs)   bands (ev):

  -101.8385-101.8155 -60.5804 -60.5742 -60.5715 -60.5708 -60.5696 -60.5679
   -45.4672 -45.4535 -45.4444 -45.4419 -45.4325 -45.4298 -16.6425 -16.6286
   -16.5924 -16.5804 -16.5443 -16.5123 -16.4720 -16.4686 -16.4285 -16.3827
   -16.3722 -16.3630 -16.3460 -16.2970 -16.2933 -16.2797 -16.2640 -16.2434
    -2.3446  -2.3437  -2.3432  -2.3392  -2.3336  -2.3325  -2.3278  -2.3242
    -2.3225  -2.3165  10.6210  10.8536  15.3873  15.4949  16.1730  16.2148
    16.3905  16.6771  17.0541  17.2096  17.4999  17.5516  17.7009  17.8282
    17.9286  18.2099  18.4064  18.5005  18.6878  18.7735  18.8110  19.2273
    19.3524  19.5451  19.5763  19.6420  20.0353  20.0490  20.3786  20.4471
    20.5384  20.6218  21.2018  21.7499  21.7896  22.3349  22.5595  23.0674
    23.2073  25.0144  25.7783  26.7583  27.1340  27.4000  27.4130  27.9944
    28.5735  29.1750  30.0397  30.3864  30.4136  30.8539

          k = 0.4000 0.2309 0.5424 (  5068 PWs)   bands (ev):

  -101.8224-101.8070 -60.5774 -60.5753 -60.5697 -60.5685 -60.5666 -60.5654
   -45.4580 -45.4511 -45.4429 -45.4397 -45.4382 -45.4340 -16.6425 -16.6293
   -16.5898 -16.5675 -16.5579 -16.5469 -16.4513 -16.4392 -16.4211 -16.4061
   -16.3657 -16.3596 -16.3155 -16.3025 -16.2994 -16.2731 -16.2600 -16.2499
    -2.3440  -2.3435  -2.3422  -2.3389  -2.3380  -2.3368  -2.3262  -2.3248
    -2.3196  -2.3172  10.7621  10.8420  15.3851  15.4660  16.3107  16.3452
    16.5129  16.7649  17.0274  17.1735  17.5125  17.6689  17.7409  17.7476
    17.9044  17.9430  18.3431  18.4244  18.6259  18.7549  18.9432  19.3277
    19.3952  19.4959  19.6018  19.6328  19.7967  19.9476  20.2670  20.3414
    20.7671  20.7952  20.9397  21.2704  21.5233  21.9050  22.2820  22.4295
    24.0582  25.0655  26.1015  26.9636  27.0453  27.1792  28.3039  28.6667
    28.7571  29.1333  30.0346  30.5099  30.9091  30.9812

          k = 0.4000 0.4234 0.0000 (  5078 PWs)   bands (ev):

  -101.8274-101.8204 -60.5760 -60.5744 -60.5744 -60.5700 -60.5686 -60.5666
   -45.4713 -45.4597 -45.4519 -45.4345 -45.4268 -45.4240 -16.6639 -16.5658
   -16.5581 -16.5474 -16.5391 -16.5076 -16.4853 -16.4726 -16.4254 -16.4059
   -16.3786 -16.3672 -16.3500 -16.3369 -16.3252 -16.2792 -16.2507 -16.2461
    -2.3432  -2.3420  -2.3418  -2.3349  -2.3312  -2.3283  -2.3252  -2.3248
    -2.3241  -2.3173  10.5760  10.7898  15.0804  15.6683  15.7616  16.2237
    16.2789  16.2946  17.1199  17.2653  17.5392  17.6363  17.7052  17.7994
    17.9779  18.1824  18.1978  18.5726  18.8405  18.8994  19.0543  19.2134
    19.3611  19.7291  19.9055  19.9979  20.0288  20.0462  20.2358  20.3095
    20.4613  21.1230  21.5553  21.5824  21.7772  23.0178  23.5494  23.5588
    23.7567  24.9550  25.2851  25.5863  26.3118  26.8027  27.4190  28.1918
    28.6580  28.8255  28.8765  29.9443  30.2581  31.0597

          k = 0.4000 0.4234 0.1808 (  5071 PWs)   bands (ev):

  -101.8249-101.8123 -60.5774 -60.5734 -60.5725 -60.5694 -60.5673 -60.5651
   -45.4694 -45.4580 -45.4501 -45.4355 -45.4270 -45.4259 -16.6499 -16.6033
   -16.5675 -16.5472 -16.5405 -16.4893 -16.4766 -16.4418 -16.4310 -16.4107
   -16.4053 -16.3901 -16.3306 -16.3150 -16.3012 -16.2809 -16.2583 -16.2512
    -2.3430  -2.3427  -2.3420  -2.3356  -2.3322  -2.3280  -2.3265  -2.3243
    -2.3237  -2.3169  10.6195  10.8117  15.1966  15.6223  15.7269  16.2510
    16.2768  16.3487  17.2352  17.2467  17.4988  17.5692  17.7943  17.8511
    18.1181  18.1738  18.3251  18.4966  18.7334  18.7512  19.0264  19.0544
    19.1710  19.6468  19.7565  19.8393  20.0660  20.2477  20.2856  20.3545
    20.4552  21.1897  21.2173  21.7230  21.9091  22.8086  22.8972  23.6424
    23.8841  24.4614  25.5077  26.1292  26.4471  26.8444  27.9073  28.0471
    28.6065  28.9747  29.1357  30.1106  30.5603  30.7147

          k = 0.4000 0.4234 0.3616 (  5075 PWs)   bands (ev):

  -101.8272-101.8146 -60.5776 -60.5751 -60.5730 -60.5701 -60.5680 -60.5640
   -45.4627 -45.4554 -45.4476 -45.4375 -45.4335 -45.4302 -16.6274 -16.6164
   -16.5945 -16.5640 -16.5354 -16.5131 -16.4619 -16.4403 -16.4263 -16.4125
   -16.3904 -16.3796 -16.3370 -16.2991 -16.2929 -16.2795 -16.2725 -16.2531
    -2.3431  -2.3430  -2.3422  -2.3373  -2.3349  -2.3319  -2.3258  -2.3236
    -2.3221  -2.3164  10.7242  10.8529  15.4097  15.4449  15.8884  16.2393
    16.3460  16.4938  17.1939  17.3555  17.5599  17.7109  17.7648  17.8670
    17.8970  18.0662  18.3295  18.3688  18.7059  18.7795  18.9146  19.1079
    19.1513  19.5102  19.6630  19.6810  19.9566  20.0716  20.3828  20.3965
    20.5982  20.6769  21.1868  21.6550  21.8119  22.1104  22.5688  23.3059
    23.8765  24.6556  26.0057  26.3440  26.9124  27.0635  28.0301  28.3172
    28.8945  29.0612  30.1901  30.2671  30.4347  31.0138

          k = 0.4000 0.4234 0.5424 (  5077 PWs)   bands (ev):

  -101.8255-101.8181 -60.5790 -60.5781 -60.5697 -60.5688 -60.5678 -60.5660
   -45.4539 -45.4523 -45.4459 -45.4411 -45.4386 -45.4351 -16.6304 -16.6120
   -16.5927 -16.5645 -16.5536 -16.5299 -16.4524 -16.4451 -16.4253 -16.4234
   -16.3655 -16.3633 -16.3233 -16.3216 -16.2939 -16.2753 -16.2663 -16.2595
    -2.3428  -2.3425  -2.3414  -2.3379  -2.3376  -2.3369  -2.3248  -2.3239
    -2.3196  -2.3174  10.8300  10.8724  15.3750  15.4291  16.1724  16.2389
    16.5320  16.6280  17.1656  17.2929  17.5536  17.6303  17.6807  17.7072
    17.8174  17.9122  18.4166  18.5049  18.6467  18.7664  18.9088  19.3097
    19.3823  19.4329  19.5575  19.6020  19.7622  19.8901  20.3364  20.3521
    20.7259  20.7852  20.8901  21.3260  21.3637  21.4979  22.7218  23.0559
    24.1563  25.0249  25.6274  26.0806  27.9251  27.9847  28.3091  28.3782
    28.9667  29.0507  30.4150  30.5316  30.7643  31.0187

          k = 0.4000 0.6158 0.0000 (  5071 PWs)   bands (ev):

  -101.8215-101.8157 -60.5760 -60.5742 -60.5734 -60.5693 -60.5677 -60.5636
   -45.4692 -45.4570 -45.4546 -45.4328 -45.4289 -45.4235 -16.6621 -16.5553
   -16.5547 -16.5525 -16.5181 -16.5046 -16.4972 -16.4844 -16.4298 -16.4190
   -16.3650 -16.3591 -16.3461 -16.3417 -16.3057 -16.2822 -16.2675 -16.2440
    -2.3421  -2.3416  -2.3415  -2.3342  -2.3320  -2.3280  -2.3249  -2.3245
    -2.3231  -2.3183  10.6371  10.7633  15.1008  15.6074  15.7828  16.1053
    16.2461  16.3382  17.0365  17.4210  17.5182  17.5928  17.7037  17.9244
    18.0177  18.1059  18.1102  18.4880  18.8730  18.9364  18.9527  19.2829
    19.3549  19.8366  19.9981  20.0248  20.0387  20.0749  20.1861  20.3101
    20.6036  20.8625  21.5366  21.5411  21.5809  23.2838  23.6669  23.9305
    23.9518  24.6333  24.8158  25.2297  26.3765  26.8295  27.5146  28.5856
    28.7919  28.9914  29.1810  29.5888  30.1347  30.7986

          k = 0.4000 0.6158 0.1808 (  5066 PWs)   bands (ev):

  -101.8199-101.8097 -60.5744 -60.5731 -60.5721 -60.5698 -60.5677 -60.5641
   -45.4673 -45.4556 -45.4535 -45.4327 -45.4286 -45.4264 -16.6494 -16.5891
   -16.5763 -16.5438 -16.5239 -16.5046 -16.4655 -16.4526 -16.4283 -16.4192
   -16.4014 -16.3930 -16.3159 -16.3106 -16.2990 -16.2841 -16.2685 -16.2550
    -2.3423  -2.3420  -2.3415  -2.3351  -2.3329  -2.3279  -2.3261  -2.3241
    -2.3227  -2.3179  10.6750  10.7888  15.2476  15.5900  15.7136  16.0862
    16.2738  16.3322  17.2082  17.3973  17.5055  17.6055  17.7958  17.8506
    17.9957  18.2467  18.3306  18.4902  18.6497  18.7215  18.8838  19.0844
    19.1985  19.7605  19.8608  19.9360  19.9837  20.2670  20.2844  20.3846
    20.6290  20.9270  21.1928  21.6832  21.7226  22.9735  23.2086  23.5064
    23.8570  24.8102  25.2552  25.6672  26.3205  26.7218  28.2277  28.4963
    28.7385  29.1075  29.4469  29.8603  30.1722  30.6805

          k = 0.4000 0.6158 0.3616 (  5090 PWs)   bands (ev):

  -101.8371-101.8289 -60.5791 -60.5775 -60.5762 -60.5708 -60.5692 -60.5660
   -45.4619 -45.4545 -45.4521 -45.4368 -45.4336 -45.4332 -16.6178 -16.6126
   -16.6043 -16.5588 -16.5402 -16.5303 -16.4483 -16.4369 -16.4247 -16.4162
   -16.4058 -16.3900 -16.3277 -16.2997 -16.2922 -16.2842 -16.2746 -16.2644
    -2.3430  -2.3423  -2.3419  -2.3369  -2.3354  -2.3320  -2.3248  -2.3233
    -2.3221  -2.3177  10.7647  10.8406  15.4988  15.5191  15.7103  16.0875
    16.3830  16.4276  17.3315  17.4257  17.5493  17.7244  17.7657  17.8458
    17.8596  18.1609  18.2130  18.2490  18.6588  18.7147  18.8588  19.1289
    19.1886  19.6177  19.7832  19.7953  19.9003  20.0585  20.3613  20.3986
    20.6982  20.7480  21.0085  21.6649  21.7362  21.9578  22.7774  23.0472
    24.5671  24.7485  25.3591  26.0079  26.8767  26.9184  28.5373  28.9277
    28.9757  29.3448  30.1267  30.1789  30.3627  30.8017

          k = 0.4000 0.6158 0.5424 (  5076 PWs)   bands (ev):

  -101.8258-101.8161 -60.5776 -60.5761 -60.5737 -60.5678 -60.5669 -60.5664
   -45.4535 -45.4509 -45.4478 -45.4411 -45.4369 -45.4363 -16.6138 -16.6035
   -16.5947 -16.5748 -16.5546 -16.5334 -16.4454 -16.4415 -16.4281 -16.4213
   -16.3658 -16.3572 -16.3360 -16.3236 -16.2900 -16.2819 -16.2667 -16.2639
    -2.3421  -2.3419  -2.3412  -2.3377  -2.3372  -2.3370  -2.3232  -2.3228
    -2.3207  -2.3186  10.8538  10.8800  15.4306  15.4504  16.0709  16.1361
    16.5570  16.5781  17.3116  17.3948  17.5389  17.5825  17.6208  17.6350
    17.7903  17.8548  18.3566  18.4541  18.6483  18.8518  18.8974  19.3059
    19.3729  19.4863  19.6402  19.6695  19.8189  19.8721  20.3487  20.3681
    20.6758  20.8463  20.8967  21.0982  21.3312  21.3700  23.0729  23.3278
    24.2399  24.6449  25.3921  25.7761  28.0681  28.0952  28.6745  28.7833
    29.0849  29.2452  30.0307  30.2343  30.8188  31.0692

          k = 0.4000-0.3464 0.0000 (  5079 PWs)   bands (ev):

  -101.8300-101.8189 -60.5764 -60.5762 -60.5744 -60.5703 -60.5672 -60.5663
   -45.4724 -45.4602 -45.4499 -45.4360 -45.4260 -45.4239 -16.6642 -16.5767
   -16.5596 -16.5490 -16.5462 -16.5074 -16.4885 -16.4647 -16.4222 -16.4013
   -16.3830 -16.3646 -16.3518 -16.3361 -16.3308 -16.2745 -16.2460 -16.2395
    -2.3440  -2.3424  -2.3423  -2.3355  -2.3305  -2.3285  -2.3260  -2.3247
    -2.3246  -2.3169  10.5192  10.8102  15.0799  15.7087  15.8089  16.1400
    16.3294  16.4070  17.1675  17.1797  17.4783  17.6239  17.6914  17.8824
    17.9552  18.1185  18.2349  18.6891  18.7646  18.8441  19.1436  19.2467
    19.3261  19.7220  19.8008  19.9191  20.0436  20.0703  20.2857  20.3017
    20.4482  21.2654  21.5714  21.5990  21.9462  22.8450  23.2645  23.2918
    23.8243  25.1771  25.6053  25.8657  26.2510  26.6679  27.2562  28.1341
    28.4596  28.6364  28.8375  30.1469  30.4979  30.6560

          k = 0.4000-0.3464 0.1808 (  5074 PWs)   bands (ev):

  -101.8248-101.8159 -60.5746 -60.5740 -60.5727 -60.5710 -60.5677 -60.5670
   -45.4705 -45.4583 -45.4477 -45.4373 -45.4272 -45.4256 -16.6529 -16.6090
   -16.5645 -16.5559 -16.5376 -16.4937 -16.4780 -16.4469 -16.4275 -16.4195
   -16.3913 -16.3822 -16.3407 -16.3183 -16.3022 -16.2719 -16.2599 -16.2422
    -2.3439  -2.3428  -2.3424  -2.3364  -2.3317  -2.3281  -2.3271  -2.3248
    -2.3238  -2.3165  10.5677  10.8262  15.1814  15.6067  15.8343  16.2183
    16.3305  16.4450  17.1664  17.2669  17.4122  17.5322  17.7894  17.9095
    18.0829  18.2222  18.3216  18.4568  18.7450  18.8184  19.0096  19.1084
    19.2492  19.6187  19.6744  19.7562  20.1203  20.2285  20.2649  20.3296
    20.4371  21.2006  21.3833  21.7200  22.0731  22.5796  22.8549  23.3632
    23.9636  24.5195  25.6561  26.3484  26.5527  26.8469  27.7129  27.8483
    28.4306  28.9685  29.0469  30.0338  30.6219  30.8384

          k = 0.4000-0.3464 0.3616 (  5081 PWs)   bands (ev):

  -101.8342-101.8158 -60.5799 -60.5737 -60.5725 -60.5697 -60.5691 -60.5672
   -45.4641 -45.4550 -45.4458 -45.4400 -45.4336 -45.4298 -16.6367 -16.6220
   -16.5910 -16.5715 -16.5352 -16.5085 -16.4739 -16.4516 -16.4311 -16.4009
   -16.3824 -16.3769 -16.3402 -16.2987 -16.2931 -16.2790 -16.2672 -16.2466
    -2.3439  -2.3433  -2.3426  -2.3380  -2.3344  -2.3321  -2.3268  -2.3241
    -2.3220  -2.3160  10.6834  10.8558  15.3712  15.4327  16.0203  16.2959
    16.3368  16.5739  17.1306  17.2771  17.5476  17.6308  17.7577  17.8580
    17.9308  18.0957  18.3887  18.4676  18.7153  18.8206  18.8722  19.1075
    19.2279  19.4800  19.5764  19.6090  19.9884  20.0684  20.3802  20.4195
    20.5444  20.6403  21.2284  21.6945  21.8357  22.3118  22.4647  23.3420
    23.4304  24.7876  26.0258  26.7880  26.9904  27.2128  27.6465  27.9270
    28.6990  29.0334  30.1481  30.2968  30.4597  31.0966

          k = 0.4000-0.3464 0.5424 (  5079 PWs)   bands (ev):

  -101.8236-101.8231 -60.5785 -60.5778 -60.5709 -60.5696 -60.5673 -60.5666
   -45.4564 -45.4524 -45.4450 -45.4410 -45.4381 -45.4347 -16.6394 -16.6229
   -16.5883 -16.5634 -16.5534 -16.5323 -16.4519 -16.4481 -16.4276 -16.4186
   -16.3692 -16.3603 -16.3217 -16.3125 -16.2969 -16.2724 -16.2650 -16.2574
    -2.3434  -2.3430  -2.3417  -2.3382  -2.3378  -2.3368  -2.3257  -2.3247
    -2.3193  -2.3170  10.8030  10.8617  15.3557  15.4241  16.2536  16.3054
    16.5160  16.6858  17.0934  17.2216  17.5481  17.6449  17.7016  17.7437
    17.8797  17.9335  18.4299  18.5229  18.6768  18.6978  18.9087  19.2763
    19.3899  19.4347  19.5444  19.5792  19.7534  19.8981  20.3092  20.3464
    20.7537  20.7702  20.9077  21.3199  21.4736  21.6791  22.5324  22.6937
    24.1889  25.1629  25.8261  26.4524  27.5217  27.5912  28.2867  28.4492
    28.8264  29.0267  30.3573  30.6399  30.7853  30.9324

          k = 0.4000-0.1540 0.0000 (  5078 PWs)   bands (ev):

  -101.8332-101.8136 -60.5758 -60.5736 -60.5735 -60.5734 -60.5675 -60.5663
   -45.4760 -45.4565 -45.4480 -45.4370 -45.4257 -45.4246 -16.6694 -16.5940
   -16.5577 -16.5451 -16.5443 -16.5200 -16.5091 -16.4599 -16.4406 -16.4275
   -16.3558 -16.3486 -16.3334 -16.3323 -16.3087 -16.2695 -16.2474 -16.2370
    -2.3448  -2.3429  -2.3425  -2.3375  -2.3300  -2.3286  -2.3277  -2.3252
    -2.3246  -2.3183  10.3891  10.8434  15.2247  15.7913  15.9600  15.9685
    16.4634  16.4930  17.0333  17.2239  17.3704  17.4639  17.8061  17.8272
    17.9217  18.1080  18.2365  18.7203  18.7480  18.7868  18.9587  19.2425
    19.4687  19.8071  19.9046  20.0393  20.0633  20.1053  20.3217  20.3621
    20.6643  21.2989  21.5994  21.6067  22.0394  22.6585  22.8110  23.0385
    24.0916  24.8289  25.2555  26.2319  26.3645  26.6738  27.3623  28.1881
    28.3798  28.8200  29.1833  29.8619  30.1770  30.4289

          k = 0.4000-0.1540 0.1808 (  5082 PWs)   bands (ev):

  -101.8387-101.8135 -60.5785 -60.5750 -60.5729 -60.5720 -60.5679 -60.5663
   -45.4752 -45.4554 -45.4468 -45.4383 -45.4272 -45.4260 -16.6576 -16.6114
   -16.5749 -16.5703 -16.5366 -16.4979 -16.4871 -16.4678 -16.4523 -16.4140
   -16.3626 -16.3562 -16.3339 -16.3120 -16.2993 -16.2690 -16.2640 -16.2396
    -2.3448  -2.3432  -2.3430  -2.3386  -2.3302  -2.3294  -2.3282  -2.3254
    -2.3242  -2.3178  10.4451  10.8474  15.3105  15.7211  15.9482  16.1410
    16.3576  16.5329  17.0623  17.2738  17.3539  17.3844  17.7637  17.8583
    18.0895  18.2995  18.3389  18.4702  18.6752  18.7348  18.8745  19.1830
    19.4316  19.6565  19.7695  19.9537  20.1564  20.2230  20.2623  20.3731
    20.6552  21.2013  21.4479  21.6320  22.1300  22.3060  22.7428  22.9996
    24.2146  24.5249  25.1762  26.2876  26.5693  26.9134  27.7651  28.3252
    28.3436  29.1476  29.1855  29.7647  30.4558  30.6431

          k = 0.4000-0.1540 0.3616 (  5080 PWs)   bands (ev):

  -101.8348-101.8132 -60.5805 -60.5733 -60.5713 -60.5697 -60.5692 -60.5673
   -45.4691 -45.4521 -45.4442 -45.4413 -45.4324 -45.4287 -16.6405 -16.6265
   -16.5965 -16.5820 -16.5500 -16.5194 -16.4757 -16.4667 -16.4243 -16.3785
   -16.3672 -16.3571 -16.3355 -16.2974 -16.2942 -16.2779 -16.2665 -16.2456
    -2.3448  -2.3439  -2.3433  -2.3399  -2.3334  -2.3326  -2.3280  -2.3244
    -2.3228  -2.3172  10.5865  10.8511  15.4493  15.5675  16.1016  16.2798
    16.4067  16.6550  17.0402  17.1933  17.4473  17.5052  17.6985  17.8438
    17.9115  18.2295  18.3511  18.4853  18.6629  18.7306  18.8415  19.2702
    19.3854  19.5922  19.6618  19.7771  20.0249  20.0940  20.3568  20.4665
    20.5767  20.6911  21.1826  21.6491  21.7788  22.2991  22.4426  22.9614
    23.3437  25.0692  25.3625  26.7248  27.0988  27.3886  27.5853  28.2045
    28.6940  29.2884  30.0587  30.3187  30.4292  30.6254

          k = 0.4000-0.1540 0.5424 (  5062 PWs)   bands (ev):

  -101.8189-101.8014 -60.5759 -60.5727 -60.5700 -60.5683 -60.5674 -60.5641
   -45.4594 -45.4508 -45.4423 -45.4386 -45.4376 -45.4333 -16.6417 -16.6263
   -16.5954 -16.5791 -16.5607 -16.5538 -16.4500 -16.4346 -16.4092 -16.4007
   -16.3612 -16.3508 -16.3128 -16.3049 -16.2968 -16.2750 -16.2602 -16.2505
    -2.3442  -2.3437  -2.3422  -2.3395  -2.3382  -2.3369  -2.3261  -2.3245
    -2.3202  -2.3179  10.7388  10.8288  15.4372  15.5164  16.3104  16.3457
    16.5118  16.7432  17.0435  17.1961  17.4786  17.6265  17.7422  17.7861
    17.8741  17.9250  18.2740  18.3872  18.6146  18.7684  18.9200  19.3725
    19.4125  19.5392  19.7041  19.7165  19.8677  19.9826  20.2422  20.3382
    20.8000  20.8175  20.9536  21.2546  21.4999  21.7809  22.3247  22.4608
    23.9028  24.7629  26.1299  26.7984  27.2692  27.3327  28.2635  28.6572
    28.8621  29.2743  29.8844  30.4767  30.7913  30.9391

          k = 0.4000 0.0385 0.0000 (  5079 PWs)   bands (ev):

  -101.8445-101.8034 -60.5773 -60.5765 -60.5734 -60.5732 -60.5655 -60.5650
   -45.4783 -45.4539 -45.4489 -45.4353 -45.4267 -45.4248 -16.6705 -16.5950
   -16.5549 -16.5465 -16.5367 -16.5268 -16.5218 -16.4747 -16.4380 -16.4327
   -16.3479 -16.3441 -16.3340 -16.3323 -16.2846 -16.2614 -16.2507 -16.2481
    -2.3446  -2.3427  -2.3424  -2.3383  -2.3303  -2.3293  -2.3280  -2.3246
    -2.3246  -2.3193  10.3497  10.8528  15.3982  15.6300  15.9136  16.1952
    16.3454  16.5187  17.0429  17.2075  17.2841  17.5483  17.6665  17.8664
    17.9113  18.1282  18.1896  18.6829  18.7734  18.8325  18.9108  19.2094
    19.4648  19.8902  19.9396  20.0095  20.1373  20.1569  20.3523  20.4184
    20.9404  21.1560  21.5517  21.6152  21.9688  22.5025  22.9387  23.0512
    24.1992  24.6007  24.8018  26.2358  26.4893  26.6009  27.4234  28.4937
    28.7262  29.0437  29.4102  29.6651  29.8416  30.0716

          k = 0.4000 0.0385 0.1808 (  5082 PWs)   bands (ev):

  -101.8341-101.8177 -60.5779 -60.5753 -60.5731 -60.5727 -60.5681 -60.5658
   -45.4748 -45.4538 -45.4494 -45.4370 -45.4270 -45.4267 -16.6571 -16.6055
   -16.5940 -16.5720 -16.5266 -16.5125 -16.4842 -16.4793 -16.4535 -16.4164
   -16.3590 -16.3538 -16.3200 -16.3143 -16.2838 -16.2632 -16.2614 -16.2493
    -2.3447  -2.3431  -2.3429  -2.3394  -2.3302  -2.3293  -2.3290  -2.3260
    -2.3236  -2.3189  10.4118  10.8504  15.4968  15.6312  16.0315  16.0968
    16.3674  16.4529  17.0662  17.2281  17.3350  17.4484  17.6383  17.8984
    18.0497  18.2891  18.3861  18.5508  18.6024  18.7083  18.8479  19.1240
    19.4323  19.7533  19.9164  20.0341  20.0465  20.2236  20.2717  20.5400
    20.9318  21.1362  21.3342  21.5532  22.0062  22.2246  22.7439  23.0871
    24.3369  24.5167  24.6944  26.1199  26.7001  26.7381  28.1463  28.3554
    28.7369  29.3475  29.4008  29.7048  29.7420  30.5669

          k = 0.4000 0.0385 0.3616 (  5063 PWs)   bands (ev):

  -101.8260-101.7976 -60.5787 -60.5724 -60.5693 -60.5682 -60.5667 -60.5638
   -45.4696 -45.4482 -45.4458 -45.4394 -45.4307 -45.4291 -16.6325 -16.6196
   -16.6107 -16.5862 -16.5429 -16.5312 -16.4779 -16.4627 -16.4121 -16.3755
   -16.3712 -16.3570 -16.3111 -16.3006 -16.2935 -16.2735 -16.2595 -16.2498
    -2.3448  -2.3435  -2.3432  -2.3408  -2.3333  -2.3326  -2.3277  -2.3252
    -2.3224  -2.3182  10.5596  10.8501  15.5663  15.6501  15.9733  16.3756
    16.4342  16.5136  17.0699  17.1853  17.3891  17.4847  17.6924  17.8650
    17.8797  18.2210  18.3580  18.3999  18.6098  18.7601  18.8581  19.2923
    19.4063  19.6493  19.8078  19.8523  20.0173  20.1610  20.2496  20.6088
    20.6338  20.8307  21.2388  21.3959  21.7499  22.2632  22.4019  22.5794
    24.0084  24.5223  25.1381  26.7295  27.0476  27.3780  27.9938  28.2873
    28.9289  29.1843  30.1872  30.3312  30.4360  30.5543

          k = 0.4000 0.0385 0.5424 (  5064 PWs)   bands (ev):

  -101.8144-101.8094 -60.5746 -60.5740 -60.5702 -60.5690 -60.5663 -60.5656
[...]
    21.3367  21.4260  21.9494  22.4709  22.6176  22.9001  23.4375  24.1781
    24.7293  25.5215  26.9499  27.2802  27.7546  27.9103  28.9778  29.2457
    29.8312  30.0524  30.9794  31.1464  31.2991  31.8296

          k = 0.4054 0.4291 0.5426 (  4935 PWs)   bands (ev):

  -101.0537-101.0434 -59.8102 -59.8088 -59.8069 -59.8043 -59.8033 -59.8030
   -44.7398 -44.7355 -44.7284 -44.7255 -44.7183 -44.7159 -15.9429 -15.9268
   -15.8981 -15.8677 -15.8587 -15.8376 -15.7429 -15.7306 -15.7173 -15.7098
   -15.6515 -15.6450 -15.6088 -15.6052 -15.5781 -15.5567 -15.5441 -15.5353
    -1.5951  -1.5948  -1.5929  -1.5886  -1.5882  -1.5873  -1.5795  -1.5787
    -1.5729  -1.5707  11.4897  11.5363  15.9529  16.0114  16.7517  16.8149
    17.1494  17.2440  17.7453  17.8747  18.1470  18.2288  18.2966  18.3180
    18.4302  18.5313  19.0297  19.1618  19.2560  19.4213  19.5905  20.0373
    20.0956  20.1541  20.2963  20.3420  20.5020  20.6314  21.0915  21.1003
    21.4742  21.5490  21.6651  22.1088  22.1559  22.3209  23.5857  23.9096
    25.0316  25.9038  26.5403  26.9916  28.8593  28.9051  29.2074  29.2532
    29.9492  30.0151  31.2994  31.3949  31.6018  31.8735

          k = 0.4054 0.6242 0.0000 (  4946 PWs)   bands (ev):

  -101.0631-101.0555 -59.8113 -59.8104 -59.8095 -59.8071 -59.8056 -59.8011
   -44.7600 -44.7431 -44.7389 -44.7113 -44.7083 -44.7071 -15.9695 -15.8598
   -15.8495 -15.8436 -15.8222 -15.8196 -15.7963 -15.7934 -15.7452 -15.7180
   -15.6640 -15.6572 -15.6200 -15.6118 -15.5954 -15.5600 -15.5513 -15.5125
    -1.5939  -1.5931  -1.5930  -1.5846  -1.5834  -1.5819  -1.5793  -1.5779
    -1.5739  -1.5725  11.2930  11.4261  15.6776  16.1905  16.3705  16.6817
    16.8755  16.9648  17.6541  18.0272  18.1288  18.1896  18.2917  18.5706
    18.7020  18.7539  18.7776  19.1380  19.4887  19.5874  19.6233  19.9419
    20.0301  20.5354  20.7048  20.7516  20.7531  20.8142  20.8835  21.0081
    21.3042  21.5974  22.3148  22.3657  22.4112  24.1846  24.4903  24.7774
    24.8175  25.4788  25.6783  25.9650  27.3113  27.7991  28.3834  29.5409
    29.7776  29.8422  30.1540  30.4434  31.0850  31.7471

          k = 0.4054 0.6242 0.1809 (  4949 PWs)   bands (ev):

  -101.0666-101.0565 -59.8122 -59.8110 -59.8092 -59.8071 -59.8056 -59.8022
   -44.7569 -44.7419 -44.7379 -44.7132 -44.7107 -44.7090 -15.9566 -15.8968
   -15.8812 -15.8522 -15.8301 -15.8065 -15.7695 -15.7559 -15.7371 -15.7235
   -15.6911 -15.6826 -15.6032 -15.5934 -15.5808 -15.5566 -15.5506 -15.5270
    -1.5940  -1.5936  -1.5932  -1.5858  -1.5834  -1.5826  -1.5788  -1.5774
    -1.5757  -1.5720  11.3330  11.4497  15.8242  16.1725  16.3021  16.6593
    16.8988  16.9498  17.8192  18.0091  18.1379  18.2172  18.3937  18.4684
    18.6322  18.8865  19.0000  19.1507  19.2901  19.3670  19.4994  19.7636
    19.8953  20.4668  20.5885  20.6492  20.7169  20.9743  21.0114  21.0906
    21.3444  21.6738  21.9605  22.5069  22.5456  23.7809  24.0576  24.3613
    24.7482  25.6474  26.1187  26.5246  27.1964  27.6604  29.0959  29.4128
    29.6749  30.1023  30.3802  30.7815  31.0772  31.5149

          k = 0.4054 0.6242 0.3617 (  4953 PWs)   bands (ev):

  -101.0668-101.0599 -59.8135 -59.8119 -59.8098 -59.8065 -59.8051 -59.8031
   -44.7490 -44.7384 -44.7350 -44.7176 -44.7161 -44.7141 -15.9253 -15.9177
   -15.9120 -15.8660 -15.8459 -15.8353 -15.7461 -15.7327 -15.7187 -15.7043
   -15.6961 -15.6761 -15.6166 -15.5788 -15.5678 -15.5630 -15.5527 -15.5434
    -1.5945  -1.5939  -1.5935  -1.5877  -1.5856  -1.5836  -1.5786  -1.5777
    -1.5760  -1.5713  11.4266  11.5044  16.0808  16.1034  16.2942  16.6532
    16.9974  17.0394  17.9380  18.0580  18.1369  18.3308  18.3985  18.4593
    18.4798  18.7710  18.8262  18.8602  19.3139  19.3808  19.4695  19.8587
    19.9194  20.3461  20.5145  20.5252  20.6401  20.7734  21.1013  21.1304
    21.4392  21.4982  21.7716  22.4625  22.5434  22.7399  23.6456  23.9141
    25.4549  25.6373  26.2729  26.9376  27.6933  27.7276  29.5042  29.8883
    29.9457  30.3715  30.9364  31.1043  31.2355  31.5371

          k = 0.4054 0.6242 0.5426 (  4938 PWs)   bands (ev):

  -101.0542-101.0476 -59.8094 -59.8089 -59.8079 -59.8056 -59.8038 -59.8027
   -44.7388 -44.7340 -44.7317 -44.7251 -44.7181 -44.7167 -15.9263 -15.9105
   -15.9019 -15.8826 -15.8600 -15.8420 -15.7344 -15.7261 -15.7239 -15.7097
   -15.6461 -15.6389 -15.6228 -15.6111 -15.5739 -15.5634 -15.5461 -15.5428
    -1.5940  -1.5937  -1.5924  -1.5886  -1.5881  -1.5875  -1.5779  -1.5774
    -1.5743  -1.5721  11.5172  11.5443  16.0188  16.0396  16.6390  16.6967
    17.1710  17.1930  17.9016  18.0014  18.1334  18.1891  18.2162  18.2444
    18.3926  18.4628  18.9533  19.1138  19.2489  19.5302  19.5816  19.9989
    20.0994  20.2090  20.3818  20.4172  20.5695  20.6203  21.1023  21.1177
    21.4201  21.6169  21.6693  21.8621  22.1339  22.1824  23.9393  24.1971
    25.1106  25.5184  26.3007  26.6878  28.9099  28.9336  29.6233  29.7573
    30.0777  30.2208  30.9690  31.1339  31.7194  31.9527

          k = 0.4054-0.3511 0.0000 (  4947 PWs)   bands (ev):

  -101.0670-101.0542 -59.8128 -59.8110 -59.8108 -59.8076 -59.8030 -59.8010
   -44.7615 -44.7451 -44.7337 -44.7167 -44.7065 -44.7059 -15.9717 -15.8952
   -15.8554 -15.8546 -15.8407 -15.8098 -15.7924 -15.7657 -15.7319 -15.6992
   -15.6858 -15.6609 -15.6262 -15.6201 -15.6106 -15.5435 -15.5141 -15.5126
    -1.5968  -1.5948  -1.5936  -1.5862  -1.5834  -1.5807  -1.5803  -1.5794
    -1.5738  -1.5706  11.1701  11.4717  15.6467  16.2915  16.4036  16.7561
    16.9509  17.0128  17.7466  17.8266  18.0765  18.2546  18.2694  18.5121
    18.6619  18.7498  18.8917  19.3754  19.3980  19.5258  19.8198  19.8745
    19.9904  20.3810  20.5253  20.6399  20.7384  20.7763  21.0241  21.0286
    21.1263  22.0540  22.3494  22.4237  22.7992  23.6574  24.0541  24.1418
    24.6284  26.0762  26.5541  26.6407  27.1431  27.6601  28.1433  29.0608
    29.3228  29.5544  29.7839  30.9779  31.4521  31.6166

          k = 0.4054-0.3511 0.1809 (  4949 PWs)   bands (ev):

  -101.0645-101.0582 -59.8138 -59.8106 -59.8099 -59.8066 -59.8051 -59.8015
   -44.7608 -44.7440 -44.7319 -44.7183 -44.7093 -44.7050 -15.9578 -15.9222
   -15.8669 -15.8640 -15.8462 -15.7894 -15.7739 -15.7512 -15.7288 -15.7167
   -15.6874 -15.6746 -15.6316 -15.6016 -15.5823 -15.5487 -15.5335 -15.5161
    -1.5967  -1.5951  -1.5943  -1.5873  -1.5830  -1.5815  -1.5804  -1.5790
    -1.5752  -1.5700  11.2174  11.4860  15.7476  16.1734  16.4435  16.8489
    16.9374  17.0516  17.7457  17.8756  18.0430  18.1576  18.3896  18.5425
    18.6955  18.8716  19.0005  19.1038  19.4103  19.5083  19.6736  19.7403
    19.9241  20.2857  20.3997  20.4748  20.8656  20.9560  20.9767  21.0505
    21.1254  21.9807  22.1744  22.5327  22.9045  23.4045  23.6621  24.2040
    24.8008  25.3587  26.5667  27.2195  27.4676  27.8313  28.6115  28.7667
    29.3193  29.8680  29.9189  30.9302  31.4446  31.7068

          k = 0.4054-0.3511 0.3617 (  4943 PWs)   bands (ev):

  -101.0587-101.0529 -59.8122 -59.8100 -59.8088 -59.8053 -59.8041 -59.8026
   -44.7519 -44.7405 -44.7278 -44.7211 -44.7163 -44.7093 -15.9479 -15.9303
   -15.8955 -15.8792 -15.8453 -15.8077 -15.7688 -15.7439 -15.7182 -15.6923
   -15.6752 -15.6660 -15.6312 -15.5820 -15.5694 -15.5564 -15.5448 -15.5230
    -1.5967  -1.5956  -1.5947  -1.5886  -1.5846  -1.5834  -1.5813  -1.5788
    -1.5749  -1.5693  11.3386  11.5155  15.9380  16.0050  16.6255  16.9035
    16.9489  17.1818  17.7104  17.8665  18.1586  18.2586  18.3627  18.4798
    18.5424  18.7319  19.0158  19.1083  19.3751  19.4610  19.5315  19.8234
    19.9194  20.1867  20.3098  20.3477  20.7334  20.7964  21.1022  21.1650
    21.2763  21.3966  21.9852  22.5215  22.6436  23.1140  23.3313  24.1839
    24.2944  25.6384  26.9770  27.7203  27.8766  28.1232  28.5439  28.8411
    29.6350  29.9660  30.9702  31.1559  31.3015  31.9235

          k = 0.4054-0.3511 0.5426 (  4931 PWs)   bands (ev):

  -101.0476-101.0441 -59.8113 -59.8099 -59.8044 -59.8035 -59.8026 -59.8021
   -44.7417 -44.7365 -44.7282 -44.7236 -44.7183 -44.7141 -15.9501 -15.9363
   -15.8938 -15.8674 -15.8538 -15.8402 -15.7408 -15.7353 -15.7104 -15.7079
   -15.6578 -15.6465 -15.6048 -15.5958 -15.5802 -15.5545 -15.5411 -15.5324
    -1.5961  -1.5957  -1.5934  -1.5891  -1.5887  -1.5871  -1.5803  -1.5793
    -1.5722  -1.5700  11.4617  11.5214  15.9304  16.0041  16.8389  16.8939
    17.1333  17.3006  17.6691  17.7964  18.1417  18.2456  18.3132  18.3479
    18.4958  18.5647  19.0727  19.1588  19.2982  19.3300  19.6004  19.9980
    20.1120  20.1768  20.2720  20.3187  20.4843  20.6297  21.0700  21.0912
    21.5093  21.5296  21.6796  22.1176  22.2767  22.4881  23.3940  23.5389
    25.0717  26.0537  26.7237  27.3667  28.4782  28.5472  29.1644  29.3214
    29.7946  29.9714  31.2130  31.5060  31.6123  31.7834

          k = 0.4054-0.1561 0.0000 (  4945 PWs)   bands (ev):

  -101.0737-101.0437 -59.8147 -59.8106 -59.8099 -59.8069 -59.8030 -59.7997
   -44.7652 -44.7415 -44.7320 -44.7185 -44.7068 -44.7044 -15.9776 -15.9103
   -15.8593 -15.8542 -15.8383 -15.8240 -15.8107 -15.7668 -15.7480 -15.7292
   -15.6475 -15.6250 -15.6211 -15.6095 -15.5958 -15.5379 -15.5171 -15.5103
    -1.5977  -1.5957  -1.5939  -1.5885  -1.5851  -1.5828  -1.5803  -1.5782
    -1.5738  -1.5722  11.0276  11.5022  15.7989  16.3903  16.5651  16.5653
    17.0878  17.1052  17.6044  17.8727  17.9833  18.0665  18.4323  18.4456
    18.6082  18.7199  18.8960  19.3796  19.3867  19.4625  19.6159  19.8936
    20.1457  20.5226  20.6245  20.7455  20.7464  20.8226  21.0588  21.1033
    21.3782  22.1046  22.3862  22.4357  22.8975  23.4235  23.5969  23.8737
    24.8933  25.7407  26.1848  27.0191  27.3385  27.5470  28.2349  29.0859
    29.2395  29.7353  30.1850  30.8337  30.9808  31.3741

          k = 0.4054-0.1561 0.1809 (  4933 PWs)   bands (ev):

  -101.0535-101.0439 -59.8121 -59.8100 -59.8072 -59.8050 -59.8021 -59.7993
   -44.7622 -44.7405 -44.7298 -44.7192 -44.7079 -44.7043 -15.9622 -15.9239
   -15.8832 -15.8687 -15.8481 -15.7890 -15.7832 -15.7686 -15.7544 -15.7122
   -15.6503 -15.6416 -15.6195 -15.5918 -15.5774 -15.5370 -15.5339 -15.5103
    -1.5976  -1.5957  -1.5947  -1.5896  -1.5845  -1.5823  -1.5799  -1.5793
    -1.5750  -1.5715  11.0886  11.5051  15.8840  16.3031  16.5607  16.7619
    16.9665  17.1440  17.6372  17.8836  17.9700  18.0133  18.3831  18.4815
    18.7122  18.9570  18.9878  19.1183  19.3255  19.3981  19.5332  19.8567
    20.1151  20.3816  20.4878  20.6379  20.8959  20.9605  20.9905  21.0973
    21.3775  21.9911  22.2465  22.4356  22.9541  23.1292  23.5509  23.8323
    25.0486  25.3647  26.0879  27.1729  27.5292  27.7823  28.6718  29.2120
    29.2400  30.0084  30.1079  30.7392  31.3262  31.4575

          k = 0.4054-0.1561 0.3617 (  4932 PWs)   bands (ev):

  -101.0541-101.0411 -59.8124 -59.8089 -59.8074 -59.8039 -59.8024 -59.7999
   -44.7549 -44.7353 -44.7275 -44.7232 -44.7144 -44.7082 -15.9516 -15.9345
   -15.9007 -15.8908 -15.8587 -15.8228 -15.7743 -15.7606 -15.7111 -15.6673
   -15.6539 -15.6474 -15.6275 -15.5736 -15.5689 -15.5572 -15.5359 -15.5156
    -1.5977  -1.5961  -1.5954  -1.5913  -1.5846  -1.5842  -1.5820  -1.5788
    -1.5756  -1.5706  11.2325  11.5064  16.0220  16.1575  16.7053  16.8898
    17.0272  17.2614  17.6180  17.7763  18.0477  18.1250  18.2935  18.4807
    18.5217  18.8564  18.9827  19.1304  19.2970  19.4046  19.5081  19.9785
    20.0828  20.3371  20.3990  20.4870  20.7725  20.8334  21.0920  21.2103
    21.3378  21.4330  21.9404  22.4565  22.5987  23.1444  23.2695  23.8306
    24.1686  25.9103  26.2867  27.6758  28.0105  28.2468  28.4795  29.1387
    29.6332  30.1919  30.9221  31.1994  31.2716  31.5515

          k = 0.4054-0.1561 0.5426 (  4928 PWs)   bands (ev):

  -101.0520-101.0370 -59.8114 -59.8099 -59.8050 -59.8035 -59.8016 -59.8006
   -44.7455 -44.7360 -44.7262 -44.7214 -44.7189 -44.7141 -15.9541 -15.9388
   -15.9014 -15.8859 -15.8666 -15.8649 -15.7431 -15.7279 -15.6961 -15.6917
   -15.6470 -15.6369 -15.5982 -15.5912 -15.5807 -15.5582 -15.5349 -15.5255
    -1.5971  -1.5964  -1.5942  -1.5908  -1.5898  -1.5881  -1.5808  -1.5792
    -1.5734  -1.5712  11.3854  11.4788  16.0213  16.1071  16.8953  16.9462
    17.1269  17.3547  17.6158  17.7650  18.0712  18.2348  18.3417  18.3855
    18.4845  18.5415  18.9175  19.0323  19.2452  19.4104  19.6191  20.0900
    20.1377  20.2749  20.4457  20.4695  20.5993  20.7147  21.0059  21.0868
    21.5696  21.5736  21.7238  22.0486  22.3137  22.5912  23.1683  23.3103
    24.7742  25.6563  26.9939  27.7266  28.2220  28.2612  29.1598  29.5529
    29.8200  30.1986  30.7626  31.3930  31.6031  31.7395

          k = 0.4054 0.0390 0.0000 (  4945 PWs)   bands (ev):

  -101.0608-101.0554 -59.8118 -59.8107 -59.8084 -59.8066 -59.8043 -59.8027
   -44.7645 -44.7394 -44.7344 -44.7185 -44.7058 -44.7053 -15.9782 -15.9133
   -15.8491 -15.8471 -15.8388 -15.8346 -15.8261 -15.7844 -15.7429 -15.7341
   -15.6399 -15.6226 -15.6116 -15.6094 -15.5715 -15.5373 -15.5230 -15.5157
    -1.5971  -1.5952  -1.5937  -1.5891  -1.5859  -1.5849  -1.5798  -1.5776
    -1.5739  -1.5736  10.9897  11.5063  15.9889  16.2190  16.5166  16.7989
    16.9501  17.1436  17.6117  17.8536  17.9024  18.1590  18.2832  18.5047
    18.5659  18.7415  18.8523  19.3480  19.4447  19.4674  19.5599  19.8604
    20.1504  20.5813  20.6812  20.7102  20.8453  20.8908  21.0709  21.1531
    21.7040  21.9478  22.3812  22.3935  22.8186  23.2641  23.7462  23.8817
    25.0028  25.5285  25.6730  27.0299  27.3568  27.5753  28.2733  29.3389
    29.6484  29.9910  30.4000  30.6451  30.7906  30.9023

          k = 0.4054 0.0390 0.1809 (  4951 PWs)   bands (ev):

  -101.0681-101.0567 -59.8133 -59.8105 -59.8088 -59.8076 -59.8052 -59.8035
   -44.7633 -44.7382 -44.7328 -44.7194 -44.7086 -44.7073 -15.9654 -15.9169
   -15.8999 -15.8741 -15.8376 -15.8191 -15.7851 -15.7774 -15.7562 -15.7163
   -15.6464 -15.6370 -15.5980 -15.5921 -15.5704 -15.5389 -15.5327 -15.5278
    -1.5972  -1.5953  -1.5947  -1.5908  -1.5856  -1.5841  -1.5792  -1.5790
    -1.5750  -1.5730  11.0483  11.5053  16.0825  16.2235  16.6356  16.7080
    16.9681  17.0702  17.6414  17.8465  17.9590  18.0572  18.2600  18.5327
    18.6542  18.9500  19.0346  19.1912  19.2532  19.3652  19.4987  19.8050
    20.1279  20.4633  20.6434  20.7345  20.7567  20.9751  20.9945  21.2781
    21.6933  21.9310  22.1103  22.3563  22.8323  23.0280  23.5624  23.9348
    25.1761  25.3450  25.5956  26.9719  27.5504  27.7051  29.0672  29.2137
    29.6546  30.2365  30.3288  30.6520  30.7045  31.3804

          k = 0.4054 0.0390 0.3617 (  4941 PWs)   bands (ev):

  -101.0627-101.0466 -59.8143 -59.8092 -59.8070 -59.8062 -59.8038 -59.8011
   -44.7568 -44.7334 -44.7307 -44.7219 -44.7133 -44.7104 -15.9431 -15.9329
   -15.9211 -15.8989 -15.8572 -15.8390 -15.7785 -15.7594 -15.7052 -15.6651
   -15.6591 -15.6434 -15.5979 -15.5803 -15.5714 -15.5583 -15.5333 -15.5259
    -1.5973  -1.5957  -1.5952  -1.5927  -1.5856  -1.5849  -1.5813  -1.5789
    -1.5758  -1.5719  11.1991  11.4997  16.1497  16.2514  16.5667  16.9903
    17.0474  17.1125  17.6507  17.7731  17.9858  18.0964  18.3034  18.4783
    18.4854  18.8457  19.0054  19.0349  19.2759  19.3943  19.5249  20.0040
    20.1201  20.3892  20.5267  20.5668  20.7727  20.8906  21.0105  21.3610
    21.3908  21.5810  22.0108  22.1889  22.5638  23.0807  23.2493  23.4356
    24.8652  25.3995  25.9856  27.6546  27.9387  28.2441  28.9117  29.2154
    29.8805  30.1214  31.0432  31.1978  31.3500  31.4645

          k = 0.4054 0.0390 0.5426 (  4932 PWs)   bands (ev):

  -101.0499-101.0449 -59.8106 -59.8091 -59.8054 -59.8046 -59.8042 -59.8009
   -44.7458 -44.7364 -44.7264 -44.7216 -44.7184 -44.7148 -15.9423 -15.9293
   -15.9211 -15.9122 -15.8696 -15.8672 -15.7442 -15.7262 -15.6900 -15.6842
   -15.6475 -15.6211 -15.5971 -15.5887 -15.5859 -15.5606 -15.5339 -15.5289
    -1.5969  -1.5961  -1.5939  -1.5922  -1.5898  -1.5890  -1.5804  -1.5790
    -1.5743  -1.5724  11.3625  11.4625  16.1107  16.1651  16.8861  16.9357
    17.1132  17.2538  17.7218  17.7924  18.0224  18.2035  18.2708  18.4155
    18.4610  18.4948  18.9024  18.9946  19.2724  19.4169  19.5380  20.1373
    20.1611  20.2949  20.5719  20.6036  20.6783  20.7448  20.9620  21.0727
    21.6076  21.6746  21.7616  22.0446  22.2862  22.3547  23.2879  23.3724
    24.7740  25.0627  26.9211  27.6066  28.4925  28.6660  29.1289  29.5103
    29.6846  30.2407  30.9569  31.3872  31.5220  31.6001

     the Fermi energy is    23.3101 ev

!    total energy              =   -2027.73321484 Ry
     Harris-Foulkes estimate   =   -2027.73321553 Ry
     estimated scf accuracy    <       0.00000096 Ry

     The total energy is the sum of the following terms:

     one-electron contribution =    -485.86659658 Ry
     hartree contribution      =     330.75060737 Ry
     xc contribution           =    -183.66067113 Ry
     ewald contribution        =   -1688.63931960 Ry
     smearing contrib. (-TS)   =      -0.31723490 Ry

     convergence has been achieved in  11 iterations

     Forces acting on atoms (Ry/au):

     atom    1 type  1   force =     0.01403141    0.00810104    0.00000000
     atom    2 type  1   force =     0.01403141   -0.00810104    0.00000000
     atom    3 type  1   force =    -0.01403141   -0.00810104    0.00000000
     atom    4 type  1   force =    -0.01403141    0.00810104    0.00000000
     atom    5 type  1   force =     0.00000000   -0.01620207    0.00000000
     atom    6 type  1   force =     0.00000000    0.01620207    0.00000000
     atom    7 type  2   force =     0.00000000    0.00000000    0.00000000
     atom    8 type  2   force =     0.00000000    0.00000000    0.00000000

     Total force =     0.039687     Total SCF correction =     0.000000


     entering subroutine stress ...

          total   stress  (Ry/bohr**3)                   (kbar)     P= -304.93
  -0.00210120   0.00000000   0.00000000       -309.10      0.00      0.00
   0.00000000  -0.00210120   0.00000000          0.00   -309.10      0.00
   0.00000000   0.00000000  -0.00201627          0.00      0.00   -296.60


     Writing output data file Prototype-La-hP8-Mg3Cd.save
 
     init_run     :     13.42s CPU     17.10s WALL (       2 calls)
     electrons    :   3563.98s CPU   4220.88s WALL (       5 calls)
     update_pot   :      2.84s CPU      2.98s WALL (       3 calls)
     forces       :     13.19s CPU     14.22s WALL (       5 calls)
     stress       :     43.80s CPU     45.49s WALL (       5 calls)

     Called by init_run:
     wfcinit      :     12.49s CPU     16.14s WALL (       2 calls)
     potinit      :      0.42s CPU      0.42s WALL (       2 calls)

     Called by electrons:
     c_bands      :   3470.30s CPU   4072.13s WALL (      44 calls)
     sum_band     :     93.25s CPU    127.72s WALL (      44 calls)
     v_of_rho     :      0.09s CPU      0.12s WALL (      49 calls)
     mix_rho      :      0.08s CPU      0.12s WALL (      44 calls)

     Called by c_bands:
     init_us_2    :      7.49s CPU      9.31s WALL (    6400 calls)
     ccgdiagg     :   3178.00s CPU   3691.62s WALL (    3149 calls)
     wfcrot       :    297.31s CPU    383.92s WALL (    3213 calls)

     Called by *cgdiagg:
     h_psi        :   2374.67s CPU   2932.56s WALL ( 1515541 calls)
     cdiaghg      :     12.70s CPU     13.68s WALL (    3213 calls)

     Called by h_psi:
     add_vuspsi   :    364.90s CPU    403.87s WALL ( 1515541 calls)

     General routines
     calbec       :    952.24s CPU   1010.86s WALL ( 3028509 calls)
     fft          :      0.21s CPU      0.25s WALL (     219 calls)
     fftw         :   1340.71s CPU   1708.60s WALL ( 3893404 calls)
     davcio       :      4.58s CPU     10.94s WALL (    9216 calls)
 
     Parallel routines
     fft_scatter  :    528.13s CPU    695.42s WALL ( 3893623 calls)
 
     PWSCF        :     1h 0m CPU        1h11m WALL

 
   This run was terminated on:   0: 2:15  23Mar2018            

=------------------------------------------------------------------------------=
   JOB DONE.
=------------------------------------------------------------------------------=
