
     Program PWSCF v.5.0.2 starts on 22Mar2018 at  0:39:29 

     This program is part of the open-source Quantum ESPRESSO suite
     for quantum simulation of materials; please cite
         "P. Giannozzi et al., J. Phys.:Condens. Matter 21 395502 (2009);
          URL http://www.quantum-espresso.org", 
     in publications or presentations arising from this work. More details at
     http://www.quantum-espresso.org/quote.php

     Parallel version (MPI), running on     4 processors
     R & G space division:  proc/nbgrp/npool/nimage =       4

     Current dimensions of program PWSCF are:
     Max number of different atomic species (ntypx) = 10
     Max number of k-points (npk) =  40000
     Max angular momentum in pseudopotentials (lmaxx) =  3
     Waiting for input...
     Reading input from standard input

     Subspace diagonalization in iterative solution of the eigenvalue problem:
     a serial algorithm will be used

 
     Parallelization info
     --------------------
     sticks:   dense  smooth     PW     G-vecs:    dense   smooth      PW
     Min         207     207     61                 7381     7381    1191
     Max         208     208     62                 7386     7386    1192
     Sum         829     829    247                29529    29529    4767
 


     bravais-lattice index     =            0
     lattice parameter (alat)  =       7.0151  a.u.
     unit-cell volume          =     862.2778 (a.u.)^3
     number of atoms/cell      =           12
     number of atomic types    =            2
     number of electrons       =       160.00
     number of Kohn-Sham states=           96
     kinetic-energy cutoff     =      40.0000  Ry
     charge density cutoff     =     160.0000  Ry
     convergence threshold     =      1.0E-04
     mixing beta               =       0.7000
     number of iterations used =            8  plain     mixing
     Exchange-correlation      = SLA-PZ-NOGX-NOGC ( 1 1 0 0 0)
     EXX-fraction              =        0.00
     nstep                     =           50


     celldm(1)=   7.015105  celldm(2)=   0.000000  celldm(3)=   0.000000
     celldm(4)=   0.000000  celldm(5)=   0.000000  celldm(6)=   0.000000

     crystal axes: (cart. coord. in units of alat)
               a(1) = (   1.000000   0.000000   0.000000 )  
               a(2) = (   0.000000   1.315963   0.000000 )  
               a(3) = (   0.000000   0.000000   1.898020 )  

     reciprocal axes: (cart. coord. in units 2 pi/alat)
               b(1) = (  1.000000  0.000000  0.000000 )  
               b(2) = (  0.000000  0.759900  0.000000 )  
               b(3) = (  0.000000  0.000000  0.526865 )  


     PseudoPot. # 1 for Ce read from file:
     /home/jld5415/pp.La/Ce.UPF
     MD5 check sum: 44451aa79a44a00cf2bc029dc19922f6
     Pseudo is Norm-conserving, Zval = 12.0
     Generated in analytical, separable form
     Using radial grid of 1255 points,  6 beta functions with: 
                l(1) =   0
                l(2) =   0
                l(3) =   1
                l(4) =   1
                l(5) =   2
                l(6) =   3

     PseudoPot. # 2 for Sm read from file:
     /home/jld5415/pp.La/Sm.UPF
     MD5 check sum: 5079e8b144a06bfcdbc14fb02b96ab09
     Pseudo is Norm-conserving, Zval = 16.0
     Generated in analytical, separable form
     Using radial grid of 1259 points,  6 beta functions with: 
                l(1) =   0
                l(2) =   0
                l(3) =   1
                l(4) =   1
                l(5) =   2
                l(6) =   3

     atomic species   valence    mass     pseudopotential
        Co            12.00    58.93320     Ce( 1.00)
        Si            16.00    28.08550     Sm( 1.00)

      8 Sym. Ops., with inversion, found ( 6 have fractional translation)



   Cartesian axes

     site n.     atom                  positions (alat units)
         1           Co  tau(   1) = (   0.7500000   1.0875135   0.8270358  )
         2           Co  tau(   2) = (   0.2500000   0.2284499   1.0709846  )
         3           Co  tau(   3) = (   0.7500000   0.4295318   0.1219744  )
         4           Co  tau(   4) = (   0.2500000   0.8864316   1.7760460  )
         5           Co  tau(   5) = (   0.2500000   0.7067855   0.5358966  )
         6           Co  tau(   6) = (   0.7500000   0.6091779   1.3621238  )
         7           Co  tau(   7) = (   0.2500000   0.0488038   0.4131136  )
         8           Co  tau(   8) = (   0.7500000   1.2671596   1.4849068  )
         9           Si  tau(   9) = (   0.2500000   0.2669484   1.6960710  )
        10           Si  tau(  10) = (   0.7500000   1.0490149   0.2019494  )
        11           Si  tau(  11) = (   0.2500000   0.9249301   1.1509596  )
        12           Si  tau(  12) = (   0.7500000   0.3910333   0.7470608  )

     number of k points=    12  gaussian smearing, width (Ry)=  0.1000
                       cart. coord. in units 2pi/alat
        k(    1) = (   0.0000000   0.0000000   0.0000000), wk =   0.0833333
        k(    2) = (   0.0000000   0.0000000   0.1317162), wk =   0.1666667
        k(    3) = (   0.0000000   0.0000000  -0.2634324), wk =   0.0833333
        k(    4) = (   0.0000000   0.2532999   0.0000000), wk =   0.1666667
        k(    5) = (   0.0000000   0.2532999   0.1317162), wk =   0.3333333
        k(    6) = (   0.0000000   0.2532999  -0.2634324), wk =   0.1666667
        k(    7) = (  -0.5000000   0.0000000   0.0000000), wk =   0.0833333
        k(    8) = (  -0.5000000   0.0000000   0.1317162), wk =   0.1666667
        k(    9) = (  -0.5000000   0.0000000  -0.2634324), wk =   0.0833333
        k(   10) = (  -0.5000000   0.2532999   0.0000000), wk =   0.1666667
        k(   11) = (  -0.5000000   0.2532999   0.1317162), wk =   0.3333333
        k(   12) = (  -0.5000000   0.2532999  -0.2634324), wk =   0.1666667

     Dense  grid:    29529 G-vectors     FFT dimensions: (  30,  40,  54)

     Largest allocated arrays     est. size (Mb)     dimensions
        Kohn-Sham Wavefunctions         1.35 Mb     (    922,   96)
        NL pseudopotentials             3.38 Mb     (    922,  240)
        Each V/rho on FFT grid          0.26 Mb     (  16800)
        Each G-vector array             0.06 Mb     (   7386)
        G-vector shells                 0.06 Mb     (   7386)
     Largest temporary arrays     est. size (Mb)     dimensions
        Each subspace H/S matrix        0.14 Mb     (  96,  96)
        Each <psi_i|beta_j> matrix      0.35 Mb     (    240,   96)
        Arrays for rho mixing           2.05 Mb     (  16800,   8)

     Initial potential from superposition of free atoms

     Starting from uniform charge
     Starting wfc are    0 randomized atomic wfcs

     total cpu time spent up to now is        2.2 secs

     Self-consistent Calculation

     iteration #  1     ecut=    40.00 Ry     beta=0.70
     CG style diagonalization
     c_bands:  5 eigenvalues not converged
     c_bands:  5 eigenvalues not converged
     c_bands:  3 eigenvalues not converged
     c_bands:  2 eigenvalues not converged
     c_bands:  4 eigenvalues not converged
     c_bands:  3 eigenvalues not converged
     c_bands:  4 eigenvalues not converged
     c_bands:  5 eigenvalues not converged
     ethr =  1.00E-02,  avg # of iterations = 13.8

     total cpu time spent up to now is       37.2 secs

     total energy              =   -1047.70598936 Ry
     Harris-Foulkes estimate   =   -1304.92421264 Ry
     estimated scf accuracy    <     325.87450100 Ry

     iteration #  2     ecut=    40.00 Ry     beta=0.70
     CG style diagonalization
     c_bands:  1 eigenvalues not converged
     c_bands:  1 eigenvalues not converged
     c_bands:  1 eigenvalues not converged
     ethr =  1.00E-02,  avg # of iterations = 10.3

     total cpu time spent up to now is       62.4 secs

     total energy              =   -1150.43008308 Ry
     Harris-Foulkes estimate   =   -1317.37348265 Ry
     estimated scf accuracy    <     306.48549010 Ry

     iteration #  3     ecut=    40.00 Ry     beta=0.70
     CG style diagonalization
     ethr =  1.00E-02,  avg # of iterations =  7.8

     total cpu time spent up to now is       81.6 secs

     total energy              =   -1208.24694781 Ry
     Harris-Foulkes estimate   =   -1215.51864836 Ry
     estimated scf accuracy    <      12.80996743 Ry

     iteration #  4     ecut=    40.00 Ry     beta=0.70
     CG style diagonalization
     ethr =  8.01E-03,  avg # of iterations =  3.9

     total cpu time spent up to now is       90.5 secs

     total energy              =   -1211.54387791 Ry
     Harris-Foulkes estimate   =   -1212.44199937 Ry
     estimated scf accuracy    <       1.76158407 Ry

     iteration #  5     ecut=    40.00 Ry     beta=0.70
     CG style diagonalization
     ethr =  1.10E-03,  avg # of iterations =  4.4

     total cpu time spent up to now is      100.5 secs

     total energy              =   -1212.04883788 Ry
     Harris-Foulkes estimate   =   -1212.13386407 Ry
     estimated scf accuracy    <       0.15339330 Ry

     iteration #  6     ecut=    40.00 Ry     beta=0.70
     CG style diagonalization
     c_bands:  1 eigenvalues not converged
     c_bands:  2 eigenvalues not converged
     c_bands:  2 eigenvalues not converged
     c_bands:  1 eigenvalues not converged
     ethr =  9.59E-05,  avg # of iterations =  5.2

     total cpu time spent up to now is      112.5 secs

     total energy              =   -1212.12204405 Ry
     Harris-Foulkes estimate   =   -1212.12935305 Ry
     estimated scf accuracy    <       0.01524914 Ry

     iteration #  7     ecut=    40.00 Ry     beta=0.70
     CG style diagonalization
     c_bands:  1 eigenvalues not converged
     c_bands:  1 eigenvalues not converged
     c_bands:  1 eigenvalues not converged
     c_bands:  1 eigenvalues not converged
     c_bands:  1 eigenvalues not converged
     ethr =  9.53E-06,  avg # of iterations =  4.7

     total cpu time spent up to now is      123.7 secs

     total energy              =   -1212.12758647 Ry
     Harris-Foulkes estimate   =   -1212.12884657 Ry
     estimated scf accuracy    <       0.00238960 Ry

     iteration #  8     ecut=    40.00 Ry     beta=0.70
     CG style diagonalization
     c_bands:  1 eigenvalues not converged
     c_bands:  1 eigenvalues not converged
     ethr =  1.49E-06,  avg # of iterations =  4.5

     total cpu time spent up to now is      134.4 secs

     total energy              =   -1212.12839610 Ry
     Harris-Foulkes estimate   =   -1212.12857383 Ry
     estimated scf accuracy    <       0.00034331 Ry

     iteration #  9     ecut=    40.00 Ry     beta=0.70
     CG style diagonalization
     c_bands:  1 eigenvalues not converged
     ethr =  2.15E-07,  avg # of iterations =  4.2

     total cpu time spent up to now is      144.4 secs

     End of self-consistent calculation

          k = 0.0000 0.0000 0.0000 (  3675 PWs)   bands (ev):

   -15.4622 -15.2769 -15.2155 -15.1324   2.5938   2.9106   2.9681   4.8299
     5.1508   5.6008   5.6073   5.6096   7.1682   7.7503   7.8829   7.9514
     8.1649   8.8797   8.9191   9.4563   9.5883  10.0716  10.5747  10.8800
    17.8229  18.1723  19.0643  19.3651  20.5148  20.6155  21.3075  21.4791
    21.9054  22.1342  22.4525  22.5514  23.1162  23.3021  23.6468  24.2830
    24.4146  24.9315  25.2043  25.7678  27.7331  27.8042  27.9333  28.6557
    32.4505  33.1913  34.1269  34.4295  34.5939  34.8170  35.1623  35.2781
    35.8411  37.0241  37.1538  37.5398  38.0192  38.2258  40.0752  40.1513
    40.2404  40.7398  41.3899  41.5746  42.3526  42.4460  42.5880  42.7937
    42.8033  43.8264  43.8318  44.8693  44.9490  45.5672  45.8266  45.9365
    46.2500  46.2788  46.7685  46.9916  47.2881  47.7083  48.4365  48.5662
    48.6816  48.9357  49.1623  49.4535  49.5909  50.2334  50.6049  50.8792

          k = 0.0000 0.0000 0.1317 (  3675 PWs)   bands (ev):

   -15.4428 -15.3232 -15.1841 -15.1370   2.5057   2.8237   3.2961   4.8066
     4.8791   5.0543   5.8431   6.0843   7.2303   7.6056   8.0420   8.1562
     8.1974   8.7604   8.8968   9.3022   9.8494   9.9838  10.5114  10.5343
    17.8686  18.5792  18.8789  19.5737  20.7353  20.8222  20.9532  21.3889
    22.1450  22.4553  22.5597  22.5624  22.6155  23.2577  23.3026  24.0525
    24.6994  25.3800  25.4549  25.4817  27.1015  27.4708  27.9304  28.4886
    32.3600  33.2545  33.8411  34.0379  34.7363  34.9144  35.4306  35.5099
    36.5235  36.7654  37.3697  37.5630  38.2747  39.5156  39.5490  39.6435
    40.0776  40.8557  41.3253  41.3553  41.7685  42.8337  42.9175  43.1973
    43.2426  44.1466  44.5381  45.1863  45.2033  45.2264  45.4007  45.5720
    45.9136  45.9625  46.1061  46.5257  46.6537  47.3285  47.6930  48.7656
    49.1146  49.2931  49.3965  49.5500  50.0450  50.4214  50.8677  50.9896

          k = 0.0000 0.0000-0.2634 (  3690 PWs)   bands (ev):

   -15.3908 -15.3908 -15.1531 -15.1531   2.5858   2.5858   4.0335   4.0335
     4.8710   4.8710   6.2006   6.2006   7.3926   7.3926   8.1235   8.1235
     8.3991   8.3991   9.4638   9.4638   9.6913   9.6913  10.3184  10.3184
    18.1358  18.1358  20.1223  20.1223  20.2384  20.2384  21.3929  21.3929
    21.6461  21.6461  22.5284  22.5284  23.1922  23.1922  24.1582  24.1582
    24.6171  24.6171  25.8550  25.8550  26.6819  26.6819  28.1084  28.1084
    32.7186  32.7186  33.4616  33.4616  35.1041  35.1041  36.1423  36.1423
    37.2126  37.2126  37.3308  37.3308  38.7938  38.7938  38.8945  38.8945
    40.9022  40.9022  41.2579  41.2579  42.6439  42.6439  43.5664  43.5664
    44.0593  44.0593  44.4281  44.4281  44.5850  44.5850  45.2250  45.2250
    45.6859  45.6859  46.8955  46.8955  47.4194  47.4194  47.9917  47.9918
    48.5777  48.5778  49.3483  49.3484  49.4554  49.4554  51.3519  51.5812

          k = 0.0000 0.2533 0.0000 (  3664 PWs)   bands (ev):

   -15.3899 -15.2834 -15.2173 -15.1890   2.3635   2.4653   3.1104   3.6849
     5.3092   5.5435   6.4889   6.8979   7.3840   7.7412   7.9353   7.9771
     8.1999   8.3532   8.8594   8.9370   9.8612   9.9015  11.2437  11.3076
    18.1223  19.1276  19.4863  19.5213  19.7012  20.0398  20.0885  21.2487
    21.5223  21.5232  21.8837  23.1304  23.2366  23.9308  24.1332  24.1369
    24.8317  24.9196  25.2751  25.5424  26.1181  26.6541  26.7714  27.2025
    33.4322  33.8531  33.8612  34.9004  36.0834  36.2150  36.4459  36.4532
    36.5264  36.5803  37.2328  37.6502  38.2801  38.9072  39.1395  40.1184
    40.1622  40.8260  41.3705  41.5054  41.6595  42.0512  42.3056  42.3684
    43.6283  43.6617  43.8550  45.0067  45.1039  45.6096  45.6955  46.1986
    46.5165  46.8321  47.3508  47.4046  47.5330  47.9670  48.3290  48.5668
    48.6883  49.1237  49.3681  50.0889  50.1575  50.2860  50.3419  50.5750

          k = 0.0000 0.2533 0.1317 (  3669 PWs)   bands (ev):

   -15.3766 -15.3033 -15.2094 -15.1908   2.3183   2.4503   3.2214   3.6558
     5.4126   5.6306   6.2024   6.7039   7.4307   7.6779   7.9426   7.9830
     8.4843   8.6187   8.9303   9.0010   9.6446   9.9859  10.8925  11.1061
    18.5826  19.2672  19.4152  19.5447  19.8287  20.2413  20.3998  21.3520
    21.4064  21.6302  21.6854  22.6591  23.2266  23.7571  24.0736  24.2375
    24.5020  25.1464  25.2219  25.5185  26.0052  26.4636  26.5320  27.0782
    33.5016  33.9539  34.4487  34.9117  35.6879  35.9354  36.3916  36.6524
    36.7890  37.0937  37.5925  37.5945  38.3940  39.0055  39.4585  39.5942
    39.9942  40.3810  40.5943  41.7785  41.8891  42.0912  42.7416  43.3940
    43.7474  44.0493  44.1078  44.2834  45.1976  45.3207  45.7038  46.1223
    46.2282  46.5575  47.0459  47.1299  47.2283  47.5800  47.8250  47.9597
    48.7511  49.2005  49.4973  49.9083  49.9731  50.2896  50.4919  50.9851

          k = 0.0000 0.2533-0.2634 (  3666 PWs)   bands (ev):

   -15.3425 -15.3425 -15.1977 -15.1977   2.3510   2.3510   3.4811   3.4811
     5.6375   5.6375   6.2074   6.2074   7.5464   7.5464   7.9684   7.9684
     8.8040   8.8040   9.1431   9.1431   9.6697   9.6697  10.7112  10.7112
    19.2498  19.2498  19.5183  19.5183  20.1650  20.1650  21.0992  21.0992
    21.3151  21.3151  21.9737  21.9737  23.5637  23.5637  23.9695  23.9695
    24.4457  24.4457  25.8448  25.8448  25.9392  25.9392  26.6456  26.6456
    34.1567  34.1567  34.1727  34.1727  36.2379  36.2379  36.4249  36.4249
    37.1130  37.1130  38.3009  38.3009  38.5907  38.5907  38.8958  38.8958
    40.2281  40.2281  41.2654  41.2654  42.1139  42.1139  43.2596  43.2596
    43.2598  43.2598  44.7306  44.7306  45.3380  45.3380  46.0097  46.0097
    46.3439  46.3439  46.7536  46.7536  47.0922  47.0922  47.7271  47.7271
    48.2891  48.2892  49.7242  49.7243  50.6124  50.6125  50.8814  50.8815

          k =-0.5000 0.0000 0.0000 (  3722 PWs)   bands (ev):

   -15.2774 -15.2774 -15.1560 -15.1560   2.2021   2.2021   3.4540   3.4540
     4.7536   4.7536   5.8310   5.8310   7.4560   7.4560   7.9669   7.9669
     8.5637   8.5637   9.1341   9.1341  10.3471  10.3471  10.5981  10.5981
    17.8807  17.8807  20.1693  20.1693  20.3324  20.3324  21.2229  21.2229
    22.4398  22.4398  24.0346  24.0346  24.4213  24.4213  24.4400  24.4400
    25.1291  25.1291  25.8206  25.8206  26.6231  26.6231  27.4079  27.4079
    34.3074  34.3074  35.6667  35.6667  36.4531  36.4531  36.6386  36.6386
    37.3118  37.3118  37.4063  37.4063  38.5904  38.5904  39.0808  39.0808
    39.5733  39.5733  39.8225  39.8225  40.2953  40.2953  40.6138  40.6138
    41.5665  41.5665  42.6831  42.6831  43.8739  43.8739  44.9546  44.9546
    45.5611  45.5611  45.7216  45.7216  45.8446  45.8446  46.3353  46.3353
    47.1699  47.1699  49.1383  49.1384  50.5303  50.5305  51.1694  51.1696

          k =-0.5000 0.0000 0.1317 (  3710 PWs)   bands (ev):

   -15.2770 -15.2770 -15.1560 -15.1560   2.0845   2.0845   3.6342   3.6342
     4.8458   4.8458   5.7597   5.7597   7.5867   7.5867   7.8798   7.8798
     8.4385   8.4385   9.0187   9.0187  10.0907  10.0907  10.8745  10.8745
    18.0696  18.0696  20.4115  20.4115  20.4524  20.4524  21.5296  21.5296
    22.4487  22.4487  23.4946  23.4946  23.9439  23.9439  24.0233  24.0233
    25.3866  25.3866  26.0367  26.0367  26.5909  26.5909  27.3933  27.3933
    34.4515  34.4515  35.5042  35.5042  35.9787  35.9787  37.0578  37.0578
    37.6544  37.6544  37.6875  37.6875  38.3922  38.3922  39.0025  39.0025
    39.3317  39.3317  40.1188  40.1188  40.5719  40.5719  41.2481  41.2481
    41.8968  41.8968  42.0587  42.0587  43.4067  43.4067  44.2874  44.2874
    44.5968  44.5968  46.4684  46.4684  46.7803  46.7803  47.4590  47.4590
    47.7682  47.7682  49.0348  49.0349  49.3853  49.3853  50.1542  50.1543

          k =-0.5000 0.0000-0.2634 (  3680 PWs)   bands (ev):

   -15.2763 -15.2763 -15.1562 -15.1562   1.9906   1.9906   3.7687   3.7687
     5.0712   5.0712   5.5732   5.5732   7.7151   7.7151   7.7529   7.7529
     8.5519   8.5519   8.7105   8.7105   9.9647   9.9647  11.0267  11.0267
    18.2635  18.2635  20.5192  20.5192  20.8148  20.8148  22.0330  22.0330
    22.4558  22.4558  23.1110  23.1110  23.1317  23.1317  23.6066  23.6066
    25.5322  25.5322  26.3910  26.3910  26.4395  26.4395  27.3590  27.3590
    34.6296  34.6296  35.1022  35.1022  36.3931  36.3931  36.7423  36.7423
    37.8721  37.8721  38.0306  38.0306  38.0919  38.0919  39.0878  39.0878
    39.5823  39.5823  40.1609  40.1609  40.6686  40.6686  41.3004  41.3004
    41.8445  41.8445  42.3680  42.3680  43.8085  43.8085  43.9358  43.9358
    45.3349  45.3349  45.6306  45.6306  45.9275  45.9275  46.8447  46.8447
    48.4605  48.4605  49.4203  49.4203  49.4928  49.4930  51.0868  51.0870

          k =-0.5000 0.2533 0.0000 (  3686 PWs)   bands (ev):

   -15.2446 -15.2446 -15.1837 -15.1837   2.4860   2.4860   3.0215   3.0215
     4.4930   4.4930   5.0751   5.0751   8.2314   8.2314   8.4843   8.4843
     8.8097   8.8097   9.1599   9.1599  10.6413  10.6413  10.6935  10.6935
    18.6539  18.6539  19.0185  19.0185  20.6174  20.6174  21.7596  21.7596
    22.0873  22.0873  22.6740  22.6740  23.9205  23.9205  24.2178  24.2178
    25.1042  25.1042  25.5340  25.5340  26.4332  26.4332  26.6739  26.6739
    34.6684  34.6684  35.8689  35.8689  36.9740  36.9740  37.0181  37.0181
    37.5088  37.5088  38.0492  38.0492  38.9646  38.9646  39.0823  39.0823
    39.9575  39.9575  40.2485  40.2485  41.2902  41.2902  41.6644  41.6644
    42.7983  42.7983  42.8081  42.8081  43.9196  43.9196  43.9224  43.9224
    45.4821  45.4821  46.2126  46.2126  46.8544  46.8544  47.7884  47.7885
    47.9857  47.9858  49.0732  49.0735  49.5847  49.5851  50.3447  50.3449

          k =-0.5000 0.2533 0.1317 (  3692 PWs)   bands (ev):

   -15.2443 -15.2443 -15.1841 -15.1841   2.3613   2.3613   3.0473   3.0473
     4.6728   4.6728   5.2388   5.2388   8.0361   8.0361   8.4267   8.4267
     8.6625   8.6625   8.9801   8.9801  10.7105  10.7105  10.8669  10.8669
    18.9641  18.9641  19.3798  19.3798  20.5866  20.5866  21.5514  21.5514
    21.8222  21.8222  22.8640  22.8640  23.6423  23.6423  24.2931  24.2931
    25.0562  25.0562  25.7119  25.7119  26.0390  26.0390  26.5759  26.5759
    34.5343  34.5343  35.4626  35.4626  36.9839  36.9839  37.2110  37.2110
    37.9829  37.9829  38.5307  38.5307  38.7953  38.7953  39.5532  39.5532
    40.2031  40.2031  40.5766  40.5766  41.2351  41.2351  41.7383  41.7383
    42.2875  42.2875  43.1206  43.1206  43.6213  43.6213  44.1904  44.1904
    45.3504  45.3504  46.4877  46.4877  46.9402  46.9402  47.3339  47.3339
    47.9220  47.9220  48.3956  48.3958  49.3902  49.3904  49.7485  49.7487

          k =-0.5000 0.2533-0.2634 (  3704 PWs)   bands (ev):

   -15.2442 -15.2442 -15.1844 -15.1844   2.2655   2.2655   3.0422   3.0422
     4.9231   4.9231   5.3588   5.3588   7.9105   7.9105   8.1092   8.1092
     8.7245   8.7245   8.8055   8.8055  10.7825  10.7825  10.9857  10.9857
    19.3540  19.3540  19.9410  19.9410  20.4220  20.4220  21.3445  21.3445
    21.4309  21.4309  22.8743  22.8743  23.7179  23.7179  24.2123  24.2123
    25.0948  25.0948  25.4477  25.4477  26.0859  26.0859  26.3642  26.3642
    34.3687  34.3687  35.2461  35.2461  37.0917  37.0917  37.3907  37.3907
    38.2134  38.2134  38.6936  38.6936  39.3462  39.3462  39.6233  39.6233
    40.1125  40.1125  41.0167  41.0167  41.2527  41.2527  41.4962  41.4962
    42.4835  42.4835  43.4405  43.4405  43.5342  43.5342  45.1445  45.1445
    45.1993  45.1993  46.0907  46.0907  46.2971  46.2971  46.8592  46.8592
    47.1808  47.1808  48.2789  48.2789  49.0816  49.0817  49.6478  49.6480

     the Fermi energy is    45.5051 ev

!    total energy              =   -1212.12852710 Ry
     Harris-Foulkes estimate   =   -1212.12853161 Ry
     estimated scf accuracy    <       0.00000891 Ry

     The total energy is the sum of the following terms:

     one-electron contribution =     393.66942304 Ry
     hartree contribution      =      50.98547939 Ry
     xc contribution           =    -164.53710935 Ry
     ewald contribution        =   -1491.84300909 Ry
     smearing contrib. (-TS)   =      -0.40331109 Ry

     convergence has been achieved in   9 iterations

     Forces acting on atoms (Ry/au):

     atom    1 type  1   force =     0.00000000   -0.02061529   -0.10554791
     atom    2 type  1   force =     0.00000000    0.02061529    0.10554791
     atom    3 type  1   force =     0.00000000   -0.02061529    0.10554791
     atom    4 type  1   force =     0.00000000    0.02061529   -0.10554791
     atom    5 type  1   force =     0.00000000    0.13640200   -0.25420479
     atom    6 type  1   force =     0.00000000   -0.13640200    0.25420479
     atom    7 type  1   force =     0.00000000    0.13640200    0.25420479
     atom    8 type  1   force =     0.00000000   -0.13640200   -0.25420479
     atom    9 type  2   force =     0.00000000   -0.15913789   -0.01933134
     atom   10 type  2   force =     0.00000000    0.15913789    0.01933134
     atom   11 type  2   force =     0.00000000   -0.15913789    0.01933134
     atom   12 type  2   force =     0.00000000    0.15913789   -0.01933134

     Total force =     0.694232     Total SCF correction =     0.000000


     entering subroutine stress ...

          total   stress  (Ry/bohr**3)                   (kbar)     P= 6335.83
   0.04384884   0.00000000   0.00000000       6450.39      0.00      0.00
   0.00000000   0.04118543   0.00000000          0.00   6058.58      0.00
   0.00000000   0.00000000   0.04417600          0.00      0.00   6498.51


     BFGS Geometry Optimization

     number of scf cycles    =   1
     number of bfgs steps    =   0

     enthalpy new            =   -1212.1285271016 Ry

     new trust radius        =       0.5000000000 bohr
     new conv_thr            =       0.0001000000 Ry

     new unit-cell volume =   1095.30546 a.u.^3 (   162.30752 Ang^3 )

CELL_PARAMETERS (alat=  7.01510508)
   1.084506105   0.000000000   0.000000000
   0.000000000   1.420415537   0.000000000
   0.000000000   0.000000000   2.059611444

ATOMIC_POSITIONS (crystal)
Co       0.750000000   0.826228852   0.435124911
Co       0.250000000   0.173771148   0.564875089
Co       0.750000000   0.326228852   0.064875089
Co       0.250000000   0.673771148   0.935124911
Co       0.250000000   0.538225024   0.280873234
Co       0.750000000   0.461774976   0.719126766
Co       0.250000000   0.038225024   0.219126766
Co       0.750000000   0.961774976   0.780873234
Si       0.250000000   0.201525121   0.893488078
Si       0.750000000   0.798474879   0.106511922
Si       0.250000000   0.701525121   0.606511922
Si       0.750000000   0.298474879   0.393488078



     Writing output data file Prototype-La-oP12-Co2Si.save
     NEW-OLD atomic charge density approx. for the potential
     NEW k-points:
        k(    1) = (   0.0000000   0.0000000   0.0000000), wk =   0.0833333
        k(    2) = (   0.0000000   0.0000000   0.1213821), wk =   0.1666667
        k(    3) = (   0.0000000   0.0000000  -0.2427642), wk =   0.0833333
        k(    4) = (   0.0000000   0.2346731   0.0000000), wk =   0.1666667
        k(    5) = (   0.0000000   0.2346731   0.1213821), wk =   0.3333333
        k(    6) = (   0.0000000   0.2346731  -0.2427642), wk =   0.1666667
        k(    7) = (  -0.4610394   0.0000000   0.0000000), wk =   0.0833333
        k(    8) = (  -0.4610394   0.0000000   0.1213821), wk =   0.1666667
        k(    9) = (  -0.4610394   0.0000000  -0.2427642), wk =   0.0833333
        k(   10) = (  -0.4610394   0.2346731   0.0000000), wk =   0.1666667
        k(   11) = (  -0.4610394   0.2346731   0.1213821), wk =   0.3333333
        k(   12) = (  -0.4610394   0.2346731  -0.2427642), wk =   0.1666667

     total cpu time spent up to now is      148.2 secs

     Self-consistent Calculation

     iteration #  1     ecut=    40.00 Ry     beta=0.70
     CG style diagonalization
     c_bands:  5 eigenvalues not converged
     c_bands:  1 eigenvalues not converged
     c_bands:  1 eigenvalues not converged
     c_bands:  1 eigenvalues not converged
     ethr =  1.00E-06,  avg # of iterations = 20.8

     total cpu time spent up to now is      197.2 secs

     total energy              =   -1214.15038709 Ry
     Harris-Foulkes estimate   =   -1223.99122094 Ry
     estimated scf accuracy    <      13.14232744 Ry

     iteration #  2     ecut=    40.00 Ry     beta=0.70
     CG style diagonalization
     ethr =  8.21E-03,  avg # of iterations =  3.9

     total cpu time spent up to now is      205.6 secs

     total energy              =   -1214.49355912 Ry
     Harris-Foulkes estimate   =   -1221.93951319 Ry
     estimated scf accuracy    <      14.21247398 Ry

     iteration #  3     ecut=    40.00 Ry     beta=0.70
     CG style diagonalization
     ethr =  8.21E-03,  avg # of iterations =  3.5

     total cpu time spent up to now is      213.3 secs

     total energy              =   -1218.45575326 Ry
     Harris-Foulkes estimate   =   -1218.94796555 Ry
     estimated scf accuracy    <       0.98762586 Ry

     iteration #  4     ecut=    40.00 Ry     beta=0.70
     CG style diagonalization
     ethr =  6.17E-04,  avg # of iterations =  3.8

     total cpu time spent up to now is      221.8 secs

     total energy              =   -1218.70413086 Ry
     Harris-Foulkes estimate   =   -1218.78870900 Ry
     estimated scf accuracy    <       0.19193480 Ry

     iteration #  5     ecut=    40.00 Ry     beta=0.70
     CG style diagonalization
     ethr =  1.20E-04,  avg # of iterations =  3.5

     total cpu time spent up to now is      229.8 secs

     total energy              =   -1218.72849883 Ry
     Harris-Foulkes estimate   =   -1218.73876930 Ry
     estimated scf accuracy    <       0.03010221 Ry

     iteration #  6     ecut=    40.00 Ry     beta=0.70
     CG style diagonalization
     ethr =  1.88E-05,  avg # of iterations =  3.8

     total cpu time spent up to now is      238.5 secs

     total energy              =   -1218.73210732 Ry
     Harris-Foulkes estimate   =   -1218.73399419 Ry
     estimated scf accuracy    <       0.00367587 Ry

     iteration #  7     ecut=    40.00 Ry     beta=0.70
     CG style diagonalization
     c_bands:  2 eigenvalues not converged
     ethr =  2.30E-06,  avg # of iterations =  4.7

     total cpu time spent up to now is      249.5 secs

     total energy              =   -1218.73378765 Ry
     Harris-Foulkes estimate   =   -1218.73403234 Ry
     estimated scf accuracy    <       0.00068125 Ry

     iteration #  8     ecut=    40.00 Ry     beta=0.70
     CG style diagonalization
     c_bands:  2 eigenvalues not converged
     ethr =  4.26E-07,  avg # of iterations =  3.6

     total cpu time spent up to now is      257.7 secs

     total energy              =   -1218.73383925 Ry
     Harris-Foulkes estimate   =   -1218.73390257 Ry
     estimated scf accuracy    <       0.00014610 Ry

     iteration #  9     ecut=    40.00 Ry     beta=0.70
     CG style diagonalization
     ethr =  9.13E-08,  avg # of iterations =  3.6

     total cpu time spent up to now is      265.9 secs

     End of self-consistent calculation

          k = 0.0000 0.0000 0.0000 (  3675 PWs)   bands (ev):

   -23.4443 -23.3915 -23.3768 -23.3524  -4.5719  -4.3402  -4.1157  -2.9849
    -2.8364  -2.8308  -2.6478  -2.5854   0.2787   0.5093   0.6030   0.6555
     0.7035   0.9739   1.0856   1.1619   1.1964   1.3158   1.6671   1.8067
    10.8735  11.5564  11.6852  12.3780  12.7803  12.9468  13.2314  13.4519
    14.0260  14.1969  14.1970  14.3844  14.5517  14.9391  15.4784  15.4910
    15.6807  15.6872  15.9541  16.4639  17.2936  17.4458  17.7733  18.1804
    25.9481  26.1464  26.6546  27.2735  27.2927  27.4297  27.6010  27.7692
    28.4504  28.5449  29.0791  29.5741  29.6166  29.6518  30.8015  31.3541
    31.4013  31.4838  32.4722  32.6299  32.8488  32.9309  33.4783  33.5308
    33.6112  33.8098  34.2642  34.7870  35.0840  35.1791  35.3255  35.5320
    35.9434  36.1794  36.3738  36.9467  37.2236  37.3542  37.4454  37.9371
    38.0529  38.2827  38.9212  38.9456  39.4233  40.0992  40.2006  40.3840

          k = 0.0000 0.0000 0.1214 (  3675 PWs)   bands (ev):

   -23.4390 -23.4048 -23.3665 -23.3549  -4.5847  -4.4875  -3.8428  -3.0955
    -2.9481  -2.8240  -2.6465  -2.4776   0.3098   0.4568   0.6388   0.6933
     0.7841   0.9203   1.0092   1.2111   1.2941   1.3172   1.5851   1.6840
    10.9347  11.4567  11.9011  12.4409  12.8377  12.9783  13.2462  13.4042
    13.9839  14.2296  14.3956  14.5323  14.5640  14.7199  15.0000  15.3906
    15.6013  16.1791  16.2376  16.2453  17.0896  17.1826  17.8031  18.1069
    25.8878  26.2081  26.7994  26.8059  27.0936  27.4785  27.8885  27.9881
    28.5176  28.5985  29.3563  29.5996  29.7419  30.7636  30.8423  30.9510
    31.0441  31.4252  32.1066  32.3372  32.6435  33.2733  33.5414  33.6484
    33.9034  34.4446  34.6916  34.7511  35.0587  35.2437  35.3613  35.3637
    35.4689  35.7934  35.8111  36.6973  36.9784  37.1552  37.1981  37.9148
    38.5859  38.6216  39.0948  39.2410  39.6132  39.6841  39.7321  40.1908

          k = 0.0000 0.0000-0.2428 (  3690 PWs)   bands (ev):

   -23.4244 -23.4244 -23.3604 -23.3604  -4.5812  -4.5812  -3.4313  -3.4313
    -2.9466  -2.9466  -2.4919  -2.4919   0.3754   0.3754   0.6758   0.6758
     0.8778   0.8778   1.1856   1.1856   1.2972   1.2972   1.5022   1.5022
    11.1390  11.1390  12.6178  12.6178  12.6296  12.6296  13.4546  13.4546
    13.8733  13.8733  14.4830  14.4830  14.6973  14.6973  15.4241  15.4241
    15.5631  15.5631  16.4795  16.4795  16.8341  16.8341  17.9330  17.9330
    26.1027  26.1027  26.3464  26.3464  27.4911  27.4911  28.3839  28.3839
    29.0628  29.0628  29.1765  29.1765  30.2233  30.2233  30.5511  30.5511
    31.5935  31.5935  31.7887  31.7887  33.2785  33.2785  33.9828  33.9828
    34.4024  34.4024  34.6802  34.6802  34.9618  34.9618  35.4224  35.4224
    35.5453  35.5453  36.0617  36.0617  36.7993  36.7993  37.5887  37.5887
    38.2469  38.2470  38.7891  38.7891  38.9511  38.9512  40.2524  40.2526

          k = 0.0000 0.2347 0.0000 (  3664 PWs)   bands (ev):

   -23.4263 -23.3949 -23.3736 -23.3633  -4.5519  -4.3604  -4.1816  -3.6941
    -2.9664  -2.8092  -2.2921  -2.1920   0.3723   0.5082   0.5955   0.6312
     0.6892   0.7727   1.0381   1.1414   1.4227   1.4954   1.9105   1.9434
    11.4097  12.2252  12.3581  12.4351  12.4996  12.5163  12.5965  13.3005
    13.4852  13.6012  13.9495  14.4582  14.6137  15.4088  15.4665  15.6944
    15.8188  15.9821  16.1203  16.2275  16.5087  16.7701  16.9948  17.1435
    26.7724  26.7981  26.9767  27.4241  28.1890  28.2342  28.3950  28.6361
    28.9001  29.0093  29.0319  29.4941  29.7619  30.5198  30.5851  31.1816
    31.1924  31.9935  32.0833  32.2366  32.2664  32.5873  32.9129  33.1797
    33.7118  34.0350  34.5660  34.9092  35.2357  35.2822  35.6762  35.7685
    36.1017  36.2890  36.6095  36.8757  37.3515  37.5608  37.5894  38.0310
    38.3255  38.3668  38.5356  39.1640  39.2487  39.3318  39.6155  39.9408

          k = 0.0000 0.2347 0.1214 (  3669 PWs)   bands (ev):

   -23.4224 -23.4003 -23.3725 -23.3658  -4.5669  -4.4786  -4.0185  -3.7306
    -2.8842  -2.7271  -2.4037  -2.2600   0.3940   0.4830   0.6043   0.6283
     0.8054   0.8387   1.0532   1.1587   1.3485   1.5033   1.7979   1.8601
    11.5857  12.1558  12.2761  12.4527  12.4935  12.7216  12.8453  13.3599
    13.4726  13.7923  13.8375  14.2438  14.6559  15.3568  15.3670  15.5380
    15.6368  15.8673  16.1176  16.3157  16.5762  16.6895  16.9182  17.1305
    26.7311  26.7902  27.3154  27.3628  27.9105  28.3456  28.4361  28.7814
    28.9883  29.0680  29.2655  29.4773  29.9744  30.4288  30.9305  31.1138
    31.1718  31.5018  31.6099  32.3084  32.4704  32.8606  33.4803  33.7705
    33.8673  34.0921  34.4955  34.6566  34.9690  35.1571  35.2990  35.3336
    36.2830  36.4877  36.5212  36.9128  36.9444  37.1244  37.4120  37.4994
    37.8648  38.2971  38.6462  39.0772  39.5938  39.6411  39.7570  39.9764

          k = 0.0000 0.2347-0.2428 (  3666 PWs)   bands (ev):

   -23.4117 -23.4117 -23.3686 -23.3686  -4.5632  -4.5632  -3.8368  -3.8368
    -2.6947  -2.6947  -2.4509  -2.4509   0.4362   0.4362   0.6185   0.6185
     0.9369   0.9369   1.1328   1.1328   1.3588   1.3588   1.7406   1.7406
    11.9027  11.9027  12.3975  12.3975  12.6837  12.6837  13.2620  13.2620
    13.5699  13.5699  14.0552  14.0552  14.9418  14.9418  15.4079  15.4079
    15.4396  15.4396  16.4600  16.4600  16.5161  16.5161  16.9862  16.9862
    26.8593  26.8593  27.0685  27.0685  28.4845  28.4845  28.6929  28.6929
    28.9820  28.9820  29.7081  29.7081  30.1617  30.1617  30.8210  30.8210
    31.3086  31.3086  31.9980  31.9980  32.8070  32.8070  33.6439  33.6439
    33.7466  33.7466  34.4771  34.4771  35.4691  35.4691  35.9114  35.9114
    36.0826  36.0826  36.2769  36.2769  36.7717  36.7717  37.1915  37.1915
    38.1696  38.1696  38.5682  38.5682  39.2843  39.2846  40.0473  40.0474

          k =-0.4610 0.0000 0.0000 (  3722 PWs)   bands (ev):

   -23.4004 -23.4004 -23.3646 -23.3646  -4.5242  -4.5242  -3.7254  -3.7254
    -3.1698  -3.1698  -2.5769  -2.5769   0.3861   0.3861   0.5868   0.5868
     0.9822   0.9822   1.1260   1.1260   1.4634   1.4634   1.6706   1.6706
    11.0319  11.0319  12.4340  12.4340  12.5837  12.5837  13.3178  13.3178
    13.7933  13.7933  15.2132  15.2132  15.2448  15.2448  15.6479  15.6479
    16.0261  16.0261  16.5690  16.5690  17.0113  17.0113  17.6086  17.6086
    26.8370  26.8370  28.2894  28.2894  28.6508  28.6508  28.8014  28.8014
    29.0215  29.0215  29.0823  29.0823  29.7236  29.7236  30.7053  30.7053
    30.9689  30.9689  31.4829  31.4829  31.5214  31.5214  31.6277  31.6277
    32.7019  32.7019  33.5926  33.5926  34.4212  34.4212  35.4077  35.4077
    36.1497  36.1497  36.3002  36.3002  36.4149  36.4149  37.4535  37.4535
    37.7155  37.7155  38.9937  38.9940  39.7433  39.7434  39.8391  39.8392

          k =-0.4610 0.0000 0.1214 (  3710 PWs)   bands (ev):

   -23.3996 -23.3996 -23.3631 -23.3631  -4.5747  -4.5747  -3.6683  -3.6683
    -3.1363  -3.1363  -2.5854  -2.5854   0.4313   0.4313   0.5594   0.5594
     0.9125   0.9125   1.0460   1.0460   1.4801   1.4801   1.7415   1.7415
    11.0732  11.0732  12.4440  12.4440  12.8249  12.8249  13.4208  13.4208
    13.8868  13.8868  14.8483  14.8483  15.0345  15.0345  15.3569  15.3569
    16.2992  16.2992  16.6423  16.6423  16.9802  16.9802  17.5991  17.5991
    27.0156  27.0156  28.0323  28.0323  28.4400  28.4400  28.7598  28.7598
    29.2466  29.2466  29.4927  29.4927  29.7918  29.7918  30.4714  30.4714
    30.6976  30.6976  31.6739  31.6739  31.8348  31.8348  32.2575  32.2575
    32.7183  32.7183  33.3896  33.3896  34.4631  34.4631  34.8890  34.8890
    35.3776  35.3776  36.3765  36.3765  36.9245  36.9245  37.4724  37.4724
    37.9413  37.9413  38.6491  38.6492  38.8287  38.8287  39.6000  39.6001

          k =-0.4610 0.0000-0.2428 (  3680 PWs)   bands (ev):

   -23.3959 -23.3959 -23.3616 -23.3616  -4.6178  -4.6178  -3.6261  -3.6261
    -3.0855  -3.0855  -2.6026  -2.6026   0.4962   0.4962   0.5279   0.5279
     0.8259   0.8259   0.9951   0.9951   1.4892   1.4892   1.8057   1.8057
    11.1023  11.1023  12.5801  12.5801  12.9572  12.9572  13.6694  13.6694
    13.9264  13.9264  14.5870  14.5870  14.7915  14.7915  14.9997  14.9997
    16.5018  16.5018  16.7833  16.7833  16.8617  16.8617  17.5916  17.5916
    27.2258  27.2258  27.6967  27.6967  28.6097  28.6097  28.6669  28.6669
    29.4708  29.4708  29.6502  29.6502  29.9614  29.9614  30.1328  30.1328
    30.6507  30.6507  31.7830  31.7830  31.8973  31.8973  32.3647  32.3647
    33.3326  33.3326  33.5579  33.5579  34.4183  34.4183  34.9608  34.9608
    35.2841  35.2841  35.7559  35.7559  36.3544  36.3544  36.4239  36.4239
    38.0813  38.0813  38.4411  38.4411  39.9143  39.9145  40.1653  40.1654

          k =-0.4610 0.2347 0.0000 (  3686 PWs)   bands (ev):

   -23.3891 -23.3891 -23.3695 -23.3695  -4.3110  -4.3110  -3.9378  -3.9378
    -3.2198  -3.2198  -2.9067  -2.9067   0.6619   0.6619   0.7539   0.7539
     1.0416   1.0416   1.1397   1.1397   1.6114   1.6114   1.6983   1.6983
    11.5529  11.5529  11.8407  11.8407  12.7514  12.7514  13.7289  13.7289
    13.9404  13.9404  14.3713  14.3713  15.0988  15.0988  15.2088  15.2088
    16.1501  16.1501  16.3718  16.3718  16.8582  16.8582  17.0448  17.0448
    27.3786  27.3786  28.4105  28.4105  28.8534  28.8534  28.9871  28.9871
    29.4809  29.4809  29.5614  29.5614  30.5986  30.5986  30.8126  30.8126
    31.0995  31.0995  31.1772  31.1772  32.2354  32.2354  32.4397  32.4397
    33.5295  33.5295  33.7355  33.7355  34.3563  34.3563  34.7057  34.7057
    36.0891  36.0891  36.5072  36.5072  36.5326  36.5326  37.2779  37.2779
    37.5943  37.5943  38.5833  38.5833  39.0209  39.0211  39.8790  39.8790

          k =-0.4610 0.2347 0.1214 (  3692 PWs)   bands (ev):

   -23.3875 -23.3875 -23.3721 -23.3721  -4.3626  -4.3626  -3.9345  -3.9345
    -3.1633  -3.1633  -2.8655  -2.8655   0.6062   0.6062   0.7170   0.7170
     0.9980   0.9980   1.1028   1.1028   1.6678   1.6678   1.7372   1.7372
    11.6868  11.6868  12.0340  12.0340  12.8154  12.8154  13.3921  13.3921
    13.7620  13.7620  14.5250  14.5250  15.0198  15.0198  15.4425  15.4425
    16.0761  16.0761  16.4696  16.4696  16.6073  16.6073  16.9916  16.9916
    27.3740  27.3740  28.1293  28.1293  28.8277  28.8277  29.1665  29.1665
    29.6338  29.6338  29.8344  29.8344  30.4869  30.4869  30.7677  30.7677
    31.2937  31.2937  31.6521  31.6521  32.3071  32.3071  32.6270  32.6270
    33.4123  33.4123  33.7817  33.7817  34.3012  34.3012  34.5571  34.5571
    35.8551  35.8551  36.3853  36.3853  36.6910  36.6910  36.9549  36.9549
    37.5525  37.5525  38.2853  38.2853  38.9151  38.9151  39.3642  39.3642

          k =-0.4610 0.2347-0.2428 (  3704 PWs)   bands (ev):

   -23.3877 -23.3877 -23.3739 -23.3739  -4.4065  -4.4065  -3.9394  -3.9394
    -3.0998  -3.0998  -2.8299  -2.8299   0.5603   0.5603   0.6556   0.6556
     0.9828   0.9828   1.0680   1.0680   1.7038   1.7038   1.7737   1.7737
    11.8147  11.8147  12.3739  12.3739  12.8522  12.8522  13.1486  13.1486
    13.4106  13.4106  14.5585  14.5585  15.2002  15.2002  15.5491  15.5491
    16.0627  16.0627  16.2258  16.2258  16.6871  16.6871  16.8418  16.8418
    27.3230  27.3230  27.9772  27.9772  28.8564  28.8564  29.2624  29.2624
    29.7395  29.7395  30.1320  30.1320  30.5795  30.5795  30.7504  30.7504
    31.3253  31.3253  31.8501  31.8501  32.5846  32.5846  32.7381  32.7381
    33.2943  33.2943  33.7832  33.7832  34.2293  34.2293  35.2649  35.2649
    35.2805  35.2805  36.1931  36.1931  36.2012  36.2012  36.9742  36.9742
    37.1839  37.1839  38.3306  38.3306  38.7015  38.7015  39.1793  39.1793

     the Fermi energy is    35.5539 ev

!    total energy              =   -1218.73386775 Ry
     Harris-Foulkes estimate   =   -1218.73387351 Ry
     estimated scf accuracy    <       0.00000638 Ry

     The total energy is the sum of the following terms:

     one-electron contribution =     246.14440568 Ry
     hartree contribution      =      71.01982707 Ry
     xc contribution           =    -157.58858750 Ry
     ewald contribution        =   -1377.80683005 Ry
     smearing contrib. (-TS)   =      -0.50268295 Ry

     convergence has been achieved in   9 iterations

     Forces acting on atoms (Ry/au):

     atom    1 type  1   force =     0.00000000   -0.00900703   -0.04813477
     atom    2 type  1   force =     0.00000000    0.00900703    0.04813477
     atom    3 type  1   force =     0.00000000   -0.00900703    0.04813477
     atom    4 type  1   force =     0.00000000    0.00900703   -0.04813477
     atom    5 type  1   force =     0.00000000    0.06776908   -0.13349827
     atom    6 type  1   force =     0.00000000   -0.06776908    0.13349827
     atom    7 type  1   force =     0.00000000    0.06776908    0.13349827
     atom    8 type  1   force =     0.00000000   -0.06776908   -0.13349827
     atom    9 type  2   force =     0.00000000   -0.11252464    0.01675666
     atom   10 type  2   force =     0.00000000    0.11252464   -0.01675666
     atom   11 type  2   force =     0.00000000   -0.11252464   -0.01675666
     atom   12 type  2   force =     0.00000000    0.11252464    0.01675666

     Total force =     0.388613     Total SCF correction =     0.000000


     entering subroutine stress ...

          total   stress  (Ry/bohr**3)                   (kbar)     P= 2518.33
   0.01774912   0.00000000   0.00000000       2610.99      0.00      0.00
   0.00000000   0.01611000   0.00000000          0.00   2369.86      0.00
   0.00000000   0.00000000   0.01749875          0.00      0.00   2574.16


     number of scf cycles    =   2
     number of bfgs steps    =   1

     enthalpy old            =   -1212.1285271016 Ry
     enthalpy new            =   -1218.7338677470 Ry

     CASE: enthalpy_new < enthalpy_old

     small trust_radius: resetting bfgs history

     new trust radius        =       2.9370715131 bohr
     new conv_thr            =       0.0001000000 Ry

     new unit-cell volume =   3188.59489 a.u.^3 (   472.50101 Ang^3 )

CELL_PARAMETERS (alat=  7.01510508)
   1.565731906   0.000000000   0.000000000
   0.000000000   1.992487749   0.000000000
   0.000000000   0.000000000   2.960627315

ATOMIC_POSITIONS (crystal)
Co       0.750000000   0.825324928   0.431793414
Co       0.250000000   0.174675072   0.568206586
Co       0.750000000   0.325324928   0.068206586
Co       0.250000000   0.674675072   0.931793414
Co       0.250000000   0.545026168   0.271633571
Co       0.750000000   0.454973832   0.728366429
Co       0.250000000   0.045026168   0.228366429
Co       0.750000000   0.954973832   0.771633571
Si       0.250000000   0.190232415   0.894647837
Si       0.750000000   0.809767585   0.105352163
Si       0.250000000   0.690232415   0.605352163
Si       0.750000000   0.309767585   0.394647837



     Writing output data file Prototype-La-oP12-Co2Si.save
     NEW-OLD atomic charge density approx. for the potential
     NEW k-points:
        k(    1) = (   0.0000000   0.0000000   0.0000000), wk =   0.0833333
        k(    2) = (   0.0000000   0.0000000   0.0844416), wk =   0.1666667
        k(    3) = (   0.0000000   0.0000000  -0.1688831), wk =   0.0833333
        k(    4) = (   0.0000000   0.1672950   0.0000000), wk =   0.1666667
        k(    5) = (   0.0000000   0.1672950   0.0844416), wk =   0.3333333
        k(    6) = (   0.0000000   0.1672950  -0.1688831), wk =   0.1666667
        k(    7) = (  -0.3193395   0.0000000   0.0000000), wk =   0.0833333
        k(    8) = (  -0.3193395   0.0000000   0.0844416), wk =   0.1666667
        k(    9) = (  -0.3193395   0.0000000  -0.1688831), wk =   0.0833333
        k(   10) = (  -0.3193395   0.1672950   0.0000000), wk =   0.1666667
        k(   11) = (  -0.3193395   0.1672950   0.0844416), wk =   0.3333333
        k(   12) = (  -0.3193395   0.1672950  -0.1688831), wk =   0.1666667

     total cpu time spent up to now is      269.7 secs

     Self-consistent Calculation

     iteration #  1     ecut=    40.00 Ry     beta=0.70
     CG style diagonalization
     c_bands:  1 eigenvalues not converged
     c_bands:  3 eigenvalues not converged
     c_bands:  2 eigenvalues not converged
     c_bands:  2 eigenvalues not converged
     c_bands:  4 eigenvalues not converged
     c_bands:  2 eigenvalues not converged
     c_bands:  5 eigenvalues not converged
     c_bands:  5 eigenvalues not converged
     c_bands:  2 eigenvalues not converged
     ethr =  1.00E-06,  avg # of iterations = 30.9

     total cpu time spent up to now is      339.3 secs

     total energy              =   -1141.34263843 Ry
     Harris-Foulkes estimate   =   -1330.65214824 Ry
     estimated scf accuracy    <     252.52982416 Ry

     iteration #  2     ecut=    40.00 Ry     beta=0.70
     CG style diagonalization
     c_bands:  1 eigenvalues not converged
     ethr =  1.00E-02,  avg # of iterations =  7.3

     total cpu time spent up to now is      357.1 secs

     total energy              =   -1151.27088874 Ry
     Harris-Foulkes estimate   =   -1264.31900030 Ry
     estimated scf accuracy    <     195.52046363 Ry

     iteration #  3     ecut=    40.00 Ry     beta=0.70
     CG style diagonalization
     c_bands:  1 eigenvalues not converged
     ethr =  1.00E-02,  avg # of iterations =  7.8

     total cpu time spent up to now is      376.0 secs

     total energy              =   -1208.55029133 Ry
     Harris-Foulkes estimate   =   -1233.97019070 Ry
     estimated scf accuracy    <      60.60504215 Ry

     iteration #  4     ecut=    40.00 Ry     beta=0.70
     CG style diagonalization
     ethr =  1.00E-02,  avg # of iterations =  4.0

     total cpu time spent up to now is      385.3 secs

     total energy              =   -1211.57237589 Ry
     Harris-Foulkes estimate   =   -1215.55581436 Ry
     estimated scf accuracy    <      15.17225199 Ry

     iteration #  5     ecut=    40.00 Ry     beta=0.70
     CG style diagonalization
     ethr =  9.48E-03,  avg # of iterations =  3.3

     total cpu time spent up to now is      392.4 secs

     total energy              =   -1212.18901231 Ry
     Harris-Foulkes estimate   =   -1213.52966265 Ry
     estimated scf accuracy    <       8.24144213 Ry

     iteration #  6     ecut=    40.00 Ry     beta=0.70
     CG style diagonalization
     ethr =  5.15E-03,  avg # of iterations =  3.1

     total cpu time spent up to now is      398.7 secs

     total energy              =   -1211.15261812 Ry
     Harris-Foulkes estimate   =   -1212.49761067 Ry
     estimated scf accuracy    <       4.34739106 Ry

     iteration #  7     ecut=    40.00 Ry     beta=0.70
     CG style diagonalization
     ethr =  2.72E-03,  avg # of iterations =  4.6

     total cpu time spent up to now is      409.3 secs

     total energy              =   -1212.16072611 Ry
     Harris-Foulkes estimate   =   -1212.43585381 Ry
     estimated scf accuracy    <       0.83562909 Ry

     iteration #  8     ecut=    40.00 Ry     beta=0.70
     CG style diagonalization
     c_bands:  1 eigenvalues not converged
     c_bands:  1 eigenvalues not converged
     ethr =  5.22E-04,  avg # of iterations =  4.2

     total cpu time spent up to now is      418.6 secs

     total energy              =   -1212.30250521 Ry
     Harris-Foulkes estimate   =   -1212.35765851 Ry
     estimated scf accuracy    <       0.17728486 Ry

     iteration #  9     ecut=    40.00 Ry     beta=0.70
     CG style diagonalization
     c_bands:  2 eigenvalues not converged
     c_bands:  1 eigenvalues not converged
     c_bands:  2 eigenvalues not converged
     c_bands:  2 eigenvalues not converged
     c_bands:  2 eigenvalues not converged
     c_bands:  2 eigenvalues not converged
     c_bands:  3 eigenvalues not converged
     c_bands:  2 eigenvalues not converged
     ethr =  1.11E-04,  avg # of iterations =  4.9

     total cpu time spent up to now is      430.2 secs

     total energy              =   -1212.33123968 Ry
     Harris-Foulkes estimate   =   -1212.39686209 Ry
     estimated scf accuracy    <       0.31023867 Ry

     iteration # 10     ecut=    40.00 Ry     beta=0.70
     CG style diagonalization
     c_bands:  1 eigenvalues not converged
     c_bands:  1 eigenvalues not converged
     ethr =  1.11E-04,  avg # of iterations =  3.5

     total cpu time spent up to now is      438.4 secs

     total energy              =   -1212.35224017 Ry
     Harris-Foulkes estimate   =   -1212.35679270 Ry
     estimated scf accuracy    <       0.04872987 Ry

     iteration # 11     ecut=    40.00 Ry     beta=0.70
     CG style diagonalization
     c_bands:  1 eigenvalues not converged
     c_bands:  2 eigenvalues not converged
     c_bands:  1 eigenvalues not converged
     ethr =  3.05E-05,  avg # of iterations =  3.8

     total cpu time spent up to now is      447.0 secs

     total energy              =   -1212.35230380 Ry
     Harris-Foulkes estimate   =   -1212.35950780 Ry
     estimated scf accuracy    <       0.02844453 Ry

     iteration # 12     ecut=    40.00 Ry     beta=0.70
     CG style diagonalization
     c_bands:  2 eigenvalues not converged
     ethr =  1.78E-05,  avg # of iterations =  4.1

     total cpu time spent up to now is      456.5 secs

     total energy              =   -1212.35895082 Ry
     Harris-Foulkes estimate   =   -1212.35953048 Ry
     estimated scf accuracy    <       0.00404282 Ry

     iteration # 13     ecut=    40.00 Ry     beta=0.70
     CG style diagonalization
     c_bands:  2 eigenvalues not converged
     ethr =  2.53E-06,  avg # of iterations =  4.1

     total cpu time spent up to now is      466.2 secs

     total energy              =   -1212.35894538 Ry
     Harris-Foulkes estimate   =   -1212.35983422 Ry
     estimated scf accuracy    <       0.00322733 Ry

     iteration # 14     ecut=    40.00 Ry     beta=0.70
     CG style diagonalization
     c_bands:  1 eigenvalues not converged
     ethr =  2.02E-06,  avg # of iterations =  3.6

     total cpu time spent up to now is      474.2 secs

     End of self-consistent calculation

          k = 0.0000 0.0000 0.0000 (  3675 PWs)   bands (ev):

   -43.2838 -43.2833 -43.2252 -43.2024 -28.4522 -28.4411 -28.4190 -28.3979
   -28.3954 -28.3693 -28.2873 -28.2599 -21.1084 -21.1065 -21.1062 -21.1025
   -21.1019 -21.1003 -21.1002 -21.0974 -21.0802 -21.0779 -21.0761 -21.0734
    -9.6199  -9.5600  -9.5299  -9.5128  -9.4826  -9.4455  -9.4335  -9.3922
    -9.3858  -9.3588  -9.3255  -9.3227  -9.3189  -9.2783  -9.2538  -9.2104
    -9.2053  -9.2025  -9.1985  -9.1401  -9.1228  -9.1065  -9.0890  -9.0678
     6.6678   7.7001   7.9255   7.9607   8.0345   8.0406   8.1291   8.1439
     8.1460   8.2104   8.2192   8.2917   8.3739   8.4605   8.4839   8.5687
     8.6132   8.6327   8.7789   8.8422   9.0240   9.0410   9.0441   9.0887
     9.4876   9.5565   9.5769   9.5809   9.8420   9.8817   9.9973  10.1881
    10.4095  10.4225  10.4670  10.5097  10.7338  10.8622  10.9157  11.0387
    11.1482  11.1670  11.2212  11.3500  11.4954  11.6397  11.6397  12.0324

          k = 0.0000 0.0000 0.0844 (  3675 PWs)   bands (ev):

   -43.3006 -43.2628 -43.2378 -43.1891 -28.4610 -28.4370 -28.4199 -28.3980
   -28.3750 -28.3710 -28.3153 -28.2366 -21.1069 -21.1064 -21.1048 -21.1037
   -21.1011 -21.1010 -21.0999 -21.0968 -21.0824 -21.0794 -21.0779 -21.0738
    -9.6245  -9.5627  -9.5212  -9.5120  -9.4746  -9.4717  -9.4511  -9.4279
    -9.3691  -9.3599  -9.3438  -9.3287  -9.2888  -9.2797  -9.2332  -9.2317
    -9.2073  -9.1772  -9.1633  -9.1361  -9.1099  -9.0988  -9.0981  -9.0923
     6.7908   7.5671   7.7831   7.8762   7.9365   8.0142   8.0858   8.1354
     8.2073   8.3071   8.3315   8.4076   8.4560   8.4810   8.5558   8.5894
     8.5936   8.6467   8.7353   8.8936   8.9245   8.9736   9.0285   9.1914
     9.2077   9.5206   9.7252   9.7571   9.8804   9.9769  10.1670  10.1887
    10.3134  10.3157  10.4911  10.5617  10.5922  10.6513  10.7579  10.9936
    11.0008  11.0238  11.1627  11.4646  11.7311  11.7307  11.7430  11.8181

          k = 0.0000 0.0000-0.1689 (  3690 PWs)   bands (ev):

   -43.3156 -43.3156 -43.2355 -43.2355 -28.4768 -28.4768 -28.4221 -28.4221
   -28.3678 -28.3678 -28.2860 -28.2860 -21.1060 -21.1060 -21.1042 -21.1042
   -21.1037 -21.1037 -21.0993 -21.0993 -21.0837 -21.0837 -21.0799 -21.0799
    -9.6229  -9.6229  -9.5055  -9.5055  -9.4871  -9.4871  -9.4308  -9.4308
    -9.3733  -9.3733  -9.3105  -9.3105  -9.3012  -9.3012  -9.2315  -9.2315
    -9.2042  -9.2042  -9.2041  -9.2041  -9.1164  -9.1164  -9.0987  -9.0987
     7.1099   7.1099   7.8063   7.8063   8.0199   8.0200   8.0423   8.0423
     8.3611   8.3611   8.4138   8.4138   8.4502   8.4502   8.6211   8.6211
     8.6566   8.6566   8.6914   8.6914   8.8655   8.8655   9.1287   9.1287
     9.4726   9.4726   9.8994   9.8994   9.9085   9.9085  10.2022  10.2022
    10.2468  10.2468  10.3068  10.3069  10.6695  10.6695  10.8442  10.8442
    10.9576  10.9576  11.1972  11.1972  11.7804  11.7804  11.7965  11.7967

          k = 0.0000 0.1673 0.0000 (  3664 PWs)   bands (ev):

   -43.3186 -43.2639 -43.1633 -43.1520 -28.4331 -28.4304 -28.4063 -28.4026
   -28.3586 -28.3177 -28.3144 -28.2672 -21.1103 -21.1065 -21.1044 -21.1016
   -21.1010 -21.0998 -21.0978 -21.0967 -21.0801 -21.0792 -21.0729 -21.0719
    -9.5227  -9.4956  -9.4903  -9.4890  -9.4369  -9.4354  -9.4344  -9.4268
    -9.4177  -9.3670  -9.3520  -9.3414  -9.3244  -9.2517  -9.2325  -9.2285
    -9.1962  -9.1927  -9.1618  -9.1474  -9.1457  -9.1444  -9.1320  -9.0764
     7.1049   7.9496   7.9770   8.0840   8.1286   8.1851   8.2417   8.2649
     8.2903   8.2993   8.3670   8.4338   8.4812   8.4994   8.5103   8.5654
     8.5982   8.6592   8.6698   8.8703   8.8989   8.9213   9.0654   9.0773
     9.2645   9.5669   9.5837   9.8571   9.8741   9.9729   9.9934  10.2017
    10.3302  10.3321  10.3550  10.4669  10.7635  10.7998  10.8097  10.8394
    10.9114  10.9240  11.2997  11.3533  11.3878  11.4009  11.4313  11.5409

          k = 0.0000 0.1673 0.0844 (  3669 PWs)   bands (ev):

   -43.3054 -43.2563 -43.2143 -43.1673 -28.4621 -28.4363 -28.3969 -28.3895
   -28.3706 -28.3329 -28.3027 -28.2811 -21.1090 -21.1073 -21.1035 -21.1026
   -21.1018 -21.0999 -21.0984 -21.0965 -21.0827 -21.0797 -21.0730 -21.0728
    -9.5522  -9.5117  -9.4899  -9.4740  -9.4640  -9.4533  -9.4396  -9.4104
    -9.3776  -9.3728  -9.3715  -9.3329  -9.3285  -9.2651  -9.2479  -9.2293
    -9.1980  -9.1699  -9.1667  -9.1525  -9.1494  -9.1412  -9.1236  -9.0929
     7.2103   7.8792   7.9363   7.9902   8.1207   8.1507   8.1954   8.2462
     8.2883   8.3430   8.4621   8.4719   8.4979   8.4997   8.5596   8.5614
     8.6391   8.6560   8.7265   8.7969   8.8721   8.9720   8.9861   9.1487
     9.2826   9.4979   9.6864   9.8208   9.8489   9.9434  10.0724  10.1763
    10.2290  10.2737  10.3760  10.4318  10.6741  10.7311  10.7881  10.8494
    10.8535  11.0524  11.1258  11.2876  11.3766  11.4917  11.5065  11.5673

          k = 0.0000 0.1673-0.1689 (  3666 PWs)   bands (ev):

   -43.2577 -43.2577 -43.2017 -43.2017 -28.4396 -28.4396 -28.3812 -28.3812
   -28.3507 -28.3507 -28.3045 -28.3045 -21.1072 -21.1072 -21.1029 -21.1029
   -21.0992 -21.0992 -21.0984 -21.0984 -21.0804 -21.0804 -21.0737 -21.0737
    -9.5262  -9.5262  -9.4712  -9.4712  -9.4639  -9.4639  -9.4307  -9.4307
    -9.3524  -9.3524  -9.3480  -9.3480  -9.2952  -9.2952  -9.2435  -9.2435
    -9.1806  -9.1806  -9.1589  -9.1589  -9.1515  -9.1515  -9.1144  -9.1144
     7.5051   7.5051   7.9314   7.9314   8.1906   8.1906   8.2211   8.2211
     8.3252   8.3252   8.4725   8.4725   8.5402   8.5402   8.5813   8.5813
     8.5882   8.5882   8.7799   8.7799   8.9205   8.9205   9.1213   9.1213
     9.3267   9.3267   9.8423   9.8423   9.9026   9.9026   9.9936   9.9936
    10.2453  10.2453  10.4339  10.4339  10.6025  10.6024  10.9156  10.9156
    10.9315  10.9315  11.0364  11.0363  11.4703  11.4703  11.5462  11.5463

          k =-0.3193 0.0000 0.0000 (  3722 PWs)   bands (ev):

   -43.3602 -43.3602 -43.3381 -43.3381 -28.4807 -28.4807 -28.4425 -28.4425
   -28.3983 -28.3983 -28.3849 -28.3849 -21.1098 -21.1098 -21.1084 -21.1084
   -21.1044 -21.1044 -21.1011 -21.1011 -21.0826 -21.0826 -21.0788 -21.0788
    -9.6669  -9.6669  -9.5314  -9.5314  -9.4948  -9.4948  -9.4740  -9.4740
    -9.4277  -9.4277  -9.3470  -9.3470  -9.2852  -9.2852  -9.2742  -9.2742
    -9.2120  -9.2120  -9.1678  -9.1678  -9.1552  -9.1552  -9.0773  -9.0773
     7.7934   7.7934   7.8387   7.8387   7.9331   7.9331   8.0221   8.0221
     8.3602   8.3602   8.4788   8.4788   8.5350   8.5350   8.5985   8.5985
     8.7728   8.7728   8.9346   8.9346   9.0160   9.0160   9.0815   9.0815
     9.4742   9.4742   9.7185   9.7185   9.8666   9.8666  10.1852  10.1852
    10.5793  10.5794  10.6255  10.6255  10.7608  10.7608  10.7933  10.7933
    11.0106  11.0106  11.1463  11.1463  11.4493  11.4492  11.4855  11.4855

          k =-0.3193 0.0000 0.0844 (  3710 PWs)   bands (ev):

   -43.3264 -43.3264 -43.3185 -43.3185 -28.4620 -28.4620 -28.4395 -28.4395
   -28.3954 -28.3954 -28.3567 -28.3567 -21.1085 -21.1085 -21.1076 -21.1076
   -21.1036 -21.1036 -21.1000 -21.1000 -21.0823 -21.0823 -21.0794 -21.0794
    -9.6543  -9.6543  -9.5310  -9.5310  -9.5003  -9.5003  -9.4362  -9.4362
    -9.4156  -9.4156  -9.3420  -9.3420  -9.3029  -9.3029  -9.2339  -9.2339
    -9.2056  -9.2056  -9.1681  -9.1681  -9.1511  -9.1511  -9.0915  -9.0915
     7.8252   7.8252   7.8628   7.8628   7.9613   7.9613   8.0864   8.0864
     8.3185   8.3185   8.4024   8.4024   8.5399   8.5398   8.6532   8.6532
     8.7001   8.7001   8.8925   8.8925   9.0237   9.0237   9.1376   9.1376
     9.3728   9.3728   9.7571   9.7572   9.9089   9.9089  10.2324  10.2324
    10.3990  10.3990  10.5435  10.5435  10.5852  10.5852  10.9479  10.9479
    11.1326  11.1326  11.2896  11.2896  11.3461  11.3461  11.4788  11.4791

          k =-0.3193 0.0000-0.1689 (  3680 PWs)   bands (ev):

   -43.2818 -43.2818 -43.2364 -43.2364 -28.4269 -28.4269 -28.4114 -28.4114
   -28.3477 -28.3477 -28.3458 -28.3458 -21.1065 -21.1065 -21.1055 -21.1055
   -21.1004 -21.1004 -21.0965 -21.0965 -21.0802 -21.0802 -21.0799 -21.0799
    -9.6521  -9.6521  -9.4926  -9.4926  -9.4925  -9.4925  -9.4154  -9.4154
    -9.3492  -9.3492  -9.3314  -9.3314  -9.3277  -9.3277  -9.2080  -9.2080
    -9.1867  -9.1867  -9.1748  -9.1748  -9.1200  -9.1200  -9.0775  -9.0775
     7.7948   7.7948   8.0105   8.0106   8.0368   8.0368   8.1003   8.1003
     8.2077   8.2077   8.4006   8.4006   8.6111   8.6111   8.6417   8.6417
     8.7315   8.7315   8.7495   8.7496   8.8938   8.8938   9.2704   9.2704
     9.3191   9.3191   9.8031   9.8031   9.8951   9.8951  10.3188  10.3188
    10.3685  10.3686  10.4438  10.4438  10.6861  10.6861  10.8035  10.8035
    11.0986  11.0986  11.2208  11.2208  11.2638  11.2638  11.4869  11.4870

          k =-0.3193 0.1673 0.0000 (  3686 PWs)   bands (ev):

   -43.2900 -43.2900 -43.2687 -43.2687 -28.4365 -28.4365 -28.4261 -28.4261
   -28.3646 -28.3646 -28.3555 -28.3555 -21.1089 -21.1089 -21.1069 -21.1069
   -21.0991 -21.0991 -21.0988 -21.0988 -21.0765 -21.0765 -21.0738 -21.0738
    -9.5721  -9.5721  -9.5069  -9.5069  -9.4832  -9.4832  -9.4058  -9.4058
    -9.3983  -9.3983  -9.3353  -9.3353  -9.2835  -9.2835  -9.2449  -9.2449
    -9.1996  -9.1996  -9.1775  -9.1775  -9.1480  -9.1480  -9.1338  -9.1338
     7.9622   7.9622   8.0689   8.0689   8.1790   8.1790   8.2428   8.2428
     8.4381   8.4381   8.6236   8.6236   8.6631   8.6631   8.6800   8.6800
     8.7734   8.7734   8.8806   8.8806   9.0190   9.0190   9.2251   9.2251
     9.3715   9.3715   9.7298   9.7298   9.8869   9.8869  10.0966  10.0965
    10.1621  10.1622  10.4579  10.4579  10.5922  10.5922  10.7734  10.7734
    10.8201  10.8201  11.0416  11.0415  11.0534  11.0533  11.2359  11.2359

          k =-0.3193 0.1673 0.0844 (  3692 PWs)   bands (ev):

   -43.3273 -43.3273 -43.2518 -43.2518 -28.4407 -28.4407 -28.4314 -28.4314
   -28.3672 -28.3672 -28.3574 -28.3574 -21.1089 -21.1089 -21.1069 -21.1069
   -21.1003 -21.1003 -21.0987 -21.0987 -21.0802 -21.0802 -21.0736 -21.0736
    -9.5733  -9.5733  -9.5135  -9.5135  -9.4721  -9.4721  -9.4322  -9.4322
    -9.3859  -9.3859  -9.3389  -9.3389  -9.2915  -9.2915  -9.2382  -9.2382
    -9.2034  -9.2034  -9.1789  -9.1789  -9.1598  -9.1598  -9.1397  -9.1397
     8.0166   8.0166   8.0696   8.0696   8.1994   8.1994   8.3153   8.3153
     8.4235   8.4235   8.5779   8.5779   8.5942   8.5942   8.6840   8.6840
     8.7846   8.7846   8.8814   8.8814   8.9681   8.9681   9.1760   9.1760
     9.3961   9.3962   9.7631   9.7631   9.9444   9.9444  10.0539  10.0539
    10.2030  10.2029  10.3210  10.3210  10.5753  10.5753  10.6787  10.6787
    10.8424  10.8424  10.9951  10.9953  11.1289  11.1289  11.2990  11.2989

          k =-0.3193 0.1673-0.1689 (  3704 PWs)   bands (ev):

   -43.3603 -43.3603 -43.2663 -43.2663 -28.4518 -28.4518 -28.4417 -28.4417
   -28.3822 -28.3822 -28.3595 -28.3595 -21.1095 -21.1095 -21.1074 -21.1074
   -21.1018 -21.1018 -21.0994 -21.0994 -21.0817 -21.0817 -21.0769 -21.0769
    -9.5849  -9.5849  -9.5235  -9.5235  -9.4713  -9.4713  -9.4340  -9.4340
    -9.4082  -9.4082  -9.3394  -9.3394  -9.2999  -9.2999  -9.2378  -9.2378
    -9.2079  -9.2079  -9.1960  -9.1960  -9.1643  -9.1643  -9.1430  -9.1430
     8.0166   8.0166   8.1563   8.1563   8.2503   8.2503   8.3537   8.3537
     8.3722   8.3722   8.5824   8.5824   8.5875   8.5875   8.6899   8.6898
     8.7302   8.7302   8.7465   8.7465   9.0347   9.0348   9.1159   9.1159
     9.3379   9.3379   9.9162   9.9162   9.9853   9.9853  10.0174  10.0174
    10.1131  10.1131  10.4403  10.4403  10.4428  10.4428  10.6426  10.6426
    10.7909  10.7908  10.9511  10.9512  11.0764  11.0763  11.3860  11.3860

     the Fermi energy is    10.1777 ev

!    total energy              =   -1212.35942142 Ry
     Harris-Foulkes estimate   =   -1212.35946296 Ry
     estimated scf accuracy    <       0.00004622 Ry

     The total energy is the sum of the following terms:

     one-electron contribution =    -306.49708612 Ry
     hartree contribution      =     201.20343397 Ry
     xc contribution           =    -139.68966580 Ry
     ewald contribution        =    -965.98425179 Ry
     smearing contrib. (-TS)   =      -1.39185169 Ry

     convergence has been achieved in  14 iterations

     Forces acting on atoms (Ry/au):

     atom    1 type  1   force =     0.00000000   -0.00041264   -0.00253824
     atom    2 type  1   force =     0.00000000    0.00041264    0.00253824
     atom    3 type  1   force =     0.00000000   -0.00041264    0.00253824
     atom    4 type  1   force =     0.00000000    0.00041264   -0.00253824
     atom    5 type  1   force =     0.00000000   -0.00440316    0.01212990
     atom    6 type  1   force =     0.00000000    0.00440316   -0.01212990
     atom    7 type  1   force =     0.00000000   -0.00440316   -0.01212990
     atom    8 type  1   force =     0.00000000    0.00440316    0.01212990
     atom    9 type  2   force =     0.00000000    0.00748490   -0.00234557
     atom   10 type  2   force =     0.00000000   -0.00748490    0.00234557
     atom   11 type  2   force =     0.00000000    0.00748490    0.00234557
     atom   12 type  2   force =     0.00000000   -0.00748490   -0.00234557

     Total force =     0.030637     Total SCF correction =     0.000000


     entering subroutine stress ...

          total   stress  (Ry/bohr**3)                   (kbar)     P=-1026.66
  -0.00711891   0.00000000   0.00000000      -1047.23      0.00      0.00
   0.00000000  -0.00676554   0.00000000          0.00   -995.25      0.00
   0.00000000   0.00000000  -0.00705274          0.00      0.00  -1037.49


     number of scf cycles    =   3
     number of bfgs steps    =   2

     enthalpy old            =   -1218.7338677470 Ry
     enthalpy new            =   -1212.3594214230 Ry

     CASE: enthalpy_new > enthalpy_old

     new trust radius        =       1.3745000685 bohr

     trust_radius < trust_radius_min

     resetting bfgs history

     Message from routine bfgs:
     history already reset at previous step: stopping
     new conv_thr            =       0.0001000000 Ry

     new unit-cell volume =   1305.92482 a.u.^3 (   193.51809 Ang^3 )

CELL_PARAMETERS (alat=  7.01510508)
   1.153825975   0.000000000   0.000000000
   0.000000000   1.498210124   0.000000000
   0.000000000   0.000000000   2.188278501

ATOMIC_POSITIONS (crystal)
Co       0.750000000   0.826136431   0.434800538
Co       0.250000000   0.173863569   0.565199462
Co       0.750000000   0.326136431   0.065199462
Co       0.250000000   0.673863569   0.934800538
Co       0.250000000   0.538920406   0.279973610
Co       0.750000000   0.461079594   0.720026390
Co       0.250000000   0.038920406   0.220026390
Co       0.750000000   0.961079594   0.779973610
Si       0.250000000   0.200370499   0.893600998
Si       0.750000000   0.799629501   0.106399002
Si       0.250000000   0.700370499   0.606399002
Si       0.750000000   0.299629501   0.393600998



     Writing output data file Prototype-La-oP12-Co2Si.save
     NEW-OLD atomic charge density approx. for the potential
     NEW k-points:
        k(    1) = (   0.0000000   0.0000000   0.0000000), wk =   0.0833333
        k(    2) = (   0.0000000   0.0000000   0.1142451), wk =   0.1666667
        k(    3) = (   0.0000000   0.0000000  -0.2284901), wk =   0.0833333
        k(    4) = (   0.0000000   0.2224877   0.0000000), wk =   0.1666667
        k(    5) = (   0.0000000   0.2224877   0.1142451), wk =   0.3333333
        k(    6) = (   0.0000000   0.2224877  -0.2284901), wk =   0.1666667
        k(    7) = (  -0.4333409   0.0000000   0.0000000), wk =   0.0833333
        k(    8) = (  -0.4333409   0.0000000   0.1142451), wk =   0.1666667
        k(    9) = (  -0.4333409   0.0000000  -0.2284901), wk =   0.0833333
        k(   10) = (  -0.4333409   0.2224877   0.0000000), wk =   0.1666667
        k(   11) = (  -0.4333409   0.2224877   0.1142451), wk =   0.3333333
        k(   12) = (  -0.4333409   0.2224877  -0.2284901), wk =   0.1666667

     total cpu time spent up to now is      478.0 secs

     Self-consistent Calculation

     iteration #  1     ecut=    40.00 Ry     beta=0.70
     CG style diagonalization
     c_bands:  1 eigenvalues not converged
     c_bands:  4 eigenvalues not converged
     c_bands:  3 eigenvalues not converged
     c_bands:  2 eigenvalues not converged
     c_bands:  2 eigenvalues not converged
     c_bands:  2 eigenvalues not converged
     c_bands:  2 eigenvalues not converged
     c_bands:  2 eigenvalues not converged
     c_bands:  2 eigenvalues not converged
     c_bands:  2 eigenvalues not converged
     ethr =  1.00E-06,  avg # of iterations = 34.2

     total cpu time spent up to now is      558.8 secs

     total energy              =   -1173.40318666 Ry
     Harris-Foulkes estimate   =   -1314.17731741 Ry
     estimated scf accuracy    <     181.26823768 Ry

     iteration #  2     ecut=    40.00 Ry     beta=0.70
     CG style diagonalization
     ethr =  1.00E-02,  avg # of iterations =  6.3

     total cpu time spent up to now is      574.6 secs

     total energy              =   -1198.18597672 Ry
     Harris-Foulkes estimate   =   -1242.71834040 Ry
     estimated scf accuracy    <      69.64125283 Ry

     iteration #  3     ecut=    40.00 Ry     beta=0.70
     CG style diagonalization
     ethr =  1.00E-02,  avg # of iterations =  5.2

     total cpu time spent up to now is      587.6 secs

     total energy              =   -1213.26803919 Ry
     Harris-Foulkes estimate   =   -1227.14621428 Ry
     estimated scf accuracy    <      31.35513764 Ry

     iteration #  4     ecut=    40.00 Ry     beta=0.70
     CG style diagonalization
     ethr =  1.00E-02,  avg # of iterations =  3.9

     total cpu time spent up to now is      596.8 secs

     total energy              =   -1220.52436061 Ry
     Harris-Foulkes estimate   =   -1221.36285969 Ry
     estimated scf accuracy    <       2.09078649 Ry

     iteration #  5     ecut=    40.00 Ry     beta=0.70
     CG style diagonalization
     ethr =  1.31E-03,  avg # of iterations =  4.0

     total cpu time spent up to now is      606.6 secs

     total energy              =   -1220.97007677 Ry
     Harris-Foulkes estimate   =   -1221.26222619 Ry
     estimated scf accuracy    <       0.66253339 Ry

     iteration #  6     ecut=    40.00 Ry     beta=0.70
     CG style diagonalization
     ethr =  4.14E-04,  avg # of iterations =  3.6

     total cpu time spent up to now is      615.1 secs

     total energy              =   -1221.08447658 Ry
     Harris-Foulkes estimate   =   -1221.10272054 Ry
     estimated scf accuracy    <       0.03539326 Ry

     iteration #  7     ecut=    40.00 Ry     beta=0.70
     CG style diagonalization
     c_bands:  1 eigenvalues not converged
     c_bands:  1 eigenvalues not converged
     c_bands:  3 eigenvalues not converged
     c_bands:  1 eigenvalues not converged
     ethr =  2.21E-05,  avg # of iterations =  5.2

     total cpu time spent up to now is      628.2 secs

     total energy              =   -1221.10489386 Ry
     Harris-Foulkes estimate   =   -1221.10848174 Ry
     estimated scf accuracy    <       0.00840793 Ry

     iteration #  8     ecut=    40.00 Ry     beta=0.70
     CG style diagonalization
     c_bands:  1 eigenvalues not converged
     c_bands:  1 eigenvalues not converged
     c_bands:  1 eigenvalues not converged
     ethr =  5.25E-06,  avg # of iterations =  3.9

     total cpu time spent up to now is      637.6 secs

     total energy              =   -1221.10610068 Ry
     Harris-Foulkes estimate   =   -1221.10663869 Ry
     estimated scf accuracy    <       0.00092171 Ry

     iteration #  9     ecut=    40.00 Ry     beta=0.70
     CG style diagonalization
     c_bands:  1 eigenvalues not converged
     ethr =  5.76E-07,  avg # of iterations =  4.5

     total cpu time spent up to now is      648.3 secs

     total energy              =   -1221.10643471 Ry
     Harris-Foulkes estimate   =   -1221.10657911 Ry
     estimated scf accuracy    <       0.00032071 Ry

     iteration # 10     ecut=    40.00 Ry     beta=0.70
     CG style diagonalization
     ethr =  2.00E-07,  avg # of iterations =  3.5

     total cpu time spent up to now is      655.9 secs

     End of self-consistent calculation

          k = 0.0000 0.0000 0.0000 (  3675 PWs)   bands (ev):

   -28.5725 -28.5473 -28.5461 -28.5410  -9.5305  -9.2349  -9.0531  -8.5007
    -8.4107  -8.2779  -8.2242  -8.2121  -4.3082  -4.2063  -4.1513  -4.1014
    -4.0911  -4.0308  -3.9119  -3.8850  -3.8551  -3.8027  -3.6886  -3.5759
     6.5017   7.0313   7.2295   7.8041   7.8724   7.9109   8.4231   8.4405
     8.7681   9.0153   9.0684   9.1521   9.3653   9.5927   9.9261   9.9620
    10.0836  10.0964  10.1946  10.6035  11.0244  11.1616  11.5149  11.7654
    21.8943  21.9224  22.1769  22.7008  22.9244  22.9786  23.0251  23.2545
    23.5427  23.8771  24.2823  24.4432  24.5879  24.6881  25.2796  25.4394
    25.7594  26.0521  26.3555  26.7957  26.9937  27.1674  27.7828  27.8406
    27.8726  27.9733  28.5874  28.6459  28.8557  28.9630  29.2875  29.5681
    29.6566  29.7123  30.0577  30.2606  30.9215  31.1679  31.4441  31.5768
    31.7031  31.8418  32.1745  32.4984  32.9761  33.4744  33.6960  35.3091

          k = 0.0000 0.0000 0.1142 (  3675 PWs)   bands (ev):

   -28.5697 -28.5540 -28.5439 -28.5390  -9.5172  -9.3533  -8.8868  -8.5365
    -8.4216  -8.3152  -8.2386  -8.1712  -4.2867  -4.2257  -4.1341  -4.1031
    -4.0491  -4.0282  -3.9481  -3.8851  -3.8584  -3.7601  -3.7383  -3.6084
     6.5526   6.9177   7.4037   7.7939   7.8507   8.0432   8.2138   8.5813
     8.7323   9.1543   9.1737   9.1810   9.3518   9.5334   9.6521   9.8807
     9.9142  10.3899  10.4429  10.4642  10.9615  10.9698  11.5410  11.7217
    21.8494  21.9493  22.3572  22.4794  22.5151  22.9976  23.3016  23.4310
    23.6361  23.8380  24.4879  24.6788  24.7047  25.3519  25.4532  25.5831
    25.6993  25.9049  25.9551  26.4467  26.6845  26.9706  27.6651  27.7400
    28.2061  28.5425  28.5564  28.5602  28.8974  29.2095  29.2391  29.3027
    29.3167  29.6950  30.0061  30.4188  30.6868  30.8666  31.2971  31.3699
    31.6971  32.0443  32.5422  32.7074  32.7814  33.2630  33.3583  33.9176

          k = 0.0000 0.0000-0.2285 (  3690 PWs)   bands (ev):

   -28.5632 -28.5632 -28.5459 -28.5459  -9.4645  -9.4645  -8.6682  -8.6682
    -8.4025  -8.4025  -8.1837  -8.1837  -4.2578  -4.2578  -4.1134  -4.1134
    -4.0030  -4.0030  -3.9045  -3.9045  -3.8705  -3.8705  -3.6900  -3.6900
     6.6998   6.6998   7.8089   7.8089   7.8238   7.8238   8.3761   8.3761
     8.9268   8.9268   9.3368   9.3368   9.3397   9.3397   9.8310   9.8310
     9.9881   9.9881  10.6048  10.6048  10.7864  10.7864  11.6211  11.6211
    21.9947  21.9947  22.0189  22.0189  22.9213  22.9213  23.6860  23.6860
    24.1482  24.1482  24.2922  24.2922  25.0620  25.0620  25.4020  25.4020
    25.9821  25.9821  26.0717  26.0717  26.8109  26.8109  27.6324  27.6324
    28.5171  28.5171  28.5629  28.5629  29.1119  29.1119  29.2716  29.2716
    29.7973  29.7973  30.0337  30.0337  30.1543  30.1543  31.2298  31.2298
    32.1573  32.1575  32.1820  32.1822  32.6511  32.6511  33.8306  33.8309

          k = 0.0000 0.2225 0.0000 (  3664 PWs)   bands (ev):

   -28.5696 -28.5542 -28.5383 -28.5311  -9.4309  -9.1988  -9.1201  -8.8288
    -8.4850  -8.3746  -8.1007  -8.0491  -4.2616  -4.2013  -4.1550  -4.1244
    -4.1074  -4.0674  -3.9026  -3.8467  -3.7239  -3.6833  -3.5806  -3.5792
     7.0049   7.6660   7.6999   7.7448   7.8092   7.8287   7.9329   8.2544
     8.4343   8.7226   8.8493   9.1046   9.2301   9.9036   9.9239  10.1832
    10.2028  10.2582  10.3359  10.4325  10.5855  10.7417  10.9273  10.9766
    22.4886  22.6028  22.7174  22.8479  23.3880  23.4975  23.6806  23.8167
    24.1787  24.2006  24.3744  24.5503  24.6349  25.2680  25.4290  25.6867
    25.8173  26.1887  26.3656  26.4272  26.5280  27.0322  27.0807  27.4578
    27.4842  28.1066  28.7339  28.8203  28.9574  29.1856  29.2206  29.2564
    29.5775  30.2895  30.4448  30.7050  30.7454  30.9139  31.3118  31.6343
    31.8224  31.9613  32.2309  32.3350  32.3713  32.6846  32.9413  33.2131

          k = 0.0000 0.2225 0.1142 (  3669 PWs)   bands (ev):

   -28.5664 -28.5530 -28.5404 -28.5401  -9.4238  -9.3008  -9.0166  -8.8600
    -8.4323  -8.3188  -8.1528  -8.0820  -4.2470  -4.2131  -4.1488  -4.1282
    -4.0655  -4.0445  -3.8976  -3.8374  -3.7689  -3.6789  -3.6427  -3.5938
     7.0905   7.5157   7.6876   7.7535   7.8616   7.9050   8.0601   8.3770
     8.4389   8.7814   8.8289   9.0023   9.2756   9.8359   9.9088  10.0236
    10.0259  10.1122  10.3980  10.5114  10.6725  10.6991  10.8944  10.9956
    22.4417  22.5290  22.8165  22.9243  23.1953  23.5811  23.8432  23.9873
    24.0496  24.3793  24.3808  24.5129  24.8724  25.2374  25.6209  25.7357
    25.8338  26.0029  26.1681  26.5220  26.6365  27.0250  27.4695  27.7070
    27.9316  28.0220  28.2547  28.5104  28.6993  28.9011  29.2730  29.2826
    30.0478  30.1415  30.3456  30.4807  30.5644  30.6987  31.0578  31.3162
    31.3618  31.6364  32.2597  32.3835  32.9405  33.0742  33.1366  33.1965

          k = 0.0000 0.2225-0.2285 (  3666 PWs)   bands (ev):

   -28.5581 -28.5581 -28.5408 -28.5408  -9.3875  -9.3875  -8.9234  -8.9234
    -8.3088  -8.3088  -8.1729  -8.1729  -4.2304  -4.2304  -4.1381  -4.1381
    -4.0111  -4.0111  -3.8596  -3.8596  -3.7716  -3.7716  -3.6270  -3.6270
     7.2897   7.2897   7.7601   7.7601   7.9014   7.9014   8.3033   8.3033
     8.5937   8.5937   8.9740   8.9740   9.5167   9.5167   9.8557   9.8557
     9.9336   9.9336  10.5812  10.5812  10.6412  10.6412  10.9409  10.9409
    22.4529  22.4529  22.7205  22.7205  23.6854  23.6854  24.0633  24.0633
    24.1088  24.1088  24.6089  24.6089  24.9972  24.9972  25.7974  25.7974
    25.8460  25.8460  26.2923  26.2923  27.1513  27.1513  27.4488  27.4488
    27.9529  27.9529  28.0092  28.0092  29.2483  29.2483  29.6994  29.6994
    29.8768  29.8768  29.9718  29.9718  30.3415  30.3415  30.9283  30.9283
    31.8834  31.8834  31.8886  31.8886  32.6484  32.6485  33.1468  33.1479

          k =-0.4333 0.0000 0.0000 (  3722 PWs)   bands (ev):

   -28.5662 -28.5662 -28.5528 -28.5528  -9.3228  -9.3228  -8.8189  -8.8189
    -8.5775  -8.5775  -8.2126  -8.2126  -4.2539  -4.2539  -4.1699  -4.1699
    -3.9192  -3.9192  -3.9148  -3.9148  -3.8139  -3.8139  -3.6689  -3.6689
     6.6270   6.6270   7.5796   7.5796   7.7736   7.7736   8.3847   8.3847
     8.5637   8.5637   9.6122   9.6122   9.7094   9.7094  10.0079  10.0079
    10.3325  10.3325  10.6959  10.6959  10.9672  10.9672  11.4585  11.4585
    22.3250  22.3250  23.6728  23.6728  23.7830  23.7830  23.9432  23.9432
    24.0810  24.0810  24.1586  24.1586  24.4349  24.4349  25.4297  25.4297
    25.7009  25.7009  26.1121  26.1121  26.1912  26.1912  26.4366  26.4366
    27.3190  27.3190  28.0403  28.0403  28.5209  28.5209  29.3747  29.3747
    30.3069  30.3069  30.4108  30.4108  30.6361  30.6361  31.5020  31.5020
    31.6449  31.6449  32.0183  32.0183  32.4524  32.4524  33.1046  33.1047

          k =-0.4333 0.0000 0.1142 (  3710 PWs)   bands (ev):

   -28.5640 -28.5640 -28.5486 -28.5486  -9.3422  -9.3422  -8.8030  -8.8030
    -8.5669  -8.5669  -8.2116  -8.2116  -4.2341  -4.2341  -4.1778  -4.1778
    -4.0143  -4.0143  -3.8924  -3.8924  -3.7485  -3.7485  -3.6716  -3.6716
     6.6330   6.6330   7.5654   7.5654   7.9701   7.9701   8.3532   8.3532
     8.7123   8.7123   9.4286   9.4286   9.5156   9.5156   9.8760   9.8760
    10.5233  10.5233  10.7125  10.7125  10.9497  10.9497  11.4526  11.4526
    22.4856  22.4856  23.3554  23.3554  23.7201  23.7201  23.8488  23.8488
    24.1844  24.1844  24.5229  24.5229  24.6593  24.6593  25.1319  25.1319
    25.4421  25.4421  26.3058  26.3058  26.6546  26.6546  26.7682  26.7682
    27.2098  27.2098  27.9730  27.9730  28.8124  28.8124  29.0143  29.0143
    29.6145  29.6145  30.0860  30.0860  30.8374  30.8374  31.1414  31.1414
    31.3962  31.3962  31.9071  31.9071  32.5569  32.5571  33.2485  33.2485

          k =-0.4333 0.0000-0.2285 (  3680 PWs)   bands (ev):

   -28.5537 -28.5537 -28.5443 -28.5443  -9.3595  -9.3595  -8.7909  -8.7909
[...]

     total cpu time spent up to now is      665.2 secs

     Self-consistent Calculation

     iteration #  1     ecut=    40.00 Ry     beta=0.70
     CG style diagonalization
     c_bands:  5 eigenvalues not converged
     c_bands:  4 eigenvalues not converged
     c_bands:  2 eigenvalues not converged
     c_bands:  3 eigenvalues not converged
     c_bands:  5 eigenvalues not converged
     c_bands:  3 eigenvalues not converged
     c_bands:  3 eigenvalues not converged
     c_bands:  1 eigenvalues not converged
     c_bands:  1 eigenvalues not converged
     c_bands:  1 eigenvalues not converged
     c_bands:  2 eigenvalues not converged
     ethr =  1.00E-06,  avg # of iterations = 41.9

     total cpu time spent up to now is      846.8 secs

     total energy              =    -967.98180482 Ry
     Harris-Foulkes estimate   =   -1391.28414570 Ry
     estimated scf accuracy    <     534.34765008 Ry

     iteration #  2     ecut=    40.00 Ry     beta=0.70
     CG style diagonalization
     c_bands:  5 eigenvalues not converged
     c_bands:  1 eigenvalues not converged
     c_bands:  2 eigenvalues not converged
     c_bands:  2 eigenvalues not converged
     c_bands:  1 eigenvalues not converged
     ethr =  1.00E-02,  avg # of iterations = 10.8

     total cpu time spent up to now is      893.0 secs

     total energy              =   -1111.86291254 Ry
     Harris-Foulkes estimate   =   -1403.78893640 Ry
     estimated scf accuracy    <     538.45826852 Ry

     iteration #  3     ecut=    40.00 Ry     beta=0.70
     CG style diagonalization
     c_bands:  1 eigenvalues not converged
     c_bands:  1 eigenvalues not converged
     ethr =  1.00E-02,  avg # of iterations =  9.7

     total cpu time spent up to now is      932.2 secs

     total energy              =   -1215.61854955 Ry
     Harris-Foulkes estimate   =   -1230.09139360 Ry
     estimated scf accuracy    <      26.56427544 Ry

     iteration #  4     ecut=    40.00 Ry     beta=0.70
     CG style diagonalization
     ethr =  1.00E-02,  avg # of iterations =  4.1

     total cpu time spent up to now is      947.1 secs

     total energy              =   -1220.82044079 Ry
     Harris-Foulkes estimate   =   -1223.35389715 Ry
     estimated scf accuracy    <       5.27826986 Ry

     iteration #  5     ecut=    40.00 Ry     beta=0.70
     CG style diagonalization
     ethr =  3.30E-03,  avg # of iterations =  3.7

     total cpu time spent up to now is      960.5 secs

     total energy              =   -1221.90740141 Ry
     Harris-Foulkes estimate   =   -1222.29903749 Ry
     estimated scf accuracy    <       0.72034271 Ry

     iteration #  6     ecut=    40.00 Ry     beta=0.70
     CG style diagonalization
     c_bands:  1 eigenvalues not converged
     ethr =  4.50E-04,  avg # of iterations =  4.4

     total cpu time spent up to now is      977.3 secs

     total energy              =   -1222.09696102 Ry
     Harris-Foulkes estimate   =   -1222.14672998 Ry
     estimated scf accuracy    <       0.08739192 Ry

     iteration #  7     ecut=    40.00 Ry     beta=0.70
     CG style diagonalization
     c_bands:  1 eigenvalues not converged
     c_bands:  1 eigenvalues not converged
     c_bands:  2 eigenvalues not converged
     ethr =  5.46E-05,  avg # of iterations =  4.7

     total cpu time spent up to now is      994.9 secs

     total energy              =   -1222.12972567 Ry
     Harris-Foulkes estimate   =   -1222.13979000 Ry
     estimated scf accuracy    <       0.02375725 Ry

     iteration #  8     ecut=    40.00 Ry     beta=0.70
     CG style diagonalization
     ethr =  1.48E-05,  avg # of iterations =  3.8

     total cpu time spent up to now is     1009.1 secs

     total energy              =   -1222.13277109 Ry
     Harris-Foulkes estimate   =   -1222.13478461 Ry
     estimated scf accuracy    <       0.00340126 Ry

     iteration #  9     ecut=    40.00 Ry     beta=0.70
     CG style diagonalization
     ethr =  2.13E-06,  avg # of iterations =  4.7

     total cpu time spent up to now is     1026.5 secs

     total energy              =   -1222.13415108 Ry
     Harris-Foulkes estimate   =   -1222.13434975 Ry
     estimated scf accuracy    <       0.00044708 Ry

     iteration # 10     ecut=    40.00 Ry     beta=0.70
     CG style diagonalization
     ethr =  2.79E-07,  avg # of iterations =  4.1

     total cpu time spent up to now is     1041.4 secs

     End of self-consistent calculation

          k = 0.0000 0.0000 0.0000 (  5611 PWs)   bands (ev):

   -28.6233 -28.6044 -28.5978 -28.5866  -9.4765  -9.1885  -9.0005  -8.4385
    -8.3497  -8.2260  -8.1673  -8.1574  -4.4439  -4.3425  -4.2979  -4.2471
    -4.2348  -4.1602  -4.0600  -4.0184  -3.9834  -3.9387  -3.8211  -3.7193
     6.4558   6.9737   7.1815   7.7537   7.8146   7.8650   8.3637   8.3929
     8.7075   8.9590   9.0115   9.0914   9.2986   9.5301   9.8525   9.8909
    10.0192  10.0240  10.1338  10.5384  10.9414  11.0831  11.4544  11.6890
    21.8697  21.9010  22.1603  22.6787  22.8992  22.9465  23.0058  23.2357
    23.5111  23.8537  24.2568  24.4057  24.5677  24.6613  25.2402  25.4177
    25.7197  25.9977  26.3273  26.7681  26.9624  27.1437  27.7385  27.7820
    27.8374  27.9389  28.5246  28.5974  28.7842  28.9214  29.2469  29.5227
    29.5985  29.6413  30.0134  30.1967  30.8861  31.1042  31.3937  31.5283
    31.6320  31.7731  32.1099  32.4380  32.8763  33.1961  33.3793  33.6149

          k = 0.0000 0.0000 0.1142 (  5589 PWs)   bands (ev):

   -28.6211 -28.6090 -28.5940 -28.5873  -9.4636  -9.3046  -8.8345  -8.4756
    -8.3637  -8.2618  -8.1830  -8.1125  -4.4320  -4.3666  -4.2802  -4.2491
    -4.1745  -4.1571  -4.0855  -4.0102  -3.9862  -3.9017  -3.8749  -3.7535
     6.5048   6.8602   7.3591   7.7451   7.7928   7.9971   8.1627   8.5332
     8.6749   9.0859   9.1231   9.1233   9.2860   9.4651   9.5882   9.8156
     9.8504  10.3181  10.3781  10.3783  10.8826  10.8853  11.4795  11.6513
    21.8278  21.9278  22.3325  22.4549  22.4957  22.9768  23.2788  23.4067
    23.6088  23.8118  24.4578  24.6544  24.6779  25.3136  25.4172  25.5431
    25.6651  25.8779  25.9045  26.4181  26.6573  26.9382  27.6292  27.7002
    28.1748  28.4810  28.5078  28.5101  28.8630  29.1669  29.1727  29.2391
    29.2533  29.6533  29.9655  30.3618  30.6420  30.8175  31.2237  31.3164
    31.6377  31.9807  32.4628  32.6481  32.7124  33.1578  33.2417  33.2642

          k = 0.0000 0.0000-0.2285 (  5562 PWs)   bands (ev):

   -28.6157 -28.6157 -28.5896 -28.5896  -9.4132  -9.4132  -8.6117  -8.6117
    -8.3469  -8.3469  -8.1248  -8.1248  -4.4030  -4.4030  -4.2602  -4.2602
    -4.1345  -4.1345  -4.0246  -4.0246  -3.9900  -3.9900  -3.8258  -3.8258
     6.6540   6.6540   7.7557   7.7557   7.7735   7.7735   8.3266   8.3266
     8.8652   8.8652   9.2685   9.2685   9.2900   9.2900   9.7714   9.7714
     9.9216   9.9216  10.5461  10.5461  10.6972  10.6972  11.5599  11.5599
    21.9740  21.9740  21.9968  21.9968  22.9032  22.9032  23.6606  23.6606
    24.1173  24.1173  24.2611  24.2611  25.0354  25.0354  25.3632  25.3632
    25.9550  25.9550  26.0367  26.0367  26.7754  26.7754  27.5897  27.5897
    28.4721  28.4721  28.5265  28.5265  29.0662  29.0662  29.2096  29.2096
    29.7550  29.7550  29.9871  29.9871  30.0858  30.0858  31.1802  31.1802
    32.0681  32.0681  32.1314  32.1316  32.5918  32.5919  33.4135  33.4137

          k = 0.0000 0.2225 0.0000 (  5541 PWs)   bands (ev):

   -28.6155 -28.6058 -28.5966 -28.5914  -9.3785  -9.1487  -9.0720  -8.7755
    -8.4256  -8.3175  -8.0400  -7.9863  -4.4026  -4.3435  -4.2965  -4.2769
    -4.2368  -4.2051  -4.0426  -3.9846  -3.8656  -3.8180  -3.7127  -3.7086
     6.9529   7.6168   7.6508   7.6915   7.7575   7.7781   7.8846   8.2036
     8.3806   8.6732   8.7937   9.0470   9.1711   9.8315   9.8517  10.1010
    10.1197  10.1914  10.2705  10.3617  10.5187  10.6501  10.8609  10.9029
    22.4664  22.5749  22.6936  22.8271  23.3632  23.4665  23.6579  23.7881
    24.1507  24.1729  24.3418  24.5210  24.6017  25.2324  25.3959  25.6501
    25.7722  26.1557  26.3264  26.3999  26.4973  26.9981  27.0302  27.4064
    27.4454  28.0567  28.6776  28.7787  28.9079  29.1329  29.1695  29.2146
    29.5354  30.2314  30.3960  30.6465  30.6975  30.8683  31.2547  31.5906
    31.7572  31.8917  32.1622  32.2348  32.3017  32.5964  32.8646  33.1260

          k = 0.0000 0.2225 0.1142 (  5577 PWs)   bands (ev):

   -28.6144 -28.6079 -28.5959 -28.5923  -9.3723  -9.2523  -8.9657  -8.8069
    -8.3737  -8.2616  -8.0927  -8.0206  -4.3968  -4.3565  -4.2920  -4.2801
    -4.2005  -4.1797  -4.0375  -3.9756  -3.9021  -3.8150  -3.7663  -3.7250
     7.0441   7.4672   7.6407   7.7058   7.8138   7.8546   8.0049   8.3183
     8.3863   8.7226   8.7742   8.9497   9.2247   9.7663   9.8289   9.9451
     9.9626  10.0455  10.3157  10.4404  10.6035  10.6105  10.8243  10.9233
    22.4191  22.5041  22.7910  22.8941  23.1693  23.5556  23.8196  23.9585
    24.0220  24.3451  24.3496  24.4809  24.8392  25.2026  25.5905  25.6999
    25.8023  25.9612  26.1296  26.4931  26.5993  26.9867  27.4275  27.6493
    27.8882  27.9747  28.2086  28.4612  28.6446  28.8510  29.2285  29.2301
    29.9947  30.0927  30.2928  30.4237  30.5096  30.6463  30.9976  31.2554
    31.2842  31.5803  32.1999  32.3060  32.8602  33.0027  33.0537  33.1051

          k = 0.0000 0.2225-0.2285 (  5564 PWs)   bands (ev):

   -28.6114 -28.6114 -28.5938 -28.5938  -9.3379  -9.3379  -8.8705  -8.8705
    -8.2500  -8.2500  -8.1130  -8.1130  -4.3776  -4.3776  -4.2851  -4.2851
    -4.1510  -4.1510  -3.9958  -3.9958  -3.8996  -3.8996  -3.7600  -3.7600
     7.2436   7.2436   7.7113   7.7113   7.8518   7.8518   8.2491   8.2491
     8.5357   8.5357   8.9190   8.9190   9.4527   9.4527   9.7938   9.7938
     9.8551   9.8551  10.4948  10.4948  10.5748  10.5748  10.8674  10.8674
    22.4297  22.4297  22.6944  22.6944  23.6556  23.6556  24.0328  24.0328
    24.0797  24.0797  24.5782  24.5782  24.9656  24.9656  25.7629  25.7629
    25.8148  25.8148  26.2591  26.2591  27.1036  27.1036  27.4040  27.4040
    27.9123  27.9123  27.9597  27.9597  29.1927  29.1927  29.6401  29.6401
    29.8239  29.8238  29.9133  29.9133  30.2911  30.2911  30.8724  30.8724
    31.7995  31.7996  31.8291  31.8292  32.5869  32.5872  33.0794  33.0802

          k =-0.4333 0.0000 0.0000 (  5596 PWs)   bands (ev):

   -28.6061 -28.6061 -28.5921 -28.5921  -9.2774  -9.2774  -8.7639  -8.7639
    -8.5185  -8.5185  -8.1575  -8.1575  -4.3842  -4.3842  -4.2967  -4.2967
    -4.0490  -4.0490  -4.0329  -4.0329  -3.9356  -3.9356  -3.8015  -3.8015
     6.5848   6.5848   7.5352   7.5352   7.7263   7.7263   8.3382   8.3382
     8.5174   8.5174   9.5539   9.5539   9.6496   9.6496   9.9472   9.9472
    10.2705  10.2705  10.6337  10.6337  10.8912  10.8912  11.3914  11.3914
    22.3001  22.3001  23.6483  23.6483  23.7620  23.7620  23.9246  23.9246
    24.0564  24.0564  24.1349  24.1349  24.4090  24.4090  25.3942  25.3942
    25.6593  25.6593  26.0831  26.0831  26.1616  26.1616  26.4059  26.4059
    27.2878  27.2878  27.9892  27.9892  28.4744  28.4744  29.3066  29.3066
    30.2587  30.2587  30.3548  30.3548  30.5767  30.5767  31.4216  31.4216
    31.5454  31.5454  31.9399  31.9401  32.3646  32.3647  33.0377  33.0389

          k =-0.4333 0.0000 0.1142 (  5596 PWs)   bands (ev):

   -28.6060 -28.6060 -28.5922 -28.5922  -9.2974  -9.2974  -8.7473  -8.7473
    -8.5078  -8.5078  -8.1568  -8.1568  -4.3651  -4.3651  -4.3055  -4.3055
    -4.1440  -4.1440  -4.0231  -4.0231  -3.8789  -3.8789  -3.7981  -3.7981
     6.5874   6.5874   7.5190   7.5190   7.9193   7.9193   8.3049   8.3049
     8.6666   8.6666   9.3687   9.3687   9.4555   9.4555   9.8116   9.8116
    10.4596  10.4596  10.6430  10.6430  10.8773  10.8773  11.3884  11.3884
    22.4601  22.4601  23.3335  23.3335  23.7021  23.7021  23.8263  23.8263
    24.1593  24.1593  24.4977  24.4977  24.6327  24.6327  25.0971  25.0971
    25.4118  25.4118  26.2729  26.2729  26.6160  26.6160  26.7286  26.7286
    27.1717  27.1717  27.9221  27.9221  28.7622  28.7622  28.9609  28.9609
    29.5531  29.5531  30.0255  30.0255  30.7703  30.7703  31.0836  31.0836
    31.3286  31.3286  31.8378  31.8379  32.4726  32.4726  33.1299  33.1299

          k =-0.4333 0.0000-0.2285 (  5608 PWs)   bands (ev):

   -28.6059 -28.6059 -28.5924 -28.5924  -9.3164  -9.3164  -8.7346  -8.7346
    -8.4938  -8.4938  -8.1567  -8.1567  -4.3324  -4.3324  -4.3228  -4.3228
    -4.2094  -4.2094  -4.0300  -4.0300  -3.8414  -3.8414  -3.7966  -3.7966
     6.5853   6.5853   7.5620   7.5620   8.0308   8.0308   8.4486   8.4486
     8.6889   8.6889   9.2067   9.2067   9.3129   9.3129   9.6278   9.6278
    10.6059  10.6059  10.7241  10.7241  10.7844  10.7844  11.3846  11.3846
    22.6442  22.6442  23.0848  23.0848  23.6989  23.6989  23.8217  23.8217
    24.3663  24.3663  24.5773  24.5773  24.7785  24.7785  24.9264  24.9264
    25.2649  25.2649  26.4719  26.4719  26.5102  26.5102  26.9703  26.9703
    27.7470  27.7470  28.0521  28.0521  28.5289  28.5289  29.0390  29.0390
    29.2601  29.2601  29.5678  29.5678  29.9209  29.9209  30.6939  30.6939
    31.4160  31.4160  31.6979  31.6979  33.1929  33.1932  33.3934  33.3935

          k =-0.4333 0.2225 0.0000 (  5592 PWs)   bands (ev):

   -28.6023 -28.6023 -28.5954 -28.5954  -9.1220  -9.1220  -8.8705  -8.8705
    -8.5257  -8.5257  -8.3425  -8.3425  -4.2771  -4.2771  -4.2391  -4.2391
    -4.0382  -4.0382  -4.0233  -4.0233  -3.8607  -3.8607  -3.7943  -3.7943
     7.0156   7.0156   7.2653   7.2653   7.7643   7.7643   8.6295   8.6295
     8.6614   8.6614   9.1096   9.1096   9.5275   9.5275   9.6136   9.6136
    10.3626  10.3626  10.4854  10.4854  10.7911  10.7911  10.9270  10.9270
    22.8678  22.8678  23.7236  23.7236  23.9078  23.9078  24.1075  24.1075
    24.4259  24.4259  24.5134  24.5134  25.2699  25.2699  25.6041  25.6041
    25.7555  25.7555  25.9230  25.9230  26.6875  26.6875  26.8584  26.8584
    27.8443  27.8443  27.8605  27.8605  28.5071  28.5070  28.9738  28.9738
    29.8044  29.8044  30.1773  30.1773  30.3181  30.3181  30.8188  30.8188
    31.0685  31.0685  32.0218  32.0220  32.2493  32.2493  33.0602  33.0603

          k =-0.4333 0.2225 0.1142 (  5588 PWs)   bands (ev):

   -28.6023 -28.6023 -28.5953 -28.5953  -9.1428  -9.1428  -8.8719  -8.8719
    -8.5068  -8.5068  -8.3288  -8.3288  -4.2920  -4.2920  -4.2501  -4.2501
    -4.0829  -4.0829  -4.0057  -4.0057  -3.8312  -3.8312  -3.7880  -3.7880
     7.0707   7.0707   7.3826   7.3826   7.8560   7.8560   8.2776   8.2776
     8.6230   8.6230   9.1629   9.1629   9.5393   9.5393   9.8225   9.8225
    10.2971  10.2971  10.5361  10.5361  10.6455  10.6455  10.9002  10.9002
    22.9106  22.9106  23.5297  23.5297  23.8645  23.8645  24.2004  24.2004
    24.5251  24.5251  24.6854  24.6854  25.2577  25.2577  25.4308  25.4308
    25.9443  25.9443  26.1964  26.1964  26.7934  26.7934  27.0502  27.0502
    27.8513  27.8513  28.0549  28.0549  28.4385  28.4385  28.6244  28.6244
    29.6495  29.6494  29.9540  29.9540  30.1814  30.1814  30.5867  30.5867
    31.2578  31.2578  31.8592  31.8593  32.1682  32.1683  32.7582  32.7586

          k =-0.4333 0.2225-0.2285 (  5576 PWs)   bands (ev):

   -28.6022 -28.6022 -28.5953 -28.5953  -9.1615  -9.1615  -8.8752  -8.8752
    -8.4869  -8.4869  -8.3161  -8.3161  -4.3025  -4.3025  -4.2672  -4.2672
    -4.1008  -4.1008  -4.0062  -4.0062  -3.8025  -3.8025  -3.7856  -3.7856
     7.1155   7.1155   7.6072   7.6072   7.9183   7.9183   8.1152   8.1152
     8.3295   8.3295   9.2032   9.2032   9.6842   9.6842   9.9618   9.9618
    10.2878  10.2878  10.3389  10.3389  10.7127  10.7127  10.8008  10.8008
    22.9127  22.9127  23.4166  23.4166  23.8516  23.8516  24.3104  24.3104
    24.5909  24.5909  24.8909  24.8909  25.1573  25.1573  25.4038  25.4038
    26.0935  26.0935  26.2536  26.2536  27.2605  27.2605  27.2709  27.2709
    27.6336  27.6336  27.9777  27.9777  28.3542  28.3542  28.9292  28.9292
    28.9336  28.9336  29.8890  29.8890  30.0633  30.0633  30.8047  30.8047
    30.9477  30.9477  31.8081  31.8083  32.0797  32.0799  32.4786  32.4793

     the Fermi energy is    29.3854 ev

!    total energy              =   -1222.13429011 Ry
     Harris-Foulkes estimate   =   -1222.13429922 Ry
     estimated scf accuracy    <       0.00001369 Ry

     The total energy is the sum of the following terms:

     one-electron contribution =     142.54841598 Ry
     hartree contribution      =      88.96482346 Ry
     xc contribution           =    -153.46999447 Ry
     ewald contribution        =   -1299.59058292 Ry
     smearing contrib. (-TS)   =      -0.58695216 Ry

     convergence has been achieved in  10 iterations

     Forces acting on atoms (Ry/au):

     atom    1 type  1   force =     0.00000000   -0.01211089   -0.01997484
     atom    2 type  1   force =     0.00000000    0.01211089    0.01997484
     atom    3 type  1   force =     0.00000000   -0.01211089    0.01997484
     atom    4 type  1   force =     0.00000000    0.01211089   -0.01997484
     atom    5 type  1   force =     0.00000000    0.03356418   -0.06937123
     atom    6 type  1   force =     0.00000000   -0.03356418    0.06937123
     atom    7 type  1   force =     0.00000000    0.03356418    0.06937123
     atom    8 type  1   force =     0.00000000   -0.03356418   -0.06937123
     atom    9 type  2   force =     0.00000000   -0.08568213    0.03929913
     atom   10 type  2   force =     0.00000000    0.08568213   -0.03929913
     atom   11 type  2   force =     0.00000000   -0.08568213   -0.03929913
     atom   12 type  2   force =     0.00000000    0.08568213    0.03929913

     Total force =     0.247955     Total SCF correction =     0.000000


     entering subroutine stress ...

          total   stress  (Ry/bohr**3)                   (kbar)     P= 1299.43
   0.00924482   0.00000000   0.00000000       1359.96      0.00      0.00
   0.00000000   0.00834124   0.00000000          0.00   1227.04      0.00
   0.00000000   0.00000000   0.00891396          0.00      0.00   1311.29


     Writing output data file Prototype-La-oP12-Co2Si.save
 
     init_run     :      6.98s CPU      7.93s WALL (       2 calls)
     electrons    :    919.43s CPU   1018.52s WALL (       5 calls)
     update_pot   :      1.93s CPU      1.96s WALL (       3 calls)
     forces       :      3.94s CPU      4.15s WALL (       5 calls)
     stress       :     12.10s CPU     12.39s WALL (       5 calls)

     Called by init_run:
     wfcinit      :      2.54s CPU      3.38s WALL (       2 calls)
     potinit      :      0.43s CPU      0.46s WALL (       2 calls)

     Called by electrons:
     c_bands      :    900.91s CPU    993.04s WALL (      52 calls)
     sum_band     :     18.06s CPU     23.53s WALL (      52 calls)
     v_of_rho     :      0.10s CPU      0.11s WALL (      57 calls)
     mix_rho      :      0.11s CPU      0.12s WALL (      52 calls)

     Called by c_bands:
     init_us_2    :      1.46s CPU      1.75s WALL (    1392 calls)
     ccgdiagg     :    838.28s CPU    915.30s WALL (     700 calls)
     wfcrot       :     63.80s CPU     78.51s WALL (     712 calls)

     Called by *cgdiagg:
     h_psi        :    569.60s CPU    654.11s WALL (  351654 calls)
     cdiaghg      :      2.89s CPU      3.10s WALL (     712 calls)

     Called by h_psi:
     add_vuspsi   :    102.77s CPU    108.09s WALL (  351654 calls)

     General routines
     calbec       :    307.02s CPU    327.54s WALL (  702716 calls)
     fft          :      0.31s CPU      0.33s WALL (     251 calls)
     fftw         :    275.12s CPU    324.30s WALL (  898492 calls)
     davcio       :      0.73s CPU      2.06s WALL (    2016 calls)
 
     Parallel routines
     fft_scatter  :    128.38s CPU    152.46s WALL (  898743 calls)
 
     PWSCF        : 15m45.00s CPU    17m27.54s WALL

 
   This run was terminated on:   0:56:56  22Mar2018            

=------------------------------------------------------------------------------=
   JOB DONE.
=------------------------------------------------------------------------------=
