
     Program PWSCF v.5.0.2 starts on 22Mar2018 at 21:35:40 

     This program is part of the open-source Quantum ESPRESSO suite
     for quantum simulation of materials; please cite
         "P. Giannozzi et al., J. Phys.:Condens. Matter 21 395502 (2009);
          URL http://www.quantum-espresso.org", 
     in publications or presentations arising from this work. More details at
     http://www.quantum-espresso.org/quote.php

     Parallel version (MPI), running on     4 processors
     R & G space division:  proc/nbgrp/npool/nimage =       4

     Current dimensions of program PWSCF are:
     Max number of different atomic species (ntypx) = 10
     Max number of k-points (npk) =  40000
     Max angular momentum in pseudopotentials (lmaxx) =  3
     Waiting for input...
     Reading input from standard input

     Subspace diagonalization in iterative solution of the eigenvalue problem:
     a serial algorithm will be used

 
     Parallelization info
     --------------------
     sticks:   dense  smooth     PW     G-vecs:    dense   smooth      PW
     Min         207     207     61                 7381     7381    1191
     Max         208     208     62                 7386     7386    1192
     Sum         829     829    247                29529    29529    4767
 


     bravais-lattice index     =            0
     lattice parameter (alat)  =       7.0151  a.u.
     unit-cell volume          =     862.2778 (a.u.)^3
     number of atoms/cell      =           12
     number of atomic types    =            2
     number of electrons       =       248.00
     number of Kohn-Sham states=          149
     kinetic-energy cutoff     =      40.0000  Ry
     charge density cutoff     =     160.0000  Ry
     convergence threshold     =      1.0E-04
     mixing beta               =       0.7000
     number of iterations used =            8  plain     mixing
     Exchange-correlation      = SLA-PZ-NOGX-NOGC ( 1 1 0 0 0)
     EXX-fraction              =        0.00
     nstep                     =           50


     celldm(1)=   7.015105  celldm(2)=   0.000000  celldm(3)=   0.000000
     celldm(4)=   0.000000  celldm(5)=   0.000000  celldm(6)=   0.000000

     crystal axes: (cart. coord. in units of alat)
               a(1) = (   1.000000   0.000000   0.000000 )  
               a(2) = (   0.000000   1.315963   0.000000 )  
               a(3) = (   0.000000   0.000000   1.898020 )  

     reciprocal axes: (cart. coord. in units 2 pi/alat)
               b(1) = (  1.000000  0.000000  0.000000 )  
               b(2) = (  0.000000  0.759900  0.000000 )  
               b(3) = (  0.000000  0.000000  0.526865 )  


     PseudoPot. # 1 for Tm read from file:
     /home/cwx6513/pp.La/Tm.UPF
     MD5 check sum: 245516e0878b5372ceeb9443ded2c4e1
     Pseudo is Norm-conserving, Zval = 23.0
     Generated in analytical, separable form
     Using radial grid of 1269 points,  6 beta functions with: 
                l(1) =   0
                l(2) =   0
                l(3) =   1
                l(4) =   1
                l(5) =   2
                l(6) =   3

     PseudoPot. # 2 for Sm read from file:
     /home/cwx6513/pp.La/Sm.UPF
     MD5 check sum: 5079e8b144a06bfcdbc14fb02b96ab09
     Pseudo is Norm-conserving, Zval = 16.0
     Generated in analytical, separable form
     Using radial grid of 1259 points,  6 beta functions with: 
                l(1) =   0
                l(2) =   0
                l(3) =   1
                l(4) =   1
                l(5) =   2
                l(6) =   3

     atomic species   valence    mass     pseudopotential
        Co            23.00    58.93320     Tm( 1.00)
        Si            16.00    28.08550     Sm( 1.00)

      8 Sym. Ops., with inversion, found ( 6 have fractional translation)



   Cartesian axes

     site n.     atom                  positions (alat units)
         1           Co  tau(   1) = (   0.7500000   1.0875135   0.8270358  )
         2           Co  tau(   2) = (   0.2500000   0.2284499   1.0709846  )
         3           Co  tau(   3) = (   0.7500000   0.4295318   0.1219744  )
         4           Co  tau(   4) = (   0.2500000   0.8864316   1.7760460  )
         5           Co  tau(   5) = (   0.2500000   0.7067855   0.5358966  )
         6           Co  tau(   6) = (   0.7500000   0.6091779   1.3621238  )
         7           Co  tau(   7) = (   0.2500000   0.0488038   0.4131136  )
         8           Co  tau(   8) = (   0.7500000   1.2671596   1.4849068  )
         9           Si  tau(   9) = (   0.2500000   0.2669484   1.6960710  )
        10           Si  tau(  10) = (   0.7500000   1.0490149   0.2019494  )
        11           Si  tau(  11) = (   0.2500000   0.9249301   1.1509596  )
        12           Si  tau(  12) = (   0.7500000   0.3910333   0.7470608  )

     number of k points=    12  gaussian smearing, width (Ry)=  0.1000
                       cart. coord. in units 2pi/alat
        k(    1) = (   0.0000000   0.0000000   0.0000000), wk =   0.0833333
        k(    2) = (   0.0000000   0.0000000   0.1317162), wk =   0.1666667
        k(    3) = (   0.0000000   0.0000000  -0.2634324), wk =   0.0833333
        k(    4) = (   0.0000000   0.2532999   0.0000000), wk =   0.1666667
        k(    5) = (   0.0000000   0.2532999   0.1317162), wk =   0.3333333
        k(    6) = (   0.0000000   0.2532999  -0.2634324), wk =   0.1666667
        k(    7) = (  -0.5000000   0.0000000   0.0000000), wk =   0.0833333
        k(    8) = (  -0.5000000   0.0000000   0.1317162), wk =   0.1666667
        k(    9) = (  -0.5000000   0.0000000  -0.2634324), wk =   0.0833333
        k(   10) = (  -0.5000000   0.2532999   0.0000000), wk =   0.1666667
        k(   11) = (  -0.5000000   0.2532999   0.1317162), wk =   0.3333333
        k(   12) = (  -0.5000000   0.2532999  -0.2634324), wk =   0.1666667

     Dense  grid:    29529 G-vectors     FFT dimensions: (  30,  40,  54)

     Largest allocated arrays     est. size (Mb)     dimensions
        Kohn-Sham Wavefunctions         2.10 Mb     (    922,  149)
        NL pseudopotentials             3.38 Mb     (    922,  240)
        Each V/rho on FFT grid          0.26 Mb     (  16800)
        Each G-vector array             0.06 Mb     (   7386)
        G-vector shells                 0.06 Mb     (   7386)
     Largest temporary arrays     est. size (Mb)     dimensions
        Each subspace H/S matrix        0.34 Mb     ( 149, 149)
        Each <psi_i|beta_j> matrix      0.55 Mb     (    240,  149)
        Arrays for rho mixing           2.05 Mb     (  16800,   8)

     Initial potential from superposition of free atoms

     Starting from uniform charge
     Starting wfc are    0 randomized atomic wfcs

     total cpu time spent up to now is        3.3 secs

     Self-consistent Calculation

     iteration #  1     ecut=    40.00 Ry     beta=0.70
     CG style diagonalization
     ethr =  1.00E-02,  avg # of iterations = 17.8

     total cpu time spent up to now is       49.9 secs

     total energy              =   -2621.00116265 Ry
     Harris-Foulkes estimate   =   -4151.63095975 Ry
     estimated scf accuracy    <    1878.98158814 Ry

     iteration #  2     ecut=    40.00 Ry     beta=0.70
     CG style diagonalization
     c_bands:  2 eigenvalues not converged
     c_bands:  2 eigenvalues not converged
     c_bands:  2 eigenvalues not converged
     ethr =  1.00E-02,  avg # of iterations = 16.2

     total cpu time spent up to now is       90.6 secs

     total energy              =   -3000.62993647 Ry
     Harris-Foulkes estimate   =   -4173.59400038 Ry
     estimated scf accuracy    <    2270.40855544 Ry

     iteration #  3     ecut=    40.00 Ry     beta=0.70
     CG style diagonalization
     c_bands:  1 eigenvalues not converged
     c_bands:  1 eigenvalues not converged
     ethr =  1.00E-02,  avg # of iterations = 10.4

     total cpu time spent up to now is      118.4 secs

     total energy              =   -3501.31586965 Ry
     Harris-Foulkes estimate   =   -3567.45936689 Ry
     estimated scf accuracy    <     120.33565036 Ry

     iteration #  4     ecut=    40.00 Ry     beta=0.70
     CG style diagonalization
     ethr =  1.00E-02,  avg # of iterations =  4.5

     total cpu time spent up to now is      130.3 secs

     total energy              =   -3524.58072504 Ry
     Harris-Foulkes estimate   =   -3532.07975735 Ry
     estimated scf accuracy    <      16.34729324 Ry

     iteration #  5     ecut=    40.00 Ry     beta=0.70
     CG style diagonalization
     ethr =  6.59E-03,  avg # of iterations =  3.6

     total cpu time spent up to now is      139.1 secs

     total energy              =   -3527.37620713 Ry
     Harris-Foulkes estimate   =   -3527.91651521 Ry
     estimated scf accuracy    <       0.97433092 Ry

     iteration #  6     ecut=    40.00 Ry     beta=0.70
     CG style diagonalization
     c_bands:  1 eigenvalues not converged
     c_bands:  1 eigenvalues not converged
     c_bands:  1 eigenvalues not converged
     ethr =  3.93E-04,  avg # of iterations =  4.8

     total cpu time spent up to now is      151.8 secs

     total energy              =   -3527.65493212 Ry
     Harris-Foulkes estimate   =   -3527.70911505 Ry
     estimated scf accuracy    <       0.09787061 Ry

     iteration #  7     ecut=    40.00 Ry     beta=0.70
     CG style diagonalization
     c_bands:  1 eigenvalues not converged
     c_bands:  1 eigenvalues not converged
     c_bands:  1 eigenvalues not converged
     c_bands:  1 eigenvalues not converged
     ethr =  3.95E-05,  avg # of iterations =  4.4

     total cpu time spent up to now is      163.7 secs

     total energy              =   -3527.67617727 Ry
     Harris-Foulkes estimate   =   -3527.69046776 Ry
     estimated scf accuracy    <       0.02271697 Ry

     iteration #  8     ecut=    40.00 Ry     beta=0.70
     CG style diagonalization
     c_bands:  1 eigenvalues not converged
     ethr =  9.16E-06,  avg # of iterations =  4.0

     total cpu time spent up to now is      174.3 secs

     total energy              =   -3527.68179446 Ry
     Harris-Foulkes estimate   =   -3527.68268418 Ry
     estimated scf accuracy    <       0.00151608 Ry

     iteration #  9     ecut=    40.00 Ry     beta=0.70
     CG style diagonalization
     c_bands:  1 eigenvalues not converged
     ethr =  6.11E-07,  avg # of iterations =  4.3

     total cpu time spent up to now is      186.1 secs

     total energy              =   -3527.68233782 Ry
     Harris-Foulkes estimate   =   -3527.68248059 Ry
     estimated scf accuracy    <       0.00026913 Ry

     iteration # 10     ecut=    40.00 Ry     beta=0.70
     CG style diagonalization
     ethr =  1.09E-07,  avg # of iterations =  3.7

     total cpu time spent up to now is      195.5 secs

     End of self-consistent calculation

          k = 0.0000 0.0000 0.0000 (  3675 PWs)   bands (ev):

   -58.5168 -58.5126 -58.4732 -58.4475 -58.4342 -58.4233 -58.3952 -58.3777
   -18.1138 -17.9739 -17.9076 -17.8314 -17.7333 -17.7232 -17.7227 -17.6278
   -17.5748 -17.5279 -17.4985 -17.4933 -17.4658 -17.4014 -17.3926 -17.3679
   -17.3465 -17.3030 -17.2740 -17.2541 -17.2506 -17.1248 -17.1001 -17.0536
    -5.9301  -5.7435  -5.7399  -5.7270  16.5978  16.9754  16.9761  17.0041
    17.1954  17.2549  17.2602  17.3315  17.6287  17.9471  18.0829  18.5049
    27.3032  27.5158  27.5645  27.5647  27.7891  27.9864  28.0077  28.2286
    28.8085  28.9888  29.0109  29.2060  29.3669  29.6069  29.8326  30.2155
    30.3334  30.4115  30.4798  30.5166  30.6127  30.7939  30.8490  30.8796
    31.0311  31.1906  31.3807  31.4150  31.6387  31.9443  32.1021  32.1170
    32.4141  32.4230  32.7610  32.7866  32.8852  33.0824  33.1101  33.2280
    33.2692  37.9066  38.2543  38.4949  42.0835  42.6671  42.8222  43.4825
    43.6669  44.6517  44.8399  44.8898  45.7873  46.1448  46.2499  46.5711
    46.6705  47.4489  47.7814  47.8474  48.9557  49.2646  49.3026  49.4634
    49.7305  49.9279  50.3116  51.8397  52.8961  53.6175  53.9697  54.3961
    55.3706  55.8440  55.8565  56.1480  56.6145  56.6951  57.2380  57.4919
    57.5237  57.6728  58.0019  58.3825  58.5065  59.1073  59.1226  59.1525
    59.4023  59.5372  59.8881  59.8979  60.0825  60.3410  60.5165  60.5798
    60.6579  60.8585  61.1038  62.2409  62.4412

          k = 0.0000 0.0000 0.1317 (  3675 PWs)   bands (ev):

   -58.5308 -58.5125 -58.4821 -58.4435 -58.4333 -58.4286 -58.3929 -58.3628
   -18.1029 -17.9960 -17.8873 -17.8290 -17.7835 -17.7582 -17.6910 -17.5889
   -17.5651 -17.5447 -17.5181 -17.4809 -17.4673 -17.4150 -17.3859 -17.3679
   -17.3465 -17.2636 -17.2623 -17.2482 -17.2478 -17.1547 -17.0964 -17.0654
    -5.9080  -5.7886  -5.7231  -5.7182  16.6449  16.9033  16.9909  17.0141
    17.2152  17.2609  17.2677  17.3036  17.6356  17.8440  18.1821  18.4511
    27.2884  27.3621  27.5315  27.5792  27.8206  27.9077  28.0178  28.4877
    28.7477  29.0717  29.1002  29.3530  29.4967  29.8621  29.8785  30.3033
    30.3280  30.4587  30.5513  30.5850  30.6439  30.6703  30.7248  30.7926
    31.0170  31.2412  31.2663  31.3023  31.5442  31.8273  31.8404  32.2320
    32.2940  32.4515  32.6196  32.7181  32.9561  33.0911  33.2178  33.2998
    33.5055  36.4776  38.3143  39.7991  41.3773  41.7695  43.6181  43.7470
    43.9700  44.4365  44.7916  45.0110  45.3587  45.9240  46.3092  46.4812
    46.5970  46.6590  48.3695  48.6712  48.7967  49.1739  49.7579  49.7687
    50.2564  50.9186  50.9350  52.3407  52.6466  53.1063  54.0403  54.1588
    55.3659  55.4534  55.7585  55.7923  56.2167  56.3349  56.7375  56.9779
    57.3983  57.7049  57.7690  57.8722  58.1064  58.4522  58.5710  58.7382
    58.8593  59.2371  59.3381  60.0637  60.2745  60.6097  60.6559  61.0778
    61.0913  62.0114  62.0194  62.1703  62.4110

          k = 0.0000 0.0000-0.2634 (  3690 PWs)   bands (ev):

   -58.5310 -58.5310 -58.4865 -58.4865 -58.4379 -58.4379 -58.3754 -58.3754
   -18.0717 -18.0717 -17.8396 -17.8396 -17.7918 -17.7918 -17.6256 -17.6256
   -17.5375 -17.5375 -17.5101 -17.5101 -17.4512 -17.4512 -17.3860 -17.3860
   -17.3069 -17.3069 -17.2547 -17.2547 -17.2231 -17.2231 -17.0898 -17.0898
    -5.8526  -5.8526  -5.7160  -5.7160  16.7642  16.7642  17.0186  17.0186
    17.2529  17.2529  17.2609  17.2609  17.7082  17.7082  18.3238  18.3238
    27.3199  27.3199  27.4278  27.4278  27.7630  27.7630  28.5990  28.5990
    28.9481  28.9481  29.2575  29.2575  29.7919  29.7919  30.1891  30.1891
    30.3201  30.3201  30.4393  30.4393  30.6427  30.6427  30.8520  30.8520
    31.2020  31.2020  31.3111  31.3111  31.5565  31.5565  31.8150  31.8150
    32.3436  32.3436  32.5907  32.5907  33.0224  33.0224  33.3221  33.3221
    34.6782  34.6782  39.4594  39.4594  41.1153  41.1153  43.7299  43.7299
    44.7338  44.7338  44.8796  44.8796  45.4887  45.4887  45.7264  45.7264
    46.5778  46.5778  48.9443  48.9443  49.2573  49.2573  50.4797  50.4797
    50.7700  50.7700  52.2709  52.2709  52.9428  52.9428  53.7463  53.7463
    55.1350  55.1350  55.4806  55.4806  55.7839  55.7839  55.9763  55.9763
    57.1314  57.1314  57.4400  57.4400  58.4929  58.4929  58.5708  58.5709
    59.0011  59.0011  60.1148  60.1149  60.2686  60.2686  61.1890  61.1893
    61.3386  61.3387  62.0839  62.0840  62.7028

          k = 0.0000 0.2533 0.0000 (  3664 PWs)   bands (ev):

   -58.5034 -58.4695 -58.4644 -58.4527 -58.4327 -58.4035 -58.3999 -58.3949
   -17.9693 -17.8421 -17.8112 -17.8084 -17.7555 -17.7108 -17.7064 -17.6880
   -17.6134 -17.5820 -17.5767 -17.5002 -17.4640 -17.4177 -17.3745 -17.3317
   -17.3286 -17.2879 -17.2720 -17.2595 -17.2181 -17.2140 -17.1503 -17.1312
    -5.8573  -5.7550  -5.7215  -5.7183  16.6575  16.9049  16.9877  17.0526
    17.0647  17.0832  17.1281  17.3191  17.5474  17.5826  18.0883  18.2882
    27.5916  27.8279  27.8360  27.9858  28.2767  28.3889  28.4096  28.6360
    28.7028  28.9927  28.9977  29.2375  29.4067  29.5406  29.8321  29.8361
    30.1608  30.2486  30.3024  30.3853  30.7195  30.8544  30.9051  31.2007
    31.2063  31.4676  31.5226  31.6509  31.7388  31.8089  31.9655  31.9867
    32.2562  32.4530  32.5921  32.6337  32.6885  32.9901  33.1821  33.4245
    34.5611  37.1657  38.4830  38.8693  41.0434  42.1820  42.3589  43.2976
    43.5702  43.6842  44.0084  44.5701  44.9319  45.8698  46.1280  46.2914
    47.0776  47.1485  47.6723  47.9441  48.0547  48.4144  48.9236  48.9559
    50.1244  50.4277  51.2430  51.7420  52.8507  53.6058  54.3891  54.6078
    54.9821  56.0104  56.0258  56.0379  56.0634  56.8712  57.4363  57.5736
    57.6522  57.9025  58.0540  58.5525  58.8317  58.8826  59.2768  59.6184
    59.7986  59.8881  59.9156  60.1255  60.3079  60.3528  60.4380  60.6788
    60.8781  61.0307  61.0429  62.6906  62.7512

          k = 0.0000 0.2533 0.1317 (  3669 PWs)   bands (ev):

   -58.5010 -58.4870 -58.4701 -58.4414 -58.4343 -58.4253 -58.4043 -58.3924
   -17.9733 -17.8758 -17.8312 -17.7819 -17.7698 -17.7589 -17.6589 -17.6502
   -17.6137 -17.5839 -17.5681 -17.5006 -17.4742 -17.3928 -17.3867 -17.3630
   -17.3430 -17.3167 -17.2779 -17.2354 -17.2188 -17.2054 -17.1427 -17.1360
    -5.8397  -5.7517  -5.7450  -5.7144  16.6926  16.8699  17.0006  17.0266
    17.0543  17.0842  17.1539  17.2919  17.5347  17.5695  18.1200  18.2651
    27.6040  27.7275  27.8137  27.9452  28.2563  28.3554  28.5101  28.6495
    28.8082  29.0105  29.2188  29.2410  29.4416  29.6713  29.7012  29.8900
    30.1947  30.3728  30.4601  30.6107  30.6971  30.8400  30.9052  31.0357
    31.2561  31.2663  31.4732  31.5247  31.5906  31.7266  31.8610  32.1146
    32.2477  32.4157  32.5278  32.6096  32.7236  32.9620  33.1833  33.3857
    34.8667  37.0926  37.6378  39.2302  40.7470  41.7693  42.9884  43.4198
    43.5457  43.6788  44.0419  44.5495  44.7731  45.5036  46.0004  46.4244
    47.0768  47.2538  47.7867  48.0718  48.3590  48.6156  48.8001  49.6844
    50.5887  50.8376  51.3225  52.0204  52.6304  53.5882  53.9550  54.4639
    54.8316  55.2286  55.6430  55.9128  56.4859  56.6038  56.8826  57.2752
    57.6092  57.6911  58.1810  58.3501  58.6640  59.0563  59.1217  59.2957
    59.4392  59.9144  59.9215  60.1056  60.1865  60.7231  61.0913  61.1054
    61.4788  61.5628  61.9335  62.0382  62.4647

          k = 0.0000 0.2533-0.2634 (  3666 PWs)   bands (ev):

   -58.4906 -58.4906 -58.4571 -58.4571 -58.4231 -58.4231 -58.4008 -58.4008
   -17.9344 -17.9344 -17.7951 -17.7951 -17.7727 -17.7727 -17.6347 -17.6347
   -17.5910 -17.5910 -17.5353 -17.5353 -17.4149 -17.4149 -17.3696 -17.3696
   -17.3673 -17.3673 -17.2583 -17.2583 -17.2148 -17.2148 -17.1313 -17.1313
    -5.7965  -5.7965  -5.7278  -5.7278  16.7803  16.7803  17.0151  17.0152
    17.0580  17.0580  17.2215  17.2215  17.5409  17.5409  18.1971  18.1971
    27.6539  27.6539  27.7693  27.7693  28.4154  28.4154  28.5261  28.5261
    28.9864  28.9864  29.4868  29.4868  29.5416  29.5416  29.8248  29.8248
    30.3561  30.3561  30.5145  30.5145  30.7746  30.7746  30.9687  30.9687
    31.1024  31.1024  31.4502  31.4502  31.7066  31.7066  31.8767  31.8767
    32.3375  32.3375  32.4799  32.4799  32.8639  32.8639  33.2807  33.2807
    35.7903  35.7903  38.3842  38.3842  41.1197  41.1197  43.2549  43.2549
    44.0148  44.0148  44.2197  44.2197  44.7692  44.7692  46.1984  46.1984
    47.5240  47.5240  47.6374  47.6374  48.7454  48.7454  49.5329  49.5329
    51.2687  51.2687  52.3657  52.3657  52.9680  52.9680  53.3700  53.3700
    54.3367  54.3367  55.9344  55.9344  56.4649  56.4649  57.0538  57.0538
    57.7295  57.7295  57.9096  57.9096  58.5490  58.5491  59.2361  59.2362
    59.8116  59.8117  59.9357  59.9357  60.4700  60.4701  60.7032  60.7032
    62.1434  62.1434  62.3503  62.3506  62.8514

          k =-0.5000 0.0000 0.0000 (  3722 PWs)   bands (ev):

   -58.5224 -58.5224 -58.4791 -58.4791 -58.4734 -58.4734 -58.4408 -58.4408
   -18.0801 -18.0801 -17.8947 -17.8947 -17.8608 -17.8608 -17.6990 -17.6990
   -17.6585 -17.6585 -17.4734 -17.4734 -17.4239 -17.4239 -17.4213 -17.4213
   -17.2546 -17.2546 -17.2112 -17.2112 -17.1684 -17.1684 -17.1198 -17.1198
    -5.7600  -5.7600  -5.7335  -5.7335  16.7947  16.7947  17.1643  17.1643
    17.3427  17.3427  17.5231  17.5231  17.9354  17.9354  18.0845  18.0845
    27.8176  27.8176  28.1886  28.1886  28.2381  28.2381  28.6296  28.6296
    29.1751  29.1751  29.2569  29.2569  29.4178  29.4178  29.4995  29.4995
    29.7179  29.7179  30.1376  30.1376  30.2369  30.2369  30.2852  30.2852
    30.9040  30.9040  31.0408  31.0408  31.4140  31.4140  31.4340  31.4340
    31.6444  31.6444  32.5672  32.5672  33.0231  33.0231  33.1178  33.1178
    38.3406  38.3406  40.7488  40.7488  40.9295  40.9295  43.2202  43.2202
    43.9965  43.9965  44.4634  44.4634  45.1340  45.1340  46.0694  46.0694
    46.5333  46.5333  48.0700  48.0700  48.2438  48.2438  48.4885  48.4885
    49.4015  49.4015  49.8073  49.8073  52.8428  52.8428  54.0300  54.0300
    54.5829  54.5829  55.3732  55.3732  55.9183  55.9183  56.7694  56.7694
    57.9054  57.9054  58.3754  58.3754  58.9654  58.9655  59.3053  59.3055
    59.6380  59.6380  59.6460  59.6462  60.3637  60.3638  61.0045  61.0047
    61.7639  61.7640  62.7440  62.7447  63.2228

          k =-0.5000 0.0000 0.1317 (  3710 PWs)   bands (ev):

   -58.5157 -58.5157 -58.4775 -58.4775 -58.4533 -58.4533 -58.4368 -58.4368
   -18.0825 -18.0825 -17.9117 -17.9117 -17.7790 -17.7790 -17.7300 -17.7300
   -17.6314 -17.6314 -17.4958 -17.4958 -17.4719 -17.4719 -17.3835 -17.3835
   -17.2435 -17.2435 -17.2028 -17.2028 -17.1670 -17.1670 -17.1225 -17.1225
    -5.7593  -5.7593  -5.7328  -5.7328  16.7890  16.7890  17.1996  17.1996
    17.3500  17.3500  17.4836  17.4836  17.9275  17.9275  18.0756  18.0756
    27.7728  27.7728  28.1790  28.1790  28.3442  28.3442  28.6857  28.6857
    29.1656  29.1656  29.1797  29.1797  29.3941  29.3941  29.6475  29.6475
    29.7304  29.7304  30.1856  30.1856  30.3357  30.3357  30.3614  30.3614
    30.6571  30.6571  31.0134  31.0134  31.3610  31.3610  31.4057  31.4057
    31.8888  31.8888  32.4851  32.4851  32.9738  32.9738  33.1073  33.1073
    38.2620  38.2620  39.7104  39.7104  41.4624  41.4624  43.3561  43.3561
    44.1152  44.1152  44.6903  44.6903  45.4074  45.4074  46.0316  46.0316
    46.3547  46.3547  47.7344  47.7344  48.1383  48.1383  49.2756  49.2756
    49.4545  49.4546  50.0560  50.0560  52.3984  52.3984  53.6397  53.6397
    54.8879  54.8879  55.2142  55.2142  56.2508  56.2508  56.7902  56.7902
    57.3492  57.3492  58.1435  58.1435  58.8894  58.8894  59.2742  59.2743
    59.7673  59.7673  60.3836  60.3837  60.5520  60.5521  61.0983  61.0983
    61.6721  61.6723  62.2791  62.2791  62.9033

          k =-0.5000 0.0000-0.2634 (  3680 PWs)   bands (ev):

   -58.4765 -58.4765 -58.4518 -58.4518 -58.4433 -58.4433 -58.4372 -58.4372
   -18.0911 -18.0911 -17.8998 -17.8998 -17.7405 -17.7405 -17.6683 -17.6683
   -17.6415 -17.6415 -17.5324 -17.5324 -17.4757 -17.4757 -17.3776 -17.3776
   -17.2430 -17.2430 -17.1772 -17.1772 -17.1515 -17.1515 -17.1137 -17.1137
    -5.7587  -5.7587  -5.7319  -5.7319  16.7830  16.7830  17.2534  17.2534
    17.3587  17.3587  17.4243  17.4243  17.9227  17.9227  18.0668  18.0668
    27.7294  27.7294  28.1282  28.1282  28.5678  28.5678  28.7549  28.7549
    29.0625  29.0625  29.0650  29.0650  29.5358  29.5358  29.5882  29.5882
    29.8284  29.8284  30.2165  30.2165  30.2953  30.2953  30.3671  30.3671
    30.9072  30.9072  30.9619  30.9619  31.2564  31.2564  31.3035  31.3035
    31.8658  31.8658  32.7127  32.7127  32.7559  32.7559  33.1112  33.1112
    38.2111  38.2111  39.0932  39.0932  41.8074  41.8074  43.0618  43.0618
    44.3750  44.3750  44.8271  44.8271  45.5850  45.5850  45.6395  45.6395
    47.2714  47.2714  47.5527  47.5527  47.6999  47.6999  49.5070  49.5070
    49.9868  49.9868  50.6943  50.6943  50.9983  50.9983  53.8558  53.8558
    54.9415  54.9415  55.1285  55.1285  56.2786  56.2786  56.3932  56.3932
    57.7153  57.7153  58.5264  58.5265  58.9213  58.9213  59.1646  59.1647
    59.1759  59.1759  60.4213  60.4214  61.1200  61.1202  61.6261  61.6261
    61.7275  61.7276  62.0632  62.0636  62.4886

          k =-0.5000 0.2533 0.0000 (  3686 PWs)   bands (ev):

   -58.4789 -58.4789 -58.4688 -58.4688 -58.4496 -58.4496 -58.4346 -58.4346
   -17.9446 -17.9446 -17.8884 -17.8884 -17.8602 -17.8602 -17.6731 -17.6731
   -17.5953 -17.5953 -17.5106 -17.5106 -17.4652 -17.4652 -17.3979 -17.3979
   -17.2578 -17.2578 -17.2322 -17.2322 -17.1797 -17.1797 -17.1520 -17.1520
    -5.7331  -5.7331  -5.7197  -5.7197  16.8347  16.8347  17.0001  17.0001
    17.3696  17.3696  17.4241  17.4241  17.8479  17.8479  17.8611  17.8611
    28.0324  28.0324  28.4842  28.4842  28.6301  28.6301  28.6483  28.6483
    28.9775  28.9775  29.2253  29.2253  29.6948  29.6948  29.7913  29.7913
    29.9044  29.9044  30.1914  30.1914  30.4582  30.4582  30.6015  30.6015
    30.9018  30.9018  30.9640  30.9640  31.4801  31.4801  31.6383  31.6383
    31.9771  31.9771  32.1487  32.1487  32.6438  32.6438  32.8685  32.8685
    38.6589  38.6589  39.9647  39.9647  41.2617  41.2617  42.2583  42.2583
    43.5185  43.5185  43.7812  43.7812  45.8126  45.8126  46.1227  46.1227
    46.5779  46.5779  47.2591  47.2591  47.5901  47.5901  47.9219  47.9219
    49.6594  49.6594  50.5274  50.5274  52.4413  52.4413  53.1488  53.1488
    54.6058  54.6058  55.7007  55.7007  56.6361  56.6361  56.7505  56.7505
    57.8376  57.8376  58.2600  58.2600  58.9171  58.9172  59.2370  59.2370
    60.2919  60.2921  60.4448  60.4448  61.3417  61.3418  61.9152  61.9153
    62.3791  62.3795  62.4406  62.4408  63.1089

          k =-0.5000 0.2533 0.1317 (  3692 PWs)   bands (ev):

   -58.4905 -58.4905 -58.4680 -58.4680 -58.4569 -58.4569 -58.4306 -58.4306
   -17.9580 -17.9580 -17.8635 -17.8635 -17.8232 -17.8232 -17.7217 -17.7217
   -17.6245 -17.6245 -17.5284 -17.5284 -17.4261 -17.4261 -17.3665 -17.3665
   -17.2783 -17.2783 -17.2321 -17.2321 -17.1941 -17.1941 -17.1605 -17.1605
    -5.7327  -5.7327  -5.7192  -5.7192  16.8376  16.8376  17.0255  17.0255
    17.3586  17.3586  17.3902  17.3902  17.8346  17.8346  17.8668  17.8668
    27.9842  27.9842  28.4735  28.4735  28.6741  28.6741  28.7116  28.7116
    29.0027  29.0027  29.3296  29.3296  29.5648  29.5648  29.8332  29.8332
    29.9669  29.9669  30.3100  30.3100  30.5090  30.5090  30.6256  30.6256
    30.7955  30.7955  31.0582  31.0582  31.3039  31.3039  31.5571  31.5571
    31.9448  31.9448  32.2446  32.2446  32.6267  32.6267  32.8513  32.8513
    38.5787  38.5787  39.3606  39.3606  41.3455  41.3455  42.3386  42.3386
    43.8540  43.8540  44.2260  44.2260  45.2648  45.2648  46.3358  46.3358
    46.4748  46.4748  47.2509  47.2509  47.5527  47.5527  47.9493  47.9493
    49.8919  49.8919  50.9530  50.9530  52.1568  52.1568  52.9970  52.9970
    54.7570  54.7570  55.7455  55.7455  56.5932  56.5932  56.8647  56.8647
    57.7258  57.7258  58.4228  58.4229  58.7527  58.7528  59.3201  59.3202
    60.1241  60.1242  60.5211  60.5212  61.1047  61.1050  61.7763  61.7764
    62.1238  62.1240  62.6070  62.6074  62.8828

          k =-0.5000 0.2533-0.2634 (  3704 PWs)   bands (ev):

   -58.4992 -58.4992 -58.4716 -58.4716 -58.4654 -58.4654 -58.4410 -58.4410
   -17.9708 -17.9708 -17.8136 -17.8136 -17.8134 -17.8134 -17.7300 -17.7300
   -17.7171 -17.7171 -17.5392 -17.5392 -17.3902 -17.3902 -17.3385 -17.3385
   -17.2879 -17.2879 -17.2742 -17.2742 -17.1781 -17.1781 -17.1671 -17.1671
    -5.7323  -5.7323  -5.7189  -5.7189  16.8385  16.8385  17.0575  17.0575
    17.3438  17.3438  17.3540  17.3540  17.8284  17.8284  17.8653  17.8653
    27.9387  27.9387  28.4555  28.4555  28.6622  28.6622  28.8471  28.8471
    29.0650  29.0650  29.3650  29.3650  29.4842  29.4842  29.9007  29.9007
    30.0213  30.0213  30.3384  30.3384  30.5398  30.5398  30.7692  30.7692
    30.8300  30.8300  31.0256  31.0256  31.1004  31.1004  31.5867  31.5867
    31.6662  31.6662  32.4664  32.4664  32.6020  32.6020  32.8060  32.8060
    38.6708  38.6708  38.7144  38.7144  41.4275  41.4275  42.3114  42.3114
    44.3230  44.3230  44.3966  44.3966  45.0876  45.0876  46.0522  46.0522
    46.7359  46.7359  47.1260  47.1260  47.7548  47.7548  47.8639  47.8639
    49.8988  49.8988  51.1498  51.1498  52.2030  52.2030  53.4753  53.4753
    53.9923  53.9923  56.0904  56.0904  56.5147  56.5147  57.0058  57.0058
    57.3870  57.3870  58.6470  58.6471  59.0825  59.0826  59.4675  59.4676
    59.8146  59.8147  60.5137  60.5139  60.6676  60.6676  61.3898  61.3899
    62.1862  62.1864  62.3680  62.3683  63.0957

     the Fermi energy is    55.9875 ev

!    total energy              =   -3527.68239284 Ry
     Harris-Foulkes estimate   =   -3527.68241978 Ry
     estimated scf accuracy    <       0.00002993 Ry

     The total energy is the sum of the following terms:

     one-electron contribution =      55.68430108 Ry
     hartree contribution      =     347.26998739 Ry
     xc contribution           =    -323.49148943 Ry
     ewald contribution        =   -3606.76219260 Ry
     smearing contrib. (-TS)   =      -0.38299928 Ry

     convergence has been achieved in  10 iterations

     Forces acting on atoms (Ry/au):

     atom    1 type  1   force =     0.00000000   -0.13508882   -0.12116732
     atom    2 type  1   force =     0.00000000    0.13508882    0.12116732
     atom    3 type  1   force =     0.00000000   -0.13508882    0.12116732
     atom    4 type  1   force =     0.00000000    0.13508882   -0.12116732
     atom    5 type  1   force =     0.00000000    0.13390373   -0.07813039
     atom    6 type  1   force =     0.00000000   -0.13390373    0.07813039
     atom    7 type  1   force =     0.00000000    0.13390373    0.07813039
     atom    8 type  1   force =     0.00000000   -0.13390373   -0.07813039
     atom    9 type  2   force =     0.00000000   -0.22821840    0.01042960
     atom   10 type  2   force =     0.00000000    0.22821840   -0.01042960
     atom   11 type  2   force =     0.00000000   -0.22821840   -0.01042960
     atom   12 type  2   force =     0.00000000    0.22821840    0.01042960

     Total force =     0.660780     Total SCF correction =     0.000000


     entering subroutine stress ...

          total   stress  (Ry/bohr**3)                   (kbar)     P= 7292.78
   0.05153651   0.00000000   0.00000000       7581.28      0.00      0.00
   0.00000000   0.04754363   0.00000000          0.00   6993.91      0.00
   0.00000000   0.00000000   0.04964577          0.00      0.00   7303.14


     BFGS Geometry Optimization

     number of scf cycles    =   1
     number of bfgs steps    =   0

     enthalpy new            =   -3527.6823928391 Ry

     new trust radius        =       0.5000000000 bohr
     new conv_thr            =       0.0001000000 Ry

     new unit-cell volume =   1091.94475 a.u.^3 (   161.80951 Ang^3 )

CELL_PARAMETERS (alat=  7.01510508)
   1.085136619   0.000000000   0.000000000
   0.000000000   1.419319827   0.000000000
   0.000000000   0.000000000   2.053683110

ATOMIC_POSITIONS (crystal)
Co       0.750000000   0.825434053   0.435134671
Co       0.250000000   0.174565947   0.564865329
Co       0.750000000   0.325434053   0.064865329
Co       0.250000000   0.674565947   0.935134671
Co       0.250000000   0.538044465   0.281957255
Co       0.750000000   0.461955535   0.718042745
Co       0.250000000   0.038044465   0.218042745
Co       0.750000000   0.961955535   0.781957255
Si       0.250000000   0.201220444   0.893651760
Si       0.750000000   0.798779556   0.106348240
Si       0.250000000   0.701220444   0.606348240
Si       0.750000000   0.298779556   0.393651760



     Writing output data file Prototype-La-oP12-Co2Si.save
     NEW-OLD atomic charge density approx. for the potential
     NEW k-points:
        k(    1) = (   0.0000000   0.0000000   0.0000000), wk =   0.0833333
        k(    2) = (   0.0000000   0.0000000   0.1217325), wk =   0.1666667
        k(    3) = (   0.0000000   0.0000000  -0.2434650), wk =   0.0833333
        k(    4) = (   0.0000000   0.2348543   0.0000000), wk =   0.1666667
        k(    5) = (   0.0000000   0.2348543   0.1217325), wk =   0.3333333
        k(    6) = (   0.0000000   0.2348543  -0.2434650), wk =   0.1666667
        k(    7) = (  -0.4607715   0.0000000   0.0000000), wk =   0.0833333
        k(    8) = (  -0.4607715   0.0000000   0.1217325), wk =   0.1666667
        k(    9) = (  -0.4607715   0.0000000  -0.2434650), wk =   0.0833333
        k(   10) = (  -0.4607715   0.2348543   0.0000000), wk =   0.1666667
        k(   11) = (  -0.4607715   0.2348543   0.1217325), wk =   0.3333333
        k(   12) = (  -0.4607715   0.2348543  -0.2434650), wk =   0.1666667

     total cpu time spent up to now is      199.9 secs

     Self-consistent Calculation

     iteration #  1     ecut=    40.00 Ry     beta=0.70
     CG style diagonalization
     c_bands:  1 eigenvalues not converged
     c_bands:  1 eigenvalues not converged
     c_bands:  2 eigenvalues not converged
     c_bands:  2 eigenvalues not converged
     c_bands:  1 eigenvalues not converged
     ethr =  1.00E-06,  avg # of iterations = 22.9

     total cpu time spent up to now is      257.7 secs

     total energy              =   -3522.35401041 Ry
     Harris-Foulkes estimate   =   -3553.40012733 Ry
     estimated scf accuracy    <      39.36114848 Ry

     iteration #  2     ecut=    40.00 Ry     beta=0.70
     CG style diagonalization
     ethr =  1.00E-02,  avg # of iterations =  4.0

     total cpu time spent up to now is      268.3 secs

     total energy              =   -3533.23213312 Ry
     Harris-Foulkes estimate   =   -3536.26914781 Ry
     estimated scf accuracy    <       4.39145449 Ry

     iteration #  3     ecut=    40.00 Ry     beta=0.70
     CG style diagonalization
     ethr =  1.77E-03,  avg # of iterations =  3.7

     total cpu time spent up to now is      278.1 secs

     total energy              =   -3534.30583390 Ry
     Harris-Foulkes estimate   =   -3534.82879631 Ry
     estimated scf accuracy    <       1.12179795 Ry

     iteration #  4     ecut=    40.00 Ry     beta=0.70
     CG style diagonalization
     ethr =  4.52E-04,  avg # of iterations =  3.5

     total cpu time spent up to now is      287.4 secs

     total energy              =   -3534.56329812 Ry
     Harris-Foulkes estimate   =   -3534.56803303 Ry
     estimated scf accuracy    <       0.00816354 Ry

     iteration #  5     ecut=    40.00 Ry     beta=0.70
     CG style diagonalization
     c_bands:  2 eigenvalues not converged
     c_bands:  2 eigenvalues not converged
     c_bands:  1 eigenvalues not converged
     c_bands:  1 eigenvalues not converged
     ethr =  3.29E-06,  avg # of iterations =  5.3

     total cpu time spent up to now is      301.7 secs

     total energy              =   -3534.57016510 Ry
     Harris-Foulkes estimate   =   -3534.57234713 Ry
     estimated scf accuracy    <       0.00480585 Ry

     iteration #  6     ecut=    40.00 Ry     beta=0.70
     CG style diagonalization
     c_bands:  1 eigenvalues not converged
     ethr =  1.94E-06,  avg # of iterations =  3.4

     total cpu time spent up to now is      310.4 secs

     total energy              =   -3534.57072433 Ry
     Harris-Foulkes estimate   =   -3534.57093985 Ry
     estimated scf accuracy    <       0.00048466 Ry

     iteration #  7     ecut=    40.00 Ry     beta=0.70
     CG style diagonalization
     ethr =  1.95E-07,  avg # of iterations =  3.7

     total cpu time spent up to now is      319.4 secs

     End of self-consistent calculation

          k = 0.0000 0.0000 0.0000 (  3675 PWs)   bands (ev):

   -68.8111 -68.7790 -68.7419 -68.7104 -68.7047 -68.6748 -68.6495 -68.6356
   -28.3671 -28.3105 -28.2615 -28.2244 -28.1907 -28.1755 -28.1613 -28.1248
   -28.1089 -28.0957 -28.0940 -28.0779 -28.0578 -28.0450 -28.0443 -28.0280
   -28.0098 -28.0086 -27.9989 -27.9741 -27.9668 -27.9367 -27.9169 -27.9115
   -15.7312 -15.6793 -15.6769 -15.6662   7.8777   8.0634   8.0637   8.0794
     8.1034   8.1351   8.1762   8.2049   8.4245   8.6399   8.6501   8.8883
    18.4574  18.5380  18.5815  18.6675  18.6889  18.8524  18.9705  18.9802
    19.2417  19.3918  19.4639  19.5717  19.7054  19.8626  19.9754  20.1371
    20.1923  20.3054  20.3089  20.3196  20.3551  20.4017  20.5100  20.5506
    20.5507  20.6437  20.6885  20.7151  20.8350  21.0500  21.0635  21.1203
    21.1735  21.2392  21.5574  21.5685  21.6428  21.7761  21.7932  21.8247
    23.8959  27.7059  27.8801  28.5526  31.9202  32.0227  32.2074  33.2183
    33.4773  33.6210  33.6848  34.9159  35.6081  35.8222  36.0135  36.1003
    36.3182  36.3678  37.0208  37.3234  37.8358  37.8621  38.4279  38.4745
    38.6430  39.0737  39.3766  40.2636  41.0575  41.7172  42.0965  43.1670
    43.4487  43.8772  44.2163  44.5202  44.8843  45.1185  45.1462  45.6669
    46.3391  46.4689  46.5549  46.7683  46.7842  46.8726  47.0649  47.3587
    47.3958  47.5373  47.6651  48.3924  48.4366  48.6628  48.6751  48.9494
    49.0826  49.5630  49.7112  50.0010  51.2040

          k = 0.0000 0.0000 0.1217 (  3675 PWs)   bands (ev):

   -68.8268 -68.8019 -68.7791 -68.7127 -68.6790 -68.6521 -68.6498 -68.6124
   -28.3670 -28.3155 -28.2508 -28.2272 -28.2130 -28.1883 -28.1589 -28.1150
   -28.1140 -28.0968 -28.0801 -28.0752 -28.0736 -28.0467 -28.0370 -28.0244
   -28.0229 -28.0038 -27.9732 -27.9664 -27.9587 -27.9416 -27.9275 -27.9158
   -15.7260 -15.6913 -15.6687 -15.6672   7.9021   8.0273   8.0625   8.0682
     8.1319   8.1405   8.1802   8.1970   8.4413   8.5594   8.7292   8.8623
    18.4742  18.4792  18.5232  18.5989  18.7684  18.8534  18.8885  19.1074
    19.3170  19.4292  19.4924  19.6634  19.7561  19.9598  19.9780  20.1776
    20.2301  20.2532  20.3314  20.3341  20.3430  20.3781  20.3821  20.4755
    20.5914  20.6072  20.6462  20.7716  20.8424  20.8598  20.9897  21.1351
    21.2661  21.2873  21.4906  21.5184  21.6839  21.7747  21.7989  21.8148
    24.1699  26.2856  28.8183  29.1573  31.0304  31.7037  32.5105  32.8210
    33.5894  33.8631  34.2532  35.1230  35.2452  35.2692  35.8367  35.9679
    36.0036  36.3556  37.7116  37.9039  37.9462  38.3013  38.8661  38.9216
    39.1683  39.2027  39.4848  40.4978  40.7311  41.4023  41.8968  42.8333
    43.2640  43.4013  43.5156  44.3664  44.4717  44.6724  44.9059  45.2249
    45.8253  46.0721  46.1345  46.1844  46.4332  46.8710  47.5315  48.0390
    48.0607  48.1076  48.1764  48.4201  48.6101  48.7176  48.7829  48.9886
    49.1915  49.7823  50.2487  50.3639  50.7233

          k = 0.0000 0.0000-0.2435 (  3690 PWs)   bands (ev):

   -68.8179 -68.8179 -68.7819 -68.7819 -68.7056 -68.7056 -68.6235 -68.6235
   -28.3618 -28.3618 -28.2296 -28.2296 -28.2002 -28.2002 -28.1311 -28.1311
   -28.1066 -28.1066 -28.0774 -28.0774 -28.0672 -28.0672 -28.0391 -28.0391
   -28.0197 -28.0197 -27.9761 -27.9761 -27.9619 -27.9619 -27.9321 -27.9321
   -15.7114 -15.7114 -15.6676 -15.6676   7.9588   7.9588   8.0663   8.0663
     8.1464   8.1464   8.1789   8.1789   8.4853   8.4853   8.8004   8.8004
    18.4869  18.4869  18.4991  18.4991  18.7240  18.7240  19.1969  19.1969
    19.3605  19.3605  19.6163  19.6163  19.8867  19.8867  20.1136  20.1136
    20.1971  20.1971  20.2660  20.2660  20.3367  20.3367  20.4861  20.4861
    20.6401  20.6401  20.6679  20.6679  20.8894  20.8894  20.9216  20.9216
    21.3631  21.3631  21.4069  21.4069  21.7209  21.7209  21.8295  21.8295
    24.9911  24.9911  29.4976  29.4976  30.7992  30.7992  32.5768  32.5768
    34.2053  34.2053  34.4133  34.4133  35.3719  35.3719  35.5836  35.5836
    35.9890  35.9890  38.4666  38.4666  38.5999  38.5999  38.9395  38.9395
    39.6538  39.6538  40.2236  40.2236  41.2101  41.2101  41.5088  41.5088
    42.7071  42.7071  43.4349  43.4349  44.2358  44.2358  45.1596  45.1596
    45.4865  45.4865  45.8196  45.8196  47.1842  47.1842  48.0572  48.0572
    48.2613  48.2616  48.2738  48.2738  48.8515  48.8515  48.9382  48.9382
    49.9577  49.9579  50.0824  50.0824  50.3026

          k = 0.0000 0.2349 0.0000 (  3664 PWs)   bands (ev):

   -68.7914 -68.7567 -68.7553 -68.7245 -68.6741 -68.6733 -68.6149 -68.6023
   -28.2873 -28.2391 -28.2312 -28.2014 -28.2000 -28.1869 -28.1729 -28.1600
   -28.1353 -28.1084 -28.1061 -28.1040 -28.0550 -28.0483 -28.0406 -28.0370
   -27.9996 -27.9909 -27.9785 -27.9760 -27.9648 -27.9399 -27.9315 -27.9250
   -15.7133 -15.6827 -15.6694 -15.6638   7.9060   7.9943   8.0597   8.0955
     8.0955   8.1225   8.1357   8.1693   8.4043   8.4691   8.7042   8.7921
    18.6371  18.7404  18.7771  18.8014  19.0435  19.0590  19.1744  19.1972
    19.2892  19.3730  19.4702  19.6514  19.7093  19.7234  19.8930  19.9489
    20.0656  20.1167  20.2052  20.2059  20.3782  20.4608  20.5425  20.6842
    20.6903  20.7812  20.7876  20.7932  20.8370  20.8995  21.0921  21.1327
    21.1971  21.2740  21.4340  21.4385  21.4766  21.7112  21.7706  21.8794
    24.8809  27.1097  28.1336  28.7355  30.2515  31.0381  32.4383  33.3060
    33.4045  33.5204  33.9740  34.3053  35.0273  35.5030  35.6971  35.9081
    36.7996  36.8521  37.0902  37.2764  37.7473  37.7569  37.9717  38.1468
    39.0037  39.3367  39.3421  40.2472  41.2165  41.7105  42.2642  42.4095
    42.8935  43.8964  43.9311  44.0613  44.7385  44.9186  45.4048  45.9773
    46.2429  46.2666  46.2951  47.0414  47.5563  47.6870  47.7790  47.8193
    48.0063  48.0848  48.2187  48.3011  48.8062  49.1039  49.1647  49.2095
    49.2488  49.4297  49.9988  50.2901  50.2984

          k = 0.0000 0.2349 0.1217 (  3669 PWs)   bands (ev):

   -68.7983 -68.7681 -68.7423 -68.7391 -68.6938 -68.6681 -68.6366 -68.6082
   -28.2998 -28.2639 -28.2270 -28.2074 -28.2019 -28.1938 -28.1522 -28.1465
   -28.1341 -28.1223 -28.1061 -28.0929 -28.0720 -28.0597 -28.0365 -28.0282
   -28.0054 -28.0046 -27.9731 -27.9655 -27.9584 -27.9528 -27.9302 -27.9266
   -15.7086 -15.6847 -15.6718 -15.6667   7.9188   7.9851   8.0599   8.0887
     8.0970   8.1279   8.1286   8.1641   8.4100   8.4536   8.7174   8.7815
    18.6452  18.6841  18.7129  18.8354  18.9835  19.0837  19.1630  19.2463
    19.3120  19.4447  19.5426  19.6607  19.7301  19.7834  19.8580  19.8987
    20.1601  20.1872  20.2638  20.3181  20.4262  20.4304  20.4910  20.5996
    20.6050  20.6835  20.7288  20.8304  20.8441  20.9072  20.9633  21.1146
    21.2415  21.2771  21.3970  21.4213  21.5146  21.6823  21.7808  21.8622
    25.1297  26.9340  27.5127  29.0636  30.0274  31.4954  32.2962  33.0720
    33.5395  33.6030  33.9802  34.0916  34.9651  35.3232  35.6167  36.0839
    36.8022  36.8569  37.4256  37.4436  37.6792  37.8789  38.4441  38.6459
    39.1805  39.5019  39.7519  40.2612  41.0503  41.5143  42.0311  42.3098
    42.8367  42.9577  43.3065  43.5381  44.8569  45.0300  45.0722  45.7016
    45.9071  46.0898  46.3515  46.6656  47.4487  47.6102  47.6632  47.9090
    48.0494  48.2662  48.7334  48.9961  49.0194  49.2378  49.2684  49.4721
    49.6092  49.8812  49.8878  50.2188  50.3055

          k = 0.0000 0.2349-0.2435 (  3666 PWs)   bands (ev):

   -68.7503 -68.7503 -68.7421 -68.7421 -68.6876 -68.6876 -68.6340 -68.6340
   -28.2864 -28.2864 -28.2102 -28.2102 -28.1968 -28.1968 -28.1448 -28.1448
   -28.1163 -28.1163 -28.0964 -28.0964 -28.0675 -28.0675 -28.0224 -28.0224
   -28.0165 -28.0165 -27.9728 -27.9728 -27.9649 -27.9649 -27.9232 -27.9232
   -15.6960 -15.6960 -15.6696 -15.6696   7.9524   7.9524   8.0724   8.0724
     8.1129   8.1129   8.1444   8.1444   8.4299   8.4299   8.7517   8.7517
    18.6451  18.6451  18.7229  18.7229  19.1026  19.1026  19.1411  19.1411
    19.4311  19.4311  19.7373  19.7373  19.7483  19.7483  19.8854  19.8854
    20.2424  20.2424  20.2933  20.2933  20.4215  20.4215  20.4744  20.4744
    20.6372  20.6372  20.7537  20.7537  20.8365  20.8365  21.0054  21.0054
    21.3094  21.3094  21.3468  21.3468  21.6124  21.6124  21.8230  21.8230
    25.8662  25.8662  28.1434  28.1434  30.9142  30.9142  32.6732  32.6732
    33.8229  33.8229  33.8431  33.8431  34.9394  34.9394  35.8668  35.8668
    37.0469  37.0469  37.3244  37.3244  38.0891  38.0891  38.9475  38.9475
    39.7487  39.7487  40.4059  40.4059  41.0721  41.0721  41.4827  41.4827
    42.2669  42.2669  43.6215  43.6215  44.1914  44.1914  45.4194  45.4194
    45.8678  45.8678  46.7953  46.7953  47.2053  47.2053  47.8234  47.8234
    47.9750  47.9750  49.1251  49.1252  49.2200  49.2200  49.6544  49.6544
    50.1169  50.1173  50.2166  50.2167  50.5662

          k =-0.4608 0.0000 0.0000 (  3722 PWs)   bands (ev):

   -68.8262 -68.8262 -68.7796 -68.7796 -68.7500 -68.7500 -68.7469 -68.7469
   -28.3688 -28.3688 -28.2584 -28.2584 -28.2398 -28.2398 -28.1801 -28.1801
   -28.1361 -28.1361 -28.0732 -28.0732 -28.0611 -28.0611 -28.0570 -28.0570
   -27.9800 -27.9800 -27.9760 -27.9760 -27.9597 -27.9597 -27.9457 -27.9457
   -15.6866 -15.6866 -15.6806 -15.6806   7.9298   7.9298   8.0770   8.0770
     8.1707   8.1707   8.2564   8.2564   8.6011   8.6011   8.7005   8.7005
    18.6468  18.6468  18.9590  18.9590  18.9714  18.9714  19.2256  19.2256
    19.5865  19.5865  19.6314  19.6314  19.7070  19.7070  19.7097  19.7097
    19.9396  19.9396  20.1809  20.1809  20.1835  20.1835  20.2568  20.2568
    20.4035  20.4035  20.5616  20.5616  20.7631  20.7631  20.8142  20.8142
    20.9275  20.9275  21.4093  21.4093  21.6806  21.6806  21.7901  21.7901
    27.6405  27.6405  30.0564  30.0564  30.2495  30.2495  32.5867  32.5867
    33.1688  33.1688  34.3420  34.3420  35.0148  35.0148  35.3467  35.3467
    36.6117  36.6117  36.8011  36.8011  37.5841  37.5841  38.1351  38.1351
    38.7878  38.7878  38.8126  38.8126  41.4198  41.4198  42.2955  42.2955
    42.7361  42.7361  43.5193  43.5193  44.4676  44.4676  45.8924  45.8924
    45.9171  45.9171  46.5403  46.5403  47.1697  47.1697  47.5938  47.5938
    48.1687  48.1687  48.2076  48.2076  48.3060  48.3060  49.5117  49.5117
    50.1654  50.1654  50.9937  50.9937  51.7753

          k =-0.4608 0.0000 0.1217 (  3710 PWs)   bands (ev):

   -68.8077 -68.8077 -68.7829 -68.7829 -68.7435 -68.7435 -68.7051 -68.7051
   -28.3666 -28.3666 -28.2615 -28.2615 -28.1996 -28.1996 -28.1858 -28.1858
   -28.1319 -28.1319 -28.0879 -28.0879 -28.0612 -28.0612 -28.0446 -28.0446
   -27.9830 -27.9830 -27.9701 -27.9701 -27.9545 -27.9545 -27.9451 -27.9451
   -15.6859 -15.6859 -15.6793 -15.6793   7.9261   7.9261   8.0953   8.0953
     8.1762   8.1762   8.2465   8.2465   8.5996   8.5996   8.6969   8.6969
    18.6436  18.6436  18.9327  18.9327  19.0480  19.0480  19.2581  19.2581
    19.5411  19.5411  19.5587  19.5587  19.6945  19.6945  19.8293  19.8293
    19.9139  19.9139  20.1945  20.1945  20.2233  20.2233  20.2928  20.2928
    20.3553  20.3553  20.5842  20.5842  20.7516  20.7516  20.7836  20.7836
    21.0038  21.0038  21.3702  21.3702  21.6482  21.6482  21.7863  21.7863
    27.7724  27.7724  29.1232  29.1232  30.8040  30.8040  32.5169  32.5169
    33.3826  33.3826  34.5832  34.5832  35.2137  35.2137  35.2989  35.2989
    36.4146  36.4146  36.6956  36.6956  37.5432  37.5432  38.5776  38.5776
    38.8004  38.8004  38.9019  38.9019  40.8530  40.8530  42.2345  42.2345
    42.9715  42.9715  43.6265  43.6265  44.5781  44.5781  45.1067  45.1067
    45.9385  45.9385  46.4319  46.4318  46.7900  46.7900  47.7932  47.7932
    48.1954  48.1954  48.8573  48.8573  49.0078  49.0078  49.2028  49.2028
    50.1500  50.1501  50.7069  50.7075  51.3859

          k =-0.4608 0.0000-0.2435 (  3680 PWs)   bands (ev):

   -68.7664 -68.7664 -68.7510 -68.7510 -68.6945 -68.6945 -68.6784 -68.6784
   -28.3722 -28.3722 -28.2452 -28.2452 -28.1858 -28.1858 -28.1370 -28.1370
   -28.1273 -28.1273 -28.0957 -28.0957 -28.0629 -28.0629 -28.0422 -28.0422
   -27.9844 -27.9844 -27.9544 -27.9544 -27.9450 -27.9450 -27.9271 -27.9271
   -15.6826 -15.6826 -15.6781 -15.6781   7.9245   7.9245   8.1155   8.1155
     8.1818   8.1818   8.2391   8.2391   8.6010   8.6010   8.6948   8.6948
    18.6384  18.6384  18.9121  18.9121  19.1329  19.1329  19.3807  19.3807
    19.3934  19.3934  19.4944  19.4944  19.7583  19.7583  19.7933  19.7933
    19.9448  19.9448  20.1821  20.1821  20.2642  20.2642  20.3052  20.3052
    20.5507  20.5507  20.5891  20.5891  20.6161  20.6161  20.7244  20.7244
    21.0559  21.0559  21.4494  21.4494  21.5507  21.5507  21.7834  21.7834
    28.2184  28.2184  28.2845  28.2845  31.0520  31.0520  32.3007  32.3007
    33.5906  33.5906  34.8324  34.8324  35.2640  35.2640  35.5511  35.5511
    36.2334  36.2334  36.9849  36.9849  37.0696  37.0696  38.7090  38.7090
    38.9035  38.9035  39.3727  39.3727  40.0835  40.0835  42.2403  42.2403
    43.2642  43.2642  43.8578  43.8578  44.3086  44.3086  44.9274  44.9274
    45.3667  45.3667  46.2013  46.2013  47.0995  47.0996  47.8888  47.8888
    48.3775  48.3775  48.9309  48.9309  49.3823  49.3823  49.6956  49.6957
    49.8107  49.8108  50.7393  50.7393  51.3104

          k =-0.4608 0.2349 0.0000 (  3686 PWs)   bands (ev):

   -68.7681 -68.7681 -68.7608 -68.7608 -68.7162 -68.7162 -68.6914 -68.6914
   -28.2892 -28.2892 -28.2425 -28.2425 -28.2350 -28.2350 -28.1523 -28.1523
   -28.1394 -28.1394 -28.0947 -28.0947 -28.0692 -28.0692 -28.0442 -28.0442
   -27.9874 -27.9874 -27.9712 -27.9712 -27.9449 -27.9449 -27.9391 -27.9391
   -15.6784 -15.6784 -15.6742 -15.6742   7.9494   7.9494   8.0165   8.0165
     8.1921   8.1921   8.2224   8.2224   8.5820   8.5820   8.6125   8.6125
    18.7941  18.7941  19.1540  19.1540  19.2128  19.2128  19.2359  19.2359
    19.4604  19.4604  19.6490  19.6490  19.8566  19.8566  19.9059  19.9059
    19.9926  19.9926  20.1384  20.1384  20.2513  20.2513  20.3739  20.3739
    20.4938  20.4938  20.5452  20.5452  20.7144  20.7144  20.9110  20.9110
    21.0733  21.0733  21.1758  21.1758  21.4698  21.4698  21.6069  21.6069
    28.1247  28.1247  29.5077  29.5077  30.7074  30.7074  31.3957  31.3957
    33.3728  33.3728  33.4087  33.4087  35.3311  35.3311  36.1214  36.1214
    36.1332  36.1332  36.9002  36.9002  37.2162  37.2162  37.4939  37.4939
    38.4292  38.4292  39.1317  39.1317  41.0773  41.0773  41.5340  41.5340
    43.0775  43.0775  44.2020  44.2020  45.2218  45.2218  45.2415  45.2415
    46.3793  46.3793  46.6775  46.6775  47.5525  47.5525  47.8131  47.8131
    48.5055  48.5055  49.0210  49.0213  49.7992  49.7992  49.8286  49.8287
    50.4698  50.4700  50.6481  50.6481  51.4297

          k =-0.4608 0.2349 0.1217 (  3692 PWs)   bands (ev):

   -68.7712 -68.7712 -68.7590 -68.7590 -68.7260 -68.7260 -68.7062 -68.7062
   -28.2955 -28.2955 -28.2325 -28.2325 -28.2227 -28.2227 -28.1689 -28.1689
   -28.1426 -28.1426 -28.1016 -28.1016 -28.0576 -28.0576 -28.0405 -28.0405
   -27.9965 -27.9965 -27.9674 -27.9674 -27.9577 -27.9577 -27.9456 -27.9456
   -15.6776 -15.6776 -15.6758 -15.6758   7.9493   7.9493   8.0261   8.0261
     8.1892   8.1892   8.2111   8.2111   8.5774   8.5774   8.6132   8.6132
    18.7818  18.7818  19.1536  19.1536  19.2276  19.2276  19.2910  19.2910
    19.4479  19.4479  19.6593  19.6593  19.7508  19.7508  19.9431  19.9431
    19.9956  19.9956  20.2110  20.2110  20.3069  20.3069  20.3994  20.3994
    20.4385  20.4385  20.6041  20.6041  20.6749  20.6749  20.8476  20.8476
    21.0597  21.0597  21.1933  21.1933  21.4474  21.4474  21.6020  21.6020
    28.1843  28.1843  29.1961  29.1961  30.5187  30.5187  31.3685  31.3685
    33.5756  33.5756  34.1464  34.1464  35.0587  35.0587  35.7752  35.7752
    36.2772  36.2772  36.9436  36.9436  37.1605  37.1605  37.6123  37.6123
    38.4298  38.4298  39.3235  39.3235  40.8200  40.8200  41.5148  41.5148
    43.2106  43.2106  44.0686  44.0686  44.8502  44.8502  45.3820  45.3820
    46.2347  46.2347  47.1188  47.1188  47.5408  47.5408  47.9792  47.9792
    48.3511  48.3511  48.9380  48.9380  49.3596  49.3596  50.1023  50.1023
    50.5282  50.5285  50.7654  50.7658  50.9928

          k =-0.4608 0.2349-0.2435 (  3704 PWs)   bands (ev):

   -68.8038 -68.8038 -68.7633 -68.7633 -68.7295 -68.7295 -68.7254 -68.7254
   -28.3028 -28.3028 -28.2250 -28.2250 -28.2142 -28.2142 -28.1783 -28.1783
   -28.1689 -28.1689 -28.1164 -28.1164 -28.0464 -28.0464 -28.0402 -28.0402
   -27.9971 -27.9971 -27.9884 -27.9884 -27.9482 -27.9482 -27.9480 -27.9480
   -15.6779 -15.6779 -15.6775 -15.6775   7.9455   7.9455   8.0361   8.0361
     8.1874   8.1874   8.1991   8.1991   8.5753   8.5753   8.6098   8.6098
    18.7669  18.7669  19.1501  19.1501  19.2367  19.2367  19.3783  19.3783
    19.4518  19.4518  19.5783  19.5783  19.7320  19.7320  19.9650  19.9650
    20.0229  20.0229  20.2095  20.2095  20.3187  20.3187  20.4580  20.4580
    20.5293  20.5293  20.5899  20.5899  20.6048  20.6048  20.8224  20.8224
    20.9370  20.9370  21.3100  21.3100  21.3942  21.3942  21.5820  21.5820
    28.3291  28.3291  28.7957  28.7957  30.4972  30.4972  31.2075  31.2075
    34.2369  34.2369  34.4816  34.4816  34.8544  34.8544  35.4652  35.4652
    36.4130  36.4130  36.8270  36.8270  37.2132  37.2132  37.6563  37.6563
    38.2803  38.2803  39.4461  39.4461  40.7630  40.7630  41.7694  41.7694
    42.8284  42.8284  44.1896  44.1896  44.5355  44.5355  45.2444  45.2444
    46.4531  46.4531  47.1889  47.1889  47.8622  47.8622  48.0615  48.0615
    48.3514  48.3514  48.8049  48.8049  49.2257  49.2258  49.7228  49.7229
    50.4289  50.4291  50.5377  50.5377  51.1457

     the Fermi energy is    44.2253 ev

!    total energy              =   -3534.57081629 Ry
     Harris-Foulkes estimate   =   -3534.57083795 Ry
     estimated scf accuracy    <       0.00003066 Ry

     The total energy is the sum of the following terms:

     one-electron contribution =    -320.39404261 Ry
     hartree contribution      =     435.70136617 Ry
     xc contribution           =    -315.34653996 Ry
     ewald contribution        =   -3334.18536133 Ry
     smearing contrib. (-TS)   =      -0.34623857 Ry

     convergence has been achieved in   7 iterations

     Forces acting on atoms (Ry/au):

     atom    1 type  1   force =     0.00000000   -0.04588540   -0.03357928
     atom    2 type  1   force =     0.00000000    0.04588540    0.03357928
     atom    3 type  1   force =     0.00000000   -0.04588540    0.03357928
     atom    4 type  1   force =     0.00000000    0.04588540   -0.03357928
     atom    5 type  1   force =     0.00000000    0.06342041   -0.01846898
     atom    6 type  1   force =     0.00000000   -0.06342041    0.01846898
     atom    7 type  1   force =     0.00000000    0.06342041    0.01846898
     atom    8 type  1   force =     0.00000000   -0.06342041   -0.01846898
     atom    9 type  2   force =     0.00000000   -0.11367574    0.06123226
     atom   10 type  2   force =     0.00000000    0.11367574   -0.06123226
     atom   11 type  2   force =     0.00000000   -0.11367574   -0.06123226
     atom   12 type  2   force =     0.00000000    0.11367574    0.06123226

     Total force =     0.311563     Total SCF correction =     0.000000


     entering subroutine stress ...

          total   stress  (Ry/bohr**3)                   (kbar)     P= 2134.91
   0.01493357   0.00000000   0.00000000       2196.80      0.00      0.00
   0.00000000   0.01414642   0.00000000          0.00   2081.01      0.00
   0.00000000   0.00000000   0.01445843          0.00      0.00   2126.91


     number of scf cycles    =   2
     number of bfgs steps    =   1

     enthalpy old            =   -3527.6823928391 Ry
     enthalpy new            =   -3534.5708162935 Ry

     CASE: enthalpy_new < enthalpy_old

     small trust_radius: resetting bfgs history

     new trust radius        =       2.4673690519 bohr
     new conv_thr            =       0.0001000000 Ry

     new unit-cell volume =   2763.71619 a.u.^3 (   409.54048 Ang^3 )

CELL_PARAMETERS (alat=  7.01510508)
   1.490260842   0.000000000   0.000000000
   0.000000000   1.921277311   0.000000000
   0.000000000   0.000000000   2.796008944

ATOMIC_POSITIONS (crystal)
Co       0.750000000   0.820825547   0.432803878
Co       0.250000000   0.179174453   0.567196122
Co       0.750000000   0.320825547   0.067196122
Co       0.250000000   0.679174453   0.932803878
Co       0.250000000   0.544414100   0.280675293
Co       0.750000000   0.455585900   0.719324707
Co       0.250000000   0.044414100   0.219324707
Co       0.750000000   0.955585900   0.780675293
Si       0.250000000   0.189803408   0.897901992
Si       0.750000000   0.810196592   0.102098008
Si       0.250000000   0.689803408   0.602098008
Si       0.750000000   0.310196592   0.397901992



     Writing output data file Prototype-La-oP12-Co2Si.save
     NEW-OLD atomic charge density approx. for the potential
     NEW k-points:
        k(    1) = (   0.0000000   0.0000000   0.0000000), wk =   0.0833333
        k(    2) = (   0.0000000   0.0000000   0.0894132), wk =   0.1666667
        k(    3) = (   0.0000000   0.0000000  -0.1788263), wk =   0.0833333
        k(    4) = (   0.0000000   0.1734957   0.0000000), wk =   0.1666667
        k(    5) = (   0.0000000   0.1734957   0.0894132), wk =   0.3333333
        k(    6) = (   0.0000000   0.1734957  -0.1788263), wk =   0.1666667
        k(    7) = (  -0.3355117   0.0000000   0.0000000), wk =   0.0833333
        k(    8) = (  -0.3355117   0.0000000   0.0894132), wk =   0.1666667
        k(    9) = (  -0.3355117   0.0000000  -0.1788263), wk =   0.0833333
        k(   10) = (  -0.3355117   0.1734957   0.0000000), wk =   0.1666667
        k(   11) = (  -0.3355117   0.1734957   0.0894132), wk =   0.3333333
        k(   12) = (  -0.3355117   0.1734957  -0.1788263), wk =   0.1666667

     total cpu time spent up to now is      323.1 secs

     Self-consistent Calculation

     iteration #  1     ecut=    40.00 Ry     beta=0.70
     CG style diagonalization
     c_bands:  3 eigenvalues not converged
     c_bands:  3 eigenvalues not converged
     c_bands:  3 eigenvalues not converged
     c_bands:  1 eigenvalues not converged
     c_bands:  2 eigenvalues not converged
     c_bands:  3 eigenvalues not converged
     c_bands:  1 eigenvalues not converged
     c_bands:  5 eigenvalues not converged
     c_bands:  4 eigenvalues not converged
     c_bands:  5 eigenvalues not converged
     c_bands:  5 eigenvalues not converged
     c_bands:  5 eigenvalues not converged
     ethr =  1.00E-06,  avg # of iterations = 30.9

     total cpu time spent up to now is      399.6 secs

     total energy              =   -3394.75210506 Ry
     Harris-Foulkes estimate   =   -3741.03736053 Ry
     estimated scf accuracy    <     436.31009770 Ry

     iteration #  2     ecut=    40.00 Ry     beta=0.70
     CG style diagonalization
     ethr =  1.00E-02,  avg # of iterations =  6.1

     total cpu time spent up to now is      415.7 secs

     total energy              =   -3462.13254522 Ry
     Harris-Foulkes estimate   =   -3542.77441320 Ry
     estimated scf accuracy    <     117.46586361 Ry

     iteration #  3     ecut=    40.00 Ry     beta=0.70
     CG style diagonalization
     ethr =  1.00E-02,  avg # of iterations =  6.1

     total cpu time spent up to now is      432.9 secs

     total energy              =   -3495.65589377 Ry
     Harris-Foulkes estimate   =   -3531.37807083 Ry
     estimated scf accuracy    <      83.07549571 Ry

     iteration #  4     ecut=    40.00 Ry     beta=0.70
     CG style diagonalization
     ethr =  1.00E-02,  avg # of iterations =  3.8

     total cpu time spent up to now is      442.4 secs

     total energy              =   -3505.90606761 Ry
     Harris-Foulkes estimate   =   -3507.26909070 Ry
     estimated scf accuracy    <       4.13029009 Ry

     iteration #  5     ecut=    40.00 Ry     beta=0.70
     CG style diagonalization
     ethr =  1.67E-03,  avg # of iterations =  3.6

     total cpu time spent up to now is      451.5 secs

     total energy              =   -3506.71865608 Ry
     Harris-Foulkes estimate   =   -3506.92309169 Ry
     estimated scf accuracy    <       0.44692247 Ry

     iteration #  6     ecut=    40.00 Ry     beta=0.70
     CG style diagonalization
     ethr =  1.80E-04,  avg # of iterations =  3.6

     total cpu time spent up to now is      461.6 secs

     total energy              =   -3506.78490052 Ry
     Harris-Foulkes estimate   =   -3506.82912197 Ry
     estimated scf accuracy    <       0.07594248 Ry

     iteration #  7     ecut=    40.00 Ry     beta=0.70
     CG style diagonalization
     c_bands:  1 eigenvalues not converged
     ethr =  3.06E-05,  avg # of iterations =  3.9

     total cpu time spent up to now is      472.2 secs

     total energy              =   -3506.80021085 Ry
     Harris-Foulkes estimate   =   -3506.82079420 Ry
     estimated scf accuracy    <       0.04048238 Ry

     iteration #  8     ecut=    40.00 Ry     beta=0.70
     CG style diagonalization
     c_bands:  1 eigenvalues not converged
     ethr =  1.63E-05,  avg # of iterations =  3.4

     total cpu time spent up to now is      481.6 secs

     total energy              =   -3506.80560768 Ry
     Harris-Foulkes estimate   =   -3506.80772738 Ry
     estimated scf accuracy    <       0.00556864 Ry

     iteration #  9     ecut=    40.00 Ry     beta=0.70
     CG style diagonalization
     c_bands:  1 eigenvalues not converged
     ethr =  2.25E-06,  avg # of iterations =  3.5

     total cpu time spent up to now is      490.5 secs

     total energy              =   -3506.80705210 Ry
     Harris-Foulkes estimate   =   -3506.80739849 Ry
     estimated scf accuracy    <       0.00138889 Ry

     iteration # 10     ecut=    40.00 Ry     beta=0.70
     CG style diagonalization
     ethr =  5.60E-07,  avg # of iterations =  3.2

     total cpu time spent up to now is      498.6 secs

     total energy              =   -3506.80710795 Ry
     Harris-Foulkes estimate   =   -3506.80719532 Ry
     estimated scf accuracy    <       0.00025532 Ry

     iteration # 11     ecut=    40.00 Ry     beta=0.70
     CG style diagonalization
     ethr =  1.03E-07,  avg # of iterations =  3.2

     total cpu time spent up to now is      506.3 secs

     End of self-consistent calculation

          k = 0.0000 0.0000 0.0000 (  3675 PWs)   bands (ev):

   -94.3168 -94.2888 -94.2746 -94.1995 -94.1343 -94.0878 -94.0627 -94.0276
   -59.9618 -59.9411 -59.9232 -59.9074 -59.8930 -59.8916 -59.8860 -59.8738
   -59.8647 -59.8428 -59.8172 -59.8141 -59.8137 -59.8071 -59.8046 -59.7917
   -59.7898 -59.7872 -59.7836 -59.7784 -59.7325 -59.7235 -59.6986 -59.6875
   -39.7688 -39.7532 -39.7104 -39.6729 -16.6574 -16.6543 -16.6524 -16.6484
   -16.6456 -16.6447 -16.6445 -16.6395 -16.6166 -16.6081 -16.6024 -16.6014
    -5.9433  -5.8570  -5.8338  -5.7621  -5.7554  -5.7188  -5.7176  -5.7052
    -5.6869  -5.6736  -5.6580  -5.6363  -5.6290  -5.5878  -5.5638  -5.5412
    -5.5348  -5.4954  -5.4946  -5.4753  -5.4653  -5.4510  -5.4213  -5.4093
    -5.3988  -5.3807  -5.3802  -5.3709  -5.3524  -5.3305  -5.3300  -5.3299
    -5.3150  -5.3089  -5.2088  -5.2016  -5.1665  -5.1380  -5.0997  -5.0986
     4.2819   5.2987   5.7635   6.4985   7.0185   7.0312   7.3316   7.7081
    10.1945  10.6910  11.1032  11.2738  11.2785  11.6897  11.7662  11.9106
    12.0935  12.1031  12.1545  12.5239  12.5404  12.6693  12.9735  13.0647
    13.3954  13.4031  13.4062  13.4313  13.5733  13.6939  13.9425  14.0846
    14.0951  14.2270  14.3569  14.7251  14.7515  14.7714  14.8338  15.1322
    15.1486  15.3370  15.9647  16.2586  16.3079  16.3791  16.4082  16.5995
    16.6467  17.2968  17.6227  17.7325  17.8955  18.2916  18.3024  18.9219
    19.2124  19.9891  20.2393  21.1020  21.1710

          k = 0.0000 0.0000 0.0894 (  3675 PWs)   bands (ev):

   -94.3894 -94.3187 -94.2803 -94.1509 -94.1257 -94.0802 -94.0382 -94.0208
   -59.9685 -59.9633 -59.9267 -59.9250 -59.8918 -59.8853 -59.8834 -59.8655
   -59.8462 -59.8346 -59.8309 -59.8278 -59.8129 -59.8095 -59.8065 -59.8059
   -59.7847 -59.7828 -59.7764 -59.7655 -59.7303 -59.7069 -59.6973 -59.6835
   -39.7644 -39.7605 -39.6964 -39.6840 -16.6552 -16.6502 -16.6501 -16.6477
   -16.6467 -16.6447 -16.6431 -16.6383 -16.6170 -16.6136 -16.6063 -16.6032
    -5.9707  -5.9511  -5.8293  -5.7980  -5.7956  -5.7610  -5.7174  -5.7121
    -5.6702  -5.6623  -5.6485  -5.6484  -5.6311  -5.5900  -5.5844  -5.5707
    -5.5540  -5.5523  -5.5194  -5.5023  -5.4712  -5.4639  -5.4554  -5.4469
    -5.4178  -5.4025  -5.3809  -5.3377  -5.3301  -5.3164  -5.3089  -5.2975
    -5.2693  -5.2502  -5.2029  -5.1568  -5.1310  -5.1288  -5.0217  -5.0092
     4.3669   4.9803   6.1216   6.5195   6.9871   7.0933   7.2726   7.4875
    10.2749  10.8187  11.1028  11.2235  11.2917  11.5963  11.7970  12.0611
    12.1263  12.1877  12.4053  12.5411  12.6331  12.7313  13.0105  13.0282
    13.3406  13.3555  13.4286  13.4770  13.5788  13.6169  13.8058  13.9169
    13.9990  14.1057  14.1521  14.2665  14.3155  14.3198  15.0300  15.4420
    15.6440  15.7186  15.9816  16.0481  16.0769  16.3152  16.4669  16.6863
    16.7402  17.4418  17.5595  17.6923  18.0069  18.2140  18.9310  19.1565
    19.6754  19.9626  19.9879  20.8424  21.3032

          k = 0.0000 0.0000-0.1788 (  3690 PWs)   bands (ev):

   -94.3448 -94.3448 -94.2915 -94.2915 -94.1606 -94.1606 -94.0460 -94.0460
   -59.9740 -59.9740 -59.9355 -59.9355 -59.9107 -59.9107 -59.8878 -59.8878
   -59.8668 -59.8668 -59.8233 -59.8233 -59.8178 -59.8178 -59.7949 -59.7949
   -59.7898 -59.7898 -59.7793 -59.7793 -59.7010 -59.7010 -59.6893 -59.6893
   -39.7987 -39.7987 -39.7031 -39.7031 -16.6512 -16.6512 -16.6508 -16.6508
   -16.6482 -16.6482 -16.6411 -16.6411 -16.6179 -16.6179 -16.6158 -16.6158
    -5.9932  -5.9932  -5.9505  -5.9505  -5.7829  -5.7829  -5.7174  -5.7174
    -5.7119  -5.7119  -5.6899  -5.6899  -5.6332  -5.6332  -5.6069  -5.6069
    -5.5945  -5.5945  -5.5349  -5.5349  -5.5330  -5.5330  -5.4794  -5.4794
    -5.4466  -5.4466  -5.4429  -5.4429  -5.3665  -5.3665  -5.2763  -5.2763
    -5.2324  -5.2324  -5.2121  -5.2121  -5.1266  -5.1266  -5.0223  -5.0223
     4.6060   4.6060   6.4915   6.4915   7.0567   7.0567   7.2026   7.2026
    10.5352  10.5352  11.1420  11.1420  11.6141  11.6141  12.0692  12.0692
    12.2004  12.2004  12.3224  12.3224  13.0031  13.0031  13.1455  13.1455
    13.2268  13.2268  13.3117  13.3117  13.5009  13.5009  13.7781  13.7781
    13.8906  13.8906  13.9530  13.9530  14.1489  14.1489  15.4915  15.4915
    15.5090  15.5090  16.1827  16.1827  16.1893  16.1893  16.6403  16.6403
    16.9880  16.9880  17.6642  17.6642  18.2253  18.2253  19.6224  19.6224
    19.8508  19.8508  20.1303  20.1304  21.2579

          k = 0.0000 0.1735 0.0000 (  3664 PWs)   bands (ev):

   -94.3591 -94.2647 -94.2567 -94.1888 -94.1142 -94.0674 -94.0204 -93.9428
   -59.9594 -59.9297 -59.9188 -59.8967 -59.8908 -59.8871 -59.8769 -59.8584
   -59.8434 -59.8286 -59.8221 -59.8150 -59.8145 -59.8104 -59.8104 -59.7982
   -59.7956 -59.7881 -59.7661 -59.7551 -59.7384 -59.7119 -59.6722 -59.6641
   -39.7936 -39.7392 -39.6614 -39.6293 -16.6603 -16.6503 -16.6503 -16.6479
   -16.6462 -16.6430 -16.6377 -16.6375 -16.6124 -16.6116 -16.6033 -16.6001
    -5.8666  -5.8290  -5.8092  -5.7602  -5.7473  -5.7425  -5.7047  -5.6867
    -5.6647  -5.6310  -5.6165  -5.5936  -5.5748  -5.5718  -5.5668  -5.5500
    -5.5476  -5.5104  -5.5017  -5.4928  -5.4825  -5.4297  -5.4124  -5.4118
    -5.4079  -5.3899  -5.3886  -5.3478  -5.3270  -5.3197  -5.3000  -5.2610
    -5.2545  -5.2373  -5.1683  -5.1640  -5.1608  -5.0695  -4.9609  -4.9559
     4.6031   5.4597   5.5942   6.0148   6.6263   6.7059   7.8036   7.9336
    10.6586  11.0168  11.1081  11.2468  11.3013  11.3360  11.5505  11.7389
    11.8924  11.9228  12.1838  12.6809  12.6999  12.7577  12.8560  13.1074
    13.1212  13.3453  13.4111  13.4546  13.5334  13.6796  13.7338  13.9253
    14.2314  14.3040  14.4020  14.5853  14.8238  15.0179  15.2870  15.4392
    15.5177  15.7772  15.9787  16.0184  16.0265  16.2025  16.3737  16.4355
    16.9164  17.2977  17.3707  17.9880  18.0868  18.3862  19.2403  19.2435
    19.6833  19.7506  20.4388  20.5703  20.6808

          k = 0.0000 0.1735 0.0894 (  3669 PWs)   bands (ev):

   -94.3655 -94.2840 -94.2363 -94.2124 -94.1158 -94.0822 -94.0266 -93.9892
   -59.9618 -59.9377 -59.9264 -59.9164 -59.9024 -59.8979 -59.8835 -59.8661
   -59.8540 -59.8381 -59.8222 -59.8191 -59.8150 -59.8105 -59.7961 -59.7918
   -59.7896 -59.7792 -59.7740 -59.7613 -59.7323 -59.7134 -59.6793 -59.6598
   -39.7856 -39.7185 -39.6983 -39.6628 -16.6574 -16.6526 -16.6507 -16.6450
   -16.6448 -16.6442 -16.6427 -16.6372 -16.6174 -16.6122 -16.6040 -16.6026
    -5.9009  -5.8987  -5.8368  -5.8049  -5.7525  -5.7091  -5.7083  -5.6876
    -5.6762  -5.6707  -5.6468  -5.6233  -5.6217  -5.6017  -5.5663  -5.5639
    -5.5398  -5.5296  -5.5137  -5.4889  -5.4768  -5.4761  -5.4530  -5.4471
    -5.4308  -5.4111  -5.4039  -5.3923  -5.3290  -5.3222  -5.2724  -5.2671
    -5.2378  -5.2022  -5.1905  -5.1573  -5.1230  -5.0798  -4.9968  -4.9250
     4.6849   5.2634   5.5891   6.0361   6.6251   7.0019   7.6834   7.7757
    10.7564  11.0083  11.0276  11.1811  11.3567  11.6317  11.6569  11.7152
    11.8621  12.0586  12.3164  12.6454  12.6913  12.7439  12.8591  13.0587
    13.0956  13.1669  13.3789  13.4675  13.5656  13.7212  13.7540  13.8793
    13.9057  14.0794  14.1898  14.5320  14.7422  14.9231  15.0071  15.2893
    15.6642  15.9662  15.9951  16.2762  16.3065  16.4312  16.4652  16.6207
    16.8761  17.2166  17.5662  17.7258  18.0368  18.3772  19.2683  19.5400
    19.8634  20.0643  20.2345  20.3372  20.7100

          k = 0.0000 0.1735-0.1788 (  3666 PWs)   bands (ev):

   -94.2586 -94.2586 -94.2135 -94.2135 -94.1315 -94.1315 -94.0221 -94.0221
   -59.9431 -59.9431 -59.9242 -59.9242 -59.8939 -59.8939 -59.8794 -59.8794
   -59.8369 -59.8369 -59.8099 -59.8099 -59.8063 -59.8063 -59.7901 -59.7901
   -59.7882 -59.7882 -59.7830 -59.7830 -59.7241 -59.7241 -59.6772 -59.6772
   -39.7499 -39.7499 -39.6733 -39.6733 -16.6521 -16.6521 -16.6472 -16.6472
   -16.6454 -16.6454 -16.6383 -16.6383 -16.6147 -16.6147 -16.6041 -16.6041
    -5.8688  -5.8688  -5.7626  -5.7626  -5.6944  -5.6944  -5.6503  -5.6503
    -5.6461  -5.6461  -5.6202  -5.6202  -5.5942  -5.5942  -5.5379  -5.5379
    -5.5272  -5.5272  -5.5093  -5.5093  -5.4985  -5.4985  -5.4226  -5.4226
    -5.4024  -5.4024  -5.3494  -5.3494  -5.3422  -5.3422  -5.2797  -5.2797
    -5.2683  -5.2683  -5.2390  -5.2390  -5.1439  -5.1439  -4.9866  -4.9866
     4.9183   4.9183   5.7839   5.7839   7.0294   7.0294   7.5644   7.5644
    10.8805  10.8805  11.0848  11.0848  11.6889  11.6889  11.7665  11.7665
    11.9829  11.9829  12.4493  12.4493  12.6829  12.6829  12.9459  12.9459
    13.2642  13.2642  13.3886  13.3886  13.4934  13.4934  13.6931  13.6931
    13.8890  13.8890  14.2312  14.2312  14.8053  14.8053  14.9390  14.9390
    15.8617  15.8617  16.3442  16.3442  16.4588  16.4588  16.7995  16.7995
    17.2390  17.2390  17.3447  17.3447  18.3695  18.3695  19.4292  19.4292
    19.8327  19.8328  20.1087  20.1088  21.0498

          k =-0.3355 0.0000 0.0000 (  3722 PWs)   bands (ev):

   -94.3556 -94.3556 -94.3526 -94.3526 -94.2126 -94.2126 -94.2071 -94.2071
   -59.9457 -59.9457 -59.9279 -59.9279 -59.9225 -59.9225 -59.9042 -59.9042
   -59.8671 -59.8671 -59.8658 -59.8658 -59.8362 -59.8362 -59.8221 -59.8221
   -59.8114 -59.8114 -59.7971 -59.7971 -59.7616 -59.7616 -59.7534 -59.7534
   -39.8251 -39.8251 -39.8055 -39.8055 -16.6659 -16.6659 -16.6603 -16.6603
   -16.6546 -16.6546 -16.6457 -16.6457 -16.6168 -16.6168 -16.6106 -16.6106
    -6.0369  -6.0369  -5.9100  -5.9100  -5.8025  -5.8025  -5.7864  -5.7864
    -5.7733  -5.7733  -5.7619  -5.7619  -5.6977  -5.6977  -5.6574  -5.6574
    -5.6478  -5.6478  -5.6208  -5.6208  -5.5772  -5.5772  -5.5405  -5.5405
    -5.5351  -5.5351  -5.4778  -5.4778  -5.4145  -5.4145  -5.4057  -5.4057
    -5.3806  -5.3806  -5.3330  -5.3330  -5.3326  -5.3326  -5.3103  -5.3103
     5.2690   5.2690   6.3870   6.3870   6.4780   6.4780   7.2393   7.2393
    10.3388  10.3388  11.1089  11.1089  11.1547  11.1547  11.5581  11.5581
    11.7399  11.7399  12.7218  12.7218  12.7767  12.7767  13.0365  13.0365
    13.1611  13.1611  13.3486  13.3486  13.4947  13.4947  13.9369  13.9369
    14.1538  14.1538  14.2049  14.2049  14.3275  14.3275  14.8983  14.8983
    15.7920  15.7920  16.1398  16.1398  16.2298  16.2298  16.8681  16.8681
    17.5168  17.5168  18.1226  18.1226  18.4415  18.4415  19.3874  19.3875
    20.5596  20.5597  21.1051  21.1051  21.6009

          k =-0.3355 0.0000 0.0894 (  3710 PWs)   bands (ev):

   -94.3605 -94.3605 -94.3046 -94.3046 -94.2220 -94.2220 -94.1341 -94.1341
   -59.9519 -59.9519 -59.9227 -59.9227 -59.9180 -59.9180 -59.8806 -59.8806
   -59.8667 -59.8667 -59.8527 -59.8527 -59.8384 -59.8384 -59.8205 -59.8205
   -59.7984 -59.7984 -59.7875 -59.7875 -59.7481 -59.7481 -59.7452 -59.7452
   -39.7966 -39.7966 -39.7911 -39.7911 -16.6622 -16.6622 -16.6591 -16.6591
   -16.6513 -16.6513 -16.6424 -16.6424 -16.6171 -16.6171 -16.6109 -16.6109
    -5.9672  -5.9672  -5.8989  -5.8989  -5.8317  -5.8317  -5.7727  -5.7727
    -5.7192  -5.7192  -5.6804  -5.6804  -5.6694  -5.6694  -5.6311  -5.6311
    -5.6113  -5.6113  -5.5663  -5.5663  -5.5348  -5.5348  -5.5218  -5.5218
    -5.4912  -5.4912  -5.4758  -5.4758  -5.4334  -5.4334  -5.3918  -5.3918
    -5.3570  -5.3570  -5.3145  -5.3145  -5.3059  -5.3059  -5.2455  -5.2455
     5.2979   5.2979   6.2000   6.2000   6.6367   6.6367   7.2330   7.2330
    10.3725  10.3725  10.9133  10.9133  11.3742  11.3742  11.6740  11.6740
    11.9471  11.9471  12.6580  12.6580  12.6782  12.6782  12.8314  12.8314
    13.0838  13.0838  13.3387  13.3387  13.5010  13.5010  13.9907  13.9907
    14.0255  14.0255  14.2874  14.2874  14.3978  14.3978  14.7490  14.7490
    15.3785  15.3785  16.2404  16.2404  16.4474  16.4474  17.1385  17.1385
    17.7961  17.7961  18.2084  18.2084  18.5155  18.5155  19.4164  19.4164
    20.6012  20.6013  20.8856  20.8857  21.3093

          k =-0.3355 0.0000-0.1788 (  3680 PWs)   bands (ev):

   -94.3273 -94.3273 -94.2275 -94.2275 -94.1084 -94.1084 -94.0885 -94.0885
   -59.9391 -59.9391 -59.9378 -59.9378 -59.8817 -59.8817 -59.8719 -59.8719
   -59.8539 -59.8539 -59.8423 -59.8423 -59.8332 -59.8332 -59.7954 -59.7954
   -59.7864 -59.7864 -59.7651 -59.7651 -59.7272 -59.7272 -59.7198 -59.7198
   -39.7545 -39.7545 -39.7268 -39.7268 -16.6563 -16.6563 -16.6553 -16.6553
   -16.6413 -16.6413 -16.6338 -16.6338 -16.6151 -16.6151 -16.6113 -16.6113
    -5.9365  -5.9365  -5.8533  -5.8533  -5.6932  -5.6932  -5.6593  -5.6593
    -5.6411  -5.6411  -5.6209  -5.6209  -5.6142  -5.6142  -5.5903  -5.5903
    -5.5749  -5.5749  -5.5475  -5.5475  -5.5024  -5.5024  -5.4821  -5.4821
    -5.4396  -5.4396  -5.4104  -5.4104  -5.3673  -5.3673  -5.3584  -5.3584
    -5.2570  -5.2570  -5.2244  -5.2244  -5.1555  -5.1555  -5.1177  -5.1177
     5.3393   5.3393   6.0911   6.0911   6.7174   6.7174   7.2235   7.2235
    10.3766  10.3766  10.9519  10.9519  11.3327  11.3327  11.9454  11.9454
    12.2638  12.2638  12.4057  12.4057  12.5718  12.5718  12.6873  12.6873
    12.9226  12.9226  13.3595  13.3595  13.5038  13.5038  13.9654  13.9654
    14.1639  14.1639  14.2583  14.2583  14.4570  14.4570  14.6018  14.6018
    15.0324  15.0324  16.2171  16.2171  16.9807  16.9807  17.0156  17.0157
    18.3126  18.3126  18.4147  18.4147  18.4701  18.4701  19.2709  19.2710
    20.5554  20.5554  20.7847  20.7847  21.6010

          k =-0.3355 0.1735 0.0000 (  3686 PWs)   bands (ev):

   -94.2718 -94.2718 -94.2648 -94.2648 -94.1692 -94.1692 -94.1003 -94.1003
   -59.9315 -59.9315 -59.9147 -59.9147 -59.8917 -59.8917 -59.8895 -59.8895
   -59.8589 -59.8589 -59.8401 -59.8401 -59.8272 -59.8272 -59.8146 -59.8146
   -59.7948 -59.7948 -59.7777 -59.7777 -59.7609 -59.7609 -59.7438 -59.7438
   -39.7568 -39.7568 -39.7557 -39.7557 -16.6630 -16.6630 -16.6592 -16.6592
   -16.6424 -16.6424 -16.6420 -16.6420 -16.6082 -16.6082 -16.6024 -16.6024
    -5.9215  -5.9215  -5.7642  -5.7642  -5.7361  -5.7361  -5.7141  -5.7141
    -5.6570  -5.6570  -5.6483  -5.6483  -5.6114  -5.6114  -5.5929  -5.5929
    -5.5466  -5.5466  -5.5309  -5.5309  -5.5279  -5.5279  -5.4643  -5.4643
    -5.4576  -5.4576  -5.4188  -5.4188  -5.4125  -5.4125  -5.3552  -5.3552
    -5.3362  -5.3362  -5.3168  -5.3168  -5.2674  -5.2674  -5.2444  -5.2444
     5.5525   5.5525   6.2029   6.2029   6.6057   6.6057   6.8183   6.8183
    10.4263  10.4263  10.4864  10.4864  11.4680  11.4680  12.0466  12.0466
    12.1345  12.1345  12.5202  12.5202  12.6628  12.6628  12.8019  12.8019
    13.0928  13.0928  13.2103  13.2103  13.6860  13.6860  13.9750  13.9750
    14.1099  14.1099  14.1470  14.1470  14.8472  14.8472  15.3930  15.3930
    15.7060  15.7060  15.7396  15.7396  16.7481  16.7481  16.8429  16.8429
    17.6932  17.6932  17.7840  17.7840  18.5054  18.5054  19.2332  19.2332
    20.4032  20.4033  20.8140  20.8141  21.2186

          k =-0.3355 0.1735 0.0894 (  3692 PWs)   bands (ev):

   -94.2839 -94.2839 -94.2582 -94.2582 -94.1729 -94.1729 -94.1443 -94.1443
   -59.9442 -59.9442 -59.9271 -59.9271 -59.8936 -59.8936 -59.8887 -59.8887
   -59.8489 -59.8489 -59.8455 -59.8455 -59.8289 -59.8289 -59.8218 -59.8218
   -59.7906 -59.7906 -59.7806 -59.7806 -59.7521 -59.7521 -59.7405 -59.7405
   -39.7952 -39.7952 -39.7360 -39.7360 -16.6613 -16.6613 -16.6596 -16.6596
   -16.6446 -16.6446 -16.6404 -16.6404 -16.6156 -16.6156 -16.6025 -16.6025
    -5.8767  -5.8767  -5.7968  -5.7968  -5.7693  -5.7693  -5.7482  -5.7482
    -5.7054  -5.7054  -5.6470  -5.6470  -5.6078  -5.6078  -5.5983  -5.5983
    -5.5596  -5.5596  -5.5434  -5.5434  -5.5264  -5.5264  -5.4888  -5.4888
    -5.4625  -5.4625  -5.4490  -5.4490  -5.4045  -5.4045  -5.3680  -5.3680
    -5.3501  -5.3501  -5.2976  -5.2976  -5.2803  -5.2803  -5.2487  -5.2487
     5.5771   5.5771   6.1793   6.1793   6.6031   6.6031   6.7740   6.7740
    10.5351  10.5351  10.7421  10.7421  11.4075  11.4076  11.8326  11.8326
    12.0337  12.0337  12.4844  12.4844  12.6580  12.6580  12.8346  12.8346
    13.0391  13.0391  13.2421  13.2421  13.6492  13.6492  13.9622  13.9622
    14.0766  14.0766  14.1843  14.1843  14.8030  14.8030  15.1367  15.1367
    15.7109  15.7109  15.9600  15.9600  16.9064  16.9064  17.1260  17.1260
    17.5423  17.5423  17.8937  17.8937  18.5104  18.5104  19.3473  19.3473
    20.3156  20.3156  20.8572  20.8576  21.0349

          k =-0.3355 0.1735-0.1788 (  3704 PWs)   bands (ev):

   -94.3241 -94.3241 -94.2915 -94.2915 -94.1823 -94.1823 -94.1731 -94.1731
   -59.9647 -59.9647 -59.9359 -59.9359 -59.8906 -59.8906 -59.8825 -59.8825
   -59.8598 -59.8598 -59.8481 -59.8481 -59.8406 -59.8406 -59.8259 -59.8259
   -59.7947 -59.7947 -59.7769 -59.7769 -59.7528 -59.7528 -59.7489 -59.7489
   -39.8182 -39.8182 -39.7569 -39.7569 -16.6620 -16.6620 -16.6604 -16.6604
   -16.6461 -16.6461 -16.6401 -16.6401 -16.6196 -16.6196 -16.6094 -16.6094
    -5.9132  -5.9132  -5.8685  -5.8685  -5.8274  -5.8274  -5.7352  -5.7352
    -5.7245  -5.7245  -5.6551  -5.6551  -5.6513  -5.6513  -5.6317  -5.6317
    -5.6103  -5.6103  -5.5709  -5.5709  -5.5386  -5.5386  -5.5174  -5.5174
    -5.4956  -5.4956  -5.4954  -5.4954  -5.4681  -5.4681  -5.4208  -5.4208
    -5.3426  -5.3426  -5.3264  -5.3264  -5.2313  -5.2313  -5.2273  -5.2273
     5.6104   5.6104   6.1440   6.1440   6.6652   6.6652   6.6708   6.6708
    10.8561  10.8561  10.8841  10.8841  11.4152  11.4152  11.5952  11.5952
    11.7230  11.7230  12.4683  12.4683  12.6970  12.6970  12.8777  12.8777
    12.9612  12.9612  13.2631  13.2631  13.6516  13.6516  13.9633  13.9633
    14.0662  14.0662  14.2360  14.2360  14.5249  14.5249  15.1501  15.1501
    15.8855  15.8855  15.9650  15.9650  17.0046  17.0046  17.0327  17.0327
    17.7878  17.7878  18.1603  18.1604  18.4798  18.4798  19.3681  19.3681
    20.1061  20.1061  20.5817  20.5817  20.8968

     the Fermi energy is    14.6861 ev

!    total energy              =   -3506.80714026 Ry
     Harris-Foulkes estimate   =   -3506.80716606 Ry
     estimated scf accuracy    <       0.00002919 Ry

     The total energy is the sum of the following terms:

     one-electron contribution =   -1568.63517549 Ry
     hartree contribution      =     803.03209578 Ry
     xc contribution           =    -293.08257162 Ry
     ewald contribution        =   -2447.31446223 Ry
     smearing contrib. (-TS)   =      -0.80702670 Ry

     convergence has been achieved in  11 iterations

     Forces acting on atoms (Ry/au):

     atom    1 type  1   force =     0.00000000    0.00065665    0.00237394
     atom    2 type  1   force =     0.00000000   -0.00065665   -0.00237394
[...]

   -76.4566 -76.4566 -76.4361 -76.4274 -76.3887 -76.3780 -76.3697 -76.3676
   -35.2953 -35.2791 -35.2007 -35.1823 -35.1740 -35.1683 -35.1636 -35.1581
   -35.1575 -35.1476 -35.1440 -35.1386 -35.1327 -35.1274 -35.1233 -35.1153
   -35.1122 -35.0912 -35.0896 -35.0847 -35.0791 -35.0730 -35.0668 -35.0586
   -22.4582 -22.4467 -22.4355 -22.4321   1.6526   1.6991   1.7350   1.7432
     1.7514   1.7567   1.7921   1.8020   1.9881   2.0528   2.1448   2.2078
    12.4869  12.5006  12.5213  12.5639  12.7010  12.7778  12.7803  12.9064
    13.0534  13.0839  13.1369  13.2896  13.3555  13.4633  13.4670  13.5806
    13.6000  13.6235  13.6479  13.6531  13.6945  13.7201  13.7238  13.8000
    13.8422  13.8433  13.8581  13.9545  13.9761  13.9881  14.0766  14.1487
    14.2520  14.2617  14.4090  14.4236  14.5155  14.5810  14.6051  14.6104
    18.3718  20.0155  22.5278  22.7294  24.4339  25.2698  25.3011  25.7446
    26.8637  27.5563  27.6180  28.5032  28.5663  28.7405  29.2311  29.5184
    29.5308  29.8147  30.7023  30.8339  31.0295  31.1140  31.6845  31.9397
    32.1320  32.2796  32.3676  32.9714  33.1713  33.9033  34.1005  35.0645
    35.1016  35.1860  35.4665  36.2264  36.2717  36.2725  36.5058  37.6208
    37.7783  38.0110  38.1223  38.2497  38.4936  38.8213  39.4631  39.5602
    39.8957  39.9731  40.3279  40.8106  40.9640  40.9931  41.0553  41.2805
    41.4702  42.0378  42.1407  42.2717  42.2912

          k = 0.0000 0.0000-0.2292 (  5594 PWs)   bands (ev):

   -76.4442 -76.4442 -76.4225 -76.4225 -76.3829 -76.3829 -76.3553 -76.3553
   -35.2844 -35.2844 -35.1955 -35.1955 -35.1566 -35.1566 -35.1531 -35.1531
   -35.1518 -35.1518 -35.1385 -35.1385 -35.1226 -35.1226 -35.1172 -35.1172
   -35.1001 -35.1000 -35.0792 -35.0792 -35.0777 -35.0776 -35.0568 -35.0567
   -22.4530 -22.4530 -22.4330 -22.4330   1.6736   1.6736   1.7422   1.7422
     1.7569   1.7569   1.7960   1.7960   2.0158   2.0159   2.1811   2.1812
    12.4935  12.4935  12.5147  12.5147  12.6893  12.6893  12.9657  12.9657
    13.0520  13.0520  13.2398  13.2398  13.3892  13.3892  13.5545  13.5545
    13.6204  13.6204  13.6321  13.6321  13.6757  13.6757  13.7817  13.7817
    13.8685  13.8685  13.8807  13.8807  13.9904  13.9904  14.0565  14.0565
    14.3377  14.3377  14.3454  14.3454  14.5486  14.5486  14.6140  14.6140
    19.0110  19.0110  23.1329  23.1329  24.2992  24.2992  25.4274  25.4274
    27.4923  27.4923  27.9124  27.9124  28.8249  28.8249  29.2333  29.2333
    29.3763  29.3763  31.5355  31.5355  31.7224  31.7224  31.7463  31.7463
    32.5272  32.5272  32.6872  32.6872  33.6669  33.6669  33.7475  33.7476
    34.4051  34.4051  35.4511  35.4511  36.0846  36.0846  37.0992  37.0992
    37.6213  37.6213  38.0379  38.0379  39.2257  39.2257  39.6246  39.6247
    40.4118  40.4118  40.5813  40.5815  40.7141  40.7142  41.2876  41.2877
    41.5945  41.5946  42.4350  42.4354  42.5489

          k = 0.0000 0.2215 0.0000 (  5557 PWs)   bands (ev):

   -76.4313 -76.4281 -76.4193 -76.3948 -76.3579 -76.3516 -76.3476 -76.3395
   -35.2410 -35.2198 -35.1927 -35.1864 -35.1722 -35.1639 -35.1634 -35.1575
   -35.1404 -35.1403 -35.1379 -35.1351 -35.1189 -35.1146 -35.1107 -35.0957
   -35.0923 -35.0871 -35.0811 -35.0790 -35.0717 -35.0712 -35.0573 -35.0507
   -22.4526 -22.4430 -22.4363 -22.4336   1.6545   1.6843   1.7332   1.7544
     1.7585   1.7598   1.7687   1.7849   1.9772   2.0208   2.1324   2.1784
    12.6130  12.6412  12.6629  12.7249  12.8341  12.9156  12.9512  12.9814
    13.0280  13.0653  13.1429  13.2733  13.2927  13.3522  13.4110  13.4519
    13.4868  13.5529  13.5574  13.6248  13.6926  13.7178  13.8384  13.8656
    13.8823  13.9277  13.9298  13.9630  13.9711  13.9853  14.1492  14.1720
    14.1963  14.2590  14.3655  14.3661  14.3757  14.5463  14.5852  14.6385
    18.9199  20.8365  21.6229  22.3394  23.4196  24.0391  26.1220  26.8954
    27.0982  27.2173  27.6609  27.9146  28.7320  28.7499  28.9719  28.9802
    29.8626  30.2736  30.2840  30.4817  30.9195  30.9604  31.1627  31.5229
    31.5237  32.0221  32.2609  32.9972  33.7951  33.8984  34.2633  34.4047
    34.9964  35.7661  35.7720  35.8986  36.3595  36.8143  37.2764  37.6541
    38.4040  38.5145  38.5223  38.6067  39.2506  39.3042  39.5547  39.5859
    39.9768  40.0165  40.1741  40.5311  41.0983  41.1004  41.3419  41.5142
    41.9105  42.0020  42.0605  42.0720  42.5121

          k = 0.0000 0.2215 0.1146 (  5592 PWs)   bands (ev):

   -76.4490 -76.4413 -76.4258 -76.4133 -76.3837 -76.3719 -76.3668 -76.3518
   -35.2450 -35.2339 -35.1888 -35.1849 -35.1831 -35.1775 -35.1656 -35.1651
   -35.1584 -35.1546 -35.1454 -35.1413 -35.1332 -35.1251 -35.1247 -35.1127
   -35.1040 -35.0916 -35.0843 -35.0787 -35.0771 -35.0750 -35.0572 -35.0507
   -22.4515 -22.4449 -22.4363 -22.4344   1.6563   1.6788   1.7338   1.7497
     1.7577   1.7612   1.7660   1.7779   1.9805   2.0107   2.1412   2.1728
    12.6176  12.6178  12.6334  12.7270  12.8208  12.9106  12.9379  13.0006
    13.0477  13.1210  13.1774  13.2935  13.3087  13.3184  13.3961  13.4186
    13.5677  13.5766  13.6208  13.6546  13.7153  13.7241  13.7614  13.8353
    13.8454  13.8974  13.9071  13.9608  13.9861  13.9901  14.0845  14.1434
    14.2323  14.2658  14.3296  14.3567  14.4127  14.5261  14.5930  14.6313
    19.1247  20.6089  21.1859  22.5910  23.2714  24.6904  25.7511  26.4325
    27.2832  27.3000  27.6224  27.6432  28.6826  28.7786  28.9599  29.4765
    29.9462  30.2665  30.5069  30.7182  30.8181  30.9497  31.6300  31.7991
    31.8711  32.0069  32.4713  32.9141  33.5654  33.6440  34.1785  34.3598
    34.8302  34.9364  35.2889  35.3653  36.6674  36.6927  36.9303  37.8605
    37.9681  38.2352  38.4007  38.7991  39.1474  39.2370  39.7895  39.7941
    40.0184  40.0852  40.3193  40.6668  41.1646  41.5628  41.6658  41.8004
    41.8994  42.0434  42.2210  42.2294  42.2931

          k = 0.0000 0.2215-0.2292 (  5574 PWs)   bands (ev):

   -76.4415 -76.4415 -76.4188 -76.4188 -76.3655 -76.3655 -76.3464 -76.3464
   -35.2397 -35.2397 -35.1832 -35.1832 -35.1766 -35.1766 -35.1594 -35.1594
   -35.1510 -35.1510 -35.1289 -35.1289 -35.1189 -35.1189 -35.1142 -35.1141
   -35.0964 -35.0964 -35.0813 -35.0812 -35.0804 -35.0803 -35.0565 -35.0565
   -22.4482 -22.4482 -22.4352 -22.4352   1.6682   1.6682   1.7441   1.7441
     1.7619   1.7619   1.7690   1.7690   1.9935   1.9935   2.1592   2.1592
    12.6023  12.6023  12.6590  12.6590  12.9065  12.9065  12.9257  12.9257
    13.1147  13.1147  13.2999  13.2999  13.3227  13.3227  13.3977  13.3977
    13.5995  13.5995  13.6405  13.6405  13.7397  13.7398  13.7665  13.7665
    13.8603  13.8603  13.9323  13.9323  13.9539  13.9539  14.0925  14.0925
    14.2786  14.2786  14.3090  14.3090  14.4762  14.4762  14.6153  14.6153
    19.7245  19.7245  21.7178  21.7178  24.3590  24.3590  25.8592  25.8592
    27.4152  27.4152  27.5037  27.5037  28.6212  28.6212  29.2823  29.2823
    30.4186  30.4186  30.6383  30.6384  31.0749  31.0749  32.0957  32.0957
    32.1707  32.1707  32.9250  32.9251  33.2817  33.2817  33.8108  33.8108
    34.2890  34.2890  35.5180  35.5180  36.1066  36.1066  37.2475  37.2476
    38.0050  38.0050  38.8484  38.8484  39.4327  39.4327  39.5953  39.5954
    39.8352  39.8353  40.8958  40.8959  41.7041  41.7043  41.7873  41.7874
    41.8293  41.8295  42.4043  42.4047  42.8685

          k =-0.4325 0.0000 0.0000 (  5604 PWs)   bands (ev):

   -76.4496 -76.4496 -76.4281 -76.4281 -76.3814 -76.3814 -76.3761 -76.3761
   -35.2739 -35.2739 -35.1898 -35.1898 -35.1750 -35.1750 -35.1677 -35.1677
   -35.1524 -35.1524 -35.1335 -35.1335 -35.1195 -35.1195 -35.1120 -35.1120
   -35.1075 -35.1075 -35.0944 -35.0944 -35.0733 -35.0733 -35.0704 -35.0704
   -22.4430 -22.4430 -22.4376 -22.4376   1.6599   1.6599   1.7194   1.7194
     1.7793   1.7793   1.8222   1.8222   2.0762   2.0762   2.1345   2.1345
    12.5658  12.5658  12.8079  12.8079  12.8254  12.8254  12.9976  12.9976
    13.2624  13.2624  13.2642  13.2642  13.2984  13.2984  13.3382  13.3382
    13.4721  13.4721  13.6087  13.6087  13.6387  13.6387  13.6838  13.6838
    13.6922  13.6922  13.8198  13.8198  13.9227  13.9227  13.9832  13.9832
    14.0757  14.0757  14.3495  14.3495  14.5234  14.5234  14.6006  14.6006
    21.0338  21.0338  23.3540  23.3540  23.4322  23.4322  25.6307  25.6307
    26.6213  26.6213  27.9391  27.9391  28.3562  28.3562  28.7666  28.7666
    29.5665  29.5665  30.3903  30.3903  30.7665  30.7665  31.4297  31.4297
    31.7633  31.7633  32.0047  32.0047  33.8540  33.8540  34.5773  34.5773
    34.8851  34.8851  35.5140  35.5140  36.2895  36.2895  37.4996  37.4996
    38.0378  38.0378  38.4522  38.4523  39.2781  39.2781  39.8282  39.8282
    40.0879  40.0879  40.7656  40.7657  40.7987  40.7987  41.5957  41.5958
    42.2252  42.2253  42.7863  42.7863  43.8071

          k =-0.4325 0.0000 0.1146 (  5604 PWs)   bands (ev):

   -76.4488 -76.4488 -76.4298 -76.4298 -76.3832 -76.3832 -76.3720 -76.3720
   -35.2744 -35.2744 -35.1971 -35.1971 -35.1758 -35.1758 -35.1674 -35.1674
   -35.1539 -35.1539 -35.1315 -35.1315 -35.1167 -35.1167 -35.1122 -35.1122
   -35.1078 -35.1078 -35.0907 -35.0907 -35.0728 -35.0728 -35.0696 -35.0696
   -22.4430 -22.4430 -22.4377 -22.4377   1.6554   1.6554   1.7237   1.7237
     1.7807   1.7807   1.8195   1.8195   2.0767   2.0767   2.1341   2.1341
    12.5641  12.5641  12.7944  12.7944  12.8704  12.8704  13.0145  13.0145
    13.2088  13.2088  13.2167  13.2167  13.3049  13.3049  13.3865  13.3865
    13.4578  13.4578  13.6028  13.6028  13.6309  13.6309  13.7144  13.7144
    13.7230  13.7230  13.8359  13.8359  13.9190  13.9190  13.9655  13.9655
    14.1002  14.1002  14.3337  14.3337  14.4997  14.4997  14.5972  14.5972
    21.1715  21.1715  22.5540  22.5540  23.9851  23.9851  25.5498  25.5498
    26.8104  26.8104  28.0391  28.0391  28.4265  28.4265  28.7533  28.7533
    29.7671  29.7671  30.1912  30.1912  30.7555  30.7555  31.6387  31.6387
    31.7336  31.7336  31.9828  31.9828  33.4529  33.4529  34.4736  34.4736
    35.0794  35.0794  35.6985  35.6985  36.2540  36.2540  36.8546  36.8546
    38.2130  38.2130  38.3453  38.3453  38.9616  38.9616  40.1172  40.1173
    40.5267  40.5268  41.1106  41.1107  41.1844  41.1844  41.3448  41.3448
    42.0036  42.0037  42.5772  42.5774  43.2668

          k =-0.4325 0.0000-0.2292 (  5624 PWs)   bands (ev):

   -76.4628 -76.4628 -76.4307 -76.4307 -76.3889 -76.3889 -76.3876 -76.3876
   -35.2780 -35.2780 -35.2005 -35.2005 -35.1776 -35.1776 -35.1722 -35.1722
   -35.1564 -35.1564 -35.1377 -35.1377 -35.1219 -35.1219 -35.1182 -35.1182
   -35.1132 -35.1132 -35.0959 -35.0959 -35.0777 -35.0777 -35.0712 -35.0712
   -22.4430 -22.4430 -22.4379 -22.4379   1.6535   1.6535   1.7297   1.7297
     1.7804   1.7804   1.8138   1.8138   2.0743   2.0743   2.1325   2.1325
    12.5621  12.5621  12.7855  12.7855  12.9143  12.9143  13.0771  13.0771
    13.1120  13.1120  13.1736  13.1736  13.3472  13.3472  13.3505  13.3505
    13.4648  13.4648  13.6131  13.6131  13.6502  13.6502  13.7314  13.7314
    13.7907  13.7907  13.8477  13.8477  13.8864  13.8864  13.9091  13.9091
    14.1235  14.1235  14.3666  14.3666  14.4415  14.4415  14.5952  14.5952
    21.4296  21.4296  21.9952  21.9952  24.2150  24.2150  25.4013  25.4013
    26.9539  26.9539  28.3841  28.3841  28.3899  28.3899  28.7517  28.7517
    29.9629  29.9629  30.2792  30.2792  30.3420  30.3420  31.7177  31.7177
    31.8145  31.8145  32.0192  32.0192  33.0762  33.0762  34.4508  34.4508
    35.2285  35.2285  35.9488  35.9488  36.1648  36.1648  36.5298  36.5298
    37.5520  37.5520  38.2252  38.2252  39.5827  39.5827  40.4000  40.4001
    40.7339  40.7340  40.8173  40.8174  41.2403  41.2404  41.7023  41.7023
    41.8004  41.8005  42.8492  42.8497  43.1282

          k =-0.4325 0.2215 0.0000 (  5612 PWs)   bands (ev):

   -76.4493 -76.4493 -76.4371 -76.4371 -76.3798 -76.3798 -76.3792 -76.3792
   -35.2454 -35.2454 -35.2011 -35.2011 -35.1857 -35.1857 -35.1780 -35.1780
   -35.1562 -35.1562 -35.1405 -35.1405 -35.1225 -35.1225 -35.1214 -35.1214
   -35.1027 -35.1027 -35.0936 -35.0936 -35.0710 -35.0710 -35.0700 -35.0700
   -22.4404 -22.4404 -22.4379 -22.4379   1.6677   1.6677   1.6946   1.6946
     1.7856   1.7856   1.8040   1.8040   2.0701   2.0701   2.0947   2.0947
    12.6680  12.6680  12.9129  12.9129  12.9973  12.9973  13.0085  13.0085
    13.1565  13.1565  13.2785  13.2785  13.4036  13.4036  13.4162  13.4162
    13.4993  13.4993  13.5827  13.5827  13.6294  13.6294  13.7185  13.7185
    13.7900  13.7900  13.8115  13.8115  13.8639  13.8639  14.0511  14.0511
    14.1435  14.1435  14.1990  14.1990  14.3942  14.3942  14.4630  14.4630
    21.5338  21.5338  22.9177  22.9177  23.9107  23.9107  24.4006  24.4006
    26.8892  26.8892  26.8896  26.8896  28.7266  28.7266  29.5276  29.5276
    29.6181  29.6181  30.3083  30.3083  30.6370  30.6370  30.8390  30.8390
    31.3636  31.3636  31.9463  31.9463  33.7166  33.7166  34.0968  34.0968
    35.2074  35.2074  36.1451  36.1451  37.3257  37.3257  37.3316  37.3316
    38.0969  38.0969  38.3924  38.3924  39.5215  39.5215  39.9148  39.9149
    40.9377  40.9377  40.9587  40.9588  41.6869  41.6870  41.8770  41.8770
    42.2972  42.2975  42.4587  42.4589  43.2875

          k =-0.4325 0.2215 0.1146 (  5606 PWs)   bands (ev):

   -76.4472 -76.4472 -76.4325 -76.4325 -76.3833 -76.3833 -76.3717 -76.3717
   -35.2442 -35.2442 -35.1968 -35.1968 -35.1829 -35.1829 -35.1772 -35.1772
   -35.1614 -35.1614 -35.1401 -35.1401 -35.1202 -35.1202 -35.1186 -35.1186
   -35.0994 -35.0994 -35.0924 -35.0924 -35.0711 -35.0711 -35.0687 -35.0687
   -22.4405 -22.4405 -22.4377 -22.4377   1.6656   1.6656   1.6988   1.6988
     1.7859   1.7859   1.8011   1.8011   2.0711   2.0711   2.0943   2.0943
    12.6660  12.6660  12.9317  12.9317  12.9860  12.9860  13.0485  13.0485
    13.1352  13.1352  13.2748  13.2748  13.3269  13.3269  13.4455  13.4455
    13.4970  13.4970  13.6219  13.6219  13.6622  13.6622  13.7262  13.7262
    13.7643  13.7643  13.8583  13.8583  13.8698  13.8698  14.0083  14.0083
    14.1297  14.1297  14.2078  14.2078  14.3720  14.3720  14.4669  14.4669
    21.6277  21.6277  22.7862  22.7862  23.6257  23.6257  24.3622  24.3622
    27.0517  27.0517  27.6341  27.6341  28.5282  28.5282  29.1718  29.1718
    29.7018  29.7018  30.3071  30.3071  30.6098  30.6098  30.9688  30.9688
    31.3258  31.3258  32.0078  32.0078  33.5226  33.5226  34.0644  34.0644
    35.3111  35.3111  36.0158  36.0158  36.8279  36.8279  37.2856  37.2856
    38.0995  38.0995  39.1099  39.1099  39.7295  39.7296  39.9339  39.9340
    40.6518  40.6518  41.0299  41.0301  41.4164  41.4164  41.8245  41.8246
    42.4689  42.4691  42.5765  42.5767  42.9151

          k =-0.4325 0.2215-0.2292 (  5584 PWs)   bands (ev):

   -76.4329 -76.4329 -76.4290 -76.4290 -76.3701 -76.3701 -76.3647 -76.3647
   -35.2401 -35.2401 -35.1861 -35.1861 -35.1829 -35.1829 -35.1730 -35.1730
   -35.1532 -35.1532 -35.1395 -35.1395 -35.1214 -35.1214 -35.1093 -35.1093
   -35.0954 -35.0954 -35.0871 -35.0871 -35.0676 -35.0676 -35.0664 -35.0664
   -22.4402 -22.4402 -22.4376 -22.4376   1.6643   1.6643   1.7025   1.7025
     1.7877   1.7877   1.7989   1.7989   2.0722   2.0722   2.0953   2.0953
    12.6652  12.6652  12.9513  12.9513  12.9800  12.9800  13.1015  13.1015
    13.1196  13.1196  13.2051  13.2051  13.3260  13.3260  13.4659  13.4659
    13.4964  13.4964  13.6147  13.6147  13.6834  13.6834  13.7502  13.7502
    13.8222  13.8222  13.8563  13.8563  13.8612  13.8612  13.9899  13.9899
    14.0585  14.0585  14.2697  14.2697  14.3349  14.3349  14.4650  14.4650
    21.7763  21.7763  22.5266  22.5266  23.5939  23.5939  24.1705  24.1705
    27.7041  27.7041  28.0192  28.0192  28.4598  28.4598  28.7169  28.7169
    29.6952  29.6952  30.2291  30.2291  30.6222  30.6222  31.0883  31.0883
    31.1533  31.1533  32.0787  32.0787  33.4826  33.4826  34.1899  34.1899
    35.0402  35.0402  36.0558  36.0558  36.4633  36.4633  37.1031  37.1031
    38.8407  38.8407  38.9062  38.9063  39.9052  39.9053  40.2302  40.2302
    40.5267  40.5267  40.8627  40.8628  41.3510  41.3512  41.7579  41.7579
    42.3121  42.3123  42.3897  42.3900  42.9826

     the Fermi energy is    36.1527 ev

!    total energy              =   -3542.13090518 Ry
     Harris-Foulkes estimate   =   -3542.13090937 Ry
     estimated scf accuracy    <       0.00000419 Ry

     The total energy is the sum of the following terms:

     one-electron contribution =    -605.32262810 Ry
     hartree contribution      =     512.81272512 Ry
     xc contribution           =    -310.94625344 Ry
     ewald contribution        =   -3138.30944438 Ry
     smearing contrib. (-TS)   =      -0.36530438 Ry

     convergence has been achieved in  11 iterations

     Forces acting on atoms (Ry/au):

     atom    1 type  1   force =     0.00000000   -0.03301199   -0.02921429
     atom    2 type  1   force =     0.00000000    0.03301199    0.02921429
     atom    3 type  1   force =     0.00000000   -0.03301199    0.02921429
     atom    4 type  1   force =     0.00000000    0.03301199   -0.02921429
     atom    5 type  1   force =     0.00000000    0.03404783    0.01444852
     atom    6 type  1   force =     0.00000000   -0.03404783   -0.01444852
     atom    7 type  1   force =     0.00000000    0.03404783   -0.01444852
     atom    8 type  1   force =     0.00000000   -0.03404783    0.01444852
     atom    9 type  2   force =     0.00000000   -0.06126786    0.04113141
     atom   10 type  2   force =     0.00000000    0.06126786   -0.04113141
     atom   11 type  2   force =     0.00000000   -0.06126786   -0.04113141
     atom   12 type  2   force =     0.00000000    0.06126786    0.04113141

     Total force =     0.187156     Total SCF correction =     0.000000


     entering subroutine stress ...

          total   stress  (Ry/bohr**3)                   (kbar)     P= 1052.30
   0.00740581   0.00000000   0.00000000       1089.43      0.00      0.00
   0.00000000   0.00702757   0.00000000          0.00   1033.79      0.00
   0.00000000   0.00000000   0.00702682          0.00      0.00   1033.68


     Writing output data file Prototype-La-oP12-Co2Si.save
 
     init_run     :      4.77s CPU      5.83s WALL (       2 calls)
     electrons    :    983.68s CPU   1119.21s WALL (       5 calls)
     update_pot   :      1.97s CPU      2.00s WALL (       3 calls)
     forces       :      4.29s CPU      4.51s WALL (       5 calls)
     stress       :     10.87s CPU     11.08s WALL (       5 calls)

     Called by init_run:
     wfcinit      :      3.97s CPU      4.99s WALL (       2 calls)
     potinit      :      0.40s CPU      0.41s WALL (       2 calls)

     Called by electrons:
     c_bands      :    960.82s CPU   1077.11s WALL (      48 calls)
     sum_band     :     22.43s CPU     29.96s WALL (      48 calls)
     v_of_rho     :      0.07s CPU      0.08s WALL (      53 calls)
     mix_rho      :      0.07s CPU      0.10s WALL (      48 calls)

     Called by c_bands:
     init_us_2    :      1.23s CPU      1.47s WALL (    1296 calls)
     ccgdiagg     :    874.81s CPU    969.34s WALL (     671 calls)
     wfcrot       :     88.60s CPU    110.23s WALL (     683 calls)

     Called by *cgdiagg:
     h_psi        :    577.93s CPU    671.61s WALL (  547491 calls)
     cdiaghg      :      6.41s CPU      7.10s WALL (     683 calls)

     Called by h_psi:
     add_vuspsi   :     82.44s CPU     92.40s WALL (  547491 calls)

     General routines
     calbec       :    253.03s CPU    262.66s WALL ( 1094419 calls)
     fft          :      0.26s CPU      0.29s WALL (     235 calls)
     fftw         :    357.12s CPU    416.09s WALL ( 1382974 calls)
     davcio       :      0.79s CPU      2.35s WALL (    1872 calls)
 
     Parallel routines
     fft_scatter  :    164.05s CPU    188.26s WALL ( 1383209 calls)
 
     PWSCF        : 16m46.21s CPU    19m 5.18s WALL

 
   This run was terminated on:  21:54:45  22Mar2018            

=------------------------------------------------------------------------------=
   JOB DONE.
=------------------------------------------------------------------------------=
