
     Program PWSCF v.5.0.2 starts on 22Mar2018 at 17:34:46 

     This program is part of the open-source Quantum ESPRESSO suite
     for quantum simulation of materials; please cite
         "P. Giannozzi et al., J. Phys.:Condens. Matter 21 395502 (2009);
          URL http://www.quantum-espresso.org", 
     in publications or presentations arising from this work. More details at
     http://www.quantum-espresso.org/quote.php

     Parallel version (MPI), running on     4 processors
     R & G space division:  proc/nbgrp/npool/nimage =       4

     Current dimensions of program PWSCF are:
     Max number of different atomic species (ntypx) = 10
     Max number of k-points (npk) =  40000
     Max angular momentum in pseudopotentials (lmaxx) =  3
     Waiting for input...
     Reading input from standard input

     Subspace diagonalization in iterative solution of the eigenvalue problem:
     a serial algorithm will be used

 
     Parallelization info
     --------------------
     sticks:   dense  smooth     PW     G-vecs:    dense   smooth      PW
     Min         164     164     48                 3132     3132     524
     Max         165     165     49                 3135     3135     527
     Sum         657     657    193                12533    12533    2103
 


     bravais-lattice index     =            0
     lattice parameter (alat)  =       7.1317  a.u.
     unit-cell volume          =     362.7211 (a.u.)^3
     number of atoms/cell      =            4
     number of atomic types    =            2
     number of electrons       =        55.00
     number of Kohn-Sham states=           34
     kinetic-energy cutoff     =      40.0000  Ry
     charge density cutoff     =     160.0000  Ry
     convergence threshold     =      1.0E-04
     mixing beta               =       0.7000
     number of iterations used =            8  plain     mixing
     Exchange-correlation      = SLA-PZ-NOGX-NOGC ( 1 1 0 0 0)
     EXX-fraction              =        0.00
     nstep                     =           50


     celldm(1)=   7.131665  celldm(2)=   0.000000  celldm(3)=   0.000000
     celldm(4)=   0.000000  celldm(5)=   0.000000  celldm(6)=   0.000000

     crystal axes: (cart. coord. in units of alat)
               a(1) = (   1.000000   0.000000   0.000000 )  
               a(2) = (   0.000000   1.000000   0.000000 )  
               a(3) = (   0.000000   0.000000   1.000000 )  

     reciprocal axes: (cart. coord. in units 2 pi/alat)
               b(1) = (  1.000000  0.000000  0.000000 )  
               b(2) = (  0.000000  1.000000  0.000000 )  
               b(3) = (  0.000000  0.000000  1.000000 )  


     PseudoPot. # 1 for Nd read from file:
     /home/cwx6513/pp.La/Nd.UPF
     MD5 check sum: c66c5b6abe7b5840ced9b1e244e3bed6
     Pseudo is Norm-conserving, Zval = 14.0
     Generated in analytical, separable form
     Using radial grid of 1257 points,  6 beta functions with: 
                l(1) =   0
                l(2) =   0
                l(3) =   1
                l(4) =   1
                l(5) =   2
                l(6) =   3

     PseudoPot. # 2 for Pr read from file:
     /home/cwx6513/pp.La/Pr.UPF
     MD5 check sum: 70e2b4b153859e92c8c91247dfc63203
     Pseudo is Norm-conserving, Zval = 13.0
     Generated in analytical, separable form
     Using radial grid of 1255 points,  6 beta functions with: 
                l(1) =   0
                l(2) =   0
                l(3) =   1
                l(4) =   1
                l(5) =   2
                l(6) =   3

     atomic species   valence    mass     pseudopotential
        Cu            14.00    63.54600     Nd( 1.00)
        Au            13.00   196.96600     Pr( 1.00)

     48 Sym. Ops., with inversion, found



   Cartesian axes

     site n.     atom                  positions (alat units)
         1           Cu  tau(   1) = (   0.0000000   0.5000000   0.5000000  )
         2           Cu  tau(   2) = (   0.5000000   0.5000000   0.0000000  )
         3           Cu  tau(   3) = (   0.5000000   0.0000000   0.5000000  )
         4           Au  tau(   4) = (   0.0000000   0.0000000   0.0000000  )

     number of k points=   100  gaussian smearing, width (Ry)=  0.1000

     Number of k-points >= 100: set verbosity='high' to print them.

     Dense  grid:    12533 G-vectors     FFT dimensions: (  30,  30,  30)

     Largest allocated arrays     est. size (Mb)     dimensions
        Kohn-Sham Wavefunctions         0.21 Mb     (    400,   34)
        NL pseudopotentials             0.49 Mb     (    400,   80)
        Each V/rho on FFT grid          0.11 Mb     (   7200)
        Each G-vector array             0.02 Mb     (   3134)
        G-vector shells                 0.02 Mb     (   3134)
     Largest temporary arrays     est. size (Mb)     dimensions
        Each subspace H/S matrix        0.02 Mb     (  34,  34)
        Each <psi_i|beta_j> matrix      0.04 Mb     (     80,   34)
        Arrays for rho mixing           0.88 Mb     (   7200,   8)

     Initial potential from superposition of free atoms
     Check: negative starting charge=   -0.000123

     starting charge   12.99054, renormalised to   55.00000

     negative rho (up, down):  0.523E-03 0.000E+00
     Starting wfc are   20 randomized atomic wfcs

     total cpu time spent up to now is        1.7 secs

     Self-consistent Calculation

     iteration #  1     ecut=    40.00 Ry     beta=0.70
     CG style diagonalization
     ethr =  1.00E-02,  avg # of iterations = 22.1

     negative rho (up, down):  0.155E-03 0.000E+00

     total cpu time spent up to now is       25.5 secs

     total energy              =    -333.15916395 Ry
     Harris-Foulkes estimate   =   -1110.94158187 Ry
     estimated scf accuracy    <     909.69079256 Ry

     iteration #  2     ecut=    40.00 Ry     beta=0.70
     CG style diagonalization
     c_bands:  1 eigenvalues not converged
     c_bands:  1 eigenvalues not converged
     c_bands:  1 eigenvalues not converged
     c_bands:  1 eigenvalues not converged
     c_bands:  1 eigenvalues not converged
     ethr =  1.00E-02,  avg # of iterations = 11.6

     negative rho (up, down):  0.486E-04 0.000E+00

     total cpu time spent up to now is       39.6 secs

     total energy              =    -409.53835984 Ry
     Harris-Foulkes estimate   =    -453.07713491 Ry
     estimated scf accuracy    <      61.08734428 Ry

     iteration #  3     ecut=    40.00 Ry     beta=0.70
     CG style diagonalization
     ethr =  1.00E-02,  avg # of iterations =  6.9

     total cpu time spent up to now is       48.7 secs

     total energy              =    -418.38983782 Ry
     Harris-Foulkes estimate   =    -425.36285032 Ry
     estimated scf accuracy    <       9.29457563 Ry

     iteration #  4     ecut=    40.00 Ry     beta=0.70
     CG style diagonalization
     ethr =  1.00E-02,  avg # of iterations =  5.4

     total cpu time spent up to now is       54.9 secs

     total energy              =    -418.13921107 Ry
     Harris-Foulkes estimate   =    -425.70791307 Ry
     estimated scf accuracy    <      12.46161100 Ry

     iteration #  5     ecut=    40.00 Ry     beta=0.70
     CG style diagonalization
     ethr =  1.00E-02,  avg # of iterations =  4.3

     total cpu time spent up to now is       59.8 secs

     total energy              =    -422.27972239 Ry
     Harris-Foulkes estimate   =    -423.50975435 Ry
     estimated scf accuracy    <       3.03848957 Ry

     iteration #  6     ecut=    40.00 Ry     beta=0.70
     CG style diagonalization
     ethr =  5.52E-03,  avg # of iterations =  3.4

     total cpu time spent up to now is       63.5 secs

     total energy              =    -422.65218826 Ry
     Harris-Foulkes estimate   =    -422.72512251 Ry
     estimated scf accuracy    <       0.28655658 Ry

     iteration #  7     ecut=    40.00 Ry     beta=0.70
     CG style diagonalization
     c_bands:  1 eigenvalues not converged
     c_bands:  1 eigenvalues not converged
     c_bands:  2 eigenvalues not converged
     ethr =  5.21E-04,  avg # of iterations =  4.4

     total cpu time spent up to now is       68.4 secs

     total energy              =    -422.72174545 Ry
     Harris-Foulkes estimate   =    -422.72607082 Ry
     estimated scf accuracy    <       0.02484061 Ry

     iteration #  8     ecut=    40.00 Ry     beta=0.70
     CG style diagonalization
     c_bands:  3 eigenvalues not converged
     c_bands:  1 eigenvalues not converged
     c_bands:  1 eigenvalues not converged
     c_bands:  2 eigenvalues not converged
     c_bands:  1 eigenvalues not converged
     c_bands:  2 eigenvalues not converged
     c_bands:  1 eigenvalues not converged
     c_bands:  1 eigenvalues not converged
     c_bands:  1 eigenvalues not converged
     c_bands:  1 eigenvalues not converged
     c_bands:  1 eigenvalues not converged
     c_bands:  1 eigenvalues not converged
     c_bands:  2 eigenvalues not converged
     c_bands:  1 eigenvalues not converged
     c_bands:  1 eigenvalues not converged
     c_bands:  2 eigenvalues not converged
     c_bands:  1 eigenvalues not converged
     c_bands:  2 eigenvalues not converged
     ethr =  4.52E-05,  avg # of iterations =  4.3

     total cpu time spent up to now is       73.2 secs

     total energy              =    -422.72583563 Ry
     Harris-Foulkes estimate   =    -422.72769191 Ry
     estimated scf accuracy    <       0.00891419 Ry

     iteration #  9     ecut=    40.00 Ry     beta=0.70
     CG style diagonalization
     c_bands:  1 eigenvalues not converged
     c_bands:  1 eigenvalues not converged
     c_bands:  1 eigenvalues not converged
     c_bands:  1 eigenvalues not converged
     c_bands:  1 eigenvalues not converged
     ethr =  1.62E-05,  avg # of iterations =  3.4

     total cpu time spent up to now is       77.6 secs

     total energy              =    -422.72600005 Ry
     Harris-Foulkes estimate   =    -422.72684195 Ry
     estimated scf accuracy    <       0.00279426 Ry

     iteration # 10     ecut=    40.00 Ry     beta=0.70
     CG style diagonalization
     c_bands:  1 eigenvalues not converged
     c_bands:  1 eigenvalues not converged
     ethr =  5.08E-06,  avg # of iterations =  3.9

     total cpu time spent up to now is       83.6 secs

     total energy              =    -422.72645299 Ry
     Harris-Foulkes estimate   =    -422.72656209 Ry
     estimated scf accuracy    <       0.00019883 Ry

     iteration # 11     ecut=    40.00 Ry     beta=0.70
     CG style diagonalization
     c_bands:  1 eigenvalues not converged
     c_bands:  1 eigenvalues not converged
     c_bands:  1 eigenvalues not converged
     c_bands:  1 eigenvalues not converged
     c_bands:  1 eigenvalues not converged
     ethr =  3.62E-07,  avg # of iterations =  4.9

     total cpu time spent up to now is       89.2 secs

     End of self-consistent calculation

     Number of k-points >= 100: set verbosity='high' to print the bands.

     the Fermi energy is    36.2503 ev

!    total energy              =    -422.72659660 Ry
     Harris-Foulkes estimate   =    -422.72665170 Ry
     estimated scf accuracy    <       0.00006427 Ry

     The total energy is the sum of the following terms:

     one-electron contribution =     100.32612999 Ry
     hartree contribution      =      17.82949204 Ry
     xc contribution           =     -54.28662228 Ry
     ewald contribution        =    -486.42120648 Ry
     smearing contrib. (-TS)   =      -0.17438988 Ry

     convergence has been achieved in  11 iterations

     Forces acting on atoms (Ry/au):

     atom    1 type  1   force =     0.00000000    0.00000000    0.00000000
     atom    2 type  1   force =     0.00000000    0.00000000    0.00000000
     atom    3 type  1   force =     0.00000000    0.00000000    0.00000000
     atom    4 type  2   force =     0.00000000    0.00000000    0.00000000

     Total force =     0.000000     Total SCF correction =     0.000000


     entering subroutine stress ...

          total   stress  (Ry/bohr**3)                   (kbar)     P= 2435.65
   0.01655720   0.00000000   0.00000000       2435.65      0.00      0.00
   0.00000000   0.01655720   0.00000000          0.00   2435.65      0.00
   0.00000000   0.00000000   0.01655720          0.00      0.00   2435.65


     BFGS Geometry Optimization

     number of scf cycles    =   1
     number of bfgs steps    =   0

     enthalpy new            =    -422.7265966039 Ry

     new trust radius        =       0.5000000000 bohr
     new conv_thr            =       0.0001000000 Ry

     new unit-cell volume =    525.13076 a.u.^3 (    77.81635 Ang^3 )

CELL_PARAMETERS (alat=  7.13166486)
   1.131266415   0.000000000   0.000000000
   0.000000000   1.131266415   0.000000000
   0.000000000   0.000000000   1.131266415

ATOMIC_POSITIONS (crystal)
Cu       0.000000000   0.500000000   0.500000000
Cu       0.500000000   0.500000000   0.000000000
Cu       0.500000000   0.000000000   0.500000000
Au       0.000000000   0.000000000   0.000000000



     Writing output data file Prototype-La-cP4-Cu3Au.save
     Check: negative starting charge=   -0.000123
     NEW-OLD atomic charge density approx. for the potential
     NEW k-points: (use verbosity='high' to print them)
     Check: negative starting charge=   -0.002255

     negative rho (up, down):  0.217E-02 0.000E+00
     extrapolated charge   59.01765, renormalised to   55.00000

     total cpu time spent up to now is       90.9 secs

     Self-consistent Calculation

     iteration #  1     ecut=    40.00 Ry     beta=0.70
     CG style diagonalization
     c_bands:  3 eigenvalues not converged
     c_bands:  5 eigenvalues not converged
     c_bands:  1 eigenvalues not converged
     c_bands:  1 eigenvalues not converged
     c_bands:  1 eigenvalues not converged
     c_bands:  1 eigenvalues not converged
     c_bands:  2 eigenvalues not converged
     c_bands:  1 eigenvalues not converged
     c_bands:  2 eigenvalues not converged
     c_bands:  1 eigenvalues not converged
     c_bands:  2 eigenvalues not converged
     c_bands:  1 eigenvalues not converged
     c_bands:  1 eigenvalues not converged
     c_bands:  1 eigenvalues not converged
     c_bands:  1 eigenvalues not converged
     c_bands:  2 eigenvalues not converged
     c_bands:  1 eigenvalues not converged
     c_bands:  1 eigenvalues not converged
     c_bands:  1 eigenvalues not converged
     c_bands:  2 eigenvalues not converged
     c_bands:  1 eigenvalues not converged
     c_bands:  3 eigenvalues not converged
     ethr =  1.00E-06,  avg # of iterations = 23.7

     negative rho (up, down):  0.605E-03 0.000E+00

     total cpu time spent up to now is      116.1 secs

     total energy              =    -391.51553201 Ry
     Harris-Foulkes estimate   =    -439.81385639 Ry
     estimated scf accuracy    <      55.67477197 Ry

     iteration #  2     ecut=    40.00 Ry     beta=0.70
     CG style diagonalization
     c_bands:  1 eigenvalues not converged
     c_bands:  1 eigenvalues not converged
     c_bands:  1 eigenvalues not converged
     ethr =  1.00E-02,  avg # of iterations =  9.3

     negative rho (up, down):  0.417E-03 0.000E+00

     total cpu time spent up to now is      128.4 secs

     total energy              =    -397.92792783 Ry
     Harris-Foulkes estimate   =    -458.05684862 Ry
     estimated scf accuracy    <     139.58115678 Ry

     iteration #  3     ecut=    40.00 Ry     beta=0.70
     CG style diagonalization
     c_bands:  1 eigenvalues not converged
     ethr =  1.00E-02,  avg # of iterations =  6.9

     negative rho (up, down):  0.196E-03 0.000E+00

     total cpu time spent up to now is      136.6 secs

     total energy              =    -423.51296607 Ry
     Harris-Foulkes estimate   =    -423.88384681 Ry
     estimated scf accuracy    <       0.79107541 Ry

     iteration #  4     ecut=    40.00 Ry     beta=0.70
     CG style diagonalization
     ethr =  1.44E-03,  avg # of iterations =  4.0

     negative rho (up, down):  0.214E-04 0.000E+00

     total cpu time spent up to now is      142.7 secs

     total energy              =    -423.68334907 Ry
     Harris-Foulkes estimate   =    -423.73890866 Ry
     estimated scf accuracy    <       0.10034708 Ry

     iteration #  5     ecut=    40.00 Ry     beta=0.70
     CG style diagonalization
     c_bands:  1 eigenvalues not converged
     c_bands:  1 eigenvalues not converged
     ethr =  1.82E-04,  avg # of iterations =  4.7

     total cpu time spent up to now is      148.3 secs

     total energy              =    -423.72548799 Ry
     Harris-Foulkes estimate   =    -423.73492982 Ry
     estimated scf accuracy    <       0.02691842 Ry

     iteration #  6     ecut=    40.00 Ry     beta=0.70
     CG style diagonalization
     c_bands:  1 eigenvalues not converged
     c_bands:  1 eigenvalues not converged
     c_bands:  1 eigenvalues not converged
     c_bands:  1 eigenvalues not converged
     c_bands:  1 eigenvalues not converged
     c_bands:  1 eigenvalues not converged
     c_bands:  1 eigenvalues not converged
     c_bands:  1 eigenvalues not converged
     c_bands:  1 eigenvalues not converged
     c_bands:  2 eigenvalues not converged
     ethr =  4.89E-05,  avg # of iterations =  3.8

     total cpu time spent up to now is      152.9 secs

     total energy              =    -423.72933621 Ry
     Harris-Foulkes estimate   =    -423.73100224 Ry
     estimated scf accuracy    <       0.00263117 Ry

     iteration #  7     ecut=    40.00 Ry     beta=0.70
     CG style diagonalization
     c_bands:  1 eigenvalues not converged
     c_bands:  1 eigenvalues not converged
     c_bands:  1 eigenvalues not converged
     c_bands:  2 eigenvalues not converged
     c_bands:  1 eigenvalues not converged
     c_bands:  1 eigenvalues not converged
     c_bands:  1 eigenvalues not converged
     c_bands:  2 eigenvalues not converged
     c_bands:  1 eigenvalues not converged
     c_bands:  1 eigenvalues not converged
     c_bands:  1 eigenvalues not converged
     c_bands:  1 eigenvalues not converged
     c_bands:  1 eigenvalues not converged
     c_bands:  1 eigenvalues not converged
     c_bands:  1 eigenvalues not converged
     c_bands:  1 eigenvalues not converged
     c_bands:  1 eigenvalues not converged
     ethr =  4.78E-06,  avg # of iterations =  4.8

     total cpu time spent up to now is      158.5 secs

     total energy              =    -423.73013908 Ry
     Harris-Foulkes estimate   =    -423.73087046 Ry
     estimated scf accuracy    <       0.00264957 Ry

     iteration #  8     ecut=    40.00 Ry     beta=0.70
     CG style diagonalization
     c_bands:  1 eigenvalues not converged
     c_bands:  1 eigenvalues not converged
     ethr =  4.78E-06,  avg # of iterations =  3.1

     total cpu time spent up to now is      162.1 secs

     total energy              =    -423.73017752 Ry
     Harris-Foulkes estimate   =    -423.73035486 Ry
     estimated scf accuracy    <       0.00039210 Ry

     iteration #  9     ecut=    40.00 Ry     beta=0.70
     CG style diagonalization
     c_bands:  1 eigenvalues not converged
     c_bands:  1 eigenvalues not converged
     ethr =  7.13E-07,  avg # of iterations =  4.2

     total cpu time spent up to now is      167.9 secs

     total energy              =    -423.73034987 Ry
     Harris-Foulkes estimate   =    -423.73038952 Ry
     estimated scf accuracy    <       0.00017294 Ry

     iteration # 10     ecut=    40.00 Ry     beta=0.70
     CG style diagonalization
     c_bands:  1 eigenvalues not converged
     ethr =  3.14E-07,  avg # of iterations =  3.1

     total cpu time spent up to now is      174.6 secs

     End of self-consistent calculation

     Number of k-points >= 100: set verbosity='high' to print the bands.

     the Fermi energy is    24.1358 ev

!    total energy              =    -423.73031898 Ry
     Harris-Foulkes estimate   =    -423.73036322 Ry
     estimated scf accuracy    <       0.00004819 Ry

     The total energy is the sum of the following terms:

     one-electron contribution =      27.29675783 Ry
     hartree contribution      =      30.63381497 Ry
     xc contribution           =     -51.39990331 Ry
     ewald contribution        =    -429.97935904 Ry
     smearing contrib. (-TS)   =      -0.28162943 Ry

     convergence has been achieved in  10 iterations

     Forces acting on atoms (Ry/au):

     atom    1 type  1   force =     0.00000000    0.00000000    0.00000000
     atom    2 type  1   force =     0.00000000    0.00000000    0.00000000
     atom    3 type  1   force =     0.00000000    0.00000000    0.00000000
     atom    4 type  2   force =     0.00000000    0.00000000    0.00000000

     Total force =     0.000000     Total SCF correction =     0.000000


     entering subroutine stress ...

          total   stress  (Ry/bohr**3)                   (kbar)     P=  -82.59
  -0.00056142   0.00000000   0.00000000        -82.59      0.00      0.00
   0.00000000  -0.00056142   0.00000000          0.00    -82.59      0.00
   0.00000000   0.00000000  -0.00056142          0.00      0.00    -82.59


     number of scf cycles    =   2
     number of bfgs steps    =   1

     enthalpy old            =    -422.7265966039 Ry
     enthalpy new            =    -423.7303189808 Ry

     CASE: enthalpy_new < enthalpy_old

     small trust_radius: resetting bfgs history

     new trust radius        =       0.0643261878 bohr
     new conv_thr            =       0.0000010000 Ry

     new unit-cell volume =    503.32842 a.u.^3 (    74.58558 Ang^3 )

CELL_PARAMETERS (alat=  7.13166486)
   1.115388664   0.000000000   0.000000000
   0.000000000   1.115388664   0.000000000
   0.000000000   0.000000000   1.115388664

ATOMIC_POSITIONS (crystal)
Cu       0.000000000   0.500000000   0.500000000
Cu       0.500000000   0.500000000   0.000000000
Cu       0.500000000   0.000000000   0.500000000
Au       0.000000000   0.000000000   0.000000000



     Writing output data file Prototype-La-cP4-Cu3Au.save
     Check: negative starting charge=   -0.002255
     NEW-OLD atomic charge density approx. for the potential
     NEW k-points: (use verbosity='high' to print them)
     Check: negative starting charge=   -0.001905

     negative rho (up, down):  0.614E-03 0.000E+00
     extrapolated charge   54.43730, renormalised to   55.00000

     total cpu time spent up to now is      176.4 secs

     Self-consistent Calculation

     iteration #  1     ecut=    40.00 Ry     beta=0.70
     CG style diagonalization
     c_bands:  1 eigenvalues not converged
     c_bands:  1 eigenvalues not converged
     c_bands:  5 eigenvalues not converged
     c_bands:  1 eigenvalues not converged
     c_bands:  2 eigenvalues not converged
     c_bands:  1 eigenvalues not converged
     c_bands:  3 eigenvalues not converged
     c_bands:  1 eigenvalues not converged
     c_bands:  1 eigenvalues not converged
     c_bands:  1 eigenvalues not converged
     c_bands:  4 eigenvalues not converged
     c_bands:  2 eigenvalues not converged
     c_bands:  5 eigenvalues not converged
     c_bands:  1 eigenvalues not converged
     c_bands:  1 eigenvalues not converged
     c_bands:  2 eigenvalues not converged
     c_bands:  1 eigenvalues not converged
     c_bands:  4 eigenvalues not converged
     c_bands:  5 eigenvalues not converged
     c_bands:  2 eigenvalues not converged
     c_bands:  2 eigenvalues not converged
     c_bands:  3 eigenvalues not converged
     c_bands:  5 eigenvalues not converged
     c_bands:  5 eigenvalues not converged
     c_bands:  4 eigenvalues not converged
     c_bands:  1 eigenvalues not converged
     c_bands:  1 eigenvalues not converged
     c_bands:  4 eigenvalues not converged
     c_bands:  1 eigenvalues not converged
     c_bands:  5 eigenvalues not converged
     c_bands:  3 eigenvalues not converged
     c_bands:  1 eigenvalues not converged
     c_bands:  2 eigenvalues not converged
     c_bands:  1 eigenvalues not converged
     c_bands:  3 eigenvalues not converged
     c_bands:  3 eigenvalues not converged
     c_bands:  2 eigenvalues not converged
     c_bands:  3 eigenvalues not converged
     c_bands:  3 eigenvalues not converged
     c_bands:  3 eigenvalues not converged
     c_bands:  2 eigenvalues not converged
     c_bands:  2 eigenvalues not converged
     c_bands:  4 eigenvalues not converged
     c_bands:  1 eigenvalues not converged
     c_bands:  2 eigenvalues not converged
     c_bands:  3 eigenvalues not converged
     c_bands:  5 eigenvalues not converged
     c_bands:  1 eigenvalues not converged
     c_bands:  2 eigenvalues not converged
     c_bands:  1 eigenvalues not converged
     c_bands:  4 eigenvalues not converged
     c_bands:  1 eigenvalues not converged
     c_bands:  5 eigenvalues not converged
     c_bands:  4 eigenvalues not converged
     c_bands:  3 eigenvalues not converged
     c_bands:  5 eigenvalues not converged
     c_bands:  4 eigenvalues not converged
     c_bands:  2 eigenvalues not converged
     c_bands:  5 eigenvalues not converged
     c_bands:  3 eigenvalues not converged
     c_bands:  2 eigenvalues not converged
     c_bands:  4 eigenvalues not converged
     c_bands:  4 eigenvalues not converged
     c_bands:  4 eigenvalues not converged
     c_bands:  4 eigenvalues not converged
     ethr =  1.00E-06,  avg # of iterations = 11.8

     total cpu time spent up to now is      190.6 secs

     total energy              =    -422.41782336 Ry
     Harris-Foulkes estimate   =    -424.04137179 Ry
     estimated scf accuracy    <       2.04618624 Ry

     iteration #  2     ecut=    40.00 Ry     beta=0.70
     CG style diagonalization
     ethr =  3.72E-03,  avg # of iterations =  4.4

     total cpu time spent up to now is      197.9 secs

     total energy              =    -422.89379407 Ry
     Harris-Foulkes estimate   =    -425.45903774 Ry
     estimated scf accuracy    <       6.24946230 Ry

     iteration #  3     ecut=    40.00 Ry     beta=0.70
     CG style diagonalization
     ethr =  3.72E-03,  avg # of iterations =  3.9

     total cpu time spent up to now is      203.4 secs

     total energy              =    -423.66030113 Ry
     Harris-Foulkes estimate   =    -423.72535128 Ry
     estimated scf accuracy    <       0.24686191 Ry

     iteration #  4     ecut=    40.00 Ry     beta=0.70
     CG style diagonalization
     ethr =  4.49E-04,  avg # of iterations =  4.0

     total cpu time spent up to now is      208.5 secs

     total energy              =    -423.71984905 Ry
     Harris-Foulkes estimate   =    -423.72563186 Ry
     estimated scf accuracy    <       0.01358221 Ry

     iteration #  5     ecut=    40.00 Ry     beta=0.70
     CG style diagonalization
     c_bands:  1 eigenvalues not converged
     ethr =  2.47E-05,  avg # of iterations =  4.7

     total cpu time spent up to now is      215.3 secs

     total energy              =    -423.72816046 Ry
     Harris-Foulkes estimate   =    -423.72980605 Ry
     estimated scf accuracy    <       0.00476221 Ry

     iteration #  6     ecut=    40.00 Ry     beta=0.70
     CG style diagonalization
     ethr =  8.66E-06,  avg # of iterations =  3.4

     total cpu time spent up to now is      220.5 secs

     total energy              =    -423.72877414 Ry
     Harris-Foulkes estimate   =    -423.72885081 Ry
     estimated scf accuracy    <       0.00016860 Ry

     iteration #  7     ecut=    40.00 Ry     beta=0.70
     CG style diagonalization
     c_bands:  1 eigenvalues not converged
     c_bands:  1 eigenvalues not converged
     c_bands:  1 eigenvalues not converged
     c_bands:  1 eigenvalues not converged
     ethr =  3.07E-07,  avg # of iterations =  4.7

     total cpu time spent up to now is      226.4 secs

     total energy              =    -423.72890769 Ry
     Harris-Foulkes estimate   =    -423.72894011 Ry
     estimated scf accuracy    <       0.00011182 Ry

     iteration #  8     ecut=    40.00 Ry     beta=0.70
     CG style diagonalization
     c_bands:  1 eigenvalues not converged
     ethr =  2.03E-07,  avg # of iterations =  3.1

     total cpu time spent up to now is      230.5 secs

     total energy              =    -423.72891346 Ry
     Harris-Foulkes estimate   =    -423.72891774 Ry
     estimated scf accuracy    <       0.00001495 Ry

     iteration #  9     ecut=    40.00 Ry     beta=0.70
     CG style diagonalization
     ethr =  2.72E-08,  avg # of iterations =  4.0

     total cpu time spent up to now is      235.1 secs

     End of self-consistent calculation

     Number of k-points >= 100: set verbosity='high' to print the bands.

     the Fermi energy is    25.3199 ev

!    total energy              =    -423.72891802 Ry
     Harris-Foulkes estimate   =    -423.72891804 Ry
     estimated scf accuracy    <       0.00000003 Ry

     The total energy is the sum of the following terms:

     one-electron contribution =      35.28989920 Ry
     hartree contribution      =      29.03676253 Ry
     xc contribution           =     -51.68719868 Ry
     ewald contribution        =    -436.10018918 Ry
     smearing contrib. (-TS)   =      -0.26819189 Ry

     convergence has been achieved in   9 iterations

     Forces acting on atoms (Ry/au):

     atom    1 type  1   force =     0.00000000    0.00000000    0.00000000
     atom    2 type  1   force =     0.00000000    0.00000000    0.00000000
     atom    3 type  1   force =     0.00000000    0.00000000    0.00000000
     atom    4 type  2   force =     0.00000000    0.00000000    0.00000000

     Total force =     0.000000     Total SCF correction =     0.000000


     entering subroutine stress ...

          total   stress  (Ry/bohr**3)                   (kbar)     P=  103.70
   0.00070495   0.00000000   0.00000000        103.70      0.00      0.00
   0.00000000   0.00070495   0.00000000          0.00    103.70      0.00
   0.00000000   0.00000000   0.00070495          0.00      0.00    103.70


     number of scf cycles    =   3
     number of bfgs steps    =   2

     enthalpy old            =    -423.7303189808 Ry
     enthalpy new            =    -423.7289180233 Ry

     CASE: enthalpy_new > enthalpy_old

     new trust radius        =       0.0286978372 bohr

     trust_radius < trust_radius_min

     resetting bfgs history

     Message from routine bfgs:
     history already reset at previous step: stopping
     new conv_thr            =       0.0000010000 Ry

     new unit-cell volume =    503.02250 a.u.^3 (    74.54024 Ang^3 )

CELL_PARAMETERS (alat=  7.13166486)
   1.115162641   0.000000000   0.000000000
   0.000000000   1.115162641   0.000000000
   0.000000000   0.000000000   1.115162641

ATOMIC_POSITIONS (crystal)
Cu       0.000000000   0.500000000   0.500000000
Cu       0.500000000   0.500000000   0.000000000
Cu       0.500000000   0.000000000   0.500000000
Au       0.000000000   0.000000000   0.000000000



     Writing output data file Prototype-La-cP4-Cu3Au.save
     Check: negative starting charge=   -0.001905
     NEW-OLD atomic charge density approx. for the potential
     NEW k-points: (use verbosity='high' to print them)
     Check: negative starting charge=   -0.001901
     extrapolated charge   54.99210, renormalised to   55.00000

     total cpu time spent up to now is      237.2 secs

     Self-consistent Calculation

     iteration #  1     ecut=    40.00 Ry     beta=0.70
     CG style diagonalization
     ethr =  1.00E-06,  avg # of iterations =  3.2

     total cpu time spent up to now is      241.3 secs

     total energy              =    -423.72852134 Ry
     Harris-Foulkes estimate   =    -423.72739141 Ry
     estimated scf accuracy    <       0.00029732 Ry

     iteration #  2     ecut=    40.00 Ry     beta=0.70
     CG style diagonalization
     ethr =  5.41E-07,  avg # of iterations =  4.3

     total cpu time spent up to now is      246.6 secs

     total energy              =    -423.72847438 Ry
     Harris-Foulkes estimate   =    -423.72897234 Ry
     estimated scf accuracy    <       0.00137336 Ry

     iteration #  3     ecut=    40.00 Ry     beta=0.70
     CG style diagonalization
     ethr =  5.41E-07,  avg # of iterations =  3.9

     total cpu time spent up to now is      251.3 secs

     End of self-consistent calculation

     Number of k-points >= 100: set verbosity='high' to print the bands.

     the Fermi energy is    25.3374 ev

!    total energy              =    -423.72869600 Ry
     Harris-Foulkes estimate   =    -423.72869649 Ry
     estimated scf accuracy    <       0.00000069 Ry

     The total energy is the sum of the following terms:

     one-electron contribution =      35.40503737 Ry
     hartree contribution      =      29.01431998 Ry
     xc contribution           =     -51.69147719 Ry
     ewald contribution        =    -436.18857850 Ry
     smearing contrib. (-TS)   =      -0.26799765 Ry

     convergence has been achieved in   3 iterations

     Forces acting on atoms (Ry/au):

     atom    1 type  1   force =     0.00000000    0.00000000    0.00000000
     atom    2 type  1   force =     0.00000000    0.00000000    0.00000000
     atom    3 type  1   force =     0.00000000    0.00000000    0.00000000
     atom    4 type  2   force =     0.00000000    0.00000000    0.00000000

     Total force =     0.000000     Total SCF correction =     0.000000


     entering subroutine stress ...

          total   stress  (Ry/bohr**3)                   (kbar)     P=  106.59
   0.00072458   0.00000000   0.00000000        106.59      0.00      0.00
   0.00000000   0.00072458   0.00000000          0.00    106.59      0.00
   0.00000000   0.00000000   0.00072458          0.00      0.00    106.59


     The maximum number of steps has been reached.

     End of BFGS Geometry Optimization
Begin final coordinates
     new unit-cell volume =    503.02250 a.u.^3 (    74.54024 Ang^3 )

CELL_PARAMETERS (alat=  7.13166486)
   1.115162641   0.000000000   0.000000000
   0.000000000   1.115162641   0.000000000
   0.000000000   0.000000000   1.115162641

ATOMIC_POSITIONS (crystal)
Cu       0.000000000   0.500000000   0.500000000
Cu       0.500000000   0.500000000   0.000000000
Cu       0.500000000   0.000000000   0.500000000
Au       0.000000000   0.000000000   0.000000000
End final coordinates



     A final scf calculation at the relaxed structure.
     The G-vectors are recalculated for the final unit cell
     Results may differ from those at the preceding step.
 
     Parallelization info
     --------------------
     sticks:   dense  smooth     PW     G-vecs:    dense   smooth      PW
     Min         199     199     60                 4268     4268     724
     Max         200     200     61                 4271     4271     725
     Sum         797     797    241                17077    17077    2897
 


     bravais-lattice index     =            0
     lattice parameter (alat)  =       7.1317  a.u.
     unit-cell volume          =     503.0225 (a.u.)^3
     number of atoms/cell      =            4
     number of atomic types    =            2
     number of electrons       =        55.00
     number of Kohn-Sham states=           34
     kinetic-energy cutoff     =      40.0000  Ry
     charge density cutoff     =     160.0000  Ry
     convergence threshold     =      1.0E-06
     mixing beta               =       0.7000
     number of iterations used =            8  plain     mixing
     Exchange-correlation      = SLA-PZ-NOGX-NOGC ( 1 1 0 0 0)
     EXX-fraction              =        0.00

     celldm(1)=   7.131665  celldm(2)=   0.000000  celldm(3)=   0.000000
     celldm(4)=   0.000000  celldm(5)=   0.000000  celldm(6)=   0.000000

     crystal axes: (cart. coord. in units of alat)
               a(1) = (   1.115163   0.000000   0.000000 )  
               a(2) = (   0.000000   1.115163   0.000000 )  
               a(3) = (   0.000000   0.000000   1.115163 )  

     reciprocal axes: (cart. coord. in units 2 pi/alat)
               b(1) = (  0.896730  0.000000  0.000000 )  
               b(2) = (  0.000000  0.896730  0.000000 )  
               b(3) = (  0.000000  0.000000  0.896730 )  


     PseudoPot. # 1 for Nd read from file:
     /home/cwx6513/pp.La/Nd.UPF
     MD5 check sum: c66c5b6abe7b5840ced9b1e244e3bed6
     Pseudo is Norm-conserving, Zval = 14.0
     Generated in analytical, separable form
     Using radial grid of 1257 points,  6 beta functions with: 
                l(1) =   0
                l(2) =   0
                l(3) =   1
                l(4) =   1
                l(5) =   2
                l(6) =   3

     PseudoPot. # 2 for Pr read from file:
     /home/cwx6513/pp.La/Pr.UPF
     MD5 check sum: 70e2b4b153859e92c8c91247dfc63203
     Pseudo is Norm-conserving, Zval = 13.0
     Generated in analytical, separable form
     Using radial grid of 1255 points,  6 beta functions with: 
                l(1) =   0
                l(2) =   0
                l(3) =   1
                l(4) =   1
                l(5) =   2
                l(6) =   3

     atomic species   valence    mass     pseudopotential
        Cu            14.00    63.54600     Nd( 1.00)
        Au            13.00   196.96600     Pr( 1.00)

     48 Sym. Ops., with inversion, found



   Cartesian axes

     site n.     atom                  positions (alat units)
         1           Cu  tau(   1) = (   0.0000000   0.5575813   0.5575813  )
         2           Cu  tau(   2) = (   0.5575813   0.5575813   0.0000000  )
         3           Cu  tau(   3) = (   0.5575813   0.0000000   0.5575813  )
         4           Au  tau(   4) = (   0.0000000   0.0000000   0.0000000  )

     number of k points=   100  gaussian smearing, width (Ry)=  0.1000

     Number of k-points >= 100: set verbosity='high' to print them.

     Dense  grid:    17077 G-vectors     FFT dimensions: (  36,  36,  36)

     Largest allocated arrays     est. size (Mb)     dimensions
        Kohn-Sham Wavefunctions         0.29 Mb     (    565,   34)
        NL pseudopotentials             0.69 Mb     (    565,   80)
        Each V/rho on FFT grid          0.18 Mb     (  11664)
        Each G-vector array             0.03 Mb     (   4269)
        G-vector shells                 0.00 Mb     (    215)
     Largest temporary arrays     est. size (Mb)     dimensions
        Each subspace H/S matrix        0.02 Mb     (  34,  34)
        Each <psi_i|beta_j> matrix      0.04 Mb     (     80,   34)
        Arrays for rho mixing           1.42 Mb     (  11664,   8)

     Initial potential from superposition of free atoms
     Check: negative starting charge=   -0.000147

     starting charge   12.99054, renormalised to   55.00000

     negative rho (up, down):  0.623E-03 0.000E+00
     Starting wfc are   20 randomized atomic wfcs

     Writing output data file Prototype-La-cP4-Cu3Au.save

     total cpu time spent up to now is      255.4 secs

     Self-consistent Calculation

     iteration #  1     ecut=    40.00 Ry     beta=0.70
     CG style diagonalization
     c_bands:  5 eigenvalues not converged
     c_bands:  5 eigenvalues not converged
     c_bands:  5 eigenvalues not converged
     c_bands:  5 eigenvalues not converged
     c_bands:  4 eigenvalues not converged
     c_bands:  6 eigenvalues not converged
     c_bands:  6 eigenvalues not converged
     c_bands:  6 eigenvalues not converged
     c_bands:  6 eigenvalues not converged
     c_bands:  4 eigenvalues not converged
     c_bands:  6 eigenvalues not converged
     c_bands:  6 eigenvalues not converged
     c_bands:  6 eigenvalues not converged
     c_bands:  5 eigenvalues not converged
     c_bands:  5 eigenvalues not converged
     c_bands:  5 eigenvalues not converged
     c_bands:  6 eigenvalues not converged
     c_bands:  4 eigenvalues not converged
     c_bands:  5 eigenvalues not converged
     c_bands:  5 eigenvalues not converged
     c_bands:  4 eigenvalues not converged
     c_bands:  5 eigenvalues not converged
     c_bands:  5 eigenvalues not converged
     c_bands:  5 eigenvalues not converged
     c_bands:  6 eigenvalues not converged
     c_bands:  6 eigenvalues not converged
     c_bands:  6 eigenvalues not converged
     c_bands:  6 eigenvalues not converged
     c_bands:  6 eigenvalues not converged
     c_bands:  4 eigenvalues not converged
     c_bands:  6 eigenvalues not converged
     c_bands:  5 eigenvalues not converged
     c_bands:  6 eigenvalues not converged
     c_bands:  6 eigenvalues not converged
     c_bands:  5 eigenvalues not converged
     c_bands:  5 eigenvalues not converged
     c_bands:  6 eigenvalues not converged
     c_bands:  6 eigenvalues not converged
     c_bands:  5 eigenvalues not converged
     c_bands:  5 eigenvalues not converged
     c_bands:  6 eigenvalues not converged
     c_bands:  5 eigenvalues not converged
     c_bands:  5 eigenvalues not converged
     c_bands:  5 eigenvalues not converged
     c_bands:  5 eigenvalues not converged
     c_bands:  4 eigenvalues not converged
     c_bands:  5 eigenvalues not converged
     c_bands:  5 eigenvalues not converged
     c_bands:  5 eigenvalues not converged
     c_bands:  5 eigenvalues not converged
     c_bands:  6 eigenvalues not converged
     c_bands:  6 eigenvalues not converged
     c_bands:  6 eigenvalues not converged
     c_bands:  5 eigenvalues not converged
     c_bands:  5 eigenvalues not converged
     c_bands:  6 eigenvalues not converged
     c_bands:  6 eigenvalues not converged
     c_bands:  6 eigenvalues not converged
     c_bands:  4 eigenvalues not converged
     c_bands:  5 eigenvalues not converged
     c_bands:  5 eigenvalues not converged
     c_bands:  6 eigenvalues not converged
     c_bands:  4 eigenvalues not converged
     c_bands:  5 eigenvalues not converged
     c_bands:  3 eigenvalues not converged
     c_bands:  5 eigenvalues not converged
     c_bands:  5 eigenvalues not converged
     c_bands:  5 eigenvalues not converged
     c_bands:  5 eigenvalues not converged
     c_bands:  5 eigenvalues not converged
     c_bands:  5 eigenvalues not converged
     c_bands:  5 eigenvalues not converged
     c_bands:  4 eigenvalues not converged
     c_bands:  3 eigenvalues not converged
     c_bands:  4 eigenvalues not converged
     c_bands:  3 eigenvalues not converged
     c_bands:  5 eigenvalues not converged
     c_bands:  5 eigenvalues not converged
     c_bands:  5 eigenvalues not converged
     c_bands:  6 eigenvalues not converged
     c_bands:  5 eigenvalues not converged
     c_bands:  5 eigenvalues not converged
     c_bands:  5 eigenvalues not converged
     c_bands:  5 eigenvalues not converged
     c_bands:  5 eigenvalues not converged
     c_bands:  5 eigenvalues not converged
     c_bands:  5 eigenvalues not converged
     c_bands:  5 eigenvalues not converged
     c_bands:  5 eigenvalues not converged
     c_bands:  4 eigenvalues not converged
     c_bands:  5 eigenvalues not converged
     c_bands:  5 eigenvalues not converged
     c_bands:  5 eigenvalues not converged
     c_bands:  3 eigenvalues not converged
     c_bands:  3 eigenvalues not converged
     c_bands:  6 eigenvalues not converged
     c_bands:  6 eigenvalues not converged
     c_bands:  3 eigenvalues not converged
     c_bands:  5 eigenvalues not converged
     c_bands:  5 eigenvalues not converged
     ethr =  1.00E-06,  avg # of iterations = 76.0

     negative rho (up, down):  0.187E-03 0.000E+00

     total cpu time spent up to now is      412.2 secs

     total energy              =    -356.38412239 Ry
     Harris-Foulkes estimate   =   -1198.69870200 Ry
     estimated scf accuracy    <     985.48656389 Ry

     iteration #  2     ecut=    40.00 Ry     beta=0.70
     CG style diagonalization
     c_bands:  1 eigenvalues not converged
     c_bands:  1 eigenvalues not converged
     c_bands:  1 eigenvalues not converged
     c_bands:  1 eigenvalues not converged
     c_bands:  1 eigenvalues not converged
     c_bands:  1 eigenvalues not converged
     c_bands:  1 eigenvalues not converged
     c_bands:  1 eigenvalues not converged
     c_bands:  1 eigenvalues not converged
     c_bands:  1 eigenvalues not converged
     c_bands:  1 eigenvalues not converged
     c_bands:  1 eigenvalues not converged
     ethr =  1.00E-02,  avg # of iterations = 10.7

     negative rho (up, down):  0.544E-04 0.000E+00

     total cpu time spent up to now is      435.4 secs

     total energy              =    -413.17948214 Ry
     Harris-Foulkes estimate   =    -446.37719131 Ry
     estimated scf accuracy    <      46.61136372 Ry

     iteration #  3     ecut=    40.00 Ry     beta=0.70
     CG style diagonalization
     ethr =  1.00E-02,  avg # of iterations =  6.1

     negative rho (up, down):  0.150E-05 0.000E+00

     total cpu time spent up to now is      452.1 secs

     total energy              =    -420.61113379 Ry
     Harris-Foulkes estimate   =    -425.84723744 Ry
     estimated scf accuracy    <       7.53226117 Ry

     iteration #  4     ecut=    40.00 Ry     beta=0.70
     CG style diagonalization
     ethr =  1.00E-02,  avg # of iterations =  5.1

     negative rho (up, down):  0.235E-05 0.000E+00

     total cpu time spent up to now is      464.5 secs

     total energy              =    -419.60180142 Ry
     Harris-Foulkes estimate   =    -426.82314034 Ry
     estimated scf accuracy    <      13.53403993 Ry

     iteration #  5     ecut=    40.00 Ry     beta=0.70
     CG style diagonalization
     ethr =  1.00E-02,  avg # of iterations =  4.2

     total cpu time spent up to now is      475.2 secs

     total energy              =    -423.48543498 Ry
     Harris-Foulkes estimate   =    -424.73196865 Ry
     estimated scf accuracy    <       3.12575320 Ry

     iteration #  6     ecut=    40.00 Ry     beta=0.70
     CG style diagonalization
     ethr =  5.68E-03,  avg # of iterations =  3.4

     total cpu time spent up to now is      482.9 secs

     total energy              =    -423.93400967 Ry
     Harris-Foulkes estimate   =    -423.98732182 Ry
     estimated scf accuracy    <       0.18659777 Ry

     iteration #  7     ecut=    40.00 Ry     beta=0.70
     CG style diagonalization
     c_bands:  1 eigenvalues not converged
     c_bands:  2 eigenvalues not converged
     c_bands:  1 eigenvalues not converged
     c_bands:  1 eigenvalues not converged
     c_bands:  2 eigenvalues not converged
     c_bands:  1 eigenvalues not converged
     c_bands:  1 eigenvalues not converged
     c_bands:  1 eigenvalues not converged
     c_bands:  2 eigenvalues not converged
     c_bands:  1 eigenvalues not converged
     c_bands:  3 eigenvalues not converged
     c_bands:  1 eigenvalues not converged
     c_bands:  1 eigenvalues not converged
     c_bands:  1 eigenvalues not converged
     c_bands:  1 eigenvalues not converged
     c_bands:  1 eigenvalues not converged
     c_bands:  1 eigenvalues not converged
     ethr =  3.39E-04,  avg # of iterations =  4.9

     total cpu time spent up to now is      496.4 secs

     total energy              =    -424.02674531 Ry
     Harris-Foulkes estimate   =    -424.02884255 Ry
     estimated scf accuracy    <       0.00384719 Ry

     iteration #  8     ecut=    40.00 Ry     beta=0.70
     CG style diagonalization
     c_bands:  1 eigenvalues not converged
     c_bands:  2 eigenvalues not converged
     c_bands:  1 eigenvalues not converged
     c_bands:  1 eigenvalues not converged
     c_bands:  2 eigenvalues not converged
     c_bands:  2 eigenvalues not converged
     c_bands:  1 eigenvalues not converged
     c_bands:  2 eigenvalues not converged
     c_bands:  1 eigenvalues not converged
     c_bands:  2 eigenvalues not converged
     c_bands:  2 eigenvalues not converged
     c_bands:  1 eigenvalues not converged
     c_bands:  2 eigenvalues not converged
     c_bands:  2 eigenvalues not converged
     c_bands:  1 eigenvalues not converged
     c_bands:  1 eigenvalues not converged
     c_bands:  1 eigenvalues not converged
     c_bands:  1 eigenvalues not converged
     c_bands:  1 eigenvalues not converged
     c_bands:  2 eigenvalues not converged
     c_bands:  2 eigenvalues not converged
     c_bands:  3 eigenvalues not converged
     c_bands:  1 eigenvalues not converged
     c_bands:  1 eigenvalues not converged
     c_bands:  1 eigenvalues not converged
     c_bands:  1 eigenvalues not converged
     c_bands:  1 eigenvalues not converged
     c_bands:  1 eigenvalues not converged
     c_bands:  2 eigenvalues not converged
     c_bands:  1 eigenvalues not converged
     c_bands:  1 eigenvalues not converged
     c_bands:  1 eigenvalues not converged
     c_bands:  2 eigenvalues not converged
     c_bands:  1 eigenvalues not converged
     c_bands:  1 eigenvalues not converged
     c_bands:  1 eigenvalues not converged
     c_bands:  1 eigenvalues not converged
     c_bands:  1 eigenvalues not converged
     c_bands:  1 eigenvalues not converged
     c_bands:  1 eigenvalues not converged
     c_bands:  1 eigenvalues not converged
     c_bands:  1 eigenvalues not converged
     c_bands:  1 eigenvalues not converged
     c_bands:  1 eigenvalues not converged
     c_bands:  1 eigenvalues not converged
     c_bands:  2 eigenvalues not converged
     ethr =  6.99E-06,  avg # of iterations =  5.9

     total cpu time spent up to now is      513.4 secs

     total energy              =    -424.03075517 Ry
     Harris-Foulkes estimate   =    -424.03263596 Ry
     estimated scf accuracy    <       0.00554880 Ry

     iteration #  9     ecut=    40.00 Ry     beta=0.70
     CG style diagonalization
     c_bands:  1 eigenvalues not converged
     c_bands:  1 eigenvalues not converged
     c_bands:  1 eigenvalues not converged
     c_bands:  1 eigenvalues not converged
     c_bands:  1 eigenvalues not converged
     c_bands:  1 eigenvalues not converged
     ethr =  6.99E-06,  avg # of iterations =  3.6

     total cpu time spent up to now is      523.8 secs

     total energy              =    -424.03142768 Ry
     Harris-Foulkes estimate   =    -424.03149446 Ry
     estimated scf accuracy    <       0.00023756 Ry

     iteration # 10     ecut=    40.00 Ry     beta=0.70
     CG style diagonalization
     c_bands:  1 eigenvalues not converged
     c_bands:  1 eigenvalues not converged
     c_bands:  1 eigenvalues not converged
     c_bands:  1 eigenvalues not converged
     c_bands:  1 eigenvalues not converged
     ethr =  4.32E-07,  avg # of iterations =  4.4

     total cpu time spent up to now is      537.2 secs

     total energy              =    -424.03150785 Ry
     Harris-Foulkes estimate   =    -424.03151764 Ry
     estimated scf accuracy    <       0.00002181 Ry

     iteration # 11     ecut=    40.00 Ry     beta=0.70
     CG style diagonalization
     c_bands:  1 eigenvalues not converged
     c_bands:  1 eigenvalues not converged
     ethr =  3.97E-08,  avg # of iterations =  4.5

     total cpu time spent up to now is      546.7 secs

     End of self-consistent calculation

     Number of k-points >= 100: set verbosity='high' to print the bands.

     the Fermi energy is    25.3100 ev

!    total energy              =    -424.03151563 Ry
     Harris-Foulkes estimate   =    -424.03151620 Ry
     estimated scf accuracy    <       0.00000083 Ry

     The total energy is the sum of the following terms:

     one-electron contribution =      34.96646689 Ry
     hartree contribution      =      29.18356676 Ry
     xc contribution           =     -51.72404570 Ry
     ewald contribution        =    -436.18857772 Ry
     smearing contrib. (-TS)   =      -0.26892586 Ry

     convergence has been achieved in  11 iterations

     Forces acting on atoms (Ry/au):

     atom    1 type  1   force =     0.00000000    0.00000000    0.00000000
     atom    2 type  1   force =     0.00000000    0.00000000    0.00000000
     atom    3 type  1   force =     0.00000000    0.00000000    0.00000000
     atom    4 type  2   force =     0.00000000    0.00000000    0.00000000

     Total force =     0.000000     Total SCF correction =     0.000000


     entering subroutine stress ...

          total   stress  (Ry/bohr**3)                   (kbar)     P=  428.31
   0.00291160   0.00000000   0.00000000        428.31      0.00      0.00
   0.00000000   0.00291160   0.00000000          0.00    428.31      0.00
   0.00000000   0.00000000   0.00291160          0.00      0.00    428.31


     Writing output data file Prototype-La-cP4-Cu3Au.save
 
     init_run     :      2.77s CPU      3.62s WALL (       2 calls)
     electrons    :    444.14s CPU    535.30s WALL (       5 calls)
     update_pot   :      0.70s CPU      0.71s WALL (       3 calls)
     forces       :      1.65s CPU      1.90s WALL (       5 calls)
     stress       :      4.25s CPU      4.32s WALL (       5 calls)

     Called by init_run:
     wfcinit      :      2.43s CPU      3.25s WALL (       2 calls)
     potinit      :      0.12s CPU      0.13s WALL (       2 calls)

     Called by electrons:
     c_bands      :    426.43s CPU    499.23s WALL (      44 calls)
     sum_band     :     17.45s CPU     20.52s WALL (      44 calls)
     v_of_rho     :      0.03s CPU      0.03s WALL (      49 calls)
     mix_rho      :      0.03s CPU      0.03s WALL (      44 calls)

     Called by c_bands:
     init_us_2    :      2.06s CPU      2.46s WALL (   10000 calls)
     ccgdiagg     :    362.22s CPU    418.23s WALL (    5075 calls)
     wfcrot       :     64.74s CPU     76.53s WALL (    5175 calls)

     Called by *cgdiagg:
     h_psi        :    315.49s CPU    376.93s WALL (  933447 calls)
     cdiaghg      :      2.03s CPU      2.35s WALL (    5175 calls)

     Called by h_psi:
     add_vuspsi   :     18.01s CPU     27.37s WALL (  933447 calls)

     General routines
     calbec       :     71.64s CPU     75.50s WALL ( 1862719 calls)
     fft          :      0.04s CPU      0.04s WALL (     219 calls)
     fftw         :    254.28s CPU    295.51s WALL ( 2358044 calls)
     davcio       :      1.30s CPU      6.91s WALL (   14400 calls)
 
     Parallel routines
     fft_scatter  :    113.95s CPU    131.59s WALL ( 2358263 calls)
 
     PWSCF        :  7m34.42s CPU     9m10.24s WALL

 
   This run was terminated on:  17:43:56  22Mar2018            

=------------------------------------------------------------------------------=
   JOB DONE.
=------------------------------------------------------------------------------=
