
     Program PWSCF v.5.0.2 starts on 22Mar2018 at 17:34:50 

     This program is part of the open-source Quantum ESPRESSO suite
     for quantum simulation of materials; please cite
         "P. Giannozzi et al., J. Phys.:Condens. Matter 21 395502 (2009);
          URL http://www.quantum-espresso.org", 
     in publications or presentations arising from this work. More details at
     http://www.quantum-espresso.org/quote.php

     Parallel version (MPI), running on     4 processors
     R & G space division:  proc/nbgrp/npool/nimage =       4

     Current dimensions of program PWSCF are:
     Max number of different atomic species (ntypx) = 10
     Max number of k-points (npk) =  40000
     Max angular momentum in pseudopotentials (lmaxx) =  3
     Waiting for input...
     Reading input from standard input

     Subspace diagonalization in iterative solution of the eigenvalue problem:
     a serial algorithm will be used

 
     Parallelization info
     --------------------
     sticks:   dense  smooth     PW     G-vecs:    dense   smooth      PW
     Min          93      93     30                 1717     1717     310
     Max          94      94     31                 1720     1720     313
     Sum         373     373    121                 6871     6871    1247
 


     bravais-lattice index     =            0
     lattice parameter (alat)  =       5.4125  a.u.
     unit-cell volume          =     202.7222 (a.u.)^3
     number of atoms/cell      =            2
     number of atomic types    =            2
     number of electrons       =        27.00
     number of Kohn-Sham states=           18
     kinetic-energy cutoff     =      40.0000  Ry
     charge density cutoff     =     160.0000  Ry
     convergence threshold     =      1.0E-04
     mixing beta               =       0.7000
     number of iterations used =            8  plain     mixing
     Exchange-correlation      = SLA-PZ-NOGX-NOGC ( 1 1 0 0 0)
     EXX-fraction              =        0.00
     nstep                     =           50


     celldm(1)=   5.412493  celldm(2)=   0.000000  celldm(3)=   0.000000
     celldm(4)=   0.000000  celldm(5)=   0.000000  celldm(6)=   0.000000

     crystal axes: (cart. coord. in units of alat)
               a(1) = (   1.000000   0.000000   0.000000 )  
               a(2) = (   0.000000   1.000000   0.000000 )  
               a(3) = (   0.000000   0.000000   1.278525 )  

     reciprocal axes: (cart. coord. in units 2 pi/alat)
               b(1) = (  1.000000  0.000000  0.000000 )  
               b(2) = (  0.000000  1.000000  0.000000 )  
               b(3) = (  0.000000  0.000000  0.782151 )  


     PseudoPot. # 1 for Nd read from file:
     /home/cwx6513/pp.La/Nd.UPF
     MD5 check sum: c66c5b6abe7b5840ced9b1e244e3bed6
     Pseudo is Norm-conserving, Zval = 14.0
     Generated in analytical, separable form
     Using radial grid of 1257 points,  6 beta functions with: 
                l(1) =   0
                l(2) =   0
                l(3) =   1
                l(4) =   1
                l(5) =   2
                l(6) =   3

     PseudoPot. # 2 for Pr read from file:
     /home/cwx6513/pp.La/Pr.UPF
     MD5 check sum: 70e2b4b153859e92c8c91247dfc63203
     Pseudo is Norm-conserving, Zval = 13.0
     Generated in analytical, separable form
     Using radial grid of 1255 points,  6 beta functions with: 
                l(1) =   0
                l(2) =   0
                l(3) =   1
                l(4) =   1
                l(5) =   2
                l(6) =   3

     atomic species   valence    mass     pseudopotential
        Cu            14.00    63.54600     Nd( 1.00)
        Au            13.00   196.96600     Pr( 1.00)

     16 Sym. Ops., with inversion, found



   Cartesian axes

     site n.     atom                  positions (alat units)
         1           Cu  tau(   1) = (   0.5000000   0.5000000   0.6392626  )
         2           Au  tau(   2) = (   0.0000000   0.0000000   0.0000000  )

     number of k points=   100  gaussian smearing, width (Ry)=  0.1000

     Number of k-points >= 100: set verbosity='high' to print them.

     Dense  grid:     6871 G-vectors     FFT dimensions: (  24,  24,  27)

     Largest allocated arrays     est. size (Mb)     dimensions
        Kohn-Sham Wavefunctions         0.06 Mb     (    228,   18)
        NL pseudopotentials             0.14 Mb     (    228,   40)
        Each V/rho on FFT grid          0.06 Mb     (   4032)
        Each G-vector array             0.01 Mb     (   1720)
        G-vector shells                 0.01 Mb     (   1720)
     Largest temporary arrays     est. size (Mb)     dimensions
        Each subspace H/S matrix        0.00 Mb     (  18,  18)
        Each <psi_i|beta_j> matrix      0.01 Mb     (     40,   18)
        Arrays for rho mixing           0.49 Mb     (   4032,   8)

     Initial potential from superposition of free atoms
     Check: negative starting charge=   -0.000124

     starting charge   12.99054, renormalised to   27.00000

     negative rho (up, down):  0.258E-03 0.000E+00
     Starting wfc are   20 randomized atomic wfcs

     total cpu time spent up to now is        0.8 secs

     Self-consistent Calculation

     iteration #  1     ecut=    40.00 Ry     beta=0.70
     CG style diagonalization
     c_bands:  1 eigenvalues not converged
     c_bands:  1 eigenvalues not converged
     c_bands:  1 eigenvalues not converged
     c_bands:  1 eigenvalues not converged
     c_bands:  1 eigenvalues not converged
     c_bands:  2 eigenvalues not converged
     c_bands:  1 eigenvalues not converged
     c_bands:  1 eigenvalues not converged
     c_bands:  2 eigenvalues not converged
     c_bands:  3 eigenvalues not converged
     c_bands:  3 eigenvalues not converged
     c_bands:  4 eigenvalues not converged
     c_bands:  1 eigenvalues not converged
     c_bands:  3 eigenvalues not converged
     c_bands:  5 eigenvalues not converged
     c_bands:  3 eigenvalues not converged
     c_bands:  5 eigenvalues not converged
     c_bands:  5 eigenvalues not converged
     c_bands:  1 eigenvalues not converged
     c_bands:  5 eigenvalues not converged
     c_bands:  4 eigenvalues not converged
     c_bands:  3 eigenvalues not converged
     c_bands:  4 eigenvalues not converged
     c_bands:  4 eigenvalues not converged
     c_bands:  1 eigenvalues not converged
     c_bands:  2 eigenvalues not converged
     c_bands:  2 eigenvalues not converged
     c_bands:  3 eigenvalues not converged
     c_bands:  1 eigenvalues not converged
     c_bands:  2 eigenvalues not converged
     c_bands:  3 eigenvalues not converged
     c_bands:  1 eigenvalues not converged
     c_bands:  2 eigenvalues not converged
     c_bands:  3 eigenvalues not converged
     c_bands:  3 eigenvalues not converged
     c_bands:  3 eigenvalues not converged
     c_bands:  2 eigenvalues not converged
     c_bands:  3 eigenvalues not converged
     c_bands:  2 eigenvalues not converged
     c_bands:  2 eigenvalues not converged
     c_bands:  2 eigenvalues not converged
     c_bands:  4 eigenvalues not converged
     c_bands:  3 eigenvalues not converged
     c_bands:  5 eigenvalues not converged
     c_bands:  3 eigenvalues not converged
     c_bands:  4 eigenvalues not converged
     c_bands:  3 eigenvalues not converged
     c_bands:  2 eigenvalues not converged
     c_bands:  2 eigenvalues not converged
     c_bands:  5 eigenvalues not converged
     c_bands:  3 eigenvalues not converged
     c_bands:  4 eigenvalues not converged
     c_bands:  3 eigenvalues not converged
     c_bands:  2 eigenvalues not converged
     c_bands:  4 eigenvalues not converged
     c_bands:  4 eigenvalues not converged
     c_bands:  3 eigenvalues not converged
     c_bands:  5 eigenvalues not converged
     c_bands:  3 eigenvalues not converged
     c_bands:  4 eigenvalues not converged
     c_bands:  3 eigenvalues not converged
     c_bands:  3 eigenvalues not converged
     c_bands:  4 eigenvalues not converged
     c_bands:  3 eigenvalues not converged
     c_bands:  2 eigenvalues not converged
     c_bands:  2 eigenvalues not converged
     c_bands:  4 eigenvalues not converged
     c_bands:  4 eigenvalues not converged
     c_bands:  4 eigenvalues not converged
     c_bands:  5 eigenvalues not converged
     c_bands:  5 eigenvalues not converged
     c_bands:  5 eigenvalues not converged
     c_bands:  2 eigenvalues not converged
     c_bands:  3 eigenvalues not converged
     c_bands:  4 eigenvalues not converged
     c_bands:  5 eigenvalues not converged
     c_bands:  5 eigenvalues not converged
     c_bands:  5 eigenvalues not converged
     c_bands:  4 eigenvalues not converged
     c_bands:  3 eigenvalues not converged
     c_bands:  5 eigenvalues not converged
     c_bands:  3 eigenvalues not converged
     c_bands:  5 eigenvalues not converged
     c_bands:  5 eigenvalues not converged
     c_bands:  5 eigenvalues not converged
     ethr =  1.00E-02,  avg # of iterations = 15.4

     negative rho (up, down):  0.727E-04 0.000E+00

     total cpu time spent up to now is        7.5 secs

     total energy              =     -77.65424900 Ry
     Harris-Foulkes estimate   =    -366.41409680 Ry
     estimated scf accuracy    <     349.52242366 Ry

     iteration #  2     ecut=    40.00 Ry     beta=0.70
     CG style diagonalization
     c_bands:  1 eigenvalues not converged
     c_bands:  1 eigenvalues not converged
     c_bands:  1 eigenvalues not converged
     c_bands:  3 eigenvalues not converged
     c_bands:  1 eigenvalues not converged
     c_bands:  2 eigenvalues not converged
     c_bands:  1 eigenvalues not converged
     c_bands:  1 eigenvalues not converged
     c_bands:  2 eigenvalues not converged
     c_bands:  1 eigenvalues not converged
     c_bands:  1 eigenvalues not converged
     c_bands:  1 eigenvalues not converged
     c_bands:  1 eigenvalues not converged
     c_bands:  2 eigenvalues not converged
     c_bands:  1 eigenvalues not converged
     c_bands:  1 eigenvalues not converged
     c_bands:  1 eigenvalues not converged
     c_bands:  1 eigenvalues not converged
     c_bands:  1 eigenvalues not converged
     c_bands:  1 eigenvalues not converged
     c_bands:  1 eigenvalues not converged
     c_bands:  1 eigenvalues not converged
     c_bands:  2 eigenvalues not converged
     c_bands:  1 eigenvalues not converged
     c_bands:  2 eigenvalues not converged
     c_bands:  1 eigenvalues not converged
     c_bands:  1 eigenvalues not converged
     c_bands:  1 eigenvalues not converged
     c_bands:  1 eigenvalues not converged
     c_bands:  1 eigenvalues not converged
     c_bands:  1 eigenvalues not converged
     c_bands:  1 eigenvalues not converged
     c_bands:  1 eigenvalues not converged
     c_bands:  1 eigenvalues not converged
     c_bands:  1 eigenvalues not converged
     c_bands:  1 eigenvalues not converged
     c_bands:  1 eigenvalues not converged
     c_bands:  1 eigenvalues not converged
     c_bands:  1 eigenvalues not converged
     ethr =  1.00E-02,  avg # of iterations = 13.7

     negative rho (up, down):  0.342E-04 0.000E+00

     total cpu time spent up to now is       13.0 secs

     total energy              =    -163.86948476 Ry
     Harris-Foulkes estimate   =    -269.92778061 Ry
     estimated scf accuracy    <     174.91720733 Ry

     iteration #  3     ecut=    40.00 Ry     beta=0.70
     CG style diagonalization
     ethr =  1.00E-02,  avg # of iterations = 10.6

     negative rho (up, down):  0.266E-04 0.000E+00

     total cpu time spent up to now is       17.5 secs

     total energy              =    -205.26825513 Ry
     Harris-Foulkes estimate   =    -207.42794641 Ry
     estimated scf accuracy    <      11.01825209 Ry

     iteration #  4     ecut=    40.00 Ry     beta=0.70
     CG style diagonalization
     ethr =  1.00E-02,  avg # of iterations =  3.0

     total cpu time spent up to now is       18.6 secs

     total energy              =    -200.85663250 Ry
     Harris-Foulkes estimate   =    -205.44613304 Ry
     estimated scf accuracy    <       6.62457537 Ry

     iteration #  5     ecut=    40.00 Ry     beta=0.70
     CG style diagonalization
     ethr =  1.00E-02,  avg # of iterations =  4.6

     total cpu time spent up to now is       20.2 secs

     total energy              =    -202.69166136 Ry
     Harris-Foulkes estimate   =    -203.32855388 Ry
     estimated scf accuracy    <       1.54988672 Ry

     iteration #  6     ecut=    40.00 Ry     beta=0.70
     CG style diagonalization
     ethr =  5.74E-03,  avg # of iterations =  3.3

     total cpu time spent up to now is       21.3 secs

     total energy              =    -202.86103291 Ry
     Harris-Foulkes estimate   =    -202.89846807 Ry
     estimated scf accuracy    <       0.08101817 Ry

     iteration #  7     ecut=    40.00 Ry     beta=0.70
     CG style diagonalization
     c_bands:  1 eigenvalues not converged
     ethr =  3.00E-04,  avg # of iterations =  4.7

     total cpu time spent up to now is       22.9 secs

     total energy              =    -202.89836128 Ry
     Harris-Foulkes estimate   =    -202.90287448 Ry
     estimated scf accuracy    <       0.00658015 Ry

     iteration #  8     ecut=    40.00 Ry     beta=0.70
     CG style diagonalization
     c_bands:  1 eigenvalues not converged
     c_bands:  1 eigenvalues not converged
     c_bands:  1 eigenvalues not converged
     c_bands:  1 eigenvalues not converged
     c_bands:  1 eigenvalues not converged
     c_bands:  1 eigenvalues not converged
     ethr =  2.44E-05,  avg # of iterations =  4.7

     total cpu time spent up to now is       24.6 secs

     total energy              =    -202.90117954 Ry
     Harris-Foulkes estimate   =    -202.90313008 Ry
     estimated scf accuracy    <       0.00395881 Ry

     iteration #  9     ecut=    40.00 Ry     beta=0.70
     CG style diagonalization
     ethr =  1.47E-05,  avg # of iterations =  3.5

     total cpu time spent up to now is       25.8 secs

     End of self-consistent calculation

     Number of k-points >= 100: set verbosity='high' to print the bands.

     the Fermi energy is    32.0779 ev

!    total energy              =    -202.90204843 Ry
     Harris-Foulkes estimate   =    -202.90207642 Ry
     estimated scf accuracy    <       0.00003589 Ry

     The total energy is the sum of the following terms:

     one-electron contribution =      39.16438657 Ry
     hartree contribution      =       9.92810053 Ry
     xc contribution           =     -25.95053408 Ry
     ewald contribution        =    -225.94078740 Ry
     smearing contrib. (-TS)   =      -0.10321405 Ry

     convergence has been achieved in   9 iterations

     Forces acting on atoms (Ry/au):

     atom    1 type  1   force =     0.00000000    0.00000000    0.00000000
     atom    2 type  2   force =     0.00000000    0.00000000    0.00000000

     Total force =     0.000000     Total SCF correction =     0.000000


     entering subroutine stress ...

          total   stress  (Ry/bohr**3)                   (kbar)     P= 1557.20
   0.01061436   0.00000000   0.00000000       1561.43      0.00      0.00
   0.00000000   0.01061436   0.00000000          0.00   1561.43      0.00
   0.00000000   0.00000000   0.01052827          0.00      0.00   1548.76


     BFGS Geometry Optimization

     number of scf cycles    =   1
     number of bfgs steps    =   0

     enthalpy new            =    -202.9020484303 Ry

     new trust radius        =       0.5000000000 bohr
     new conv_thr            =       0.0001000000 Ry

     new unit-cell volume =    328.95600 a.u.^3 (    48.74625 Ang^3 )

CELL_PARAMETERS (alat=  5.41249258)
   1.175585808   0.000000000   0.000000000
   0.000000000   1.175585808   0.000000000
   0.000000000   0.000000000   1.501195320

ATOMIC_POSITIONS (crystal)
Cu       0.500000000   0.500000000   0.500000000
Au       0.000000000   0.000000000   0.000000000



     Writing output data file Prototype-La-tP2-AuCu.save
     Check: negative starting charge=   -0.000124
     NEW-OLD atomic charge density approx. for the potential
     NEW k-points: (use verbosity='high' to print them)
     Check: negative starting charge=   -0.003327

     negative rho (up, down):  0.325E-02 0.000E+00
     extrapolated charge   31.98500, renormalised to   27.00000

     total cpu time spent up to now is       26.5 secs

     Self-consistent Calculation

     iteration #  1     ecut=    40.00 Ry     beta=0.70
     CG style diagonalization
     c_bands:  4 eigenvalues not converged
     c_bands:  4 eigenvalues not converged
     c_bands:  4 eigenvalues not converged
     c_bands:  1 eigenvalues not converged
     c_bands:  2 eigenvalues not converged
     c_bands:  5 eigenvalues not converged
     c_bands:  5 eigenvalues not converged
     c_bands:  5 eigenvalues not converged
     c_bands:  5 eigenvalues not converged
     c_bands:  1 eigenvalues not converged
     c_bands:  1 eigenvalues not converged
     c_bands:  3 eigenvalues not converged
     c_bands:  3 eigenvalues not converged
     c_bands:  1 eigenvalues not converged
     c_bands:  4 eigenvalues not converged
     c_bands:  4 eigenvalues not converged
     c_bands:  5 eigenvalues not converged
     c_bands:  5 eigenvalues not converged
     c_bands:  1 eigenvalues not converged
     c_bands:  4 eigenvalues not converged
     c_bands:  1 eigenvalues not converged
     c_bands:  1 eigenvalues not converged
     c_bands:  1 eigenvalues not converged
     c_bands:  1 eigenvalues not converged
     c_bands:  1 eigenvalues not converged
     c_bands:  4 eigenvalues not converged
     c_bands:  5 eigenvalues not converged
     c_bands:  4 eigenvalues not converged
     c_bands:  1 eigenvalues not converged
     c_bands:  2 eigenvalues not converged
     c_bands:  1 eigenvalues not converged
     c_bands:  1 eigenvalues not converged
     c_bands:  1 eigenvalues not converged
     c_bands:  1 eigenvalues not converged
     c_bands:  1 eigenvalues not converged
     c_bands:  1 eigenvalues not converged
     c_bands:  1 eigenvalues not converged
     c_bands:  5 eigenvalues not converged
     c_bands:  1 eigenvalues not converged
     c_bands:  1 eigenvalues not converged
     c_bands:  3 eigenvalues not converged
     c_bands:  4 eigenvalues not converged
     c_bands:  2 eigenvalues not converged
     c_bands:  2 eigenvalues not converged
     c_bands:  4 eigenvalues not converged
     c_bands:  5 eigenvalues not converged
     c_bands:  1 eigenvalues not converged
     c_bands:  1 eigenvalues not converged
     c_bands:  1 eigenvalues not converged
     c_bands:  5 eigenvalues not converged
     c_bands:  1 eigenvalues not converged
     c_bands:  1 eigenvalues not converged
     c_bands:  1 eigenvalues not converged
     c_bands:  5 eigenvalues not converged
     c_bands:  1 eigenvalues not converged
     c_bands:  3 eigenvalues not converged
     c_bands:  2 eigenvalues not converged
     c_bands:  4 eigenvalues not converged
     c_bands:  2 eigenvalues not converged
     c_bands:  2 eigenvalues not converged
     c_bands:  3 eigenvalues not converged
     ethr =  1.00E-06,  avg # of iterations = 21.0

     negative rho (up, down):  0.821E-03 0.000E+00

     total cpu time spent up to now is       33.9 secs

     total energy              =    -181.68580360 Ry
     Harris-Foulkes estimate   =    -216.70203522 Ry
     estimated scf accuracy    <      40.43177862 Ry

     iteration #  2     ecut=    40.00 Ry     beta=0.70
     CG style diagonalization
     ethr =  1.00E-02,  avg # of iterations =  9.0

     negative rho (up, down):  0.557E-03 0.000E+00

     total cpu time spent up to now is       37.3 secs

     total energy              =    -190.48866849 Ry
     Harris-Foulkes estimate   =    -223.75298460 Ry
     estimated scf accuracy    <      69.48812691 Ry

     iteration #  3     ecut=    40.00 Ry     beta=0.70
     CG style diagonalization
     ethr =  1.00E-02,  avg # of iterations =  7.0

     negative rho (up, down):  0.288E-03 0.000E+00

     total cpu time spent up to now is       39.8 secs

     total energy              =    -202.96941357 Ry
     Harris-Foulkes estimate   =    -203.10347331 Ry
     estimated scf accuracy    <       0.27533185 Ry

     iteration #  4     ecut=    40.00 Ry     beta=0.70
     CG style diagonalization
     c_bands:  1 eigenvalues not converged
     ethr =  1.02E-03,  avg # of iterations =  4.5

     negative rho (up, down):  0.103E-03 0.000E+00

     total cpu time spent up to now is       41.4 secs

     total energy              =    -203.07488788 Ry
     Harris-Foulkes estimate   =    -203.08350889 Ry
     estimated scf accuracy    <       0.02160925 Ry

     iteration #  5     ecut=    40.00 Ry     beta=0.70
     CG style diagonalization
     c_bands:  1 eigenvalues not converged
     ethr =  8.00E-05,  avg # of iterations =  4.5

     total cpu time spent up to now is       43.3 secs

     total energy              =    -203.08255552 Ry
     Harris-Foulkes estimate   =    -203.08372812 Ry
     estimated scf accuracy    <       0.00325691 Ry

     iteration #  6     ecut=    40.00 Ry     beta=0.70
     CG style diagonalization
     c_bands:  1 eigenvalues not converged
     c_bands:  1 eigenvalues not converged
     c_bands:  1 eigenvalues not converged
     ethr =  1.21E-05,  avg # of iterations =  4.0

     total cpu time spent up to now is       44.7 secs

     total energy              =    -203.08343938 Ry
     Harris-Foulkes estimate   =    -203.08360373 Ry
     estimated scf accuracy    <       0.00027376 Ry

     iteration #  7     ecut=    40.00 Ry     beta=0.70
     CG style diagonalization
     c_bands:  1 eigenvalues not converged
     ethr =  1.01E-06,  avg # of iterations =  4.4

     total cpu time spent up to now is       46.3 secs

     End of self-consistent calculation

     Number of k-points >= 100: set verbosity='high' to print the bands.

     the Fermi energy is    18.5939 ev

!    total energy              =    -203.08350361 Ry
     Harris-Foulkes estimate   =    -203.08357168 Ry
     estimated scf accuracy    <       0.00007698 Ry

     The total energy is the sum of the following terms:

     one-electron contribution =      -4.97334522 Ry
     hartree contribution      =      18.68145131 Ry
     xc contribution           =     -24.34971828 Ry
     ewald contribution        =    -192.27180191 Ry
     smearing contrib. (-TS)   =      -0.17008951 Ry

     convergence has been achieved in   7 iterations

     Forces acting on atoms (Ry/au):

     atom    1 type  1   force =     0.00000000    0.00000000    0.00000000
     atom    2 type  2   force =     0.00000000    0.00000000    0.00000000

     Total force =     0.000000     Total SCF correction =     0.000000


     entering subroutine stress ...

          total   stress  (Ry/bohr**3)                   (kbar)     P= -543.51
  -0.00358155   0.00000000   0.00000000       -526.86      0.00      0.00
   0.00000000  -0.00358155   0.00000000          0.00   -526.86      0.00
   0.00000000   0.00000000  -0.00392092          0.00      0.00   -576.79


     number of scf cycles    =   2
     number of bfgs steps    =   1

     enthalpy old            =    -202.9020484303 Ry
     enthalpy new            =    -203.0835036097 Ry

     CASE: enthalpy_new < enthalpy_old

     small trust_radius: resetting bfgs history

     new trust radius        =       0.3555718896 bohr
     new conv_thr            =       0.0000010000 Ry

     new unit-cell volume =    245.95526 a.u.^3 (    36.44681 Ang^3 )

CELL_PARAMETERS (alat=  5.41249258)
   1.070325273   0.000000000   0.000000000
   0.000000000   1.070325273   0.000000000
   0.000000000   0.000000000   1.354043471

ATOMIC_POSITIONS (crystal)
Cu       0.500000000   0.500000000   0.500000000
Au       0.000000000   0.000000000   0.000000000



     Writing output data file Prototype-La-tP2-AuCu.save
     Check: negative starting charge=   -0.003327
     NEW-OLD atomic charge density approx. for the potential
     NEW k-points: (use verbosity='high' to print them)
     Check: negative starting charge=   -0.000999

     negative rho (up, down):  0.438E+00 0.000E+00
     extrapolated charge   22.61618, renormalised to   27.00000

     total cpu time spent up to now is       46.9 secs

     Self-consistent Calculation

     iteration #  1     ecut=    40.00 Ry     beta=0.70
     CG style diagonalization
     c_bands:  2 eigenvalues not converged
     c_bands:  5 eigenvalues not converged
     c_bands:  3 eigenvalues not converged
     c_bands:  2 eigenvalues not converged
     c_bands:  5 eigenvalues not converged
     c_bands:  1 eigenvalues not converged
     c_bands:  4 eigenvalues not converged
     c_bands:  5 eigenvalues not converged
     c_bands:  5 eigenvalues not converged
     c_bands:  5 eigenvalues not converged
     c_bands:  1 eigenvalues not converged
     c_bands:  1 eigenvalues not converged
     c_bands:  1 eigenvalues not converged
     c_bands:  1 eigenvalues not converged
     c_bands:  5 eigenvalues not converged
     c_bands:  2 eigenvalues not converged
     c_bands:  3 eigenvalues not converged
     c_bands:  4 eigenvalues not converged
     c_bands:  4 eigenvalues not converged
     c_bands:  1 eigenvalues not converged
     c_bands:  2 eigenvalues not converged
     c_bands:  2 eigenvalues not converged
     c_bands:  1 eigenvalues not converged
     c_bands:  1 eigenvalues not converged
     c_bands:  5 eigenvalues not converged
     c_bands:  1 eigenvalues not converged
     c_bands:  1 eigenvalues not converged
     c_bands:  5 eigenvalues not converged
     c_bands:  2 eigenvalues not converged
     c_bands:  1 eigenvalues not converged
     c_bands:  4 eigenvalues not converged
     c_bands:  5 eigenvalues not converged
     c_bands:  1 eigenvalues not converged
     c_bands:  1 eigenvalues not converged
     c_bands:  1 eigenvalues not converged
     c_bands:  2 eigenvalues not converged
     c_bands:  2 eigenvalues not converged
     c_bands:  3 eigenvalues not converged
     c_bands:  2 eigenvalues not converged
     c_bands:  2 eigenvalues not converged
     c_bands:  2 eigenvalues not converged
     c_bands:  2 eigenvalues not converged
     c_bands:  1 eigenvalues not converged
     c_bands:  1 eigenvalues not converged
     c_bands:  1 eigenvalues not converged
     c_bands:  3 eigenvalues not converged
     c_bands:  1 eigenvalues not converged
     c_bands:  2 eigenvalues not converged
     c_bands:  1 eigenvalues not converged
     c_bands:  1 eigenvalues not converged
     c_bands:  1 eigenvalues not converged
     c_bands:  1 eigenvalues not converged
     c_bands:  5 eigenvalues not converged
     c_bands:  2 eigenvalues not converged
     c_bands:  1 eigenvalues not converged
     c_bands:  1 eigenvalues not converged
     c_bands:  1 eigenvalues not converged
     c_bands:  1 eigenvalues not converged
     c_bands:  4 eigenvalues not converged
     c_bands:  5 eigenvalues not converged
     ethr =  1.00E-06,  avg # of iterations = 21.4

     negative rho (up, down):  0.228E-01 0.000E+00

     total cpu time spent up to now is       54.5 secs

     total energy              =    -185.19066861 Ry
     Harris-Foulkes estimate   =    -217.22096159 Ry
     estimated scf accuracy    <      41.43894887 Ry

     iteration #  2     ecut=    40.00 Ry     beta=0.70
     CG style diagonalization
     c_bands:  1 eigenvalues not converged
     c_bands:  1 eigenvalues not converged
     c_bands:  1 eigenvalues not converged
     c_bands:  1 eigenvalues not converged
     c_bands:  1 eigenvalues not converged
     ethr =  1.00E-02,  avg # of iterations =  8.5

     negative rho (up, down):  0.104E-01 0.000E+00

     total cpu time spent up to now is       58.3 secs

     total energy              =    -194.83117025 Ry
     Harris-Foulkes estimate   =    -216.42488664 Ry
     estimated scf accuracy    <      40.09756116 Ry

     iteration #  3     ecut=    40.00 Ry     beta=0.70
     CG style diagonalization
     ethr =  1.00E-02,  avg # of iterations =  5.7

     negative rho (up, down):  0.337E-02 0.000E+00

     total cpu time spent up to now is       60.4 secs

     total energy              =    -203.09215081 Ry
     Harris-Foulkes estimate   =    -203.42434641 Ry
     estimated scf accuracy    <       0.85971366 Ry

     iteration #  4     ecut=    40.00 Ry     beta=0.70
     CG style diagonalization
     ethr =  3.18E-03,  avg # of iterations =  3.5

     negative rho (up, down):  0.314E-04 0.000E+00

     total cpu time spent up to now is       61.6 secs

     total energy              =    -203.08617862 Ry
     Harris-Foulkes estimate   =    -203.21409659 Ry
     estimated scf accuracy    <       0.18878757 Ry

     iteration #  5     ecut=    40.00 Ry     beta=0.70
     CG style diagonalization
     ethr =  6.99E-04,  avg # of iterations =  4.5

     total cpu time spent up to now is       63.2 secs

     total energy              =    -203.16228977 Ry
     Harris-Foulkes estimate   =    -203.19842569 Ry
     estimated scf accuracy    <       0.08485033 Ry

     iteration #  6     ecut=    40.00 Ry     beta=0.70
     CG style diagonalization
     ethr =  3.14E-04,  avg # of iterations =  3.2

     total cpu time spent up to now is       64.3 secs

     total energy              =    -203.16590925 Ry
     Harris-Foulkes estimate   =    -203.17102706 Ry
     estimated scf accuracy    <       0.00934527 Ry

     iteration #  7     ecut=    40.00 Ry     beta=0.70
     CG style diagonalization
     c_bands:  1 eigenvalues not converged
     c_bands:  1 eigenvalues not converged
     ethr =  3.46E-05,  avg # of iterations =  4.4

     total cpu time spent up to now is       65.9 secs

     total energy              =    -203.16958945 Ry
     Harris-Foulkes estimate   =    -203.17038024 Ry
     estimated scf accuracy    <       0.00143614 Ry

     iteration #  8     ecut=    40.00 Ry     beta=0.70
     CG style diagonalization
     c_bands:  1 eigenvalues not converged
     c_bands:  1 eigenvalues not converged
     c_bands:  1 eigenvalues not converged
     ethr =  5.32E-06,  avg # of iterations =  3.9

     total cpu time spent up to now is       67.3 secs

     total energy              =    -203.17002628 Ry
     Harris-Foulkes estimate   =    -203.17019385 Ry
     estimated scf accuracy    <       0.00038752 Ry

     iteration #  9     ecut=    40.00 Ry     beta=0.70
     CG style diagonalization
     c_bands:  1 eigenvalues not converged
     ethr =  1.44E-06,  avg # of iterations =  3.4

     total cpu time spent up to now is       68.5 secs

     total energy              =    -203.17011598 Ry
     Harris-Foulkes estimate   =    -203.17011741 Ry
     estimated scf accuracy    <       0.00000635 Ry

     iteration # 10     ecut=    40.00 Ry     beta=0.70
     CG style diagonalization
     ethr =  2.35E-08,  avg # of iterations =  4.6

     total cpu time spent up to now is       70.1 secs

     total energy              =    -203.17012080 Ry
     Harris-Foulkes estimate   =    -203.17012236 Ry
     estimated scf accuracy    <       0.00000503 Ry

     iteration # 11     ecut=    40.00 Ry     beta=0.70
     CG style diagonalization
     ethr =  1.86E-08,  avg # of iterations =  3.0

     total cpu time spent up to now is       71.2 secs

     End of self-consistent calculation

     Number of k-points >= 100: set verbosity='high' to print the bands.

     the Fermi energy is    25.9756 ev

!    total energy              =    -203.17012101 Ry
     Harris-Foulkes estimate   =    -203.17012132 Ry
     estimated scf accuracy    <       0.00000034 Ry

     The total energy is the sum of the following terms:

     one-electron contribution =      20.87056999 Ry
     hartree contribution      =      13.15014084 Ry
     xc contribution           =     -25.22528719 Ry
     ewald contribution        =    -211.84000233 Ry
     smearing contrib. (-TS)   =      -0.12554232 Ry

     convergence has been achieved in  11 iterations

     Forces acting on atoms (Ry/au):

     atom    1 type  1   force =     0.00000000    0.00000000    0.00000000
     atom    2 type  2   force =     0.00000000    0.00000000    0.00000000

     Total force =     0.000000     Total SCF correction =     0.000000


     entering subroutine stress ...

          total   stress  (Ry/bohr**3)                   (kbar)     P=  404.72
   0.00292978   0.00000000   0.00000000        430.99      0.00      0.00
   0.00000000   0.00292978   0.00000000          0.00    430.99      0.00
   0.00000000   0.00000000   0.00239410          0.00      0.00    352.18


     number of scf cycles    =   3
     number of bfgs steps    =   2

     enthalpy old            =    -203.0835036097 Ry
     enthalpy new            =    -203.1701210140 Ry

     CASE: enthalpy_new < enthalpy_old

     Message from routine bfgs:
     history already reset at previous step: stopping
     small trust_radius: resetting bfgs history

     new trust radius        =       0.2297379852 bohr
     new conv_thr            =       0.0000010000 Ry

     new unit-cell volume =    300.26096 a.u.^3 (    44.49408 Ang^3 )

CELL_PARAMETERS (alat=  5.41249258)
   1.148720666   0.000000000   0.000000000
   0.000000000   1.148720666   0.000000000
   0.000000000   0.000000000   1.435086433

ATOMIC_POSITIONS (crystal)
Cu       0.500000000   0.500000000   0.500000000
Au       0.000000000   0.000000000   0.000000000



     Writing output data file Prototype-La-tP2-AuCu.save
     Check: negative starting charge=   -0.000999
     NEW-OLD atomic charge density approx. for the potential
     NEW k-points: (use verbosity='high' to print them)
     Check: negative starting charge=   -0.002469

     negative rho (up, down):  0.165E-02 0.000E+00
     extrapolated charge   29.34949, renormalised to   27.00000

     total cpu time spent up to now is       72.0 secs

     Self-consistent Calculation

     iteration #  1     ecut=    40.00 Ry     beta=0.70
     CG style diagonalization
     c_bands:  2 eigenvalues not converged
     c_bands:  2 eigenvalues not converged
     c_bands:  3 eigenvalues not converged
     c_bands:  2 eigenvalues not converged
     c_bands:  1 eigenvalues not converged
     c_bands:  2 eigenvalues not converged
     c_bands:  1 eigenvalues not converged
     c_bands:  3 eigenvalues not converged
     c_bands:  1 eigenvalues not converged
     c_bands:  1 eigenvalues not converged
     c_bands:  4 eigenvalues not converged
     c_bands:  4 eigenvalues not converged
     c_bands:  3 eigenvalues not converged
     c_bands:  3 eigenvalues not converged
     c_bands:  3 eigenvalues not converged
     c_bands:  4 eigenvalues not converged
     c_bands:  3 eigenvalues not converged
     c_bands:  2 eigenvalues not converged
     c_bands:  5 eigenvalues not converged
     c_bands:  2 eigenvalues not converged
     c_bands:  4 eigenvalues not converged
     c_bands:  1 eigenvalues not converged
     c_bands:  3 eigenvalues not converged
     c_bands:  5 eigenvalues not converged
     c_bands:  4 eigenvalues not converged
     c_bands:  4 eigenvalues not converged
     c_bands:  1 eigenvalues not converged
     c_bands:  2 eigenvalues not converged
     c_bands:  5 eigenvalues not converged
     c_bands:  5 eigenvalues not converged
     c_bands:  1 eigenvalues not converged
     c_bands:  2 eigenvalues not converged
     c_bands:  2 eigenvalues not converged
     c_bands:  3 eigenvalues not converged
     c_bands:  2 eigenvalues not converged
     c_bands:  1 eigenvalues not converged
     c_bands:  3 eigenvalues not converged
     c_bands:  2 eigenvalues not converged
     c_bands:  1 eigenvalues not converged
     c_bands:  4 eigenvalues not converged
     c_bands:  3 eigenvalues not converged
     c_bands:  2 eigenvalues not converged
     c_bands:  5 eigenvalues not converged
     c_bands:  4 eigenvalues not converged
     c_bands:  5 eigenvalues not converged
     c_bands:  5 eigenvalues not converged
     c_bands:  3 eigenvalues not converged
     c_bands:  1 eigenvalues not converged
     c_bands:  3 eigenvalues not converged
     c_bands:  5 eigenvalues not converged
     c_bands:  5 eigenvalues not converged
     c_bands:  1 eigenvalues not converged
     c_bands:  1 eigenvalues not converged
     c_bands:  1 eigenvalues not converged
     c_bands:  2 eigenvalues not converged
     c_bands:  4 eigenvalues not converged
     c_bands:  2 eigenvalues not converged
     c_bands:  3 eigenvalues not converged
     c_bands:  1 eigenvalues not converged
     c_bands:  4 eigenvalues not converged
     c_bands:  1 eigenvalues not converged
     c_bands:  5 eigenvalues not converged
     c_bands:  3 eigenvalues not converged
     c_bands:  3 eigenvalues not converged
     c_bands:  2 eigenvalues not converged
     c_bands:  1 eigenvalues not converged
     c_bands:  5 eigenvalues not converged
     c_bands:  4 eigenvalues not converged
     c_bands:  4 eigenvalues not converged
     c_bands:  3 eigenvalues not converged
     c_bands:  4 eigenvalues not converged
     c_bands:  3 eigenvalues not converged
     c_bands:  2 eigenvalues not converged
     c_bands:  4 eigenvalues not converged
     c_bands:  1 eigenvalues not converged
     c_bands:  1 eigenvalues not converged
     c_bands:  1 eigenvalues not converged
     ethr =  1.00E-06,  avg # of iterations = 14.2

     negative rho (up, down):  0.453E-03 0.000E+00

     total cpu time spent up to now is       77.1 secs

     total energy              =    -195.93386634 Ry
     Harris-Foulkes estimate   =    -206.84897854 Ry
     estimated scf accuracy    <      13.10042823 Ry

     iteration #  2     ecut=    40.00 Ry     beta=0.70
     CG style diagonalization
     ethr =  1.00E-02,  avg # of iterations =  5.8

     negative rho (up, down):  0.316E-03 0.000E+00

     total cpu time spent up to now is       79.2 secs

     total energy              =    -200.08454396 Ry
     Harris-Foulkes estimate   =    -211.91763000 Ry
     estimated scf accuracy    <      25.72958976 Ry

     iteration #  3     ecut=    40.00 Ry     beta=0.70
     CG style diagonalization
     ethr =  1.00E-02,  avg # of iterations =  4.8

     negative rho (up, down):  0.203E-03 0.000E+00

     total cpu time spent up to now is       82.3 secs

     total energy              =    -203.03077042 Ry
     Harris-Foulkes estimate   =    -203.24905805 Ry
     estimated scf accuracy    <       0.65110676 Ry

     iteration #  4     ecut=    40.00 Ry     beta=0.70
     CG style diagonalization
     ethr =  2.41E-03,  avg # of iterations =  3.7

     negative rho (up, down):  0.775E-04 0.000E+00

     total cpu time spent up to now is       84.4 secs

     total energy              =    -203.15495745 Ry
     Harris-Foulkes estimate   =    -203.17331037 Ry
     estimated scf accuracy    <       0.05388649 Ry

     iteration #  5     ecut=    40.00 Ry     beta=0.70
     CG style diagonalization
     ethr =  2.00E-04,  avg # of iterations =  4.3

     negative rho (up, down):  0.442E-05 0.000E+00

     total cpu time spent up to now is       85.9 secs

     total energy              =    -203.16739680 Ry
     Harris-Foulkes estimate   =    -203.17350095 Ry
     estimated scf accuracy    <       0.01848074 Ry

     iteration #  6     ecut=    40.00 Ry     beta=0.70
     CG style diagonalization
     ethr =  6.84E-05,  avg # of iterations =  3.5

     total cpu time spent up to now is       87.1 secs

     total energy              =    -203.17110359 Ry
     Harris-Foulkes estimate   =    -203.17118217 Ry
     estimated scf accuracy    <       0.00044154 Ry

     iteration #  7     ecut=    40.00 Ry     beta=0.70
     CG style diagonalization
     c_bands:  1 eigenvalues not converged
     c_bands:  1 eigenvalues not converged
     c_bands:  2 eigenvalues not converged
     c_bands:  1 eigenvalues not converged
     c_bands:  1 eigenvalues not converged
     c_bands:  1 eigenvalues not converged
     ethr =  1.64E-06,  avg # of iterations =  5.1

     total cpu time spent up to now is       88.9 secs

     total energy              =    -203.17097930 Ry
     Harris-Foulkes estimate   =    -203.17156371 Ry
     estimated scf accuracy    <       0.00148989 Ry

     iteration #  8     ecut=    40.00 Ry     beta=0.70
     CG style diagonalization
     ethr =  1.64E-06,  avg # of iterations =  3.8

     total cpu time spent up to now is       91.3 secs

     total energy              =    -203.17121877 Ry
     Harris-Foulkes estimate   =    -203.17122174 Ry
     estimated scf accuracy    <       0.00000714 Ry

     iteration #  9     ecut=    40.00 Ry     beta=0.70
     CG style diagonalization
     ethr =  2.64E-08,  avg # of iterations =  4.6

     total cpu time spent up to now is       93.0 secs

     total energy              =    -203.17122210 Ry
     Harris-Foulkes estimate   =    -203.17122555 Ry
     estimated scf accuracy    <       0.00000984 Ry

     iteration # 10     ecut=    40.00 Ry     beta=0.70
     CG style diagonalization
     ethr =  2.64E-08,  avg # of iterations =  3.3

     total cpu time spent up to now is       94.1 secs

     End of self-consistent calculation

     Number of k-points >= 100: set verbosity='high' to print the bands.

     the Fermi energy is    20.7081 ev

!    total energy              =    -203.17122373 Ry
     Harris-Foulkes estimate   =    -203.17122376 Ry
     estimated scf accuracy    <       0.00000004 Ry

     The total energy is the sum of the following terms:

     one-electron contribution =       2.93388032 Ry
     hartree contribution      =      16.85407595 Ry
     xc contribution           =     -24.59811972 Ry
     ewald contribution        =    -198.21005672 Ry
     smearing contrib. (-TS)   =      -0.15100356 Ry

     convergence has been achieved in  10 iterations

     Forces acting on atoms (Ry/au):

     atom    1 type  1   force =     0.00000000    0.00000000    0.00000000
     atom    2 type  2   force =     0.00000000    0.00000000    0.00000000

     Total force =     0.000000     Total SCF correction =     0.000000


     entering subroutine stress ...

          total   stress  (Ry/bohr**3)                   (kbar)     P= -322.81
  -0.00208764   0.00000000   0.00000000       -307.10      0.00      0.00
   0.00000000  -0.00208764   0.00000000          0.00   -307.10      0.00
   0.00000000   0.00000000  -0.00240799          0.00      0.00   -354.23


     The maximum number of steps has been reached.

     End of BFGS Geometry Optimization
Begin final coordinates
     new unit-cell volume =    300.26096 a.u.^3 (    44.49408 Ang^3 )

CELL_PARAMETERS (alat=  5.41249258)
   1.148720666   0.000000000   0.000000000
   0.000000000   1.148720666   0.000000000
   0.000000000   0.000000000   1.435086433

ATOMIC_POSITIONS (crystal)
Cu       0.500000000   0.500000000   0.500000000
Au       0.000000000   0.000000000   0.000000000
End final coordinates



     A final scf calculation at the relaxed structure.
     The G-vectors are recalculated for the final unit cell
     Results may differ from those at the preceding step.
 
     Parallelization info
     --------------------
     sticks:   dense  smooth     PW     G-vecs:    dense   smooth      PW
     Min         122     122     37                 2562     2562     446
     Max         123     123     38                 2567     2567     449
     Sum         489     489    149                10255    10255    1789
 


     bravais-lattice index     =            0
     lattice parameter (alat)  =       5.4125  a.u.
     unit-cell volume          =     300.2610 (a.u.)^3
     number of atoms/cell      =            2
     number of atomic types    =            2
     number of electrons       =        27.00
     number of Kohn-Sham states=           18
     kinetic-energy cutoff     =      40.0000  Ry
     charge density cutoff     =     160.0000  Ry
     convergence threshold     =      1.0E-06
     mixing beta               =       0.7000
     number of iterations used =            8  plain     mixing
     Exchange-correlation      = SLA-PZ-NOGX-NOGC ( 1 1 0 0 0)
     EXX-fraction              =        0.00

     celldm(1)=   5.412493  celldm(2)=   0.000000  celldm(3)=   0.000000
     celldm(4)=   0.000000  celldm(5)=   0.000000  celldm(6)=   0.000000

     crystal axes: (cart. coord. in units of alat)
               a(1) = (   1.148721   0.000000   0.000000 )  
               a(2) = (   0.000000   1.148721   0.000000 )  
               a(3) = (   0.000000   0.000000   1.435086 )  

     reciprocal axes: (cart. coord. in units 2 pi/alat)
               b(1) = (  0.870534  0.000000  0.000000 )  
               b(2) = (  0.000000  0.870534  0.000000 )  
               b(3) = (  0.000000  0.000000  0.696822 )  


     PseudoPot. # 1 for Nd read from file:
     /home/cwx6513/pp.La/Nd.UPF
     MD5 check sum: c66c5b6abe7b5840ced9b1e244e3bed6
     Pseudo is Norm-conserving, Zval = 14.0
     Generated in analytical, separable form
     Using radial grid of 1257 points,  6 beta functions with: 
                l(1) =   0
                l(2) =   0
                l(3) =   1
                l(4) =   1
                l(5) =   2
                l(6) =   3

     PseudoPot. # 2 for Pr read from file:
     /home/cwx6513/pp.La/Pr.UPF
     MD5 check sum: 70e2b4b153859e92c8c91247dfc63203
     Pseudo is Norm-conserving, Zval = 13.0
     Generated in analytical, separable form
     Using radial grid of 1255 points,  6 beta functions with: 
                l(1) =   0
                l(2) =   0
                l(3) =   1
                l(4) =   1
                l(5) =   2
                l(6) =   3

     atomic species   valence    mass     pseudopotential
        Cu            14.00    63.54600     Nd( 1.00)
        Au            13.00   196.96600     Pr( 1.00)

     16 Sym. Ops., with inversion, found



   Cartesian axes

     site n.     atom                  positions (alat units)
         1           Cu  tau(   1) = (   0.5743603   0.5743603   0.7175432  )
         2           Au  tau(   2) = (   0.0000000   0.0000000   0.0000000  )

     number of k points=   100  gaussian smearing, width (Ry)=  0.1000

     Number of k-points >= 100: set verbosity='high' to print them.

     Dense  grid:    10255 G-vectors     FFT dimensions: (  25,  25,  32)

     Largest allocated arrays     est. size (Mb)     dimensions
        Kohn-Sham Wavefunctions         0.09 Mb     (    332,   18)
        NL pseudopotentials             0.20 Mb     (    332,   40)
        Each V/rho on FFT grid          0.08 Mb     (   5000)
        Each G-vector array             0.02 Mb     (   2564)
        G-vector shells                 0.00 Mb     (    654)
     Largest temporary arrays     est. size (Mb)     dimensions
        Each subspace H/S matrix        0.00 Mb     (  18,  18)
        Each <psi_i|beta_j> matrix      0.01 Mb     (     40,   18)
        Arrays for rho mixing           0.61 Mb     (   5000,   8)

     Initial potential from superposition of free atoms
     Check: negative starting charge=   -0.000160

     starting charge   12.99054, renormalised to   27.00000

     negative rho (up, down):  0.333E-03 0.000E+00
     Starting wfc are   20 randomized atomic wfcs

     Writing output data file Prototype-La-tP2-AuCu.save

     total cpu time spent up to now is       95.6 secs

     Self-consistent Calculation

     iteration #  1     ecut=    40.00 Ry     beta=0.70
     CG style diagonalization
     c_bands:  4 eigenvalues not converged
     c_bands:  5 eigenvalues not converged
     c_bands:  1 eigenvalues not converged
     c_bands:  5 eigenvalues not converged
     c_bands:  1 eigenvalues not converged
     c_bands:  1 eigenvalues not converged
     c_bands:  1 eigenvalues not converged
     c_bands:  5 eigenvalues not converged
     c_bands:  5 eigenvalues not converged
     c_bands:  2 eigenvalues not converged
     c_bands:  1 eigenvalues not converged
     c_bands:  1 eigenvalues not converged
     c_bands:  2 eigenvalues not converged
     c_bands:  3 eigenvalues not converged
     c_bands:  1 eigenvalues not converged
     c_bands:  5 eigenvalues not converged
     c_bands:  1 eigenvalues not converged
     c_bands:  1 eigenvalues not converged
     ethr =  1.00E-06,  avg # of iterations = 44.7

     negative rho (up, down):  0.994E-04 0.000E+00

     total cpu time spent up to now is      116.3 secs

     total energy              =     -64.15991109 Ry
     Harris-Foulkes estimate   =    -399.18985454 Ry
     estimated scf accuracy    <     404.61584399 Ry

     iteration #  2     ecut=    40.00 Ry     beta=0.70
     CG style diagonalization
     c_bands:  1 eigenvalues not converged
     c_bands:  1 eigenvalues not converged
     c_bands:  1 eigenvalues not converged
     c_bands:  1 eigenvalues not converged
     c_bands:  1 eigenvalues not converged
     c_bands:  1 eigenvalues not converged
     c_bands:  1 eigenvalues not converged
     c_bands:  1 eigenvalues not converged
     c_bands:  1 eigenvalues not converged
     c_bands:  1 eigenvalues not converged
     c_bands:  1 eigenvalues not converged
     c_bands:  1 eigenvalues not converged
     c_bands:  1 eigenvalues not converged
     c_bands:  1 eigenvalues not converged
     c_bands:  1 eigenvalues not converged
     c_bands:  1 eigenvalues not converged
     c_bands:  1 eigenvalues not converged
     c_bands:  1 eigenvalues not converged
     c_bands:  2 eigenvalues not converged
     c_bands:  1 eigenvalues not converged
     c_bands:  1 eigenvalues not converged
     c_bands:  2 eigenvalues not converged
     c_bands:  1 eigenvalues not converged
     c_bands:  2 eigenvalues not converged
     c_bands:  1 eigenvalues not converged
     ethr =  1.00E-02,  avg # of iterations = 13.3

     negative rho (up, down):  0.482E-04 0.000E+00

     total cpu time spent up to now is      123.8 secs

     total energy              =    -161.90529935 Ry
     Harris-Foulkes estimate   =    -284.90452579 Ry
     estimated scf accuracy    <     200.92623410 Ry

     iteration #  3     ecut=    40.00 Ry     beta=0.70
     CG style diagonalization
     c_bands:  1 eigenvalues not converged
     ethr =  1.00E-02,  avg # of iterations = 10.9

     negative rho (up, down):  0.415E-04 0.000E+00

     total cpu time spent up to now is      129.1 secs

     total energy              =    -207.86933636 Ry
     Harris-Foulkes estimate   =    -209.85883803 Ry
     estimated scf accuracy    <      15.59416924 Ry

     iteration #  4     ecut=    40.00 Ry     beta=0.70
     CG style diagonalization
     ethr =  1.00E-02,  avg # of iterations =  3.0

     negative rho (up, down):  0.132E-04 0.000E+00

     total cpu time spent up to now is      130.6 secs

     total energy              =    -200.40643557 Ry
     Harris-Foulkes estimate   =    -207.99247325 Ry
     estimated scf accuracy    <      11.60033772 Ry

     iteration #  5     ecut=    40.00 Ry     beta=0.70
     CG style diagonalization
     ethr =  1.00E-02,  avg # of iterations =  5.2

     total cpu time spent up to now is      134.1 secs

     total energy              =    -203.18079354 Ry
     Harris-Foulkes estimate   =    -203.92126766 Ry
     estimated scf accuracy    <       3.13497238 Ry

     iteration #  6     ecut=    40.00 Ry     beta=0.70
     CG style diagonalization
     ethr =  1.00E-02,  avg # of iterations =  3.1

     total cpu time spent up to now is      135.6 secs

     total energy              =    -203.19928159 Ry
     Harris-Foulkes estimate   =    -203.43144388 Ry
     estimated scf accuracy    <       0.61770071 Ry

     iteration #  7     ecut=    40.00 Ry     beta=0.70
     CG style diagonalization
     ethr =  2.29E-03,  avg # of iterations =  4.0

     total cpu time spent up to now is      137.7 secs

     total energy              =    -203.35631906 Ry
     Harris-Foulkes estimate   =    -203.39548324 Ry
     estimated scf accuracy    <       0.11548742 Ry

     iteration #  8     ecut=    40.00 Ry     beta=0.70
     CG style diagonalization
     c_bands:  1 eigenvalues not converged
     ethr =  4.28E-04,  avg # of iterations =  3.6

     total cpu time spent up to now is      139.7 secs

     total energy              =    -203.36309109 Ry
     Harris-Foulkes estimate   =    -203.37198787 Ry
     estimated scf accuracy    <       0.01645920 Ry

     iteration #  9     ecut=    40.00 Ry     beta=0.70
     CG style diagonalization
     c_bands:  1 eigenvalues not converged
     ethr =  6.10E-05,  avg # of iterations =  4.6

     total cpu time spent up to now is      142.1 secs

     total energy              =    -203.36815409 Ry
     Harris-Foulkes estimate   =    -203.37663930 Ry
     estimated scf accuracy    <       0.01957876 Ry

     iteration # 10     ecut=    40.00 Ry     beta=0.70
     CG style diagonalization
     ethr =  6.10E-05,  avg # of iterations =  3.4

     total cpu time spent up to now is      143.9 secs

     total energy              =    -203.37207813 Ry
     Harris-Foulkes estimate   =    -203.37211647 Ry
     estimated scf accuracy    <       0.00049866 Ry

     iteration # 11     ecut=    40.00 Ry     beta=0.70
     CG style diagonalization
     c_bands:  1 eigenvalues not converged
     c_bands:  1 eigenvalues not converged
     c_bands:  1 eigenvalues not converged
     c_bands:  1 eigenvalues not converged
     c_bands:  1 eigenvalues not converged
     c_bands:  1 eigenvalues not converged
     c_bands:  1 eigenvalues not converged
     c_bands:  1 eigenvalues not converged
     c_bands:  1 eigenvalues not converged
     c_bands:  1 eigenvalues not converged
     c_bands:  1 eigenvalues not converged
     ethr =  1.85E-06,  avg # of iterations =  5.0

     total cpu time spent up to now is      147.5 secs

     total energy              =    -203.37208240 Ry
     Harris-Foulkes estimate   =    -203.37231210 Ry
     estimated scf accuracy    <       0.00110582 Ry

     iteration # 12     ecut=    40.00 Ry     beta=0.70
     CG style diagonalization
     c_bands:  1 eigenvalues not converged
     ethr =  1.85E-06,  avg # of iterations =  3.1

     total cpu time spent up to now is      149.2 secs

     total energy              =    -203.37213782 Ry
     Harris-Foulkes estimate   =    -203.37214365 Ry
     estimated scf accuracy    <       0.00020986 Ry

     iteration # 13     ecut=    40.00 Ry     beta=0.70
     CG style diagonalization
     ethr =  7.77E-07,  avg # of iterations =  3.0

     total cpu time spent up to now is      150.9 secs

     total energy              =    -203.37207400 Ry
     Harris-Foulkes estimate   =    -203.37214232 Ry
     estimated scf accuracy    <       0.00017762 Ry

     iteration # 14     ecut=    40.00 Ry     beta=0.70
     CG style diagonalization
     ethr =  6.58E-07,  avg # of iterations =  3.5

     total cpu time spent up to now is      154.0 secs

     total energy              =    -203.37212217 Ry
     Harris-Foulkes estimate   =    -203.37212457 Ry
     estimated scf accuracy    <       0.00001782 Ry

     iteration # 15     ecut=    40.00 Ry     beta=0.70
     CG style diagonalization
     ethr =  6.60E-08,  avg # of iterations =  3.3

     total cpu time spent up to now is      155.7 secs

     total energy              =    -203.37212073 Ry
     Harris-Foulkes estimate   =    -203.37212366 Ry
     estimated scf accuracy    <       0.00001173 Ry

     iteration # 16     ecut=    40.00 Ry     beta=0.70
     CG style diagonalization
     ethr =  4.34E-08,  avg # of iterations =  3.1

     total cpu time spent up to now is      157.4 secs

     total energy              =    -203.37212151 Ry
     Harris-Foulkes estimate   =    -203.37212187 Ry
     estimated scf accuracy    <       0.00000109 Ry

     iteration # 17     ecut=    40.00 Ry     beta=0.70
     CG style diagonalization
     ethr =  4.03E-09,  avg # of iterations =  4.0

     total cpu time spent up to now is      159.5 secs

     End of self-consistent calculation

     Number of k-points >= 100: set verbosity='high' to print the bands.

     the Fermi energy is    20.6779 ev

!    total energy              =    -203.37212192 Ry
     Harris-Foulkes estimate   =    -203.37212196 Ry
     estimated scf accuracy    <       0.00000005 Ry

     The total energy is the sum of the following terms:

     one-electron contribution =       2.63945703 Ry
     hartree contribution      =      16.96932424 Ry
     xc contribution           =     -24.61974289 Ry
     ewald contribution        =    -198.21004955 Ry
     smearing contrib. (-TS)   =      -0.15111075 Ry

     convergence has been achieved in  17 iterations

     Forces acting on atoms (Ry/au):

     atom    1 type  1   force =     0.00000000    0.00000000    0.00000000
     atom    2 type  2   force =     0.00000000    0.00000000    0.00000000

     Total force =     0.000000     Total SCF correction =     0.000000


     entering subroutine stress ...

          total   stress  (Ry/bohr**3)                   (kbar)     P=   25.37
   0.00037000   0.00000000   0.00000000         54.43      0.00      0.00
   0.00000000   0.00037000   0.00000000          0.00     54.43      0.00
   0.00000000   0.00000000  -0.00022260          0.00      0.00    -32.75


     Writing output data file Prototype-La-tP2-AuCu.save
 
     init_run     :      1.30s CPU      1.52s WALL (       2 calls)
     electrons    :    134.45s CPU    154.96s WALL (       5 calls)
     update_pot   :      0.39s CPU      0.40s WALL (       3 calls)
     forces       :      0.51s CPU      0.52s WALL (       5 calls)
     stress       :      1.23s CPU      1.27s WALL (       5 calls)

     Called by init_run:
     wfcinit      :      0.95s CPU      1.05s WALL (       2 calls)
     potinit      :      0.11s CPU      0.12s WALL (       2 calls)

     Called by electrons:
     c_bands      :    127.87s CPU    136.83s WALL (      54 calls)
     sum_band     :      6.43s CPU      6.91s WALL (      54 calls)
     v_of_rho     :      0.03s CPU      0.04s WALL (      59 calls)
     mix_rho      :      0.03s CPU      0.03s WALL (      54 calls)

     Called by c_bands:
     init_us_2    :      1.28s CPU      1.29s WALL (   12000 calls)
     ccgdiagg     :    110.31s CPU    116.94s WALL (    5754 calls)
     wfcrot       :     17.33s CPU     19.14s WALL (    5854 calls)

     Called by *cgdiagg:
     h_psi        :     86.08s CPU     94.16s WALL (  544027 calls)
     cdiaghg      :      0.84s CPU      1.11s WALL (    5854 calls)

     Called by h_psi:
     add_vuspsi   :      4.38s CPU      5.41s WALL (  544027 calls)

     General routines
     calbec       :     17.01s CPU     20.21s WALL ( 1083200 calls)
     fft          :      0.05s CPU      0.07s WALL (     259 calls)
     fftw         :     70.24s CPU     73.55s WALL ( 1385090 calls)
     davcio       :      0.66s CPU      1.29s WALL (   17400 calls)
 
     Parallel routines
     fft_scatter  :     28.75s CPU     30.33s WALL ( 1385349 calls)
 
     PWSCF        :  2m18.66s CPU     2m40.23s WALL

 
   This run was terminated on:  17:37:30  22Mar2018            

=------------------------------------------------------------------------------=
   JOB DONE.
=------------------------------------------------------------------------------=
