
     Program PWSCF v.5.0.2 starts on 22Mar2018 at 17:34:50 

     This program is part of the open-source Quantum ESPRESSO suite
     for quantum simulation of materials; please cite
         "P. Giannozzi et al., J. Phys.:Condens. Matter 21 395502 (2009);
          URL http://www.quantum-espresso.org", 
     in publications or presentations arising from this work. More details at
     http://www.quantum-espresso.org/quote.php

     Parallel version (MPI), running on     4 processors
     R & G space division:  proc/nbgrp/npool/nimage =       4

     Current dimensions of program PWSCF are:
     Max number of different atomic species (ntypx) = 10
     Max number of k-points (npk) =  40000
     Max angular momentum in pseudopotentials (lmaxx) =  3
     Waiting for input...
     Reading input from standard input

     Subspace diagonalization in iterative solution of the eigenvalue problem:
     a serial algorithm will be used

 
     Parallelization info
     --------------------
     sticks:   dense  smooth     PW     G-vecs:    dense   smooth      PW
     Min         207     207     61                 7381     7381    1191
     Max         208     208     62                 7386     7386    1192
     Sum         829     829    247                29529    29529    4767
 


     bravais-lattice index     =            0
     lattice parameter (alat)  =       7.0151  a.u.
     unit-cell volume          =     862.2778 (a.u.)^3
     number of atoms/cell      =           12
     number of atomic types    =            2
     number of electrons       =       164.00
     number of Kohn-Sham states=           98
     kinetic-energy cutoff     =      40.0000  Ry
     charge density cutoff     =     160.0000  Ry
     convergence threshold     =      1.0E-04
     mixing beta               =       0.7000
     number of iterations used =            8  plain     mixing
     Exchange-correlation      = SLA-PZ-NOGX-NOGC ( 1 1 0 0 0)
     EXX-fraction              =        0.00
     nstep                     =           50


     celldm(1)=   7.015105  celldm(2)=   0.000000  celldm(3)=   0.000000
     celldm(4)=   0.000000  celldm(5)=   0.000000  celldm(6)=   0.000000

     crystal axes: (cart. coord. in units of alat)
               a(1) = (   1.000000   0.000000   0.000000 )  
               a(2) = (   0.000000   1.315963   0.000000 )  
               a(3) = (   0.000000   0.000000   1.898020 )  

     reciprocal axes: (cart. coord. in units 2 pi/alat)
               b(1) = (  1.000000  0.000000  0.000000 )  
               b(2) = (  0.000000  0.759900  0.000000 )  
               b(3) = (  0.000000  0.000000  0.526865 )  


     PseudoPot. # 1 for Nd read from file:
     /home/cwx6513/pp.La/Nd.UPF
     MD5 check sum: c66c5b6abe7b5840ced9b1e244e3bed6
     Pseudo is Norm-conserving, Zval = 14.0
     Generated in analytical, separable form
     Using radial grid of 1257 points,  6 beta functions with: 
                l(1) =   0
                l(2) =   0
                l(3) =   1
                l(4) =   1
                l(5) =   2
                l(6) =   3

     PseudoPot. # 2 for Pr read from file:
     /home/cwx6513/pp.La/Pr.UPF
     MD5 check sum: 70e2b4b153859e92c8c91247dfc63203
     Pseudo is Norm-conserving, Zval = 13.0
     Generated in analytical, separable form
     Using radial grid of 1255 points,  6 beta functions with: 
                l(1) =   0
                l(2) =   0
                l(3) =   1
                l(4) =   1
                l(5) =   2
                l(6) =   3

     atomic species   valence    mass     pseudopotential
        Co            14.00    58.93320     Nd( 1.00)
        Si            13.00    28.08550     Pr( 1.00)

      8 Sym. Ops., with inversion, found ( 6 have fractional translation)



   Cartesian axes

     site n.     atom                  positions (alat units)
         1           Co  tau(   1) = (   0.7500000   1.0875135   0.8270358  )
         2           Co  tau(   2) = (   0.2500000   0.2284499   1.0709846  )
         3           Co  tau(   3) = (   0.7500000   0.4295318   0.1219744  )
         4           Co  tau(   4) = (   0.2500000   0.8864316   1.7760460  )
         5           Co  tau(   5) = (   0.2500000   0.7067855   0.5358966  )
         6           Co  tau(   6) = (   0.7500000   0.6091779   1.3621238  )
         7           Co  tau(   7) = (   0.2500000   0.0488038   0.4131136  )
         8           Co  tau(   8) = (   0.7500000   1.2671596   1.4849068  )
         9           Si  tau(   9) = (   0.2500000   0.2669484   1.6960710  )
        10           Si  tau(  10) = (   0.7500000   1.0490149   0.2019494  )
        11           Si  tau(  11) = (   0.2500000   0.9249301   1.1509596  )
        12           Si  tau(  12) = (   0.7500000   0.3910333   0.7470608  )

     number of k points=    12  gaussian smearing, width (Ry)=  0.1000
                       cart. coord. in units 2pi/alat
        k(    1) = (   0.0000000   0.0000000   0.0000000), wk =   0.0833333
        k(    2) = (   0.0000000   0.0000000   0.1317162), wk =   0.1666667
        k(    3) = (   0.0000000   0.0000000  -0.2634324), wk =   0.0833333
        k(    4) = (   0.0000000   0.2532999   0.0000000), wk =   0.1666667
        k(    5) = (   0.0000000   0.2532999   0.1317162), wk =   0.3333333
        k(    6) = (   0.0000000   0.2532999  -0.2634324), wk =   0.1666667
        k(    7) = (  -0.5000000   0.0000000   0.0000000), wk =   0.0833333
        k(    8) = (  -0.5000000   0.0000000   0.1317162), wk =   0.1666667
        k(    9) = (  -0.5000000   0.0000000  -0.2634324), wk =   0.0833333
        k(   10) = (  -0.5000000   0.2532999   0.0000000), wk =   0.1666667
        k(   11) = (  -0.5000000   0.2532999   0.1317162), wk =   0.3333333
        k(   12) = (  -0.5000000   0.2532999  -0.2634324), wk =   0.1666667

     Dense  grid:    29529 G-vectors     FFT dimensions: (  30,  40,  54)

     Largest allocated arrays     est. size (Mb)     dimensions
        Kohn-Sham Wavefunctions         1.38 Mb     (    922,   98)
        NL pseudopotentials             3.38 Mb     (    922,  240)
        Each V/rho on FFT grid          0.26 Mb     (  16800)
        Each G-vector array             0.06 Mb     (   7386)
        G-vector shells                 0.06 Mb     (   7386)
     Largest temporary arrays     est. size (Mb)     dimensions
        Each subspace H/S matrix        0.15 Mb     (  98,  98)
        Each <psi_i|beta_j> matrix      0.36 Mb     (    240,   98)
        Arrays for rho mixing           2.05 Mb     (  16800,   8)

     Initial potential from superposition of free atoms
     Check: negative starting charge=   -0.001196

     starting charge   51.96217, renormalised to  164.00000

     negative rho (up, down):  0.377E-02 0.000E+00
     Starting wfc are   80 randomized atomic wfcs

     total cpu time spent up to now is        2.2 secs

     Self-consistent Calculation

     iteration #  1     ecut=    40.00 Ry     beta=0.70
     CG style diagonalization
     c_bands:  1 eigenvalues not converged
     c_bands:  1 eigenvalues not converged
     c_bands:  1 eigenvalues not converged
     ethr =  1.00E-02,  avg # of iterations = 22.8

     negative rho (up, down):  0.110E-02 0.000E+00

     total cpu time spent up to now is       39.8 secs

     total energy              =    -836.23325037 Ry
     Harris-Foulkes estimate   =   -2447.80061172 Ry
     estimated scf accuracy    <    1925.78493457 Ry

     iteration #  2     ecut=    40.00 Ry     beta=0.70
     CG style diagonalization
     c_bands:  3 eigenvalues not converged
     c_bands:  1 eigenvalues not converged
     c_bands:  3 eigenvalues not converged
     c_bands:  3 eigenvalues not converged
     c_bands:  1 eigenvalues not converged
     c_bands:  2 eigenvalues not converged
     c_bands:  1 eigenvalues not converged
     ethr =  1.00E-02,  avg # of iterations = 14.1

     negative rho (up, down):  0.492E-03 0.000E+00

     total cpu time spent up to now is       63.5 secs

     total energy              =   -1088.45625326 Ry
     Harris-Foulkes estimate   =   -1415.91217303 Ry
     estimated scf accuracy    <     488.30515323 Ry

     iteration #  3     ecut=    40.00 Ry     beta=0.70
     CG style diagonalization
     ethr =  1.00E-02,  avg # of iterations = 11.1

     negative rho (up, down):  0.127E-03 0.000E+00

     total cpu time spent up to now is       82.6 secs

     total energy              =   -1216.51294543 Ry
     Harris-Foulkes estimate   =   -1283.56930075 Ry
     estimated scf accuracy    <     130.99107881 Ry

     iteration #  4     ecut=    40.00 Ry     beta=0.70
     CG style diagonalization
     ethr =  1.00E-02,  avg # of iterations =  5.4

     total cpu time spent up to now is       91.5 secs

     total energy              =   -1239.39266486 Ry
     Harris-Foulkes estimate   =   -1246.13637828 Ry
     estimated scf accuracy    <      11.02859731 Ry

     iteration #  5     ecut=    40.00 Ry     beta=0.70
     CG style diagonalization
     ethr =  6.72E-03,  avg # of iterations =  4.1

     total cpu time spent up to now is       98.1 secs

     total energy              =   -1242.90488488 Ry
     Harris-Foulkes estimate   =   -1244.43417817 Ry
     estimated scf accuracy    <       3.14606990 Ry

     iteration #  6     ecut=    40.00 Ry     beta=0.70
     CG style diagonalization
     ethr =  1.92E-03,  avg # of iterations =  3.6

     total cpu time spent up to now is      103.9 secs

     total energy              =   -1243.63328591 Ry
     Harris-Foulkes estimate   =   -1243.65469510 Ry
     estimated scf accuracy    <       0.03693062 Ry

     iteration #  7     ecut=    40.00 Ry     beta=0.70
     CG style diagonalization
     c_bands:  3 eigenvalues not converged
     c_bands:  3 eigenvalues not converged
     c_bands:  2 eigenvalues not converged
     c_bands:  5 eigenvalues not converged
     c_bands:  4 eigenvalues not converged
     c_bands:  2 eigenvalues not converged
     c_bands:  1 eigenvalues not converged
     c_bands:  4 eigenvalues not converged
     c_bands:  2 eigenvalues not converged
     c_bands:  4 eigenvalues not converged
     c_bands:  3 eigenvalues not converged
     ethr =  2.25E-05,  avg # of iterations =  6.9

     total cpu time spent up to now is      115.6 secs

     total energy              =   -1243.68881223 Ry
     Harris-Foulkes estimate   =   -1243.69714906 Ry
     estimated scf accuracy    <       0.01663746 Ry

     iteration #  8     ecut=    40.00 Ry     beta=0.70
     CG style diagonalization
     c_bands:  1 eigenvalues not converged
     c_bands:  1 eigenvalues not converged
     c_bands:  1 eigenvalues not converged
     c_bands:  2 eigenvalues not converged
     c_bands:  2 eigenvalues not converged
     c_bands:  2 eigenvalues not converged
     ethr =  1.01E-05,  avg # of iterations =  3.9

     total cpu time spent up to now is      122.0 secs

     total energy              =   -1243.69180709 Ry
     Harris-Foulkes estimate   =   -1243.69258128 Ry
     estimated scf accuracy    <       0.00142015 Ry

     iteration #  9     ecut=    40.00 Ry     beta=0.70
     CG style diagonalization
     c_bands:  1 eigenvalues not converged
     c_bands:  1 eigenvalues not converged
     c_bands:  2 eigenvalues not converged
     c_bands:  2 eigenvalues not converged
     ethr =  8.66E-07,  avg # of iterations =  4.9

     total cpu time spent up to now is      130.0 secs

     total energy              =   -1243.69229747 Ry
     Harris-Foulkes estimate   =   -1243.69269290 Ry
     estimated scf accuracy    <       0.00079869 Ry

     iteration # 10     ecut=    40.00 Ry     beta=0.70
     CG style diagonalization
     c_bands:  1 eigenvalues not converged
     ethr =  4.87E-07,  avg # of iterations =  3.5

     total cpu time spent up to now is      135.6 secs

     End of self-consistent calculation

          k = 0.0000 0.0000 0.0000 (  3675 PWs)   bands (ev):

    -6.9007  -5.0548  -5.0311  -3.9560  -3.5011  -3.3565  -3.0597  -2.9800
     0.5291   0.7809   0.9376   2.3507  11.3926  12.7096  12.9627  13.4850
    13.6303  13.8021  13.8073  13.9674  14.4062  15.2075  15.2840  15.4642
    16.0383  16.4575  16.6051  16.9257  17.0748  17.0879  17.7438  18.3171
    18.3691  18.7197  19.5221  19.7466  21.1090  21.6405  21.8990  22.2507
    22.9208  23.3770  23.4590  23.5118  23.9004  23.9870  24.5405  24.8307
    33.4404  33.7540  34.5493  35.0346  35.2280  35.2766  35.7991  36.0521
    36.3618  37.1456  38.0851  38.2598  38.9775  39.2190  39.6859  41.0605
    41.2599  41.4009  41.7691  41.8888  42.4153  42.4774  42.5939  42.7794
    44.0425  44.0749  44.7139  44.8553  44.9144  44.9581  45.3270  45.7239
    46.0429  46.7523  47.0543  47.2273  47.5994  47.8567  48.4491  48.5456
    48.7328  48.7748  49.4846  49.8412  50.1222  50.6274  50.7894  51.1629
    51.4931  52.4305

          k = 0.0000 0.0000 0.1317 (  3675 PWs)   bands (ev):

    -6.7684  -5.7823  -4.3046  -3.9174  -3.5256  -3.3143  -3.1162  -3.0940
     0.4010   0.6630   1.2970   2.2147  11.5511  12.5945  12.7696  12.9166
    13.5792  13.6481  13.9350  14.4735  14.9943  15.2110  15.2946  15.3547
    15.7973  15.8957  16.7245  16.8248  17.3810  17.4667  17.8124  18.0390
    18.9786  18.9897  19.4731  19.5501  21.2975  21.6845  21.9177  22.1339
    22.8091  23.0835  23.3158  23.7135  23.8988  23.9673  24.0159  24.6640
    33.1619  33.8300  34.2912  34.8446  34.9532  35.5281  36.1049  36.4152
    36.9887  37.2730  38.4762  39.0469  39.1302  39.9957  40.2307  40.3456
    40.5203  41.2685  41.3926  41.5079  41.9512  42.8992  43.0387  43.3435
    43.5229  43.6992  44.2671  44.3423  44.3501  44.6093  45.3569  45.4377
    46.6918  46.7358  47.2981  47.4288  47.6041  47.6501  47.9665  48.5476
    48.6224  49.0379  49.5896  49.7428  49.7899  50.6774  51.0829  51.8385
    51.9341  52.2353

          k = 0.0000 0.0000-0.2634 (  3690 PWs)   bands (ev):

    -6.3829  -6.3829  -3.8884  -3.8884  -3.4200  -3.4200  -3.2114  -3.2114
     0.4494   0.4494   1.8268   1.8268  12.0170  12.0170  12.6802  12.6802
    13.7082  13.7082  14.1085  14.1085  14.9175  14.9175  15.5043  15.5043
    16.2833  16.2833  17.0071  17.0071  17.0306  17.0306  17.7796  17.7796
    19.1110  19.1110  19.7814  19.7814  21.6869  21.6869  22.1392  22.1392
    22.4748  22.4748  23.2971  23.2971  23.9329  23.9329  24.2176  24.2176
    33.3600  33.3600  34.0371  34.0371  35.3653  35.3653  37.3978  37.3978
    38.1166  38.1166  38.2564  38.2564  39.6394  39.6394  40.3321  40.3321
    40.6709  40.6709  41.0716  41.0716  41.7457  41.7457  42.6020  42.6020
    44.4247  44.4247  44.4641  44.4641  45.3169  45.3169  45.8092  45.8092
    46.2280  46.2280  46.4336  46.4336  46.9726  46.9726  47.6773  47.6773
    48.7318  48.7318  50.1016  50.1016  51.0204  51.0206  51.2837  51.2837
    52.3129  52.3135

          k = 0.0000 0.2533 0.0000 (  3664 PWs)   bands (ev):

    -6.4308  -5.2430  -4.6673  -4.6338  -3.8913  -3.6234  -2.8784  -2.8321
     0.5559   0.7719   1.2951   2.0157  11.9535  13.4924  13.5235  13.8098
    13.8102  13.8404  13.9559  14.0575  14.4410  15.2062  15.2936  15.7600
    15.8993  16.6322  16.7628  16.8688  16.9807  17.2303  17.5971  18.2609
    18.3813  18.7145  18.9536  19.6669  20.9076  21.7730  21.8328  21.9738
    22.1871  22.4036  22.6682  22.7180  22.9202  23.4111  24.0905  24.2656
    34.3962  34.4952  34.6172  35.5767  36.2902  36.6484  36.8165  36.9480
    37.1430  37.6517  38.1654  38.3619  38.6404  39.3128  39.5248  40.3101
    40.6369  40.9677  40.9998  41.6918  42.7711  42.7717  43.0773  43.1316
    43.3600  43.9374  44.5871  44.8187  45.2651  45.6196  45.8206  46.2966
    46.9805  47.0467  47.2474  47.6768  47.8916  48.0806  48.7861  49.0679
    49.0857  49.1497  49.4706  49.8496  50.1649  50.3210  50.5695  50.7012
    51.0422  51.2415

          k = 0.0000 0.2533 0.1317 (  3669 PWs)   bands (ev):

    -6.3059  -5.4316  -4.9981  -4.3984  -3.8408  -3.3853  -2.9333  -2.8861
     0.5888   0.9166   1.2271   1.8655  12.1054  13.1388  13.2583  13.2735
    13.6592  13.8448  14.1527  14.6210  14.8529  15.0385  15.4223  15.6557
    16.2603  16.3556  16.6593  16.8915  17.1157  17.5152  18.1208  18.1739
    18.3271  18.5186  18.8848  19.7584  21.2767  21.6981  21.7307  21.9495
    22.0194  22.2438  22.4534  22.5032  23.1798  23.2879  23.7436  24.1374
    34.2585  34.6334  35.2057  35.4597  36.3697  36.6057  36.8400  37.0759
    37.6058  37.8179  38.1285  38.2509  39.3075  39.6845  39.7483  39.8882
    40.1118  40.4073  41.0241  41.7335  41.9258  42.5401  43.0140  43.7358
    44.1771  44.2331  44.6310  44.7920  44.9190  45.3431  46.0270  46.1315
    46.5130  46.7059  47.0182  47.2013  47.5652  47.9234  48.6218  48.7083
    49.0987  49.2218  49.2695  49.9041  50.1316  50.2623  50.9448  51.3849
    51.8559  51.9762

          k = 0.0000 0.2533-0.2634 (  3666 PWs)   bands (ev):

    -5.9467  -5.9467  -4.7559  -4.7559  -3.3970  -3.3970  -2.9799  -2.9799
     0.7842   0.7842   1.4945   1.4945  12.5549  12.5549  13.0100  13.0100
    14.0424  14.0424  14.1552  14.1552  14.8158  14.8158  16.0237  16.0237
    16.3379  16.3379  16.8211  16.8211  17.5550  17.5550  17.9042  17.9042
    18.4562  18.4562  19.4102  19.4102  21.2172  21.2172  22.0458  22.0458
    22.1730  22.1730  22.5472  22.5472  22.8795  22.8795  23.7769  23.7769
    34.7165  34.7165  34.8197  34.8197  37.2116  37.2116  37.5103  37.5103
    37.7379  37.7379  38.3093  38.3093  39.0359  39.0359  39.4478  39.4478
    40.6767  40.6767  41.3682  41.3682  41.9004  41.9004  43.2994  43.2994
    43.6621  43.6621  44.4492  44.4492  45.8849  45.8849  46.0462  46.0462
    46.4759  46.4759  47.0556  47.0556  47.8826  47.8826  48.4316  48.4316
    48.7654  48.7655  49.7354  49.7354  50.8782  50.8784  51.0307  51.0308
    51.3023  51.3023

          k =-0.5000 0.0000 0.0000 (  3722 PWs)   bands (ev):

    -5.1967  -5.1967  -4.1408  -4.1408  -3.9118  -3.9118  -3.0833  -3.0833
     0.2602   0.2602   0.5025   0.5025  11.1981  11.1981  12.5339  12.5339
    12.9126  12.9126  13.5595  13.5595  13.9977  13.9977  16.4027  16.4027
    16.5795  16.5795  17.4707  17.4707  18.7995  18.7995  18.8602  18.8602
    19.8254  19.8254  19.8706  19.8706  21.9923  21.9923  22.8895  22.8895
    23.1070  23.1070  23.1297  23.1297  24.5333  24.5333  24.6623  24.6623
    35.2161  35.2161  36.9628  36.9628  37.0082  37.0082  37.3936  37.3936
    37.5682  37.5682  38.0344  38.0344  38.4217  38.4217  38.8275  38.8275
    39.4291  39.4291  39.7847  39.7847  40.6621  40.6621  40.7113  40.7113
    41.7480  41.7480  43.4823  43.4823  43.8240  43.8240  44.4615  44.4615
    45.2246  45.2246  45.8142  45.8142  46.0214  46.0214  46.7265  46.7265
    47.5141  47.5141  48.5578  48.5578  50.9734  50.9735  51.1303  51.1304
    51.8433  51.8438

          k =-0.5000 0.0000 0.1317 (  3710 PWs)   bands (ev):

    -5.1171  -5.1171  -4.3896  -4.3896  -3.7588  -3.7588  -3.0787  -3.0787
     0.2696   0.2696   0.5299   0.5299  11.3779  11.3779  11.8601  11.8601
    12.5021  12.5021  14.1828  14.1828  14.8378  14.8378  15.2816  15.2816
    17.0800  17.0800  17.7764  17.7764  18.4813  18.4813  19.4014  19.4014
    19.7456  19.7456  19.9282  19.9282  21.8745  21.8745  22.7032  22.7032
    22.8597  22.8597  23.4837  23.4837  24.1318  24.1318  24.5585  24.5585
    35.5346  35.5346  36.6188  36.6188  36.8605  36.8605  36.9497  36.9497
    37.9809  37.9809  38.2519  38.2519  38.8146  38.8146  39.0480  39.0480
    39.4660  39.4660  40.1178  40.1178  40.3072  40.3072  41.2492  41.2492
    41.6941  41.6941  42.6444  42.6444  43.3283  43.3283  44.3627  44.3627
    44.4930  44.4930  46.9559  46.9559  47.5205  47.5205  47.6492  47.6492
    47.8225  47.8225  48.5110  48.5110  49.6906  49.6907  50.5027  50.5029
    50.6749  50.6750

          k =-0.5000 0.0000-0.2634 (  3680 PWs)   bands (ev):

    -4.9892  -4.9892  -4.6129  -4.6129  -3.6780  -3.6780  -3.0763  -3.0763
     0.2817   0.2817   0.5554   0.5554  11.3694  11.3694  11.9239  11.9239
    11.9923  11.9923  14.3948  14.3948  14.7185  14.7185  16.1781  16.1781
    16.8887  16.8887  17.0729  17.0729  19.2927  19.2927  19.4193  19.4193
    19.7308  19.7308  19.9847  19.9847  21.7995  21.7995  22.5168  22.5168
    22.7734  22.7734  23.4429  23.4429  23.9461  23.9461  24.3839  24.3839
    35.7707  35.7707  36.4687  36.4687  36.6864  36.6864  37.2254  37.2254
    37.8260  37.8260  38.5572  38.5572  38.8092  38.8092  38.8446  38.8446
    39.8073  39.8073  39.9568  39.9568  40.5207  40.5207  41.0838  41.0838
    42.3748  42.3748  42.4284  42.4284  43.4883  43.4883  44.1152  44.1152
    44.9088  44.9088  45.6036  45.6036  47.2416  47.2416  48.0031  48.0031
    48.8197  48.8198  49.3185  49.3185  49.8766  49.8768  50.5164  50.5166
    50.5993  50.5994

          k =-0.5000 0.2533 0.0000 (  3686 PWs)   bands (ev):

    -4.8693  -4.8693  -4.2798  -4.2798  -3.7568  -3.7568  -3.4118  -3.4118
     0.1188   0.1188   0.2400   0.2400  12.1205  12.1205  12.8657  12.8657
    13.7014  13.7014  14.3568  14.3568  14.6953  14.6953  15.8562  15.8562
    15.9079  15.9079  17.0253  17.0253  18.2200  18.2200  18.6975  18.6975
    19.4280  19.4280  19.4923  19.4923  21.6765  21.6765  22.3814  22.3814
    22.6378  22.6378  23.0793  23.0793  23.9614  23.9614  24.3946  24.3946
    35.6895  35.6895  36.5959  36.5959  37.6528  37.6528  37.9064  37.9064
    38.1237  38.1237  38.3452  38.3452  39.0215  39.0215  39.5740  39.5740
    40.3029  40.3029  40.6187  40.6187  41.2733  41.2733  41.8622  41.8622
    42.3614  42.3614  42.5922  42.5922  43.5656  43.5656  44.3860  44.3860
    45.1514  45.1514  46.6391  46.6391  46.8917  46.8917  47.2725  47.2725
    47.6892  47.6892  49.2727  49.2727  49.7549  49.7550  50.3059  50.3061
    50.9927  50.9929

          k =-0.5000 0.2533 0.1317 (  3692 PWs)   bands (ev):

    -4.8025  -4.8025  -4.3506  -4.3506  -3.7533  -3.7533  -3.4452  -3.4452
     0.1383   0.1383   0.2863   0.2863  11.9756  11.9756  12.5271  12.5271
    13.6924  13.6924  14.0946  14.0946  14.9932  14.9932  15.8908  15.8908
    16.5165  16.5165  17.4331  17.4331  18.2531  18.2531  18.6200  18.6200
    19.2261  19.2261  19.6478  19.6478  21.3459  21.3459  22.1219  22.1219
    22.6676  22.6676  23.2343  23.2343  23.8141  23.8141  24.1504  24.1504
    35.5792  35.5792  36.6402  36.6402  37.2686  37.2686  37.9050  37.9050
    38.3945  38.3945  38.8271  38.8271  39.6186  39.6186  39.8305  39.8305
    40.2933  40.2933  40.6375  40.6375  41.1024  41.1024  41.5875  41.5875
    42.3904  42.3904  43.0801  43.0801  43.7413  43.7413  44.4133  44.4133
    45.2411  45.2411  46.2420  46.2420  46.9792  46.9792  47.2400  47.2400
    47.7351  47.7351  48.6911  48.6912  49.4352  49.4352  50.0093  50.0096
    50.4524  50.4527

          k =-0.5000 0.2533-0.2634 (  3704 PWs)   bands (ev):

    -4.6936  -4.6936  -4.4697  -4.4697  -3.7304  -3.7304  -3.4913  -3.4913
     0.1620   0.1620   0.3282   0.3282  11.6847  11.6847  12.7462  12.7462
    13.2136  13.2136  13.8233  13.8233  15.6640  15.6640  16.1939  16.1939
    16.4345  16.4345  17.9659  17.9659  18.3937  18.3937  18.5037  18.5037
    19.3956  19.3956  19.4639  19.4639  20.9028  20.9028  21.8794  21.8794
    22.7354  22.7354  23.3220  23.3220  23.7770  23.7770  23.8120  23.8120
    35.3809  35.3809  36.7131  36.7131  37.6091  37.6091  37.8566  37.8566
    38.5425  38.5425  38.9545  38.9545  39.5284  39.5284  39.8046  39.8046
    40.2719  40.2719  40.5132  40.5132  41.7175  41.7175  42.0560  42.0560
    42.6051  42.6051  43.1287  43.1287  43.7943  43.7943  45.0530  45.0530
    45.2686  45.2686  45.5725  45.5725  46.6982  46.6982  47.1239  47.1239
    47.8198  47.8198  48.3769  48.3769  48.4975  48.4976  49.6204  49.6205
    49.6210  49.6212

     the Fermi energy is    46.3008 ev

!    total energy              =   -1243.69244047 Ry
     Harris-Foulkes estimate   =   -1243.69245195 Ry
     estimated scf accuracy    <       0.00001383 Ry

     The total energy is the sum of the following terms:

     one-electron contribution =     445.16393522 Ry
     hartree contribution      =      35.00905163 Ry
     xc contribution           =    -168.66728907 Ry
     ewald contribution        =   -1554.80231117 Ry
     smearing contrib. (-TS)   =      -0.39582708 Ry

     convergence has been achieved in  10 iterations

     Forces acting on atoms (Ry/au):

     atom    1 type  1   force =     0.00000000   -0.02110396   -0.08276902
     atom    2 type  1   force =     0.00000000    0.02110396    0.08276902
     atom    3 type  1   force =     0.00000000   -0.02110396    0.08276902
     atom    4 type  1   force =     0.00000000    0.02110396   -0.08276902
     atom    5 type  1   force =     0.00000000    0.09092834   -0.18419752
     atom    6 type  1   force =     0.00000000   -0.09092834    0.18419752
     atom    7 type  1   force =     0.00000000    0.09092834    0.18419752
     atom    8 type  1   force =     0.00000000   -0.09092834   -0.18419752
     atom    9 type  2   force =     0.00000000   -0.18375385    0.00231750
     atom   10 type  2   force =     0.00000000    0.18375385   -0.00231750
     atom   11 type  2   force =     0.00000000   -0.18375385   -0.00231750
     atom   12 type  2   force =     0.00000000    0.18375385    0.00231750

     Total force =     0.577109     Total SCF correction =     0.005282


     entering subroutine stress ...

          total   stress  (Ry/bohr**3)                   (kbar)     P= 6204.42
   0.04170973   0.00000000   0.00000000       6135.71      0.00      0.00
   0.00000000   0.04145599   0.00000000          0.00   6098.38      0.00
   0.00000000   0.00000000   0.04336469          0.00      0.00   6379.17


     BFGS Geometry Optimization

     number of scf cycles    =   1
     number of bfgs steps    =   0

     enthalpy new            =   -1243.6924404665 Ry

     new trust radius        =       0.5000000000 bohr
     new conv_thr            =       0.0001000000 Ry

     new unit-cell volume =   1094.70175 a.u.^3 (   162.21806 Ang^3 )

CELL_PARAMETERS (alat=  7.01510508)
   1.081887477   0.000000000   0.000000000
   0.000000000   1.423068743   0.000000000
   0.000000000   0.000000000   2.059611444

ATOMIC_POSITIONS (crystal)
Co       0.750000000   0.826221475   0.435247828
Co       0.250000000   0.173778525   0.564752172
Co       0.750000000   0.326221475   0.064752172
Co       0.250000000   0.673778525   0.935247828
Co       0.250000000   0.537859502   0.281258602
Co       0.750000000   0.462140498   0.718741398
Co       0.250000000   0.037859502   0.218741398
Co       0.750000000   0.962140498   0.781258602
Si       0.250000000   0.201290857   0.893613669
Si       0.750000000   0.798709143   0.106386331
Si       0.250000000   0.701290857   0.606386331
Si       0.750000000   0.298709143   0.393613669



     Writing output data file Prototype-La-oP12-Co2Si.save
     Check: negative starting charge=   -0.001196
     NEW-OLD atomic charge density approx. for the potential
     NEW k-points:
        k(    1) = (   0.0000000   0.0000000   0.0000000), wk =   0.0833333
        k(    2) = (   0.0000000   0.0000000   0.1213821), wk =   0.1666667
        k(    3) = (   0.0000000   0.0000000  -0.2427642), wk =   0.0833333
        k(    4) = (   0.0000000   0.2342356   0.0000000), wk =   0.1666667
        k(    5) = (   0.0000000   0.2342356   0.1213821), wk =   0.3333333
        k(    6) = (   0.0000000   0.2342356  -0.2427642), wk =   0.1666667
        k(    7) = (  -0.4621553   0.0000000   0.0000000), wk =   0.0833333
        k(    8) = (  -0.4621553   0.0000000   0.1213821), wk =   0.1666667
        k(    9) = (  -0.4621553   0.0000000  -0.2427642), wk =   0.0833333
        k(   10) = (  -0.4621553   0.2342356   0.0000000), wk =   0.1666667
        k(   11) = (  -0.4621553   0.2342356   0.1213821), wk =   0.3333333
        k(   12) = (  -0.4621553   0.2342356  -0.2427642), wk =   0.1666667
     Check: negative starting charge=   -0.006564

     negative rho (up, down):  0.550E-02 0.000E+00
     extrapolated charge  175.03246, renormalised to  164.00000

     total cpu time spent up to now is      138.3 secs

     Self-consistent Calculation

     iteration #  1     ecut=    40.00 Ry     beta=0.70
     CG style diagonalization
     c_bands:  3 eigenvalues not converged
     c_bands:  4 eigenvalues not converged
     c_bands:  4 eigenvalues not converged
     c_bands:  2 eigenvalues not converged
     c_bands:  2 eigenvalues not converged
     c_bands:  2 eigenvalues not converged
     c_bands:  2 eigenvalues not converged
     ethr =  1.00E-06,  avg # of iterations = 23.7

     negative rho (up, down):  0.148E-02 0.000E+00

     total cpu time spent up to now is      177.8 secs

     total energy              =   -1224.12728194 Ry
     Harris-Foulkes estimate   =   -1276.09344209 Ry
     estimated scf accuracy    <      52.67588224 Ry

     iteration #  2     ecut=    40.00 Ry     beta=0.70
     CG style diagonalization
     ethr =  1.00E-02,  avg # of iterations =  6.2

     negative rho (up, down):  0.891E-03 0.000E+00

     total cpu time spent up to now is      188.4 secs

     total energy              =   -1233.00026487 Ry
     Harris-Foulkes estimate   =   -1270.95520120 Ry
     estimated scf accuracy    <      77.72926861 Ry

     iteration #  3     ecut=    40.00 Ry     beta=0.70
     CG style diagonalization
     ethr =  1.00E-02,  avg # of iterations =  4.7

     negative rho (up, down):  0.445E-03 0.000E+00

     total cpu time spent up to now is      196.9 secs

     total energy              =   -1249.05336625 Ry
     Harris-Foulkes estimate   =   -1250.22167520 Ry
     estimated scf accuracy    <       2.39667785 Ry

     iteration #  4     ecut=    40.00 Ry     beta=0.70
     CG style diagonalization
     ethr =  1.46E-03,  avg # of iterations =  4.1

     negative rho (up, down):  0.177E-03 0.000E+00

     total cpu time spent up to now is      203.5 secs

     total energy              =   -1249.87560450 Ry
     Harris-Foulkes estimate   =   -1250.10357603 Ry
     estimated scf accuracy    <       0.52416361 Ry

     iteration #  5     ecut=    40.00 Ry     beta=0.70
     CG style diagonalization
     ethr =  3.20E-04,  avg # of iterations =  3.8

     total cpu time spent up to now is      210.4 secs

     total energy              =   -1249.98633085 Ry
     Harris-Foulkes estimate   =   -1249.99990057 Ry
     estimated scf accuracy    <       0.02777509 Ry

     iteration #  6     ecut=    40.00 Ry     beta=0.70
     CG style diagonalization
     c_bands:  2 eigenvalues not converged
     c_bands:  1 eigenvalues not converged
     c_bands:  2 eigenvalues not converged
     c_bands:  2 eigenvalues not converged
     ethr =  1.69E-05,  avg # of iterations =  4.9

     total cpu time spent up to now is      218.6 secs

     total energy              =   -1249.99836273 Ry
     Harris-Foulkes estimate   =   -1249.99968574 Ry
     estimated scf accuracy    <       0.00342331 Ry

     iteration #  7     ecut=    40.00 Ry     beta=0.70
     CG style diagonalization
     c_bands:  3 eigenvalues not converged
     c_bands:  1 eigenvalues not converged
     c_bands:  1 eigenvalues not converged
     c_bands:  1 eigenvalues not converged
     ethr =  2.09E-06,  avg # of iterations =  4.6

     total cpu time spent up to now is      227.0 secs

     total energy              =   -1249.99947847 Ry
     Harris-Foulkes estimate   =   -1249.99988967 Ry
     estimated scf accuracy    <       0.00096255 Ry

     iteration #  8     ecut=    40.00 Ry     beta=0.70
     CG style diagonalization
     c_bands:  1 eigenvalues not converged
     ethr =  5.87E-07,  avg # of iterations =  3.6

     total cpu time spent up to now is      232.8 secs

     total energy              =   -1249.99964284 Ry
     Harris-Foulkes estimate   =   -1249.99969593 Ry
     estimated scf accuracy    <       0.00010933 Ry

     iteration #  9     ecut=    40.00 Ry     beta=0.70
     CG style diagonalization
     ethr =  6.67E-08,  avg # of iterations =  4.0

     total cpu time spent up to now is      239.7 secs

     End of self-consistent calculation

          k = 0.0000 0.0000 0.0000 (  3675 PWs)   bands (ev):

   -13.8773 -13.0000 -12.9942 -12.5676 -12.3856 -12.1794 -12.1306 -12.0907
    -8.0197  -7.9190  -7.8986  -7.3847   5.2611   6.0878   6.1524   6.5731
     6.7671   6.8160   6.9284   6.9362   7.0207   7.6883   7.8145   7.8406
     8.2719   8.3327   8.5133   8.6035   8.7167   9.0946   9.2296   9.4540
     9.5741   9.8539  10.3508  10.5181  12.3471  12.4069  12.6267  12.6795
    13.0986  13.3808  13.4853  13.6190  13.6659  13.6757  13.9270  14.0532
    26.6601  26.7281  26.9524  27.7579  27.8322  27.9332  28.2046  28.2306
    28.3943  29.4398  29.7270  30.1000  30.4734  30.9146  31.0076  31.6431
    31.9665  32.1054  32.1984  32.7049  33.1560  33.4473  33.6625  33.9757
    34.0551  34.4209  34.7316  34.7853  34.8221  35.2052  35.5293  35.6439
    35.7649  36.0100  36.1667  36.3288  37.2791  37.6999  37.7070  37.7817
    37.9135  38.3135  38.8505  38.8965  38.9571  40.2340  40.3798  40.4613
    41.0958  41.3796

          k = 0.0000 0.0000 0.1214 (  3675 PWs)   bands (ev):

   -13.8086 -13.3244 -12.7076 -12.5606 -12.3768 -12.1798 -12.1655 -12.1024
    -8.0507  -7.9534  -7.7770  -7.4393   5.3758   6.0866   6.1149   6.2230
     6.6096   6.6294   6.7539   7.1886   7.4200   7.6946   7.7502   7.8944
     8.1195   8.1875   8.6728   8.6736   8.9926   9.1993   9.2985   9.3307
     9.7513   9.9325  10.3740  10.4513  12.4222  12.4283  12.6562  12.6700
    13.0345  13.2103  13.3860  13.6240  13.6460  13.6917  13.7285  14.0006
    26.5067  26.7528  27.2020  27.3313  27.4045  27.9307  28.5086  28.5725
    28.9143  29.3203  30.3009  30.6134  30.7899  31.2738  31.2969  31.3366
    31.5633  32.1077  32.2067  32.6104  32.9422  33.0615  33.5933  33.6514
    33.8381  33.8580  34.3325  34.5654  34.7789  34.9214  35.1785  35.2615
    36.1697  36.5467  36.9920  37.2299  37.3017  37.3224  37.5178  37.8665
    37.8711  38.3340  38.7273  38.8761  38.9687  39.3410  40.1762  40.5768
    40.8374  41.1700

          k = 0.0000 0.0000-0.2428 (  3690 PWs)   bands (ev):

   -13.6134 -13.6134 -12.5675 -12.5675 -12.2987 -12.2987 -12.1338 -12.1338
    -8.0222  -8.0222  -7.5874  -7.5874   5.7043   5.7043   6.1053   6.1053
     6.5482   6.5482   6.8785   6.8785   7.4755   7.4755   8.0246   8.0246
     8.3907   8.3907   8.7686   8.7686   8.8778   8.8778   9.2631   9.2631
    10.0377  10.0377  10.4381  10.4381  12.5826  12.5826  12.6671  12.6671
    12.8787  12.8787  13.3357  13.3357  13.6599  13.6599  13.8691  13.8691
    26.6245  26.6245  26.8708  26.8708  27.7750  27.7750  29.2710  29.2710
    29.8136  29.8136  29.8482  29.8482  31.0854  31.0854  31.6174  31.6174
    31.6245  31.6245  32.3443  32.3443  32.5583  32.5583  33.1822  33.1822
    33.9428  33.9428  34.8556  34.8556  34.9159  34.9159  35.4815  35.4815
    36.0282  36.0282  36.6069  36.6069  37.0342  37.0342  37.4968  37.4968
    38.1778  38.1778  38.8666  38.8667  39.8141  39.8141  40.3046  40.3046
    40.8370  40.8370

          k = 0.0000 0.2342 0.0000 (  3664 PWs)   bands (ev):

   -13.6337 -13.0939 -12.8418 -12.7944 -12.4773 -12.3007 -12.0725 -12.0681
    -8.0355  -7.9845  -7.7606  -7.5114   5.6591   6.6047   6.7305   6.7505
     6.8203   6.9000   6.9460   7.0894   7.3273   7.6477   7.7803   7.9554
     8.1109   8.4069   8.4342   8.6985   8.7044   9.0123   9.1869   9.5112
     9.5321   9.7663   9.9616  10.2919  12.0922  12.4148  12.5368  12.6874
    12.7166  12.8220  13.0123  13.1313  13.3154  13.4053  13.6879  13.8386
    27.4998  27.5095  27.5767  27.8615  28.4921  28.6899  28.8717  29.0180
    29.1757  29.5989  30.0205  30.3403  30.3587  30.8682  30.9156  31.4056
    31.5807  31.8351  32.3279  32.6825  32.9318  33.3633  33.5136  33.5897
    33.8779  34.3171  34.5033  34.6595  34.9636  35.2750  35.4593  36.0163
    36.0988  36.5902  36.7098  36.9214  37.1186  37.4951  38.0549  38.1456
    38.1697  38.5018  38.8419  39.3079  39.4464  39.7042  39.7451  40.0783
    40.2395  40.2573

          k = 0.0000 0.2342 0.1214 (  3669 PWs)   bands (ev):

   -13.5724 -13.1810 -12.9356 -12.7417 -12.4190 -12.2435 -12.1108 -12.0816
    -8.0223  -7.9223  -7.7803  -7.5642   5.7650   6.3468   6.4658   6.5587
     6.8065   6.8258   7.0835   7.2980   7.4471   7.4833   7.8426   7.9185
     8.4016   8.4043   8.4212   8.7097   8.9327   9.0815   9.4159   9.4439
     9.5915   9.6233   9.9598  10.3014  12.1825  12.4138  12.4802  12.5920
    12.7355  12.8183  12.9555  13.0149  13.2672  13.4586  13.4805  13.7894
    27.3451  27.3706  27.8245  27.9441  28.3783  28.7024  29.1666  29.3419
    29.4268  29.4985  30.1033  30.3229  30.6209  31.0509  31.1249  31.2175
    31.5491  31.7656  31.8958  32.7458  32.9017  33.1987  33.4146  33.7412
    33.9969  34.4907  34.5776  34.6675  34.7804  35.3053  35.5159  35.7191
    35.9933  36.2545  36.3611  36.5255  37.1238  37.4449  37.7830  38.0394
    38.4749  38.4868  38.5121  38.7955  39.4767  39.5540  39.7618  40.4128
    40.6740  40.6891

          k = 0.0000 0.2342-0.2428 (  3666 PWs)   bands (ev):

   -13.4024 -13.4024 -12.8532 -12.8532 -12.2620 -12.2620 -12.1266 -12.1266
    -7.9484  -7.9484  -7.6945  -7.6945   6.0754   6.0754   6.2669   6.2669
     6.9435   6.9435   7.0717   7.0717   7.3916   7.3916   8.0788   8.0788
     8.4543   8.4543   8.7306   8.7306   9.0295   9.0295   9.3625   9.3625
     9.7063   9.7063  10.1277  10.1277  12.2680  12.2680  12.5685  12.5685
    12.8576  12.8576  12.8924  12.8924  13.1199  13.1199  13.6500  13.6500
    27.3460  27.3460  27.6139  27.6139  29.0365  29.0365  29.5119  29.5119
    29.7301  29.7301  30.2696  30.2696  30.4272  30.4272  31.2377  31.2377
    31.7816  31.7816  32.2918  32.2918  32.5740  32.5740  33.7410  33.7410
    34.0278  34.0278  34.4364  34.4364  35.5638  35.5638  35.6435  35.6435
    36.1568  36.1568  36.5417  36.5417  36.9172  36.9172  37.5658  37.5658
    38.0279  38.0279  38.6151  38.6151  39.7789  39.7790  40.2805  40.2805
    40.3119  40.3120

          k =-0.4622 0.0000 0.0000 (  3722 PWs)   bands (ev):

   -13.0677 -13.0677 -12.6822 -12.6822 -12.5282 -12.5282 -12.0977 -12.0977
    -8.0887  -8.0887  -8.0504  -8.0504   5.1268   5.1268   5.9444   5.9444
     6.2529   6.2529   6.5465   6.5465   6.9880   6.9880   8.4336   8.4336
     8.5312   8.5312   8.6593   8.6593   9.7745   9.7745   9.8696   9.8696
    10.3128  10.3128  10.5126  10.5126  12.4140  12.4140  13.1511  13.1511
    13.2200  13.2200  13.3273  13.3273  14.0061  14.0061  14.1691  14.1691
    27.5487  27.5487  28.8218  28.8218  29.2537  29.2537  29.4547  29.4547
    29.7642  29.7642  29.8573  29.8573  30.2119  30.2119  30.2783  30.2783
    31.1615  31.1615  31.5114  31.5114  31.8531  31.8531  31.9790  31.9790
    33.0603  33.0603  33.9541  33.9541  34.4739  34.4739  35.2303  35.2303
    35.2870  35.2870  36.2927  36.2927  36.5274  36.5274  37.7275  37.7275
    37.8851  37.8851  38.6638  38.6639  38.8003  38.8003  40.0433  40.0434
    40.8691  40.8691

          k =-0.4622 0.0000 0.1214 (  3710 PWs)   bands (ev):

   -13.0399 -13.0399 -12.7424 -12.7424 -12.4972 -12.4972 -12.0986 -12.0986
    -8.0855  -8.0855  -8.0473  -8.0473   5.2289   5.2289   5.5387   5.5387
     6.0326   6.0326   7.0492   7.0492   7.3365   7.3365   7.7885   7.7885
     8.5456   8.5456   9.0820   9.0820   9.6630   9.6630  10.0878  10.0878
    10.2799  10.2799  10.5405  10.5405  12.4196  12.4196  12.9655  12.9655
    13.1579  13.1579  13.5138  13.5138  13.8411  13.8411  14.1158  14.1158
    27.8131  27.8131  28.4828  28.4828  29.1158  29.1158  29.3313  29.3313
    29.7985  29.7985  30.0632  30.0632  30.6156  30.6156  30.6718  30.6718
    31.0260  31.0260  31.6385  31.6385  31.7818  31.7818  32.2403  32.2403
    32.8737  32.8737  33.4090  33.4090  34.3172  34.3172  34.9602  34.9602
    35.1520  35.1520  36.8932  36.8932  37.0409  37.0409  37.3563  37.3563
    38.1281  38.1281  38.5385  38.5385  38.7984  38.7984  39.6630  39.6630
    40.2522  40.2523

          k =-0.4622 0.0000-0.2428 (  3680 PWs)   bands (ev):

   -13.0012 -13.0012 -12.8035 -12.8035 -12.4756 -12.4756 -12.0997 -12.0997
    -8.0823  -8.0823  -8.0442  -8.0442   5.2304   5.2304   5.5638   5.5638
     5.7242   5.7242   7.2536   7.2536   7.4364   7.4364   8.0435   8.0435
     8.4123   8.4123   8.8118   8.8118   9.9778   9.9778  10.1653  10.1653
    10.2415  10.2415  10.5723  10.5723  12.5633  12.5633  12.6967  12.6967
    13.1251  13.1251  13.5425  13.5425  13.7915  13.7915  14.0205  14.0205
    27.9849  27.9849  28.6116  28.6116  28.7194  28.7194  29.3865  29.3865
    29.8338  29.8338  30.2329  30.2329  30.8421  30.8421  30.8656  30.8656
    31.0605  31.0605  31.3789  31.3789  31.8167  31.8167  32.2267  32.2267
    33.0932  33.0932  33.5322  33.5322  34.3132  34.3132  34.3960  34.3960
    35.7335  35.7335  35.9456  35.9456  36.6257  36.6257  37.2981  37.2981
    38.7716  38.7716  38.9652  38.9652  38.9905  38.9905  39.2901  39.2901
    40.2435  40.2435

          k =-0.4622 0.2342 0.0000 (  3686 PWs)   bands (ev):

   -12.9295 -12.9295 -12.7281 -12.7281 -12.4575 -12.4575 -12.2518 -12.2518
    -8.1326  -8.1326  -8.1129  -8.1129   5.6891   5.6891   6.1274   6.1274
     6.5715   6.5715   7.0727   7.0727   7.3427   7.3427   8.0354   8.0354
     8.1052   8.1052   8.6908   8.6908   9.5374   9.5374   9.7924   9.7924
    10.0749  10.0749  10.2013  10.2013  12.4357  12.4357  12.8676  12.8676
    12.9091  12.9091  13.1229  13.1229  13.8183  13.8183  13.9877  13.9877
    28.1844  28.1844  29.0902  29.0902  29.5553  29.5553  29.7135  29.7135
    30.0909  30.0909  30.0945  30.0945  30.7828  30.7828  31.1064  31.1064
    31.4812  31.4812  31.8418  31.8418  32.4057  32.4057  32.6916  32.6916
    33.0226  33.0226  33.2642  33.2642  34.3018  34.3018  34.9167  34.9167
    35.5501  35.5501  36.5577  36.5577  36.6649  36.6649  37.2069  37.2069
    37.2476  37.2476  38.9984  38.9984  39.0850  39.0850  39.4739  39.4739
    40.2884  40.2885

          k =-0.4622 0.2342 0.1214 (  3692 PWs)   bands (ev):

   -12.9080 -12.9080 -12.7484 -12.7484 -12.4557 -12.4557 -12.2587 -12.2587
    -8.1292  -8.1292  -8.1088  -8.1088   5.6187   5.6187   5.9631   5.9631
     6.6957   6.6957   6.8787   6.8787   7.4250   7.4250   7.9901   7.9901
     8.3436   8.3436   9.0162   9.0162   9.5339   9.5339   9.7084   9.7084
    10.0293  10.0293  10.2430  10.2430  12.3226  12.3226  12.7326  12.7326
    12.9303  12.9303  13.2446  13.2446  13.7312  13.7312  13.8766  13.8766
    28.2357  28.2357  28.9431  28.9431  29.4182  29.4182  29.8149  29.8149
    30.0132  30.0132  30.5781  30.5781  31.0039  31.0039  31.2660  31.2660
    31.4730  31.4730  31.9415  31.9415  32.1385  32.1385  32.4512  32.4512
    33.2167  33.2167  33.6133  33.6133  34.4136  34.4136  34.9493  34.9493
    35.5998  35.5998  36.0035  36.0035  36.6189  36.6189  37.0416  37.0416
    37.5449  37.5449  38.3418  38.3418  39.0091  39.0091  39.4493  39.4493
    39.7319  39.7319

          k =-0.4622 0.2342-0.2428 (  3704 PWs)   bands (ev):

   -12.8770 -12.8770 -12.7785 -12.7785 -12.4531 -12.4531 -12.2663 -12.2663
    -8.1257  -8.1257  -8.1047  -8.1047   5.4656   5.4656   6.1681   6.1681
     6.3527   6.3527   6.7752   6.7752   7.7867   7.7867   7.9002   7.9002
     8.4720   8.4720   9.3409   9.3409   9.5380   9.5380   9.5741   9.5741
    10.1413  10.1413  10.1448  10.1448  12.1886  12.1886  12.6401  12.6401
    12.9609  12.9609  13.3171  13.3171  13.6690  13.6690  13.7366  13.7366
    28.1395  28.1395  29.1352  29.1352  29.2913  29.2913  29.9235  29.9235
    30.3245  30.3245  30.5201  30.5201  30.9165  30.9165  31.2129  31.2129
    31.5069  31.5069  31.7796  31.7796  32.4942  32.4942  32.8929  32.8929
    33.0620  33.0620  33.8928  33.8928  34.3298  34.3298  35.0226  35.0226
    35.3680  35.3680  36.1591  36.1591  36.5173  36.5173  36.6592  36.6592
    37.9500  37.9500  38.0645  38.0645  38.4412  38.4412  38.9230  38.9234
    39.1266  39.1269

     the Fermi energy is    36.1220 ev

!    total energy              =   -1249.99967690 Ry
     Harris-Foulkes estimate   =   -1249.99968174 Ry
     estimated scf accuracy    <       0.00000574 Ry

     The total energy is the sum of the following terms:

     one-electron contribution =     293.89226592 Ry
     hartree contribution      =      54.01863462 Ry
     xc contribution           =    -161.37348873 Ry
     ewald contribution        =   -1436.04488828 Ry
     smearing contrib. (-TS)   =      -0.49220043 Ry

     convergence has been achieved in   9 iterations

     Forces acting on atoms (Ry/au):

     atom    1 type  1   force =     0.00000000    0.00187511   -0.03285932
     atom    2 type  1   force =     0.00000000   -0.00187511    0.03285932
     atom    3 type  1   force =     0.00000000    0.00187511    0.03285932
     atom    4 type  1   force =     0.00000000   -0.00187511   -0.03285932
     atom    5 type  1   force =     0.00000000    0.03339753   -0.11806472
     atom    6 type  1   force =     0.00000000   -0.03339753    0.11806472
     atom    7 type  1   force =     0.00000000    0.03339753    0.11806472
     atom    8 type  1   force =     0.00000000   -0.03339753   -0.11806472
     atom    9 type  2   force =     0.00000000   -0.10952018    0.02427182
     atom   10 type  2   force =     0.00000000    0.10952018   -0.02427182
     atom   11 type  2   force =     0.00000000   -0.10952018   -0.02427182
     atom   12 type  2   force =     0.00000000    0.10952018    0.02427182

     Total force =     0.338950     Total SCF correction =     0.006600


     entering subroutine stress ...

          total   stress  (Ry/bohr**3)                   (kbar)     P= 2296.19
   0.01560996   0.00000000   0.00000000       2296.30      0.00      0.00
   0.00000000   0.01532946   0.00000000          0.00   2255.04      0.00
   0.00000000   0.00000000   0.01588813          0.00      0.00   2337.22


     number of scf cycles    =   2
     number of bfgs steps    =   1

     enthalpy old            =   -1243.6924404665 Ry
     enthalpy new            =   -1249.9996768959 Ry

     CASE: enthalpy_new < enthalpy_old

     small trust_radius: resetting bfgs history

     new trust radius        =       2.6283949981 bohr
     new conv_thr            =       0.0001000000 Ry

     new unit-cell volume =   2941.33419 a.u.^3 (   435.86075 Ang^3 )

CELL_PARAMETERS (alat=  7.01510508)
   1.504092897   0.000000000   0.000000000
   0.000000000   1.968440544   0.000000000
   0.000000000   0.000000000   2.877695694

ATOMIC_POSITIONS (crystal)
Co       0.750000000   0.826409305   0.432973573
Co       0.250000000   0.173590695   0.567026427
Co       0.750000000   0.326409305   0.067026427
Co       0.250000000   0.673590695   0.932973573
Co       0.250000000   0.541204950   0.273087123
Co       0.750000000   0.458795050   0.726912877
Co       0.250000000   0.041204950   0.226912877
Co       0.750000000   0.958795050   0.773087123
Si       0.250000000   0.190320164   0.895293566
Si       0.750000000   0.809679836   0.104706434
Si       0.250000000   0.690320164   0.604706434
Si       0.750000000   0.309679836   0.395293566



     Writing output data file Prototype-La-oP12-Co2Si.save
     Check: negative starting charge=   -0.006564
     NEW-OLD atomic charge density approx. for the potential
     NEW k-points:
        k(    1) = (   0.0000000   0.0000000   0.0000000), wk =   0.0833333
        k(    2) = (   0.0000000   0.0000000   0.0868751), wk =   0.1666667
        k(    3) = (   0.0000000   0.0000000  -0.1737501), wk =   0.0833333
        k(    4) = (   0.0000000   0.1693388   0.0000000), wk =   0.1666667
        k(    5) = (   0.0000000   0.1693388   0.0868751), wk =   0.3333333
        k(    6) = (   0.0000000   0.1693388  -0.1737501), wk =   0.1666667
        k(    7) = (  -0.3324263   0.0000000   0.0000000), wk =   0.0833333
        k(    8) = (  -0.3324263   0.0000000   0.0868751), wk =   0.1666667
        k(    9) = (  -0.3324263   0.0000000  -0.1737501), wk =   0.0833333
        k(   10) = (  -0.3324263   0.1693388   0.0000000), wk =   0.1666667
        k(   11) = (  -0.3324263   0.1693388   0.0868751), wk =   0.3333333
        k(   12) = (  -0.3324263   0.1693388  -0.1737501), wk =   0.1666667
     extrapolated charge  196.62296, renormalised to  164.00000

     total cpu time spent up to now is      242.5 secs

     Self-consistent Calculation

     iteration #  1     ecut=    40.00 Ry     beta=0.70
     CG style diagonalization
     c_bands:  2 eigenvalues not converged
     c_bands:  2 eigenvalues not converged
     c_bands:  4 eigenvalues not converged
     c_bands:  2 eigenvalues not converged
     c_bands:  2 eigenvalues not converged
     c_bands:  3 eigenvalues not converged
     c_bands:  1 eigenvalues not converged
     ethr =  1.00E-06,  avg # of iterations = 32.1

     total cpu time spent up to now is      296.7 secs

     total energy              =    -890.19397792 Ry
     Harris-Foulkes estimate   =   -1468.87076084 Ry
     estimated scf accuracy    <     675.12422872 Ry

     iteration #  2     ecut=    40.00 Ry     beta=0.70
     CG style diagonalization
     c_bands:  4 eigenvalues not converged
     c_bands:  3 eigenvalues not converged
     c_bands:  5 eigenvalues not converged
     c_bands:  2 eigenvalues not converged
     ethr =  1.00E-02,  avg # of iterations = 15.0

     total cpu time spent up to now is      326.3 secs

     total energy              =    -917.06817121 Ry
     Harris-Foulkes estimate   =   -1630.57567987 Ry
     estimated scf accuracy    <    1637.77242320 Ry

     iteration #  3     ecut=    40.00 Ry     beta=0.70
     CG style diagonalization
     ethr =  1.00E-02,  avg # of iterations =  9.7

     total cpu time spent up to now is      341.2 secs

     total energy              =   -1239.30882216 Ry
     Harris-Foulkes estimate   =   -1248.26191495 Ry
     estimated scf accuracy    <      22.09616678 Ry

     iteration #  4     ecut=    40.00 Ry     beta=0.70
     CG style diagonalization
     ethr =  1.00E-02,  avg # of iterations =  3.5

     total cpu time spent up to now is      346.3 secs

     total energy              =   -1240.06846583 Ry
     Harris-Foulkes estimate   =   -1241.75561331 Ry
     estimated scf accuracy    <       7.65170091 Ry

     iteration #  5     ecut=    40.00 Ry     beta=0.70
     CG style diagonalization
     ethr =  4.67E-03,  avg # of iterations =  3.8

     total cpu time spent up to now is      352.0 secs

     total energy              =   -1240.61439485 Ry
     Harris-Foulkes estimate   =   -1241.91610786 Ry
     estimated scf accuracy    <       5.97012428 Ry

     iteration #  6     ecut=    40.00 Ry     beta=0.70
     CG style diagonalization
     ethr =  3.64E-03,  avg # of iterations =  3.4

     total cpu time spent up to now is      357.1 secs

     total energy              =   -1241.37828150 Ry
     Harris-Foulkes estimate   =   -1241.59855034 Ry
     estimated scf accuracy    <       1.09357328 Ry

     iteration #  7     ecut=    40.00 Ry     beta=0.70
     CG style diagonalization
     c_bands:  1 eigenvalues not converged
     c_bands:  1 eigenvalues not converged
     c_bands:  2 eigenvalues not converged
     ethr =  6.67E-04,  avg # of iterations =  4.4

     total cpu time spent up to now is      363.9 secs

     total energy              =   -1241.32618498 Ry
     Harris-Foulkes estimate   =   -1241.61591272 Ry
     estimated scf accuracy    <       0.65344934 Ry

     iteration #  8     ecut=    40.00 Ry     beta=0.70
     CG style diagonalization
     c_bands:  2 eigenvalues not converged
     c_bands:  1 eigenvalues not converged
     c_bands:  2 eigenvalues not converged
     c_bands:  2 eigenvalues not converged
     ethr =  3.98E-04,  avg # of iterations =  4.9

     total cpu time spent up to now is      371.4 secs

     total energy              =   -1241.48526842 Ry
     Harris-Foulkes estimate   =   -1241.71764147 Ry
     estimated scf accuracy    <       1.35759935 Ry

     iteration #  9     ecut=    40.00 Ry     beta=0.70
     CG style diagonalization
     ethr =  3.98E-04,  avg # of iterations =  3.2

     total cpu time spent up to now is      376.0 secs

     total energy              =   -1241.50602080 Ry
     Harris-Foulkes estimate   =   -1241.54999759 Ry
     estimated scf accuracy    <       0.30495034 Ry

     iteration # 10     ecut=    40.00 Ry     beta=0.70
     CG style diagonalization
     c_bands:  1 eigenvalues not converged
     c_bands:  2 eigenvalues not converged
     ethr =  1.86E-04,  avg # of iterations =  4.0

     total cpu time spent up to now is      381.6 secs

     total energy              =   -1241.55965199 Ry
     Harris-Foulkes estimate   =   -1241.56023551 Ry
     estimated scf accuracy    <       0.00218431 Ry

     iteration # 11     ecut=    40.00 Ry     beta=0.70
     CG style diagonalization
     c_bands:  2 eigenvalues not converged
     c_bands:  2 eigenvalues not converged
     c_bands:  2 eigenvalues not converged
     c_bands:  2 eigenvalues not converged
     c_bands:  4 eigenvalues not converged
     c_bands:  4 eigenvalues not converged
     c_bands:  2 eigenvalues not converged
     c_bands:  5 eigenvalues not converged
     c_bands:  3 eigenvalues not converged
     c_bands:  4 eigenvalues not converged
     c_bands:  5 eigenvalues not converged
     ethr =  1.33E-06,  avg # of iterations =  7.6

     total cpu time spent up to now is      392.5 secs

     total energy              =   -1241.57326585 Ry
     Harris-Foulkes estimate   =   -1241.58140228 Ry
     estimated scf accuracy    <       0.09843765 Ry

     iteration # 12     ecut=    40.00 Ry     beta=0.70
     CG style diagonalization
     c_bands:  1 eigenvalues not converged
     c_bands:  1 eigenvalues not converged
     c_bands:  2 eigenvalues not converged
     c_bands:  2 eigenvalues not converged
     c_bands:  1 eigenvalues not converged
     c_bands:  2 eigenvalues not converged
     ethr =  1.33E-06,  avg # of iterations =  5.0

     total cpu time spent up to now is      399.7 secs

     total energy              =   -1241.57059464 Ry
     Harris-Foulkes estimate   =   -1241.57498450 Ry
     estimated scf accuracy    <       0.03206315 Ry

     iteration # 13     ecut=    40.00 Ry     beta=0.70
     CG style diagonalization
     c_bands:  1 eigenvalues not converged
     c_bands:  1 eigenvalues not converged
     c_bands:  2 eigenvalues not converged
     ethr =  1.33E-06,  avg # of iterations =  5.1

     total cpu time spent up to now is      406.8 secs

     total energy              =   -1241.57197541 Ry
     Harris-Foulkes estimate   =   -1241.57232269 Ry
     estimated scf accuracy    <       0.00170210 Ry

     iteration # 14     ecut=    40.00 Ry     beta=0.70
     CG style diagonalization
     c_bands:  1 eigenvalues not converged
     ethr =  1.04E-06,  avg # of iterations =  3.1

     total cpu time spent up to now is      411.0 secs

     total energy              =   -1241.57208936 Ry
     Harris-Foulkes estimate   =   -1241.57211230 Ry
     estimated scf accuracy    <       0.00014277 Ry

     iteration # 15     ecut=    40.00 Ry     beta=0.70
     CG style diagonalization
     c_bands:  1 eigenvalues not converged
     c_bands:  1 eigenvalues not converged
     c_bands:  3 eigenvalues not converged
     c_bands:  1 eigenvalues not converged
     c_bands:  2 eigenvalues not converged
     c_bands:  2 eigenvalues not converged
     c_bands:  3 eigenvalues not converged
     c_bands:  2 eigenvalues not converged
     ethr =  8.71E-08,  avg # of iterations =  5.5

     total cpu time spent up to now is      418.8 secs

     total energy              =   -1241.57220899 Ry
     Harris-Foulkes estimate   =   -1241.57225594 Ry
     estimated scf accuracy    <       0.00035819 Ry

     iteration # 16     ecut=    40.00 Ry     beta=0.70
     CG style diagonalization
     c_bands:  2 eigenvalues not converged
     c_bands:  1 eigenvalues not converged
     ethr =  8.71E-08,  avg # of iterations =  3.2

     total cpu time spent up to now is      423.1 secs

     total energy              =   -1241.57220778 Ry
     Harris-Foulkes estimate   =   -1241.57222062 Ry
     estimated scf accuracy    <       0.00010682 Ry

     iteration # 17     ecut=    40.00 Ry     beta=0.70
     CG style diagonalization
     c_bands:  1 eigenvalues not converged
     ethr =  6.51E-08,  avg # of iterations =  3.3

     total cpu time spent up to now is      427.4 secs

     End of self-consistent calculation

          k = 0.0000 0.0000 0.0000 (  3675 PWs)   bands (ev):

   -35.8621 -35.8121 -35.7937 -35.7544 -35.7466 -35.7089 -35.6692 -35.6168
   -32.2686 -32.2672 -32.2364 -32.2271 -14.0260 -14.0215 -13.9838 -13.9618
   -13.9495 -13.9412 -13.9106 -13.8895 -13.8833 -13.8745 -13.8433 -13.8401
   -13.8330 -13.8202 -13.8147 -13.8090 -13.8062 -13.8019 -13.7930 -13.7642
   -13.7397 -13.7359 -13.7355 -13.7289 -11.0841 -11.0296 -11.0267 -11.0245
   -11.0195 -11.0139 -11.0115 -11.0112 -11.0102 -10.9941 -10.9764 -10.9736
     7.4748   8.5423   8.8366   8.8559   8.8728   8.9346   8.9933   9.0320
     9.0803   9.1033   9.1428   9.1738   9.3148   9.4961   9.6167   9.6783
     9.7237   9.8292   9.8382  10.1770  10.2192  10.2353  10.2420  10.3778
    10.5323  10.5425  10.5708  10.6448  10.7091  10.7387  10.7482  10.9173
    11.0500  11.1407  11.1967  11.2203  11.5150  11.5959  11.6161  11.7780
    11.8645  12.0046  12.0818  12.1244  12.3959  12.4189  12.5219  12.5921
    12.6007  12.7380

          k = 0.0000 0.0000 0.0869 (  3675 PWs)   bands (ev):

   -35.8528 -35.8442 -35.8311 -35.7334 -35.7080 -35.7013 -35.6824 -35.6142
   -32.2760 -32.2599 -32.2438 -32.2192 -14.0288 -14.0087 -13.9911 -13.9702
   -13.9688 -13.9454 -13.9225 -13.9109 -13.8829 -13.8627 -13.8457 -13.8435
   -13.8200 -13.8199 -13.8194 -13.8101 -13.8009 -13.7902 -13.7672 -13.7655
   -13.7451 -13.7353 -13.7287 -13.7243 -11.0837 -11.0571 -11.0361 -11.0288
   -11.0271 -11.0173 -11.0106 -10.9987 -10.9956 -10.9933 -10.9763 -10.9557
     7.6036   8.4236   8.6266   8.7347   8.7791   8.8861   8.9593   9.0473
     9.1500   9.2328   9.2772   9.3349   9.4566   9.6171   9.6312   9.7615
     9.8072   9.8257   9.8702   9.9204  10.0842  10.1785  10.2486  10.3639
    10.3759  10.4304  10.4319  10.6274  10.6856  10.7304  10.9497  11.0043
    11.0734  11.2320  11.2427  11.3088  11.5078  11.6085  11.6839  11.7286
    11.8517  11.8891  12.0963  12.1366  12.2189  12.3073  12.3566  12.5338
    12.6703  12.7039

          k = 0.0000 0.0000-0.1738 (  3690 PWs)   bands (ev):

   -35.8786 -35.8786 -35.7995 -35.7995 -35.7271 -35.7271 -35.6594 -35.6594
   -32.2852 -32.2852 -32.2414 -32.2414 -14.0329 -14.0329 -13.9814 -13.9814
   -13.9588 -13.9588 -13.9174 -13.9174 -13.8721 -13.8721 -13.8442 -13.8442
   -13.8317 -13.8317 -13.8174 -13.8174 -13.8149 -13.8149 -13.7846 -13.7846
   -13.7621 -13.7621 -13.7251 -13.7251 -11.0833 -11.0833 -11.0648 -11.0648
   -11.0290 -11.0290 -11.0020 -11.0020 -11.0012 -11.0012 -10.9648 -10.9648
     7.9402   7.9402   8.6483   8.6483   8.8811   8.8811   8.9116   8.9116
     9.3629   9.3629   9.4072   9.4072   9.5101   9.5101   9.6963   9.6963
     9.7780   9.7780   9.8905   9.8905  10.0568  10.0568  10.3237  10.3237
    10.4708  10.4708  10.5119  10.5119  10.7459  10.7459  10.7495  10.7495
    11.0779  11.0779  11.3799  11.3799  11.7461  11.7461  11.7792  11.7792
    11.8764  11.8764  11.9837  11.9837  12.1597  12.1597  12.3299  12.3299
    12.7074  12.7074

          k = 0.0000 0.1693 0.0000 (  3664 PWs)   bands (ev):

   -35.8174 -35.8117 -35.7956 -35.7522 -35.6988 -35.6799 -35.6454 -35.6373
   -32.2859 -32.2595 -32.2070 -32.1968 -13.9843 -13.9689 -13.9497 -13.9429
   -13.9400 -13.9355 -13.9166 -13.9153 -13.9114 -13.8683 -13.8616 -13.8510
   -13.8494 -13.8110 -13.8104 -13.8077 -13.7976 -13.7816 -13.7643 -13.7624
   -13.7552 -13.7494 -13.7402 -13.6994 -11.0603 -11.0595 -11.0365 -11.0315
   -11.0232 -11.0202 -11.0114 -10.9977 -10.9767 -10.9763 -10.9672 -10.9658
     7.9227   8.8386   8.8689   9.0248   9.0444   9.0464   9.0705   9.1891
     9.2191   9.2755   9.3069   9.3831   9.4136   9.4755   9.5635   9.5846
     9.6743   9.7076   9.9382   9.9943  10.1445  10.1713  10.1755  10.1812
    10.4236  10.5608  10.5849  10.5861  10.6967  10.8109  10.8646  10.9592
    11.0540  11.1795  11.2242  11.2500  11.5094  11.5360  11.7171  11.7918
    11.8675  11.9040  11.9096  11.9240  12.1925  12.2078  12.3828  12.5081
    12.5333  12.5717

          k = 0.0000 0.1693 0.0869 (  3669 PWs)   bands (ev):

   -35.8463 -35.8116 -35.7878 -35.7453 -35.7304 -35.6988 -35.6535 -35.6290
   -32.2792 -32.2527 -32.2356 -32.2112 -13.9958 -13.9806 -13.9643 -13.9598
   -13.9369 -13.9300 -13.9164 -13.9033 -13.8983 -13.8750 -13.8721 -13.8607
   -13.8514 -13.8270 -13.8149 -13.8052 -13.7945 -13.7823 -13.7672 -13.7660
   -13.7454 -13.7398 -13.7332 -13.7128 -11.0782 -11.0589 -11.0505 -11.0361
   -11.0288 -11.0164 -11.0065 -10.9993 -10.9987 -10.9711 -10.9660 -10.9565
     8.0338   8.7396   8.8012   8.8635   8.9847   9.1042   9.1119   9.1746
     9.1982   9.2933   9.3706   9.5028   9.5073   9.5217   9.6011   9.6203
     9.7415   9.7938   9.8780   9.9816   9.9921  10.0995  10.1548  10.3968
    10.4010  10.5094  10.5180  10.5987  10.6068  10.7506  10.8898  10.9758
    11.0454  11.0500  11.2102  11.3208  11.3501  11.5570  11.5901  11.7180
    11.7597  11.8752  11.9402  11.9992  12.1198  12.1900  12.4306  12.4682
    12.5130  12.6006

          k = 0.0000 0.1693-0.1738 (  3666 PWs)   bands (ev):

   -35.8034 -35.8034 -35.7589 -35.7589 -35.7146 -35.7146 -35.6585 -35.6585
   -32.2598 -32.2598 -32.2246 -32.2246 -13.9819 -13.9819 -13.9626 -13.9626
   -13.9249 -13.9249 -13.9093 -13.9093 -13.8900 -13.8900 -13.8538 -13.8538
   -13.8332 -13.8332 -13.8099 -13.8099 -13.7844 -13.7844 -13.7722 -13.7722
   -13.7452 -13.7452 -13.7293 -13.7293 -11.0691 -11.0691 -11.0395 -11.0395
   -11.0125 -11.0125 -10.9972 -10.9972 -10.9819 -10.9819 -10.9728 -10.9728
     8.3419   8.3419   8.7777   8.7777   9.0966   9.0966   9.1644   9.1644
     9.2476   9.2476   9.4259   9.4259   9.6427   9.6427   9.6534   9.6534
     9.7601   9.7601   9.8649   9.8649  10.1470  10.1470  10.2612  10.2612
    10.3194  10.3194  10.5020  10.5020  10.7592  10.7592  10.9246  10.9246
    10.9872  10.9872  11.2728  11.2728  11.2893  11.2893  11.6194  11.6194
    11.8536  11.8536  11.9657  11.9657  12.1006  12.1006  12.5310  12.5310
    12.5323  12.5323

          k =-0.3324 0.0000 0.0000 (  3722 PWs)   bands (ev):

   -35.8400 -35.8400 -35.8360 -35.8360 -35.7985 -35.7985 -35.7749 -35.7749
   -32.3058 -32.3058 -32.2939 -32.2939 -14.0651 -14.0651 -13.9983 -13.9983
   -13.9775 -13.9775 -13.9703 -13.9703 -13.9099 -13.9099 -13.8634 -13.8634
   -13.8527 -13.8527 -13.8223 -13.8223 -13.8030 -13.8030 -13.7715 -13.7715
   -13.7509 -13.7509 -13.7505 -13.7505 -11.0748 -11.0748 -11.0706 -11.0706
   -11.0482 -11.0482 -11.0290 -11.0290 -11.0289 -11.0289 -11.0084 -11.0084
     8.6362   8.6362   8.7506   8.7506   8.8281   8.8281   8.9369   8.9369
     9.3502   9.3502   9.6277   9.6277   9.7457   9.7457   9.7771   9.7771
     9.8147   9.8147  10.0442  10.0442  10.0732  10.0732  10.2194  10.2194
    10.4877  10.4877  10.6063  10.6063  10.7715  10.7715  10.9294  10.9294
    11.1128  11.1128  11.2297  11.2297  11.4705  11.4705  11.5062  11.5062
    11.8533  11.8533  12.1984  12.1984  12.2224  12.2224  12.3865  12.3865
    12.4004  12.4003

          k =-0.3324 0.0000 0.0869 (  3710 PWs)   bands (ev):

   -35.8280 -35.8280 -35.8081 -35.8081 -35.8016 -35.8016 -35.7402 -35.7402
   -32.2894 -32.2894 -32.2848 -32.2848 -14.0543 -14.0543 -13.9984 -13.9984
   -13.9794 -13.9794 -13.9393 -13.9393 -13.9026 -13.9026 -13.8655 -13.8655
   -13.8487 -13.8487 -13.8072 -13.8072 -13.7923 -13.7923 -13.7680 -13.7680
   -13.7580 -13.7580 -13.7538 -13.7538 -11.0696 -11.0696 -11.0558 -11.0558
   -11.0437 -11.0437 -11.0310 -11.0310 -11.0186 -11.0186 -10.9993 -10.9993
     8.6826   8.6826   8.7503   8.7503   8.8696   8.8696   9.0341   9.0341
     9.2276   9.2276   9.5070   9.5070   9.6896   9.6896   9.7688   9.7688
     9.9875   9.9875  10.0837  10.0837  10.1470  10.1470  10.2587  10.2587
    10.4777  10.4777  10.5202  10.5202  10.6264  10.6264  10.8250  10.8250
    10.9649  10.9649  11.1493  11.1493  11.4903  11.4903  11.6309  11.6309
    11.9838  11.9838  12.1671  12.1671  12.2939  12.2939  12.3192  12.3192
    12.4775  12.4775

          k =-0.3324 0.0000-0.1738 (  3680 PWs)   bands (ev):

   -35.7950 -35.7950 -35.7612 -35.7612 -35.7333 -35.7333 -35.7200 -35.7200
   -32.2676 -32.2676 -32.2468 -32.2468 -14.0542 -14.0542 -13.9693 -13.9693
   -13.9659 -13.9659 -13.9004 -13.9004 -13.8744 -13.8744 -13.8579 -13.8579
   -13.8559 -13.8559 -13.7994 -13.7994 -13.7724 -13.7724 -13.7708 -13.7708
   -13.7428 -13.7428 -13.7291 -13.7291 -11.0587 -11.0587 -11.0460 -11.0460
   -11.0301 -11.0301 -11.0118 -11.0118 -11.0020 -11.0020 -10.9648 -10.9648
     8.6542   8.6542   8.9375   8.9375   8.9452   8.9452   9.0368   9.0368
     9.0864   9.0864   9.4213   9.4213   9.7877   9.7877   9.7979   9.7979
    10.0066  10.0066  10.0120  10.0120  10.1673  10.1673  10.1767  10.1767
    10.4083  10.4083  10.4874  10.4874  10.5275  10.5275  10.9541  10.9541
    11.0376  11.0376  11.1123  11.1123  11.4763  11.4763  11.6427  11.6427
    11.7479  11.7479  12.0375  12.0375  12.3224  12.3224  12.4294  12.4294
    12.4303  12.4303

          k =-0.3324 0.1693 0.0000 (  3686 PWs)   bands (ev):

   -35.7908 -35.7908 -35.7844 -35.7844 -35.7553 -35.7553 -35.7304 -35.7304
   -32.2702 -32.2702 -32.2624 -32.2624 -14.0059 -14.0059 -13.9722 -13.9722
   -13.9658 -13.9658 -13.9126 -13.9126 -13.9070 -13.9070 -13.8525 -13.8525
   -13.8267 -13.8267 -13.8229 -13.8229 -13.7798 -13.7798 -13.7759 -13.7759
   -13.7564 -13.7564 -13.7456 -13.7456 -11.0578 -11.0578 -11.0513 -11.0513
   -11.0307 -11.0307 -11.0238 -11.0238 -10.9918 -10.9918 -10.9898 -10.9898
     8.8506   8.8506   9.0187   9.0187   9.1176   9.1176   9.1901   9.1901
     9.4833   9.4833   9.6414   9.6414   9.8835   9.8835   9.9151   9.9151
     9.9531   9.9531  10.0810  10.0810  10.1732  10.1732  10.2838  10.2838
    10.3518  10.3518  10.3681  10.3681  10.4780  10.4780  10.8197  10.8197
    10.8475  10.8475  11.1477  11.1477  11.3293  11.3293  11.4092  11.4092
    11.5715  11.5715  11.8673  11.8673  12.1872  12.1872  12.3038  12.3038
    12.4266  12.4266

          k =-0.3324 0.1693 0.0869 (  3692 PWs)   bands (ev):

   -35.8027 -35.8027 -35.7846 -35.7846 -35.7599 -35.7599 -35.7436 -35.7436
   -32.2898 -32.2898 -32.2534 -32.2534 -14.0083 -14.0083 -13.9749 -13.9749
   -13.9558 -13.9558 -13.9284 -13.9284 -13.8985 -13.8985 -13.8581 -13.8581
   -13.8315 -13.8315 -13.8172 -13.8172 -13.7918 -13.7918 -13.7769 -13.7769
   -13.7651 -13.7651 -13.7487 -13.7487 -11.0759 -11.0759 -11.0518 -11.0518
   -11.0351 -11.0351 -11.0156 -11.0156 -11.0047 -11.0047 -10.9846 -10.9846
     8.9299   8.9299   8.9734   8.9734   9.1510   9.1510   9.3179   9.3179
     9.4675   9.4675   9.5889   9.5889   9.6743   9.6743   9.8755   9.8755
     9.9845   9.9845  10.1572  10.1572  10.1780  10.1780  10.2925  10.2925
    10.3467  10.3467  10.4017  10.4017  10.5163  10.5163  10.6842  10.6842
    10.9246  10.9246  11.0976  11.0976  11.3087  11.3087  11.4044  11.4044
    11.5876  11.5876  11.7565  11.7565  12.1442  12.1442  12.2608  12.2608
    12.3876  12.3876

          k =-0.3324 0.1693-0.1738 (  3704 PWs)   bands (ev):

   -35.8174 -35.8174 -35.8105 -35.8105 -35.7765 -35.7765 -35.7497 -35.7497
   -32.3051 -32.3051 -32.2613 -32.2613 -14.0171 -14.0171 -13.9809 -13.9809
   -13.9627 -13.9627 -13.9185 -13.9185 -13.9175 -13.9175 -13.8734 -13.8734
   -13.8354 -13.8354 -13.8179 -13.8179 -13.7954 -13.7954 -13.7942 -13.7942
   -13.7659 -13.7659 -13.7491 -13.7491 -11.0924 -11.0924 -11.0623 -11.0623
   -11.0371 -11.0371 -11.0285 -11.0285 -11.0115 -11.0115 -10.9800 -10.9800
     8.9117   8.9117   9.1484   9.1484   9.1592   9.1592   9.3576   9.3576
     9.3994   9.3994   9.6014   9.6014   9.6157   9.6157   9.8202   9.8202
     9.9252   9.9252  10.0701  10.0701  10.1662  10.1662  10.2709  10.2709
    10.3174  10.3174  10.4456  10.4456  10.6126  10.6126  10.8252  10.8252
    10.8791  10.8791  11.0595  11.0595  11.2274  11.2274  11.4666  11.4666
    11.4890  11.4890  11.7081  11.7081  12.1520  12.1520  12.1756  12.1756
    12.3262  12.3262

     the Fermi energy is    11.2191 ev

!    total energy              =   -1241.57219487 Ry
     Harris-Foulkes estimate   =   -1241.57221513 Ry
     estimated scf accuracy    <       0.00002195 Ry

     The total energy is the sum of the following terms:

     one-electron contribution =    -234.49928022 Ry
     hartree contribution      =     171.26424375 Ry
     xc contribution           =    -143.30194464 Ry
     ewald contribution        =   -1033.53457371 Ry
     smearing contrib. (-TS)   =      -1.50064004 Ry

     convergence has been achieved in  17 iterations

     Forces acting on atoms (Ry/au):

     atom    1 type  1   force =     0.00000000    0.00274579    0.00293542
     atom    2 type  1   force =     0.00000000   -0.00274579   -0.00293542
     atom    3 type  1   force =     0.00000000    0.00274579   -0.00293542
     atom    4 type  1   force =     0.00000000   -0.00274579    0.00293542
     atom    5 type  1   force =     0.00000000   -0.00155315   -0.00077682
     atom    6 type  1   force =     0.00000000    0.00155315    0.00077682
     atom    7 type  1   force =     0.00000000   -0.00155315    0.00077682
     atom    8 type  1   force =     0.00000000    0.00155315   -0.00077682
     atom    9 type  2   force =     0.00000000   -0.00034795   -0.00145939
     atom   10 type  2   force =     0.00000000    0.00034795    0.00145939
     atom   11 type  2   force =     0.00000000   -0.00034795    0.00145939
     atom   12 type  2   force =     0.00000000    0.00034795   -0.00145939

     Total force =     0.009257     Total SCF correction =     0.001366
     SCF correction compared to forces is large: reduce conv_thr to get better values


     entering subroutine stress ...

          total   stress  (Ry/bohr**3)                   (kbar)     P=-1207.09
  -0.00818982   0.00000000   0.00000000      -1204.76      0.00      0.00
   0.00000000  -0.00816763   0.00000000          0.00  -1201.50      0.00
   0.00000000   0.00000000  -0.00825945          0.00      0.00  -1215.01


     number of scf cycles    =   3
     number of bfgs steps    =   2

     enthalpy old            =   -1249.9996768959 Ry
     enthalpy new            =   -1241.5721948736 Ry

     CASE: enthalpy_new > enthalpy_old

     new trust radius        =       1.0866902292 bohr

     trust_radius < trust_radius_min

     resetting bfgs history

     Message from routine bfgs:
     history already reset at previous step: stopping
     new conv_thr            =       0.0001000000 Ry

     new unit-cell volume =   1313.62116 a.u.^3 (   194.65857 Ang^3 )

CELL_PARAMETERS (alat=  7.01510508)
   1.149667929   0.000000000   0.000000000
   0.000000000   1.509741187   0.000000000
   0.000000000   0.000000000   2.192263106

ATOMIC_POSITIONS (crystal)
Co       0.750000000   0.826243383   0.434987834
Co       0.250000000   0.173756617   0.565012166
Co       0.750000000   0.326243383   0.065012166
Co       0.250000000   0.673756617   0.934987834
Co       0.250000000   0.538249718   0.280324433
Co       0.750000000   0.461750282   0.719675567
Co       0.250000000   0.038249718   0.219675567
Co       0.750000000   0.961750282   0.780324433
Si       0.250000000   0.200011225   0.893805716
Si       0.750000000   0.799988775   0.106194284
Si       0.250000000   0.700011225   0.606194284
Si       0.750000000   0.299988775   0.393805716



     Writing output data file Prototype-La-oP12-Co2Si.save
     NEW-OLD atomic charge density approx. for the potential
     NEW k-points:
        k(    1) = (   0.0000000   0.0000000   0.0000000), wk =   0.0833333
        k(    2) = (   0.0000000   0.0000000   0.1140374), wk =   0.1666667
        k(    3) = (   0.0000000   0.0000000  -0.2280748), wk =   0.0833333
        k(    4) = (   0.0000000   0.2207884   0.0000000), wk =   0.1666667
        k(    5) = (   0.0000000   0.2207884   0.1140374), wk =   0.3333333
        k(    6) = (   0.0000000   0.2207884  -0.2280748), wk =   0.1666667
        k(    7) = (  -0.4349082   0.0000000   0.0000000), wk =   0.0833333
        k(    8) = (  -0.4349082   0.0000000   0.1140374), wk =   0.1666667
        k(    9) = (  -0.4349082   0.0000000  -0.2280748), wk =   0.0833333
        k(   10) = (  -0.4349082   0.2207884   0.0000000), wk =   0.1666667
        k(   11) = (  -0.4349082   0.2207884   0.1140374), wk =   0.3333333
        k(   12) = (  -0.4349082   0.2207884  -0.2280748), wk =   0.1666667
     Check: negative starting charge=   -0.012618

     negative rho (up, down):  0.241E+02 0.000E+00
     extrapolated charge   99.61348, renormalised to  164.00000

     total cpu time spent up to now is      430.1 secs

     Self-consistent Calculation

     iteration #  1     ecut=    40.00 Ry     beta=0.70
     CG style diagonalization
     c_bands:  5 eigenvalues not converged
     c_bands:  2 eigenvalues not converged
     c_bands:  1 eigenvalues not converged
     c_bands:  2 eigenvalues not converged
     c_bands:  2 eigenvalues not converged
     c_bands:  2 eigenvalues not converged
     c_bands:  2 eigenvalues not converged
     ethr =  1.00E-06,  avg # of iterations = 42.9

     negative rho (up, down):  0.140E+00 0.000E+00

     total cpu time spent up to now is      487.3 secs

     total energy              =     529.40272479 Ry
     Harris-Foulkes estimate   =   -2860.95461738 Ry
     estimated scf accuracy    <    4970.60400355 Ry

     iteration #  2     ecut=    40.00 Ry     beta=0.70
     CG style diagonalization
     ethr =  1.00E-02,  avg # of iterations = 19.4

     negative rho (up, down):  0.742E-01 0.000E+00

     total cpu time spent up to now is      513.7 secs

     total energy              =   -1191.92570889 Ry
     Harris-Foulkes estimate   =   -2026.97393377 Ry
     estimated scf accuracy    <    1235.64615067 Ry

     iteration #  3     ecut=    40.00 Ry     beta=0.70
     CG style diagonalization
     c_bands:  1 eigenvalues not converged
     ethr =  1.00E-02,  avg # of iterations =  9.8

     negative rho (up, down):  0.526E-01 0.000E+00

     total cpu time spent up to now is      527.7 secs

     total energy              =   -1256.61157968 Ry
     Harris-Foulkes estimate   =   -1312.45026146 Ry
     estimated scf accuracy    <     144.61626442 Ry

     iteration #  4     ecut=    40.00 Ry     beta=0.70
     CG style diagonalization
     ethr =  1.00E-02,  avg # of iterations =  4.3

     negative rho (up, down):  0.161E-01 0.000E+00

     total cpu time spent up to now is      533.6 secs

     total energy              =   -1247.60695179 Ry
     Harris-Foulkes estimate   =   -1268.77080259 Ry
     estimated scf accuracy    <      37.42268686 Ry

     iteration #  5     ecut=    40.00 Ry     beta=0.70
     CG style diagonalization
     ethr =  1.00E-02,  avg # of iterations =  3.8

     negative rho (up, down):  0.167E-02 0.000E+00

     total cpu time spent up to now is      538.6 secs

     total energy              =   -1249.53097266 Ry
     Harris-Foulkes estimate   =   -1254.41757782 Ry
     estimated scf accuracy    <      10.15651717 Ry

     iteration #  6     ecut=    40.00 Ry     beta=0.70
     CG style diagonalization
     ethr =  6.19E-03,  avg # of iterations =  3.6

     negative rho (up, down):  0.922E-04 0.000E+00

     total cpu time spent up to now is      543.4 secs

     total energy              =   -1251.40748216 Ry
     Harris-Foulkes estimate   =   -1252.52548064 Ry
     estimated scf accuracy    <       2.65109209 Ry

     iteration #  7     ecut=    40.00 Ry     beta=0.70
     CG style diagonalization
     ethr =  1.62E-03,  avg # of iterations =  3.7

     total cpu time spent up to now is      548.5 secs

     total energy              =   -1251.95398282 Ry
     Harris-Foulkes estimate   =   -1252.02025458 Ry
     estimated scf accuracy    <       0.14836401 Ry

     iteration #  8     ecut=    40.00 Ry     beta=0.70
     CG style diagonalization
     c_bands:  2 eigenvalues not converged
     c_bands:  1 eigenvalues not converged
     c_bands:  1 eigenvalues not converged
     c_bands:  1 eigenvalues not converged
     c_bands:  3 eigenvalues not converged
     ethr =  9.05E-05,  avg # of iterations =  5.1

     total cpu time spent up to now is      555.5 secs

     total energy              =   -1252.00222641 Ry
     Harris-Foulkes estimate   =   -1252.02008654 Ry
     estimated scf accuracy    <       0.04188152 Ry

     iteration #  9     ecut=    40.00 Ry     beta=0.70
     CG style diagonalization
     c_bands:  2 eigenvalues not converged
     ethr =  2.55E-05,  avg # of iterations =  3.9

     total cpu time spent up to now is      560.8 secs

     total energy              =   -1252.00884699 Ry
     Harris-Foulkes estimate   =   -1252.01118400 Ry
     estimated scf accuracy    <       0.00477337 Ry

     iteration # 10     ecut=    40.00 Ry     beta=0.70
     CG style diagonalization
     c_bands:  1 eigenvalues not converged
     ethr =  2.91E-06,  avg # of iterations =  4.4

     total cpu time spent up to now is      566.9 secs

     total energy              =   -1252.01054774 Ry
     Harris-Foulkes estimate   =   -1252.01084660 Ry
     estimated scf accuracy    <       0.00076398 Ry

     iteration # 11     ecut=    40.00 Ry     beta=0.70
     CG style diagonalization
     ethr =  4.66E-07,  avg # of iterations =  3.7

     total cpu time spent up to now is      572.0 secs

     End of self-consistent calculation

          k = 0.0000 0.0000 0.0000 (  3675 PWs)   bands (ev):

   -19.0883 -18.6679 -18.6651 -18.4773 -18.3852 -18.2443 -18.2175 -18.1851
   -13.8145 -13.7779 -13.7685 -13.5940   0.9807   1.4254   1.6011   1.8182
     1.9476   2.0218   2.0808   2.1756   2.1788   2.4802   2.7134   2.7740
     2.9798   2.9901   3.0429   3.1596   3.2028   3.5496   3.6082   3.6210
     3.7617   3.9118   4.3081   4.4223   6.4974   6.5245   6.5742   6.6977
     6.9090   7.0077   7.1282   7.2042   7.2529   7.3178   7.3185   7.3774
    22.2297  22.2831  22.3113  23.0366  23.2109  23.2205  23.2570  23.2975
    23.6109  24.4387  24.4861  24.5639  24.9499  25.1596  25.5874  25.6011
    26.0620  26.1475  26.5170  26.9896  27.4772  27.7727  27.9049  27.9179
    28.0020  28.0628  28.1067  28.3171  28.7674  28.9156  29.0204  29.1155
    29.3012  29.5799  29.6880  29.7288  30.4215  30.5928  30.8944  30.9424
    31.3221  31.6511  32.0158  32.3457  32.4122  32.8873  33.4523  33.5727
    33.7855  33.9150

          k = 0.0000 0.0000 0.1140 (  3675 PWs)   bands (ev):

   -19.0536 -18.8178 -18.5402 -18.4774 -18.3742 -18.2691 -18.2088 -18.1907
   -13.8205 -13.7806 -13.7376 -13.6152   1.0669   1.4555   1.5503   1.6613
     1.8299   1.8878   1.8950   2.2984   2.3132   2.6044   2.6321   2.8052
     2.8770   3.0054   3.1934   3.2107   3.3469   3.5409   3.6281   3.6350
     3.8116   3.9594   4.3234   4.3874   6.5253   6.5691   6.6231   6.6783
     6.8796   6.9043   7.0663   7.1712   7.2228   7.2520   7.3306   7.3692
    22.2028  22.2403  22.5696  22.6612  22.6717  23.1965  23.6640  23.6922
    23.8699  24.2764  24.8646  25.0814  25.2988  25.4958  25.6333  25.8110
    25.8420  25.8993  26.1962  26.9407  27.0598  27.4743  27.5030  27.5378
    27.6335  27.8191  28.0205  28.4763  28.6083  28.6811  28.7523  28.8000
    29.6529  30.1055  30.1102  30.6718  30.7341  30.8536  30.9598  31.1347
    31.1766  31.2784  32.0078  32.0618  32.0700  32.1987  33.0012  33.6424
    33.7337  33.8880

          k = 0.0000 0.0000-0.2281 (  3690 PWs)   bands (ev):

   -18.9586 -18.9586 -18.4830 -18.4830 -18.3272 -18.3272 -18.2004 -18.2004
   -13.8062 -13.8062 -13.6706 -13.6706   1.3029   1.3029   1.5240   1.5240
     1.7435   1.7435   2.0284   2.0284   2.4620   2.4620   2.8518   2.8518
[...]
     c_bands:  1 eigenvalues not converged
     c_bands:  2 eigenvalues not converged
     c_bands:  1 eigenvalues not converged
     c_bands:  1 eigenvalues not converged
     c_bands:  1 eigenvalues not converged
     ethr =  1.00E-02,  avg # of iterations = 13.2

     negative rho (up, down):  0.462E-03 0.000E+00

     total cpu time spent up to now is      748.0 secs

     total energy              =   -1099.26759578 Ry
     Harris-Foulkes estimate   =   -1422.37598573 Ry
     estimated scf accuracy    <     472.35669163 Ry

     iteration #  3     ecut=    40.00 Ry     beta=0.70
     CG style diagonalization
     c_bands:  1 eigenvalues not converged
     c_bands:  1 eigenvalues not converged
     ethr =  1.00E-02,  avg # of iterations = 11.7

     negative rho (up, down):  0.128E-03 0.000E+00

     total cpu time spent up to now is      772.7 secs

     total energy              =   -1224.16384969 Ry
     Harris-Foulkes estimate   =   -1302.66490553 Ry
     estimated scf accuracy    <     153.70403141 Ry

     iteration #  4     ecut=    40.00 Ry     beta=0.70
     CG style diagonalization
     ethr =  1.00E-02,  avg # of iterations =  5.6

     total cpu time spent up to now is      784.2 secs

     total energy              =   -1251.09352223 Ry
     Harris-Foulkes estimate   =   -1254.15925229 Ry
     estimated scf accuracy    <       4.56705638 Ry

     iteration #  5     ecut=    40.00 Ry     beta=0.70
     CG style diagonalization
     ethr =  2.78E-03,  avg # of iterations =  4.8

     total cpu time spent up to now is      794.0 secs

     total energy              =   -1251.74597198 Ry
     Harris-Foulkes estimate   =   -1254.98416167 Ry
     estimated scf accuracy    <       7.74264743 Ry

     iteration #  6     ecut=    40.00 Ry     beta=0.70
     CG style diagonalization
     ethr =  2.78E-03,  avg # of iterations =  3.7

     total cpu time spent up to now is      801.3 secs

     total energy              =   -1253.27757447 Ry
     Harris-Foulkes estimate   =   -1253.44000279 Ry
     estimated scf accuracy    <       0.32707380 Ry

     iteration #  7     ecut=    40.00 Ry     beta=0.70
     CG style diagonalization
     c_bands:  1 eigenvalues not converged
     c_bands:  2 eigenvalues not converged
     c_bands:  1 eigenvalues not converged
     c_bands:  1 eigenvalues not converged
     ethr =  1.99E-04,  avg # of iterations =  4.7

     total cpu time spent up to now is      811.0 secs

     total energy              =   -1253.38854517 Ry
     Harris-Foulkes estimate   =   -1253.45471669 Ry
     estimated scf accuracy    <       0.11666692 Ry

     iteration #  8     ecut=    40.00 Ry     beta=0.70
     CG style diagonalization
     c_bands:  1 eigenvalues not converged
     c_bands:  1 eigenvalues not converged
     c_bands:  1 eigenvalues not converged
     ethr =  7.11E-05,  avg # of iterations =  4.2

     total cpu time spent up to now is      819.3 secs

     total energy              =   -1253.42280685 Ry
     Harris-Foulkes estimate   =   -1253.43406098 Ry
     estimated scf accuracy    <       0.02588889 Ry

     iteration #  9     ecut=    40.00 Ry     beta=0.70
     CG style diagonalization
     c_bands:  1 eigenvalues not converged
     ethr =  1.58E-05,  avg # of iterations =  3.9

     total cpu time spent up to now is      827.1 secs

     total energy              =   -1253.42836599 Ry
     Harris-Foulkes estimate   =   -1253.42868159 Ry
     estimated scf accuracy    <       0.00063306 Ry

     iteration # 10     ecut=    40.00 Ry     beta=0.70
     CG style diagonalization
     c_bands:  1 eigenvalues not converged
     ethr =  3.86E-07,  avg # of iterations =  5.7

     total cpu time spent up to now is      838.8 secs

     total energy              =   -1253.42923007 Ry
     Harris-Foulkes estimate   =   -1253.42935551 Ry
     estimated scf accuracy    <       0.00034889 Ry

     iteration # 11     ecut=    40.00 Ry     beta=0.70
     CG style diagonalization
     c_bands:  1 eigenvalues not converged
     ethr =  2.13E-07,  avg # of iterations =  3.4

     total cpu time spent up to now is      845.4 secs

     End of self-consistent calculation

          k = 0.0000 0.0000 0.0000 (  5651 PWs)   bands (ev):

   -19.0039 -18.5808 -18.5783 -18.3802 -18.2895 -18.1552 -18.1360 -18.1038
   -13.6873 -13.6511 -13.6402 -13.4643   0.8909   1.2826   1.4789   1.6878
     1.7925   1.8893   1.9460   2.0401   2.0406   2.3350   2.5543   2.6182
     2.8244   2.8361   2.8853   2.9975   3.0417   3.3767   3.4417   3.4456
     3.5719   3.7451   4.1524   4.2469   6.3878   6.4218   6.4594   6.5625
     6.7851   6.8851   7.0064   7.0594   7.1341   7.1712   7.1973   7.2380
    22.2122  22.2568  22.2832  23.0008  23.1850  23.1885  23.2299  23.2600
    23.5863  24.4077  24.4592  24.5589  24.9246  25.1371  25.5363  25.5706
    25.9978  26.1168  26.4594  26.9224  27.4449  27.7436  27.8611  27.8784
    27.9422  28.0121  28.0378  28.2876  28.7021  28.8425  28.9469  29.0513
    29.2413  29.5130  29.6256  29.6849  30.3549  30.5479  30.8422  30.8919
    31.2719  31.6093  31.9514  32.2872  32.2970  32.8155  33.3998  33.4892
    33.7330  33.8455

          k = 0.0000 0.0000 0.1140 (  5613 PWs)   bands (ev):

   -18.9693 -18.7329 -18.4489 -18.3789 -18.2807 -18.1789 -18.1309 -18.1077
   -13.6932 -13.6523 -13.6099 -13.4854   0.9676   1.3191   1.4298   1.5444
     1.6846   1.7511   1.7675   2.1622   2.1851   2.4658   2.4833   2.6443
     2.7287   2.8379   3.0149   3.0549   3.1702   3.3686   3.4521   3.4552
     3.6320   3.7990   4.1713   4.2272   6.4054   6.4503   6.5081   6.5521
     6.7567   6.8099   6.9455   7.0395   7.0943   7.1417   7.1778   7.2262
    22.1782  22.2147  22.5478  22.6308  22.6425  23.1714  23.6379  23.6591
    23.8363  24.2501  24.8518  25.0437  25.2760  25.4700  25.5763  25.7604
    25.7896  25.8671  26.1565  26.8841  27.0180  27.4383  27.4475  27.4856
    27.5817  27.7710  27.9852  28.4299  28.5688  28.6293  28.6863  28.7413
    29.6036  30.0345  30.0623  30.6104  30.6954  30.7890  30.8790  31.0779
    31.1162  31.2238  31.9363  31.9881  32.0128  32.1165  32.9338  33.5706
    33.6862  33.8146

          k = 0.0000 0.0000-0.2281 (  5586 PWs)   bands (ev):

   -18.8724 -18.8724 -18.3868 -18.3868 -18.2362 -18.2362 -18.1189 -18.1189
   -13.6781 -13.6781 -13.5415 -13.5415   1.1919   1.1919   1.3937   1.3937
     1.6207   1.6207   1.8970   1.8970   2.3309   2.3309   2.6983   2.6983
     2.8932   2.8932   3.0751   3.0751   3.2054   3.2054   3.3948   3.3948
     3.8539   3.8539   4.1989   4.1989   6.5097   6.5097   6.5670   6.5670
     6.6405   6.6405   6.9093   6.9093   7.1215   7.1215   7.1996   7.1996
    22.2528  22.2528  22.2680  22.2680  22.9829  22.9829  24.1422  24.1422
    24.5448  24.5448  24.6012  24.6012  25.5043  25.5043  25.6473  25.6473
    26.0025  26.0025  26.2348  26.2348  26.6831  26.6831  27.2580  27.2580
    27.4624  27.4624  28.5502  28.5502  28.7767  28.7767  28.9021  28.9021
    29.5786  29.5786  29.9190  29.9190  30.8710  30.8710  30.9816  30.9816
    31.4510  31.4510  31.6771  31.6771  32.5302  32.5303  32.9577  32.9578
    33.5700  33.5701

          k = 0.0000 0.2208 0.0000 (  5585 PWs)   bands (ev):

   -18.8791 -18.6269 -18.5081 -18.4693 -18.3133 -18.2067 -18.1250 -18.1077
   -13.6986 -13.6868 -13.5885 -13.5080   1.1641   1.6711   1.8098   1.8711
     1.8855   1.9686   1.9708   2.1171   2.2148   2.3438   2.4941   2.6075
     2.7367   2.7799   2.8161   3.1168   3.1442   3.3055   3.3902   3.5183
     3.5462   3.6693   3.8229   4.0020   6.2213   6.3703   6.4471   6.5332
     6.5747   6.6892   6.7672   6.8249   6.9305   6.9395   7.0644   7.1748
    22.8961  22.9613  23.0102  23.0573  23.5758  23.6378  23.7256  23.9978
    24.3109  24.3926  24.7478  25.0587  25.2610  25.3107  25.3925  25.6613
    25.8585  25.9524  26.0342  26.6908  26.7309  27.4120  27.4411  27.4794
    27.5959  28.0220  28.0309  28.5338  28.5989  28.6964  29.0994  29.2043
    29.5961  29.7183  29.9873  30.0027  30.7002  30.8899  30.9094  31.2854
    31.3515  31.5989  32.0203  32.0831  32.3616  32.4532  32.5520  33.1192
    33.2294  33.2944

          k = 0.0000 0.2208 0.1140 (  5603 PWs)   bands (ev):

   -18.8496 -18.6697 -18.5328 -18.4588 -18.2801 -18.1859 -18.1437 -18.1163
   -13.6930 -13.6657 -13.5952 -13.5271   1.2350   1.5412   1.6459   1.7609
     1.8534   1.9509   2.0415   2.0878   2.3097   2.3235   2.4529   2.6661
     2.7926   2.8667   2.9085   3.0998   3.2404   3.2891   3.4857   3.5024
     3.5906   3.6355   3.8397   3.9942   6.2546   6.3850   6.4411   6.4901
     6.5968   6.6530   6.7485   6.7547   6.8771   6.9652   6.9986   7.1510
    22.7192  22.8494  23.0067  23.2487  23.3476  23.7251  24.1182  24.2023
    24.3240  24.5016  24.8611  25.1329  25.2214  25.5121  25.5150  25.7056
    25.8826  25.9225  26.1900  26.3532  26.7647  27.1040  27.3565  27.4933
    27.7051  27.9979  28.2302  28.4174  28.4443  28.6343  29.0127  29.1678
    29.4161  29.7176  29.7856  29.8120  30.4670  30.6797  31.0074  31.0526
    31.3523  31.5253  31.7706  31.8915  32.3361  32.3707  32.6523  33.2393
    33.3701  33.5263

          k = 0.0000 0.2208-0.2281 (  5578 PWs)   bands (ev):

   -18.7695 -18.7695 -18.5006 -18.5006 -18.2071 -18.2071 -18.1416 -18.1416
   -13.6675 -13.6675 -13.5720 -13.5720   1.4421   1.4421   1.5017   1.5017
     1.9184   1.9184   2.1025   2.1025   2.2171   2.2171   2.6328   2.6328
     2.9438   2.9438   3.0776   3.0776   3.2362   3.2362   3.4658   3.4658
     3.6974   3.6974   3.9138   3.9138   6.3367   6.3368   6.4752   6.4752
     6.6451   6.6451   6.6635   6.6635   6.8458   6.8458   7.0874   7.0874
    22.6684  22.6684  22.9859  22.9859  23.8581  23.8581  24.3331  24.3331
    24.6756  24.6756  25.0060  25.0060  25.0873  25.0873  25.9240  25.9240
    25.9704  25.9704  26.2312  26.2312  26.6083  26.6083  27.5062  27.5062
    27.6049  27.6049  28.1212  28.1212  28.9147  28.9147  29.1391  29.1391
    29.4929  29.4929  29.9697  29.9697  30.0904  30.0904  30.6680  30.6680
    31.3425  31.3425  31.6565  31.6565  32.4663  32.4664  33.2054  33.2057
    33.2183  33.2183

          k =-0.4349 0.0000 0.0000 (  5616 PWs)   bands (ev):

   -18.6147 -18.6147 -18.4463 -18.4463 -18.3546 -18.3546 -18.1073 -18.1073
   -13.7066 -13.7066 -13.7062 -13.7062   0.7665   0.7665   1.3186   1.3186
     1.5044   1.5044   1.6855   1.6855   2.0428   2.0428   2.8507   2.8507
     2.9316   2.9316   3.0013   3.0013   3.6695   3.6695   3.7733   3.7733
     3.9779   3.9779   4.2221   4.2221   6.3313   6.3313   6.7775   6.7775
     6.9044   6.9044   6.9541   6.9541   7.2947   7.2947   7.4303   7.4303
    22.7088  22.7088  23.5995  23.5995  24.0186  24.0186  24.4652  24.4652
    24.6697  24.6697  24.7258  24.7258  24.7834  24.7834  25.0829  25.0829
    25.7698  25.7698  26.1382  26.1382  26.2277  26.2277  26.4276  26.4276
    27.4165  27.4165  27.9022  27.9022  28.2742  28.2742  29.0563  29.0563
    29.1608  29.1608  29.9369  29.9369  30.1042  30.1042  30.9052  30.9052
    31.5020  31.5020  31.5229  31.5229  32.0055  32.0057  32.6114  32.6116
    33.4076  33.4079

          k =-0.4349 0.0000 0.1140 (  5628 PWs)   bands (ev):

   -18.6049 -18.6049 -18.4648 -18.4648 -18.3460 -18.3460 -18.1079 -18.1079
   -13.7064 -13.7064 -13.7054 -13.7054   0.8298   0.8298   1.0439   1.0439
     1.4076   1.4076   1.9739   1.9739   2.2390   2.2390   2.5467   2.5467
     2.8220   2.8220   3.2607   3.2607   3.6509   3.6509   3.8469   3.8469
     3.9683   3.9683   4.2301   4.2301   6.3554   6.3554   6.6948   6.6948
     6.8547   6.8547   7.0481   7.0481   7.2289   7.2289   7.3997   7.3997
    22.9200  22.9200  23.3194  23.3194  24.1151  24.1151  24.2824  24.2824
    24.5751  24.5751  24.8633  24.8633  25.0561  25.0561  25.4002  25.4002
    25.7531  25.7531  26.0964  26.0964  26.3326  26.3326  26.5691  26.5691
    27.1711  27.1711  27.5439  27.5439  28.4043  28.4043  28.7437  28.7437
    29.0303  29.0303  29.7997  29.7997  30.4015  30.4015  30.5944  30.5944
    31.5137  31.5137  31.9344  31.9346  32.1031  32.1032  32.5839  32.5841
    33.2668  33.2671

          k =-0.4349 0.0000-0.2281 (  5640 PWs)   bands (ev):

   -18.5929 -18.5929 -18.4838 -18.4838 -18.3390 -18.3390 -18.1084 -18.1084
   -13.7060 -13.7060 -13.7048 -13.7048   0.8375   0.8375   1.0286   1.0286
     1.2235   1.2235   2.1749   2.1749   2.2832   2.2832   2.6175   2.6175
     2.7259   2.7259   3.1555   3.1555   3.7692   3.7692   3.9136   3.9136
     3.9272   3.9272   4.2381   4.2381   6.4644   6.4644   6.5313   6.5313
     6.8291   6.8291   7.0806   7.0806   7.2214   7.2214   7.3434   7.3434
    23.0024  23.0024  23.5353  23.5353  23.6817  23.6817  24.3759  24.3759
    24.4916  24.4916  25.0189  25.0189  25.3901  25.3901  25.6730  25.6730
    25.6810  25.6810  25.9765  25.9765  26.2580  26.2580  26.5479  26.5479
    27.2099  27.2099  27.7443  27.7443  28.1531  28.1531  28.3396  28.3396
    28.9753  28.9753  29.8942  29.8942  30.1996  30.1996  30.3474  30.3474
    31.6978  31.6978  31.9163  31.9163  32.2681  32.2681  32.5192  32.5192
    33.2944  33.2946

          k =-0.4349 0.2208 0.0000 (  5624 PWs)   bands (ev):

   -18.5487 -18.5487 -18.4650 -18.4650 -18.3153 -18.3153 -18.1913 -18.1913
   -13.7235 -13.7235 -13.7235 -13.7235   1.1437   1.1437   1.4352   1.4352
     1.6461   1.6461   2.0212   2.0212   2.2444   2.2444   2.5971   2.5971
     2.6910   2.6910   3.0475   3.0475   3.5889   3.5889   3.7167   3.7167
     3.8444   3.8444   3.9500   3.9500   6.4190   6.4190   6.6472   6.6472
     6.6844   6.6844   6.7403   6.7403   7.2323   7.2323   7.2973   7.2973
    23.3345  23.3345  24.0804  24.0804  24.3944  24.3944  24.4564  24.4564
    24.8265  24.8265  24.8284  24.8284  25.5812  25.5812  25.7633  25.7633
    25.9573  25.9573  26.2876  26.2876  26.6885  26.6885  26.8861  26.8861
    27.0630  27.0630  27.2002  27.2002  28.1790  28.1790  28.7339  28.7339
    29.1779  29.1779  29.7125  29.7125  29.9769  29.9769  30.5515  30.5515
    30.7793  30.7793  32.0074  32.0075  32.1939  32.1941  32.4009  32.4010
    33.2136  33.2640

          k =-0.4349 0.2208 0.1140 (  5622 PWs)   bands (ev):

   -18.5412 -18.5412 -18.4719 -18.4719 -18.3147 -18.3147 -18.1931 -18.1931
   -13.7231 -13.7231 -13.7227 -13.7227   1.1025   1.1025   1.3343   1.3343
     1.7899   1.7899   1.8603   1.8603   2.2726   2.2726   2.5345   2.5345
     2.8467   2.8467   3.2404   3.2404   3.5662   3.5662   3.6598   3.6598
     3.8359   3.8359   3.9644   3.9644   6.3921   6.3921   6.5728   6.5728
     6.6910   6.6910   6.8232   6.8232   7.1789   7.1789   7.2542   7.2542
    23.4346  23.4346  23.8626  23.8626  24.2966  24.2966  24.6174  24.6174
    24.8367  24.8367  25.2479  25.2479  25.5352  25.5352  25.8279  25.8279
    25.9261  25.9261  26.3474  26.3474  26.5057  26.5057  26.6410  26.6410
    27.2584  27.2584  27.5682  27.5682  28.3239  28.3239  28.6659  28.6659
    29.1149  29.1149  29.3274  29.3274  29.9415  29.9415  30.4153  30.4153
    30.9682  30.9682  31.5891  31.5891  32.0647  32.0647  32.5559  32.5561
    32.6453  32.6460

          k =-0.4349 0.2208-0.2281 (  5608 PWs)   bands (ev):

   -18.5316 -18.5316 -18.4809 -18.4809 -18.3139 -18.3139 -18.1949 -18.1949
   -13.7226 -13.7226 -13.7217 -13.7217   1.0137   1.0137   1.4942   1.4942
     1.5600   1.5600   1.8276   1.8276   2.4057   2.4057   2.4967   2.4967
     2.9521   2.9521   3.4346   3.4346   3.5478   3.5478   3.5493   3.5493
     3.8926   3.8926   3.9224   3.9224   6.3604   6.3604   6.5385   6.5385
     6.6940   6.6940   6.8762   6.8762   7.1335   7.1335   7.1994   7.1994
    23.3760  23.3760  24.0983  24.0983  24.1056  24.1056  24.7874  24.7874
    24.9378  24.9378  25.2306  25.2306  25.5104  25.5104  25.7725  25.7725
    25.9442  25.9442  26.2522  26.2522  26.6460  26.6460  27.0142  27.0142
    27.0804  27.0804  27.9010  27.9010  28.1787  28.1787  28.5776  28.5776
    28.6393  28.6393  29.8461  29.8461  29.8525  29.8525  30.3120  30.3120
    31.1481  31.1481  31.2348  31.2348  31.7739  31.7739  32.1089  32.1091
    32.1829  32.1832

     the Fermi energy is    29.5813 ev

!    total energy              =   -1253.42923347 Ry
     Harris-Foulkes estimate   =   -1253.42927740 Ry
     estimated scf accuracy    <       0.00005023 Ry

     The total energy is the sum of the following terms:

     one-electron contribution =     183.51488166 Ry
     hartree contribution      =      71.97622507 Ry
     xc contribution           =    -156.85163754 Ry
     ewald contribution        =   -1351.48713039 Ry
     smearing contrib. (-TS)   =      -0.58157227 Ry

     convergence has been achieved in  11 iterations

     Forces acting on atoms (Ry/au):

     atom    1 type  1   force =     0.00000000    0.01081775   -0.00341852
     atom    2 type  1   force =     0.00000000   -0.01081775    0.00341852
     atom    3 type  1   force =     0.00000000    0.01081775    0.00341852
     atom    4 type  1   force =     0.00000000   -0.01081775   -0.00341852
     atom    5 type  1   force =     0.00000000    0.00857439   -0.08530421
     atom    6 type  1   force =     0.00000000   -0.00857439    0.08530421
     atom    7 type  1   force =     0.00000000    0.00857439    0.08530421
     atom    8 type  1   force =     0.00000000   -0.00857439   -0.08530421
     atom    9 type  2   force =     0.00000000   -0.08036228    0.02692779
     atom   10 type  2   force =     0.00000000    0.08036228   -0.02692779
     atom   11 type  2   force =     0.00000000   -0.08036228   -0.02692779
     atom   12 type  2   force =     0.00000000    0.08036228    0.02692779

     Total force =     0.242175     Total SCF correction =     0.015219


     entering subroutine stress ...

          total   stress  (Ry/bohr**3)                   (kbar)     P= 1086.20
   0.00763023   0.00000000   0.00000000       1122.45      0.00      0.00
   0.00000000   0.00709031   0.00000000          0.00   1043.02      0.00
   0.00000000   0.00000000   0.00743103          0.00      0.00   1093.14


     Writing output data file Prototype-La-oP12-Co2Si.save
 
     init_run     :      3.27s CPU      4.06s WALL (       2 calls)
     electrons    :    747.78s CPU    830.95s WALL (       5 calls)
     update_pot   :      1.77s CPU      1.78s WALL (       3 calls)
     forces       :      3.08s CPU      3.22s WALL (       5 calls)
     stress       :      7.01s CPU      7.18s WALL (       5 calls)

     Called by init_run:
     wfcinit      :      2.26s CPU      3.01s WALL (       2 calls)
     potinit      :      0.48s CPU      0.50s WALL (       2 calls)

     Called by electrons:
     c_bands      :    728.49s CPU    806.89s WALL (      58 calls)
     sum_band     :     18.91s CPU     23.25s WALL (      58 calls)
     v_of_rho     :      0.10s CPU      0.11s WALL (      63 calls)
     mix_rho      :      0.08s CPU      0.10s WALL (      58 calls)

     Called by c_bands:
     init_us_2    :      1.16s CPU      1.44s WALL (    1536 calls)
     ccgdiagg     :    670.31s CPU    732.85s WALL (     826 calls)
     wfcrot       :     59.27s CPU     75.13s WALL (     838 calls)

     Called by *cgdiagg:
     h_psi        :    479.52s CPU    542.30s WALL (  487487 calls)
     cdiaghg      :      2.77s CPU      2.98s WALL (     838 calls)

     Called by h_psi:
     add_vuspsi   :     70.50s CPU     77.99s WALL (  487487 calls)

     General routines
     calbec       :    216.84s CPU    221.28s WALL (  974256 calls)
     fft          :      0.26s CPU      0.29s WALL (     275 calls)
     fftw         :    287.65s CPU    323.12s WALL ( 1205754 calls)
     davcio       :      0.73s CPU      1.71s WALL (    2232 calls)
 
     Parallel routines
     fft_scatter  :    130.79s CPU    144.79s WALL ( 1206029 calls)
 
     PWSCF        : 12m43.32s CPU    14m 8.91s WALL

 
   This run was terminated on:  17:48:58  22Mar2018            

=------------------------------------------------------------------------------=
   JOB DONE.
=------------------------------------------------------------------------------=
