
     Program PWSCF v.5.0.2 starts on 22Mar2018 at 22:47:18 

     This program is part of the open-source Quantum ESPRESSO suite
     for quantum simulation of materials; please cite
         "P. Giannozzi et al., J. Phys.:Condens. Matter 21 395502 (2009);
          URL http://www.quantum-espresso.org", 
     in publications or presentations arising from this work. More details at
     http://www.quantum-espresso.org/quote.php

     Parallel version (MPI), running on     4 processors
     R & G space division:  proc/nbgrp/npool/nimage =       4

     Current dimensions of program PWSCF are:
     Max number of different atomic species (ntypx) = 10
     Max number of k-points (npk) =  40000
     Max angular momentum in pseudopotentials (lmaxx) =  3
     Waiting for input...
     Reading input from standard input

     Subspace diagonalization in iterative solution of the eigenvalue problem:
     a serial algorithm will be used

 
     Parallelization info
     --------------------
     sticks:   dense  smooth     PW     G-vecs:    dense   smooth      PW
     Min          93      93     30                 1717     1717     310
     Max          94      94     31                 1720     1720     313
     Sum         373     373    121                 6871     6871    1247
 


     bravais-lattice index     =            0
     lattice parameter (alat)  =       5.4125  a.u.
     unit-cell volume          =     202.7222 (a.u.)^3
     number of atoms/cell      =            2
     number of atomic types    =            2
     number of electrons       =        45.00
     number of Kohn-Sham states=           28
     kinetic-energy cutoff     =      40.0000  Ry
     charge density cutoff     =     160.0000  Ry
     convergence threshold     =      1.0E-04
     mixing beta               =       0.7000
     number of iterations used =            8  plain     mixing
     Exchange-correlation      = SLA-PZ-NOGX-NOGC ( 1 1 0 0 0)
     EXX-fraction              =        0.00
     nstep                     =           50


     celldm(1)=   5.412493  celldm(2)=   0.000000  celldm(3)=   0.000000
     celldm(4)=   0.000000  celldm(5)=   0.000000  celldm(6)=   0.000000

     crystal axes: (cart. coord. in units of alat)
               a(1) = (   1.000000   0.000000   0.000000 )  
               a(2) = (   0.000000   1.000000   0.000000 )  
               a(3) = (   0.000000   0.000000   1.278525 )  

     reciprocal axes: (cart. coord. in units 2 pi/alat)
               b(1) = (  1.000000  0.000000  0.000000 )  
               b(2) = (  0.000000  1.000000  0.000000 )  
               b(3) = (  0.000000  0.000000  0.782151 )  


     PseudoPot. # 1 for Er read from file:
     /home/cwx6513/pp.La/Er.UPF
     MD5 check sum: e152ae21b84514339d8526f066caf99b
     Pseudo is Norm-conserving, Zval = 22.0
     Generated in analytical, separable form
     Using radial grid of 1267 points,  6 beta functions with: 
                l(1) =   0
                l(2) =   0
                l(3) =   1
                l(4) =   1
                l(5) =   2
                l(6) =   3

     PseudoPot. # 2 for Tm read from file:
     /home/cwx6513/pp.La/Tm.UPF
     MD5 check sum: 245516e0878b5372ceeb9443ded2c4e1
     Pseudo is Norm-conserving, Zval = 23.0
     Generated in analytical, separable form
     Using radial grid of 1269 points,  6 beta functions with: 
                l(1) =   0
                l(2) =   0
                l(3) =   1
                l(4) =   1
                l(5) =   2
                l(6) =   3

     atomic species   valence    mass     pseudopotential
        Cu            22.00    63.54600     Er( 1.00)
        Au            23.00   196.96600     Tm( 1.00)

     16 Sym. Ops., with inversion, found



   Cartesian axes

     site n.     atom                  positions (alat units)
         1           Cu  tau(   1) = (   0.5000000   0.5000000   0.6392626  )
         2           Au  tau(   2) = (   0.0000000   0.0000000   0.0000000  )

     number of k points=   100  gaussian smearing, width (Ry)=  0.1000

     Number of k-points >= 100: set verbosity='high' to print them.

     Dense  grid:     6871 G-vectors     FFT dimensions: (  24,  24,  27)

     Largest allocated arrays     est. size (Mb)     dimensions
        Kohn-Sham Wavefunctions         0.10 Mb     (    228,   28)
        NL pseudopotentials             0.14 Mb     (    228,   40)
        Each V/rho on FFT grid          0.06 Mb     (   4032)
        Each G-vector array             0.01 Mb     (   1720)
        G-vector shells                 0.01 Mb     (   1720)
     Largest temporary arrays     est. size (Mb)     dimensions
        Each subspace H/S matrix        0.01 Mb     (  28,  28)
        Each <psi_i|beta_j> matrix      0.02 Mb     (     40,   28)
        Arrays for rho mixing           0.49 Mb     (   4032,   8)

     Initial potential from superposition of free atoms

     Starting from uniform charge
     Starting wfc are    0 randomized atomic wfcs

     total cpu time spent up to now is        1.2 secs

     Self-consistent Calculation

     iteration #  1     ecut=    40.00 Ry     beta=0.70
     CG style diagonalization
     c_bands:  2 eigenvalues not converged
     c_bands:  1 eigenvalues not converged
     c_bands:  1 eigenvalues not converged
     c_bands:  2 eigenvalues not converged
     c_bands:  1 eigenvalues not converged
     c_bands:  1 eigenvalues not converged
     c_bands:  1 eigenvalues not converged
     c_bands:  2 eigenvalues not converged
     c_bands:  1 eigenvalues not converged
     c_bands:  1 eigenvalues not converged
     c_bands:  1 eigenvalues not converged
     c_bands:  1 eigenvalues not converged
     c_bands:  1 eigenvalues not converged
     c_bands:  1 eigenvalues not converged
     c_bands:  2 eigenvalues not converged
     c_bands:  1 eigenvalues not converged
     c_bands:  1 eigenvalues not converged
     c_bands:  1 eigenvalues not converged
     c_bands:  1 eigenvalues not converged
     c_bands:  1 eigenvalues not converged
     c_bands:  2 eigenvalues not converged
     c_bands:  1 eigenvalues not converged
     c_bands:  1 eigenvalues not converged
     c_bands:  1 eigenvalues not converged
     c_bands:  2 eigenvalues not converged
     c_bands:  1 eigenvalues not converged
     c_bands:  2 eigenvalues not converged
     c_bands:  1 eigenvalues not converged
     c_bands:  1 eigenvalues not converged
     c_bands:  1 eigenvalues not converged
     c_bands:  1 eigenvalues not converged
     c_bands:  2 eigenvalues not converged
     c_bands:  1 eigenvalues not converged
     c_bands:  2 eigenvalues not converged
     c_bands:  1 eigenvalues not converged
     c_bands:  1 eigenvalues not converged
     c_bands:  2 eigenvalues not converged
     c_bands:  2 eigenvalues not converged
     c_bands:  1 eigenvalues not converged
     c_bands:  1 eigenvalues not converged
     c_bands:  1 eigenvalues not converged
     c_bands:  1 eigenvalues not converged
     c_bands:  1 eigenvalues not converged
     c_bands:  1 eigenvalues not converged
     c_bands:  1 eigenvalues not converged
     c_bands:  2 eigenvalues not converged
     c_bands:  1 eigenvalues not converged
     c_bands:  2 eigenvalues not converged
     c_bands:  1 eigenvalues not converged
     c_bands:  2 eigenvalues not converged
     c_bands:  1 eigenvalues not converged
     c_bands:  1 eigenvalues not converged
     c_bands:  2 eigenvalues not converged
     c_bands:  1 eigenvalues not converged
     c_bands:  1 eigenvalues not converged
     ethr =  1.00E-02,  avg # of iterations = 14.0

     total cpu time spent up to now is       10.6 secs

     total energy              =    -607.90343142 Ry
     Harris-Foulkes estimate   =    -841.12218395 Ry
     estimated scf accuracy    <     293.57455329 Ry

     iteration #  2     ecut=    40.00 Ry     beta=0.70
     CG style diagonalization
     c_bands:  1 eigenvalues not converged
     c_bands:  1 eigenvalues not converged
     ethr =  1.00E-02,  avg # of iterations =  8.5

     total cpu time spent up to now is       16.8 secs

     total energy              =    -652.93028596 Ry
     Harris-Foulkes estimate   =    -724.78103025 Ry
     estimated scf accuracy    <     108.22673234 Ry

     iteration #  3     ecut=    40.00 Ry     beta=0.70
     CG style diagonalization
     ethr =  1.00E-02,  avg # of iterations =  8.0

     total cpu time spent up to now is       22.7 secs

     total energy              =    -684.41186080 Ry
     Harris-Foulkes estimate   =    -704.52286405 Ry
     estimated scf accuracy    <      43.41080596 Ry

     iteration #  4     ecut=    40.00 Ry     beta=0.70
     CG style diagonalization
     ethr =  1.00E-02,  avg # of iterations =  4.9

     total cpu time spent up to now is       26.5 secs

     total energy              =    -695.10806026 Ry
     Harris-Foulkes estimate   =    -695.66673545 Ry
     estimated scf accuracy    <       0.82378960 Ry

     iteration #  5     ecut=    40.00 Ry     beta=0.70
     CG style diagonalization
     ethr =  1.83E-03,  avg # of iterations =  3.8

     total cpu time spent up to now is       29.0 secs

     total energy              =    -695.31022766 Ry
     Harris-Foulkes estimate   =    -695.32161614 Ry
     estimated scf accuracy    <       0.02130559 Ry

     iteration #  6     ecut=    40.00 Ry     beta=0.70
     CG style diagonalization
     c_bands:  1 eigenvalues not converged
     c_bands:  1 eigenvalues not converged
     c_bands:  1 eigenvalues not converged
     c_bands:  1 eigenvalues not converged
     c_bands:  1 eigenvalues not converged
     c_bands:  1 eigenvalues not converged
     c_bands:  2 eigenvalues not converged
     ethr =  4.73E-05,  avg # of iterations =  4.4

     total cpu time spent up to now is       32.6 secs

     total energy              =    -695.31622114 Ry
     Harris-Foulkes estimate   =    -695.31685204 Ry
     estimated scf accuracy    <       0.00086539 Ry

     iteration #  7     ecut=    40.00 Ry     beta=0.70
     CG style diagonalization
     c_bands:  1 eigenvalues not converged
     c_bands:  1 eigenvalues not converged
     c_bands:  1 eigenvalues not converged
     c_bands:  1 eigenvalues not converged
     ethr =  1.92E-06,  avg # of iterations =  4.3

     total cpu time spent up to now is       36.1 secs

     total energy              =    -695.31659400 Ry
     Harris-Foulkes estimate   =    -695.31670183 Ry
     estimated scf accuracy    <       0.00015562 Ry

     iteration #  8     ecut=    40.00 Ry     beta=0.70
     CG style diagonalization
     c_bands:  1 eigenvalues not converged
     ethr =  3.46E-07,  avg # of iterations =  3.7

     total cpu time spent up to now is       38.7 secs

     End of self-consistent calculation

     Number of k-points >= 100: set verbosity='high' to print the bands.

     the Fermi energy is    41.3321 ev

!    total energy              =    -695.31664138 Ry
     Harris-Foulkes estimate   =    -695.31665272 Ry
     estimated scf accuracy    <       0.00001375 Ry

     The total energy is the sum of the following terms:

     one-electron contribution =    -103.53470272 Ry
     hartree contribution      =      94.73878537 Ry
     xc contribution           =     -59.12130761 Ry
     ewald contribution        =    -627.32345473 Ry
     smearing contrib. (-TS)   =      -0.07596168 Ry

     convergence has been achieved in   8 iterations

     Forces acting on atoms (Ry/au):

     atom    1 type  1   force =     0.00000000    0.00000000    0.00000000
     atom    2 type  2   force =     0.00000000    0.00000000    0.00000000

     Total force =     0.000000     Total SCF correction =     0.000000


     entering subroutine stress ...

          total   stress  (Ry/bohr**3)                   (kbar)     P= 2086.20
   0.01426721   0.00000000   0.00000000       2098.78      0.00      0.00
   0.00000000   0.01426721   0.00000000          0.00   2098.78      0.00
   0.00000000   0.00000000   0.01401066          0.00      0.00   2061.04


     BFGS Geometry Optimization

     number of scf cycles    =   1
     number of bfgs steps    =   0

     enthalpy new            =    -695.3166413801 Ry

     new trust radius        =       0.5000000000 bohr
     new conv_thr            =       0.0001000000 Ry

     new unit-cell volume =    328.47041 a.u.^3 (    48.67429 Ang^3 )

CELL_PARAMETERS (alat=  5.41249258)
   1.175585808   0.000000000   0.000000000
   0.000000000   1.175585808   0.000000000
   0.000000000   0.000000000   1.498979335

ATOMIC_POSITIONS (crystal)
Cu       0.500000000   0.500000000   0.500000000
Au       0.000000000   0.000000000   0.000000000



     Writing output data file Prototype-La-tP2-AuCu.save
     NEW-OLD atomic charge density approx. for the potential
     NEW k-points: (use verbosity='high' to print them)

     total cpu time spent up to now is       40.4 secs

     Self-consistent Calculation

     iteration #  1     ecut=    40.00 Ry     beta=0.70
     CG style diagonalization
     c_bands:  1 eigenvalues not converged
     c_bands:  3 eigenvalues not converged
     c_bands:  4 eigenvalues not converged
     c_bands:  3 eigenvalues not converged
     c_bands:  4 eigenvalues not converged
     c_bands:  4 eigenvalues not converged
     c_bands:  3 eigenvalues not converged
     c_bands:  5 eigenvalues not converged
     c_bands:  4 eigenvalues not converged
     c_bands:  5 eigenvalues not converged
     c_bands:  4 eigenvalues not converged
     c_bands:  5 eigenvalues not converged
     c_bands:  2 eigenvalues not converged
     c_bands:  1 eigenvalues not converged
     c_bands:  1 eigenvalues not converged
     c_bands:  2 eigenvalues not converged
     c_bands:  2 eigenvalues not converged
     c_bands:  5 eigenvalues not converged
     c_bands:  1 eigenvalues not converged
     c_bands:  1 eigenvalues not converged
     c_bands:  5 eigenvalues not converged
     c_bands:  1 eigenvalues not converged
     c_bands:  2 eigenvalues not converged
     c_bands:  1 eigenvalues not converged
     c_bands:  4 eigenvalues not converged
     c_bands:  4 eigenvalues not converged
     c_bands:  4 eigenvalues not converged
     c_bands:  3 eigenvalues not converged
     c_bands:  5 eigenvalues not converged
     c_bands:  5 eigenvalues not converged
     c_bands:  3 eigenvalues not converged
     c_bands:  1 eigenvalues not converged
     c_bands:  2 eigenvalues not converged
     c_bands:  1 eigenvalues not converged
     c_bands:  3 eigenvalues not converged
     c_bands:  5 eigenvalues not converged
     c_bands:  3 eigenvalues not converged
     c_bands:  5 eigenvalues not converged
     c_bands:  1 eigenvalues not converged
     c_bands:  4 eigenvalues not converged
     c_bands:  4 eigenvalues not converged
     c_bands:  3 eigenvalues not converged
     c_bands:  4 eigenvalues not converged
     c_bands:  5 eigenvalues not converged
     c_bands:  3 eigenvalues not converged
     c_bands:  3 eigenvalues not converged
     c_bands:  3 eigenvalues not converged
     c_bands:  4 eigenvalues not converged
     ethr =  1.00E-06,  avg # of iterations = 18.2

     total cpu time spent up to now is       52.7 secs

     total energy              =    -685.00962896 Ry
     Harris-Foulkes estimate   =    -711.08661385 Ry
     estimated scf accuracy    <      32.56944174 Ry

     iteration #  2     ecut=    40.00 Ry     beta=0.70
     CG style diagonalization
     ethr =  1.00E-02,  avg # of iterations =  4.4

     total cpu time spent up to now is       56.2 secs

     total energy              =    -694.16075198 Ry
     Harris-Foulkes estimate   =    -696.36240420 Ry
     estimated scf accuracy    <       3.12121316 Ry

     iteration #  3     ecut=    40.00 Ry     beta=0.70
     CG style diagonalization
     ethr =  6.94E-03,  avg # of iterations =  3.6

     total cpu time spent up to now is       59.7 secs

     total energy              =    -695.02371465 Ry
     Harris-Foulkes estimate   =    -695.04327885 Ry
     estimated scf accuracy    <       0.03754632 Ry

     iteration #  4     ecut=    40.00 Ry     beta=0.70
     CG style diagonalization
     ethr =  8.34E-05,  avg # of iterations =  4.3

     total cpu time spent up to now is       63.3 secs

     total energy              =    -695.04516018 Ry
     Harris-Foulkes estimate   =    -695.05124429 Ry
     estimated scf accuracy    <       0.00852828 Ry

     iteration #  5     ecut=    40.00 Ry     beta=0.70
     CG style diagonalization
     ethr =  1.90E-05,  avg # of iterations =  3.7

     total cpu time spent up to now is       66.7 secs

     total energy              =    -695.04761363 Ry
     Harris-Foulkes estimate   =    -695.04782382 Ry
     estimated scf accuracy    <       0.00044968 Ry

     iteration #  6     ecut=    40.00 Ry     beta=0.70
     CG style diagonalization
     c_bands:  1 eigenvalues not converged
     ethr =  9.99E-07,  avg # of iterations =  3.8

     total cpu time spent up to now is       70.1 secs

     total energy              =    -695.04765582 Ry
     Harris-Foulkes estimate   =    -695.04773057 Ry
     estimated scf accuracy    <       0.00010322 Ry

     iteration #  7     ecut=    40.00 Ry     beta=0.70
     CG style diagonalization
     ethr =  2.29E-07,  avg # of iterations =  3.6

     total cpu time spent up to now is       72.6 secs

     End of self-consistent calculation

     Number of k-points >= 100: set verbosity='high' to print the bands.

     the Fermi energy is    24.1230 ev

!    total energy              =    -695.04768310 Ry
     Harris-Foulkes estimate   =    -695.04768431 Ry
     estimated scf accuracy    <       0.00000152 Ry

     The total energy is the sum of the following terms:

     one-electron contribution =    -240.54439774 Ry
     hartree contribution      =     137.04000870 Ry
     xc contribution           =     -57.36525229 Ry
     ewald contribution        =    -534.10392612 Ry
     smearing contrib. (-TS)   =      -0.07411566 Ry

     convergence has been achieved in   7 iterations

     Forces acting on atoms (Ry/au):

     atom    1 type  1   force =     0.00000000    0.00000000    0.00000000
     atom    2 type  2   force =     0.00000000    0.00000000    0.00000000

     Total force =     0.000000     Total SCF correction =     0.000000


     entering subroutine stress ...

          total   stress  (Ry/bohr**3)                   (kbar)     P=-1677.87
  -0.01141965   0.00000000   0.00000000      -1679.89      0.00      0.00
   0.00000000  -0.01141965   0.00000000          0.00  -1679.89      0.00
   0.00000000   0.00000000  -0.01137854          0.00      0.00  -1673.84


     number of scf cycles    =   2
     number of bfgs steps    =   1

     enthalpy old            =    -695.3166413801 Ry
     enthalpy new            =    -695.0476831031 Ry

     CASE: enthalpy_new > enthalpy_old

     new trust radius        =       0.2296651548 bohr

     trust_radius < trust_radius_min

     resetting bfgs history

     new conv_thr            =       0.0001000000 Ry

     new unit-cell volume =    317.16763 a.u.^3 (    46.99939 Ang^3 )

CELL_PARAMETERS (alat=  5.41249258)
   1.162160927   0.000000000   0.000000000
   0.000000000   1.162160927   0.000000000
   0.000000000   0.000000000   1.481031780

ATOMIC_POSITIONS (crystal)
Cu       0.500000000   0.500000000   0.500000000
Au       0.000000000   0.000000000   0.000000000



     Writing output data file Prototype-La-tP2-AuCu.save
     NEW-OLD atomic charge density approx. for the potential
     NEW k-points: (use verbosity='high' to print them)

     total cpu time spent up to now is       74.4 secs

     Self-consistent Calculation

     iteration #  1     ecut=    40.00 Ry     beta=0.70
     CG style diagonalization
     c_bands:  1 eigenvalues not converged
     ethr =  1.00E-06,  avg # of iterations =  7.0

     total cpu time spent up to now is       79.8 secs

     total energy              =    -695.09570696 Ry
     Harris-Foulkes estimate   =    -695.26721477 Ry
     estimated scf accuracy    <       0.21170828 Ry

     iteration #  2     ecut=    40.00 Ry     beta=0.70
     CG style diagonalization
     ethr =  4.70E-04,  avg # of iterations =  3.8

     total cpu time spent up to now is       82.7 secs

     total energy              =    -695.16423975 Ry
     Harris-Foulkes estimate   =    -695.18460609 Ry
     estimated scf accuracy    <       0.02992505 Ry

     iteration #  3     ecut=    40.00 Ry     beta=0.70
     CG style diagonalization
     ethr =  6.65E-05,  avg # of iterations =  3.6

     total cpu time spent up to now is       85.2 secs

     End of self-consistent calculation

     Number of k-points >= 100: set verbosity='high' to print the bands.

     the Fermi energy is    25.1295 ev

!    total energy              =    -695.17098435 Ry
     Harris-Foulkes estimate   =    -695.17104091 Ry
     estimated scf accuracy    <       0.00006544 Ry

     The total energy is the sum of the following terms:

     one-electron contribution =    -231.26871552 Ry
     hartree contribution      =     134.02779018 Ry
     xc contribution           =     -57.48267558 Ry
     ewald contribution        =    -540.37437138 Ry
     smearing contrib. (-TS)   =      -0.07301205 Ry

     convergence has been achieved in   3 iterations

     Forces acting on atoms (Ry/au):

     atom    1 type  1   force =     0.00000000    0.00000000    0.00000000
     atom    2 type  2   force =     0.00000000    0.00000000    0.00000000

     Total force =     0.000000     Total SCF correction =     0.000000


     entering subroutine stress ...

          total   stress  (Ry/bohr**3)                   (kbar)     P=-1475.12
  -0.01004885   0.00000000   0.00000000      -1478.24      0.00      0.00
   0.00000000  -0.01004885   0.00000000          0.00  -1478.24      0.00
   0.00000000   0.00000000  -0.00998536          0.00      0.00  -1468.90


     number of scf cycles    =   3
     number of bfgs steps    =   1

     enthalpy old            =    -695.3166413801 Ry
     enthalpy new            =    -695.1709843477 Ry

     CASE: enthalpy_new > enthalpy_old

     new trust radius        =       0.2248964927 bohr

     trust_radius < trust_radius_min

     resetting bfgs history

     Message from routine bfgs:
     history already reset at previous step: stopping
     new conv_thr            =       0.0001000000 Ry

     new unit-cell volume =    317.91605 a.u.^3 (    47.11030 Ang^3 )

CELL_PARAMETERS (alat=  5.41249258)
   1.163140524   0.000000000   0.000000000
   0.000000000   1.163140524   0.000000000
   0.000000000   0.000000000   1.482027053

ATOMIC_POSITIONS (crystal)
Cu       0.500000000   0.500000000   0.500000000
Au       0.000000000   0.000000000   0.000000000



     Writing output data file Prototype-La-tP2-AuCu.save
     NEW-OLD atomic charge density approx. for the potential
     NEW k-points: (use verbosity='high' to print them)

     total cpu time spent up to now is       86.9 secs

     Self-consistent Calculation

     iteration #  1     ecut=    40.00 Ry     beta=0.70
     CG style diagonalization
     ethr =  1.00E-06,  avg # of iterations =  4.4

     total cpu time spent up to now is       90.6 secs

     total energy              =    -695.16313898 Ry
     Harris-Foulkes estimate   =    -695.16357918 Ry
     estimated scf accuracy    <       0.00054258 Ry

     iteration #  2     ecut=    40.00 Ry     beta=0.70
     CG style diagonalization
     ethr =  1.21E-06,  avg # of iterations =  3.7

     total cpu time spent up to now is       94.2 secs

     total energy              =    -695.16330555 Ry
     Harris-Foulkes estimate   =    -695.16338169 Ry
     estimated scf accuracy    <       0.00011301 Ry

     iteration #  3     ecut=    40.00 Ry     beta=0.70
     CG style diagonalization
     ethr =  2.51E-07,  avg # of iterations =  3.4

     total cpu time spent up to now is       96.6 secs

     End of self-consistent calculation

     Number of k-points >= 100: set verbosity='high' to print the bands.

     the Fermi energy is    25.0641 ev

!    total energy              =    -695.16333372 Ry
     Harris-Foulkes estimate   =    -695.16334060 Ry
     estimated scf accuracy    <       0.00000742 Ry

     The total energy is the sum of the following terms:

     one-electron contribution =    -231.80641462 Ry
     hartree contribution      =     134.12941503 Ry
     xc contribution           =     -57.46329132 Ry
     ewald contribution        =    -539.94994507 Ry
     smearing contrib. (-TS)   =      -0.07309774 Ry

     convergence has been achieved in   3 iterations

     Forces acting on atoms (Ry/au):

     atom    1 type  1   force =     0.00000000    0.00000000    0.00000000
     atom    2 type  2   force =     0.00000000    0.00000000    0.00000000

     Total force =     0.000000     Total SCF correction =     0.000000


     entering subroutine stress ...

          total   stress  (Ry/bohr**3)                   (kbar)     P=-1547.77
  -0.01054489   0.00000000   0.00000000      -1551.21      0.00      0.00
   0.00000000  -0.01054489   0.00000000          0.00  -1551.21      0.00
   0.00000000   0.00000000  -0.01047479          0.00      0.00  -1540.89


     The maximum number of steps has been reached.

     End of BFGS Geometry Optimization
Begin final coordinates
     new unit-cell volume =    317.91605 a.u.^3 (    47.11030 Ang^3 )

CELL_PARAMETERS (alat=  5.41249258)
   1.163140524   0.000000000   0.000000000
   0.000000000   1.163140524   0.000000000
   0.000000000   0.000000000   1.482027053

ATOMIC_POSITIONS (crystal)
Cu       0.500000000   0.500000000   0.500000000
Au       0.000000000   0.000000000   0.000000000
End final coordinates



     A final scf calculation at the relaxed structure.
     The G-vectors are recalculated for the final unit cell
     Results may differ from those at the preceding step.
 
     Parallelization info
     --------------------
     sticks:   dense  smooth     PW     G-vecs:    dense   smooth      PW
     Min         126     126     39                 2722     2722     468
     Max         127     127     41                 2723     2723     469
     Sum         505     505    161                10889    10889    1875
 


     bravais-lattice index     =            0
     lattice parameter (alat)  =       5.4125  a.u.
     unit-cell volume          =     317.9160 (a.u.)^3
     number of atoms/cell      =            2
     number of atomic types    =            2
     number of electrons       =        45.00
     number of Kohn-Sham states=           28
     kinetic-energy cutoff     =      40.0000  Ry
     charge density cutoff     =     160.0000  Ry
     convergence threshold     =      1.0E-04
     mixing beta               =       0.7000
     number of iterations used =            8  plain     mixing
     Exchange-correlation      = SLA-PZ-NOGX-NOGC ( 1 1 0 0 0)
     EXX-fraction              =        0.00

     celldm(1)=   5.412493  celldm(2)=   0.000000  celldm(3)=   0.000000
     celldm(4)=   0.000000  celldm(5)=   0.000000  celldm(6)=   0.000000

     crystal axes: (cart. coord. in units of alat)
               a(1) = (   1.163141   0.000000   0.000000 )  
               a(2) = (   0.000000   1.163141   0.000000 )  
               a(3) = (   0.000000   0.000000   1.482027 )  

     reciprocal axes: (cart. coord. in units 2 pi/alat)
               b(1) = (  0.859741  0.000000  0.000000 )  
               b(2) = (  0.000000  0.859741  0.000000 )  
               b(3) = (  0.000000  0.000000  0.674752 )  


     PseudoPot. # 1 for Er read from file:
     /home/cwx6513/pp.La/Er.UPF
     MD5 check sum: e152ae21b84514339d8526f066caf99b
     Pseudo is Norm-conserving, Zval = 22.0
     Generated in analytical, separable form
     Using radial grid of 1267 points,  6 beta functions with: 
                l(1) =   0
                l(2) =   0
                l(3) =   1
                l(4) =   1
                l(5) =   2
                l(6) =   3

     PseudoPot. # 2 for Tm read from file:
     /home/cwx6513/pp.La/Tm.UPF
     MD5 check sum: 245516e0878b5372ceeb9443ded2c4e1
     Pseudo is Norm-conserving, Zval = 23.0
     Generated in analytical, separable form
     Using radial grid of 1269 points,  6 beta functions with: 
                l(1) =   0
                l(2) =   0
                l(3) =   1
                l(4) =   1
                l(5) =   2
                l(6) =   3

     atomic species   valence    mass     pseudopotential
        Cu            22.00    63.54600     Er( 1.00)
        Au            23.00   196.96600     Tm( 1.00)

     16 Sym. Ops., with inversion, found



   Cartesian axes

     site n.     atom                  positions (alat units)
         1           Cu  tau(   1) = (   0.5815703   0.5815703   0.7410135  )
         2           Au  tau(   2) = (   0.0000000   0.0000000   0.0000000  )

     number of k points=   100  gaussian smearing, width (Ry)=  0.1000

     Number of k-points >= 100: set verbosity='high' to print them.

     Dense  grid:    10889 G-vectors     FFT dimensions: (  25,  25,  36)

     Largest allocated arrays     est. size (Mb)     dimensions
        Kohn-Sham Wavefunctions         0.15 Mb     (    341,   28)
        NL pseudopotentials             0.21 Mb     (    341,   40)
        Each V/rho on FFT grid          0.09 Mb     (   5625)
        Each G-vector array             0.02 Mb     (   2722)
        G-vector shells                 0.01 Mb     (    698)
     Largest temporary arrays     est. size (Mb)     dimensions
        Each subspace H/S matrix        0.01 Mb     (  28,  28)
        Each <psi_i|beta_j> matrix      0.02 Mb     (     40,   28)
        Arrays for rho mixing           0.69 Mb     (   5625,   8)

     Initial potential from superposition of free atoms

     Starting from uniform charge
     Starting wfc are    0 randomized atomic wfcs

     Writing output data file Prototype-La-tP2-AuCu.save

     total cpu time spent up to now is       98.6 secs

     Self-consistent Calculation

     iteration #  1     ecut=    40.00 Ry     beta=0.70
     CG style diagonalization
     c_bands:  3 eigenvalues not converged
     c_bands:  5 eigenvalues not converged
     c_bands:  4 eigenvalues not converged
     c_bands:  4 eigenvalues not converged
     c_bands:  3 eigenvalues not converged
     c_bands:  2 eigenvalues not converged
     c_bands:  2 eigenvalues not converged
     c_bands:  2 eigenvalues not converged
     c_bands:  2 eigenvalues not converged
     c_bands:  2 eigenvalues not converged
     c_bands:  2 eigenvalues not converged
     c_bands:  2 eigenvalues not converged
     c_bands:  2 eigenvalues not converged
     c_bands:  4 eigenvalues not converged
     c_bands:  2 eigenvalues not converged
     c_bands:  4 eigenvalues not converged
     c_bands:  2 eigenvalues not converged
     c_bands:  2 eigenvalues not converged
     c_bands:  4 eigenvalues not converged
     c_bands:  2 eigenvalues not converged
     c_bands:  2 eigenvalues not converged
     c_bands:  2 eigenvalues not converged
     c_bands:  2 eigenvalues not converged
     c_bands:  2 eigenvalues not converged
     c_bands:  3 eigenvalues not converged
     c_bands:  2 eigenvalues not converged
     c_bands:  2 eigenvalues not converged
     c_bands:  2 eigenvalues not converged
     c_bands:  2 eigenvalues not converged
     c_bands:  4 eigenvalues not converged
     c_bands:  2 eigenvalues not converged
     c_bands:  2 eigenvalues not converged
     c_bands:  2 eigenvalues not converged
     c_bands:  2 eigenvalues not converged
     c_bands:  3 eigenvalues not converged
     c_bands:  2 eigenvalues not converged
     c_bands:  2 eigenvalues not converged
     c_bands:  2 eigenvalues not converged
     c_bands:  3 eigenvalues not converged
     c_bands:  4 eigenvalues not converged
     c_bands:  2 eigenvalues not converged
     c_bands:  2 eigenvalues not converged
     c_bands:  3 eigenvalues not converged
     c_bands:  2 eigenvalues not converged
     c_bands:  2 eigenvalues not converged
     c_bands:  2 eigenvalues not converged
     c_bands:  2 eigenvalues not converged
     c_bands:  2 eigenvalues not converged
     c_bands:  2 eigenvalues not converged
     c_bands:  2 eigenvalues not converged
     c_bands:  2 eigenvalues not converged
     c_bands:  3 eigenvalues not converged
     c_bands:  2 eigenvalues not converged
     c_bands:  2 eigenvalues not converged
     c_bands:  2 eigenvalues not converged
     c_bands:  2 eigenvalues not converged
     c_bands:  2 eigenvalues not converged
     c_bands:  2 eigenvalues not converged
     c_bands:  2 eigenvalues not converged
     c_bands:  2 eigenvalues not converged
     c_bands:  2 eigenvalues not converged
     c_bands:  2 eigenvalues not converged
     c_bands:  2 eigenvalues not converged
     c_bands:  2 eigenvalues not converged
     c_bands:  2 eigenvalues not converged
     c_bands:  2 eigenvalues not converged
     c_bands:  2 eigenvalues not converged
     c_bands:  3 eigenvalues not converged
     c_bands:  2 eigenvalues not converged
     c_bands:  2 eigenvalues not converged
     c_bands:  2 eigenvalues not converged
     c_bands:  2 eigenvalues not converged
     c_bands:  3 eigenvalues not converged
     c_bands:  2 eigenvalues not converged
     c_bands:  2 eigenvalues not converged
     c_bands:  2 eigenvalues not converged
     c_bands:  2 eigenvalues not converged
     c_bands:  2 eigenvalues not converged
     c_bands:  2 eigenvalues not converged
     c_bands:  2 eigenvalues not converged
     c_bands:  2 eigenvalues not converged
     c_bands:  2 eigenvalues not converged
     c_bands:  2 eigenvalues not converged
     c_bands:  2 eigenvalues not converged
     c_bands:  5 eigenvalues not converged
     c_bands:  2 eigenvalues not converged
     c_bands:  2 eigenvalues not converged
     c_bands:  2 eigenvalues not converged
     c_bands:  4 eigenvalues not converged
     c_bands:  2 eigenvalues not converged
     c_bands:  2 eigenvalues not converged
     c_bands:  2 eigenvalues not converged
     c_bands:  2 eigenvalues not converged
     c_bands:  2 eigenvalues not converged
     c_bands:  2 eigenvalues not converged
     c_bands:  2 eigenvalues not converged
     c_bands:  2 eigenvalues not converged
     c_bands:  2 eigenvalues not converged
     c_bands:  2 eigenvalues not converged
     c_bands:  2 eigenvalues not converged
     ethr =  1.00E-06,  avg # of iterations = 45.0

     total cpu time spent up to now is      141.5 secs

     total energy              =    -601.69568263 Ry
     Harris-Foulkes estimate   =    -904.56382979 Ry
     estimated scf accuracy    <     377.74315741 Ry

     iteration #  2     ecut=    40.00 Ry     beta=0.70
     CG style diagonalization
     c_bands:  1 eigenvalues not converged
     c_bands:  1 eigenvalues not converged
     c_bands:  1 eigenvalues not converged
     c_bands:  1 eigenvalues not converged
     ethr =  1.00E-02,  avg # of iterations =  8.8

     total cpu time spent up to now is      150.6 secs

     total energy              =    -630.55488579 Ry
     Harris-Foulkes estimate   =    -732.17805635 Ry
     estimated scf accuracy    <     153.49154329 Ry

     iteration #  3     ecut=    40.00 Ry     beta=0.70
     CG style diagonalization
     c_bands:  1 eigenvalues not converged
     ethr =  1.00E-02,  avg # of iterations =  9.4

     total cpu time spent up to now is      160.7 secs

     total energy              =    -665.11689011 Ry
     Harris-Foulkes estimate   =    -722.79050469 Ry
     estimated scf accuracy    <     153.16603829 Ry

     iteration #  4     ecut=    40.00 Ry     beta=0.70
     CG style diagonalization
     ethr =  1.00E-02,  avg # of iterations =  6.8

     total cpu time spent up to now is      167.9 secs

     total energy              =    -696.44733288 Ry
     Harris-Foulkes estimate   =    -696.98767355 Ry
     estimated scf accuracy    <       0.80541743 Ry

     iteration #  5     ecut=    40.00 Ry     beta=0.70
     CG style diagonalization
     ethr =  1.79E-03,  avg # of iterations =  3.7

     total cpu time spent up to now is      172.0 secs

     total energy              =    -696.60674106 Ry
     Harris-Foulkes estimate   =    -696.70726455 Ry
     estimated scf accuracy    <       0.18565838 Ry

     iteration #  6     ecut=    40.00 Ry     beta=0.70
     CG style diagonalization
     ethr =  4.13E-04,  avg # of iterations =  3.5

     total cpu time spent up to now is      175.5 secs

     total energy              =    -696.63698293 Ry
     Harris-Foulkes estimate   =    -696.64180911 Ry
     estimated scf accuracy    <       0.01245767 Ry

     iteration #  7     ecut=    40.00 Ry     beta=0.70
     CG style diagonalization
     c_bands:  1 eigenvalues not converged
     c_bands:  1 eigenvalues not converged
     c_bands:  1 eigenvalues not converged
     ethr =  2.77E-05,  avg # of iterations =  4.0

     total cpu time spent up to now is      180.0 secs

     total energy              =    -696.63739122 Ry
     Harris-Foulkes estimate   =    -696.63939543 Ry
     estimated scf accuracy    <       0.00440679 Ry

     iteration #  8     ecut=    40.00 Ry     beta=0.70
     CG style diagonalization
     c_bands:  1 eigenvalues not converged
     ethr =  9.79E-06,  avg # of iterations =  3.3

     total cpu time spent up to now is      183.6 secs

     total energy              =    -696.63760746 Ry
     Harris-Foulkes estimate   =    -696.63793516 Ry
     estimated scf accuracy    <       0.00061499 Ry

     iteration #  9     ecut=    40.00 Ry     beta=0.70
     CG style diagonalization
     c_bands:  1 eigenvalues not converged
     ethr =  1.37E-06,  avg # of iterations =  3.9

     total cpu time spent up to now is      187.9 secs

     End of self-consistent calculation

     Number of k-points >= 100: set verbosity='high' to print the bands.

     the Fermi energy is    24.9704 ev

!    total energy              =    -696.63772365 Ry
     Harris-Foulkes estimate   =    -696.63774637 Ry
     estimated scf accuracy    <       0.00002835 Ry

     The total energy is the sum of the following terms:

     one-electron contribution =    -234.28535571 Ry
     hartree contribution      =     135.32679097 Ry
     xc contribution           =     -57.65658530 Ry
     ewald contribution        =    -539.94993018 Ry
     smearing contrib. (-TS)   =      -0.07264342 Ry

     convergence has been achieved in   9 iterations

     Forces acting on atoms (Ry/au):

     atom    1 type  1   force =     0.00000000    0.00000000    0.00000000
     atom    2 type  2   force =     0.00000000    0.00000000    0.00000000

     Total force =     0.000000     Total SCF correction =     0.000000


     entering subroutine stress ...

          total   stress  (Ry/bohr**3)                   (kbar)     P= -320.77
  -0.00214286   0.00000000   0.00000000       -315.23      0.00      0.00
   0.00000000  -0.00214286   0.00000000          0.00   -315.23      0.00
   0.00000000   0.00000000  -0.00225585          0.00      0.00   -331.85


     Writing output data file Prototype-La-tP2-AuCu.save
 
     init_run     :      1.62s CPU      1.88s WALL (       2 calls)
     electrons    :    154.29s CPU    179.55s WALL (       5 calls)
     update_pot   :      0.47s CPU      0.52s WALL (       3 calls)
     forces       :      0.75s CPU      0.79s WALL (       5 calls)
     stress       :      1.94s CPU      2.02s WALL (       5 calls)

     Called by init_run:
     wfcinit      :      1.30s CPU      1.53s WALL (       2 calls)
     potinit      :      0.10s CPU      0.10s WALL (       2 calls)

     Called by electrons:
     c_bands      :    147.51s CPU    159.97s WALL (      30 calls)
     sum_band     :      6.67s CPU      7.28s WALL (      30 calls)
     v_of_rho     :      0.01s CPU      0.02s WALL (      35 calls)
     mix_rho      :      0.01s CPU      0.02s WALL (      30 calls)

     Called by c_bands:
     init_us_2    :      0.99s CPU      1.12s WALL (    7200 calls)
     ccgdiagg     :    128.48s CPU    136.03s WALL (    3259 calls)
     wfcrot       :     19.28s CPU     21.59s WALL (    3359 calls)

     Called by *cgdiagg:
     h_psi        :     99.86s CPU    109.22s WALL (  491111 calls)
     cdiaghg      :      1.03s CPU      1.29s WALL (    3359 calls)

     Called by h_psi:
     add_vuspsi   :      5.57s CPU      6.61s WALL (  491111 calls)

     General routines
     calbec       :     19.24s CPU     21.57s WALL (  979863 calls)
     fft          :      0.04s CPU      0.05s WALL (     163 calls)
     fftw         :     80.91s CPU     85.76s WALL ( 1247608 calls)
     davcio       :      0.88s CPU      3.64s WALL (   10200 calls)
 
     Parallel routines
     fft_scatter  :     32.50s CPU     35.10s WALL ( 1247771 calls)
 
     PWSCF        :  2m40.19s CPU     3m 9.81s WALL

 
   This run was terminated on:  22:50:28  22Mar2018            

=------------------------------------------------------------------------------=
   JOB DONE.
=------------------------------------------------------------------------------=
