
     Program PWSCF v.5.0.2 starts on 22Mar2018 at 22:47:18 

     This program is part of the open-source Quantum ESPRESSO suite
     for quantum simulation of materials; please cite
         "P. Giannozzi et al., J. Phys.:Condens. Matter 21 395502 (2009);
          URL http://www.quantum-espresso.org", 
     in publications or presentations arising from this work. More details at
     http://www.quantum-espresso.org/quote.php

     Parallel version (MPI), running on     4 processors
     R & G space division:  proc/nbgrp/npool/nimage =       4

     Current dimensions of program PWSCF are:
     Max number of different atomic species (ntypx) = 10
     Max number of k-points (npk) =  40000
     Max angular momentum in pseudopotentials (lmaxx) =  3
     Waiting for input...
     Reading input from standard input

     Subspace diagonalization in iterative solution of the eigenvalue problem:
     a serial algorithm will be used

 
     Parallelization info
     --------------------
     sticks:   dense  smooth     PW     G-vecs:    dense   smooth      PW
     Min         396     396    112                10116    10116    1566
     Max         397     397    113                10119    10119    1567
     Sum        1585    1585    451                40467    40467    6267
 


     bravais-lattice index     =            0
     lattice parameter (alat)  =      12.0168  a.u.
     unit-cell volume          =    1187.3413 (a.u.)^3
     number of atoms/cell      =            8
     number of atomic types    =            2
     number of electrons       =       178.00
     number of Kohn-Sham states=          107
     kinetic-energy cutoff     =      40.0000  Ry
     charge density cutoff     =     160.0000  Ry
     convergence threshold     =      1.0E-04
     mixing beta               =       0.7000
     number of iterations used =            8  plain     mixing
     Exchange-correlation      = SLA-PZ-NOGX-NOGC ( 1 1 0 0 0)
     EXX-fraction              =        0.00
     nstep                     =           50


     celldm(1)=  12.016801  celldm(2)=   0.000000  celldm(3)=   0.000000
     celldm(4)=   0.000000  celldm(5)=   0.000000  celldm(6)=   0.000000

     crystal axes: (cart. coord. in units of alat)
               a(1) = (   1.000000   0.000000   0.000000 )  
               a(2) = (  -0.500000   0.866025   0.000000 )  
               a(3) = (   0.000000   0.000000   0.790093 )  

     reciprocal axes: (cart. coord. in units 2 pi/alat)
               b(1) = (  1.000000  0.577350  0.000000 )  
               b(2) = (  0.000000  1.154701  0.000000 )  
               b(3) = (  0.000000  0.000000  1.265674 )  


     PseudoPot. # 1 for Er read from file:
     /home/cwx6513/pp.La/Er.UPF
     MD5 check sum: e152ae21b84514339d8526f066caf99b
     Pseudo is Norm-conserving, Zval = 22.0
     Generated in analytical, separable form
     Using radial grid of 1267 points,  6 beta functions with: 
                l(1) =   0
                l(2) =   0
                l(3) =   1
                l(4) =   1
                l(5) =   2
                l(6) =   3

     PseudoPot. # 2 for Tm read from file:
     /home/cwx6513/pp.La/Tm.UPF
     MD5 check sum: 245516e0878b5372ceeb9443ded2c4e1
     Pseudo is Norm-conserving, Zval = 23.0
     Generated in analytical, separable form
     Using radial grid of 1269 points,  6 beta functions with: 
                l(1) =   0
                l(2) =   0
                l(3) =   1
                l(4) =   1
                l(5) =   2
                l(6) =   3

     atomic species   valence    mass     pseudopotential
        Mg            22.00    24.30500     Er( 1.00)
        Cd            23.00   112.41100     Tm( 1.00)

     24 Sym. Ops., with inversion, found (12 have fractional translation)



   Cartesian axes

     site n.     atom                  positions (alat units)
         1           Mg  tau(   1) = (   0.2478935   0.7204716   0.1975233  )
         2           Mg  tau(   2) = (   0.7478935   0.1455538   0.5925699  )
         3           Mg  tau(   3) = (   0.2521065   0.1455538   0.5925699  )
         4           Mg  tau(   4) = (  -0.2478935   0.7204716   0.1975233  )
         5           Mg  tau(   5) = (   0.0000000   0.2911075   0.1975233  )
         6           Mg  tau(   6) = (   0.5000000   0.5749179   0.5925699  )
         7           Cd  tau(   7) = (   0.5000005   0.2886748   0.1975233  )
         8           Cd  tau(   8) = (  -0.0000005   0.5773506   0.5925699  )

     number of k points=    64  gaussian smearing, width (Ry)=  0.1000
                       cart. coord. in units 2pi/alat
        k(    1) = (   0.0000000   0.0000000   0.0000000), wk =   0.0095238
        k(    2) = (   0.0000000   0.0000000   0.1808105), wk =   0.0190476
        k(    3) = (   0.0000000   0.0000000   0.3616210), wk =   0.0190476
        k(    4) = (   0.0000000   0.0000000   0.5424315), wk =   0.0190476
        k(    5) = (   0.0000000   0.1924501   0.0000000), wk =   0.0190476
        k(    6) = (   0.0000000   0.1924501   0.1808105), wk =   0.0380952
        k(    7) = (   0.0000000   0.1924501   0.3616210), wk =   0.0380952
        k(    8) = (   0.0000000   0.1924501   0.5424315), wk =   0.0380952
        k(    9) = (   0.0000000   0.3849002   0.0000000), wk =   0.0190476
        k(   10) = (   0.0000000   0.3849002   0.1808105), wk =   0.0380952
        k(   11) = (   0.0000000   0.3849002   0.3616210), wk =   0.0380952
        k(   12) = (   0.0000000   0.3849002   0.5424315), wk =   0.0380952
        k(   13) = (   0.0000000  -0.5773503   0.0000000), wk =   0.0095238
        k(   14) = (   0.0000000  -0.5773503   0.1808105), wk =   0.0190476
        k(   15) = (   0.0000000  -0.5773503   0.3616210), wk =   0.0190476
        k(   16) = (   0.0000000  -0.5773503   0.5424315), wk =   0.0190476
        k(   17) = (   0.2000000   0.1154701   0.0000000), wk =   0.0190476
        k(   18) = (   0.2000000   0.1154701   0.1808105), wk =   0.0380952
        k(   19) = (   0.2000000   0.1154701   0.3616210), wk =   0.0380952
        k(   20) = (   0.2000000   0.1154701   0.5424315), wk =   0.0380952
        k(   21) = (   0.2000000   0.3079201   0.0000000), wk =   0.0190476
        k(   22) = (   0.2000000   0.3079201   0.1808105), wk =   0.0380952
        k(   23) = (   0.2000000   0.3079201   0.3616210), wk =   0.0380952
        k(   24) = (   0.2000000   0.3079201   0.5424315), wk =   0.0380952
        k(   25) = (   0.2000000   0.5003702   0.0000000), wk =   0.0190476
        k(   26) = (   0.2000000   0.5003702   0.1808105), wk =   0.0380952
        k(   27) = (   0.2000000   0.5003702   0.3616210), wk =   0.0380952
        k(   28) = (   0.2000000   0.5003702   0.5424315), wk =   0.0380952
        k(   29) = (   0.2000000  -0.4618802   0.0000000), wk =   0.0190476
        k(   30) = (   0.2000000  -0.4618802   0.1808105), wk =   0.0380952
        k(   31) = (   0.2000000  -0.4618802   0.3616210), wk =   0.0380952
        k(   32) = (   0.2000000  -0.4618802   0.5424315), wk =   0.0380952
        k(   33) = (   0.2000000  -0.2694301   0.0000000), wk =   0.0190476
        k(   34) = (   0.2000000  -0.2694301   0.1808105), wk =   0.0380952
        k(   35) = (   0.2000000  -0.2694301   0.3616210), wk =   0.0380952
        k(   36) = (   0.2000000  -0.2694301   0.5424315), wk =   0.0380952
        k(   37) = (   0.2000000  -0.0769800   0.0000000), wk =   0.0190476
        k(   38) = (   0.2000000  -0.0769800   0.1808105), wk =   0.0380952
        k(   39) = (   0.2000000  -0.0769800   0.3616210), wk =   0.0380952
        k(   40) = (   0.2000000  -0.0769800   0.5424315), wk =   0.0380952
        k(   41) = (   0.4000000   0.2309401   0.0000000), wk =   0.0190476
        k(   42) = (   0.4000000   0.2309401   0.1808105), wk =   0.0380952
        k(   43) = (   0.4000000   0.2309401   0.3616210), wk =   0.0380952
        k(   44) = (   0.4000000   0.2309401   0.5424315), wk =   0.0380952
        k(   45) = (   0.4000000   0.4233902   0.0000000), wk =   0.0190476
        k(   46) = (   0.4000000   0.4233902   0.1808105), wk =   0.0380952
        k(   47) = (   0.4000000   0.4233902   0.3616210), wk =   0.0380952
        k(   48) = (   0.4000000   0.4233902   0.5424315), wk =   0.0380952
        k(   49) = (   0.4000000   0.6158403   0.0000000), wk =   0.0190476
        k(   50) = (   0.4000000   0.6158403   0.1808105), wk =   0.0380952
        k(   51) = (   0.4000000   0.6158403   0.3616210), wk =   0.0380952
        k(   52) = (   0.4000000   0.6158403   0.5424315), wk =   0.0380952
        k(   53) = (   0.4000000  -0.3464102   0.0000000), wk =   0.0190476
        k(   54) = (   0.4000000  -0.3464102   0.1808105), wk =   0.0380952
        k(   55) = (   0.4000000  -0.3464102   0.3616210), wk =   0.0380952
        k(   56) = (   0.4000000  -0.3464102   0.5424315), wk =   0.0380952
        k(   57) = (   0.4000000  -0.1539601   0.0000000), wk =   0.0190476
        k(   58) = (   0.4000000  -0.1539601   0.1808105), wk =   0.0380952
        k(   59) = (   0.4000000  -0.1539601   0.3616210), wk =   0.0380952
        k(   60) = (   0.4000000  -0.1539601   0.5424315), wk =   0.0380952
        k(   61) = (   0.4000000   0.0384900   0.0000000), wk =   0.0190476
        k(   62) = (   0.4000000   0.0384900   0.1808105), wk =   0.0380952
        k(   63) = (   0.4000000   0.0384900   0.3616210), wk =   0.0380952
        k(   64) = (   0.4000000   0.0384900   0.5424315), wk =   0.0380952

     Dense  grid:    40467 G-vectors     FFT dimensions: (  50,  50,  40)

     Largest allocated arrays     est. size (Mb)     dimensions
        Kohn-Sham Wavefunctions         2.12 Mb     (   1298,  107)
        NL pseudopotentials             3.17 Mb     (   1298,  160)
        Each V/rho on FFT grid          0.38 Mb     (  25000)
        Each G-vector array             0.08 Mb     (  10119)
        G-vector shells                 0.08 Mb     (  10119)
     Largest temporary arrays     est. size (Mb)     dimensions
        Each subspace H/S matrix        0.17 Mb     ( 107, 107)
        Each <psi_i|beta_j> matrix      0.26 Mb     (    160,  107)
        Arrays for rho mixing           3.05 Mb     (  25000,   8)

     Initial potential from superposition of free atoms

     Starting from uniform charge
     Starting wfc are    0 randomized atomic wfcs

     total cpu time spent up to now is       10.8 secs

     Self-consistent Calculation

     iteration #  1     ecut=    40.00 Ry     beta=0.70
     CG style diagonalization
     ethr =  1.00E-02,  avg # of iterations = 18.2

     total cpu time spent up to now is      325.7 secs

     total energy              =   -2249.68326394 Ry
     Harris-Foulkes estimate   =   -3481.11510869 Ry
     estimated scf accuracy    <    1526.86054968 Ry

     iteration #  2     ecut=    40.00 Ry     beta=0.70
     CG style diagonalization
     c_bands:  1 eigenvalues not converged
     c_bands:  2 eigenvalues not converged
     c_bands:  1 eigenvalues not converged
     c_bands:  1 eigenvalues not converged
     c_bands:  1 eigenvalues not converged
     c_bands:  2 eigenvalues not converged
     c_bands:  1 eigenvalues not converged
     c_bands:  2 eigenvalues not converged
     c_bands:  1 eigenvalues not converged
     c_bands:  1 eigenvalues not converged
     c_bands:  2 eigenvalues not converged
     c_bands:  2 eigenvalues not converged
     c_bands:  2 eigenvalues not converged
     c_bands:  1 eigenvalues not converged
     c_bands:  2 eigenvalues not converged
     c_bands:  1 eigenvalues not converged
     c_bands:  1 eigenvalues not converged
     c_bands:  1 eigenvalues not converged
     ethr =  1.00E-02,  avg # of iterations =  9.6

     total cpu time spent up to now is      492.0 secs

     total energy              =   -2397.57739419 Ry
     Harris-Foulkes estimate   =   -3020.45880498 Ry
     estimated scf accuracy    <    1022.89820711 Ry

     iteration #  3     ecut=    40.00 Ry     beta=0.70
     CG style diagonalization
     c_bands:  4 eigenvalues not converged
     c_bands:  4 eigenvalues not converged
     c_bands:  2 eigenvalues not converged
     c_bands:  3 eigenvalues not converged
     c_bands:  4 eigenvalues not converged
     c_bands:  4 eigenvalues not converged
     c_bands:  3 eigenvalues not converged
     c_bands:  1 eigenvalues not converged
     c_bands:  3 eigenvalues not converged
     c_bands:  5 eigenvalues not converged
     c_bands:  4 eigenvalues not converged
     c_bands:  3 eigenvalues not converged
     c_bands:  2 eigenvalues not converged
     c_bands:  1 eigenvalues not converged
     c_bands:  4 eigenvalues not converged
     c_bands:  4 eigenvalues not converged
     c_bands:  1 eigenvalues not converged
     c_bands:  2 eigenvalues not converged
     c_bands:  3 eigenvalues not converged
     c_bands:  4 eigenvalues not converged
     c_bands:  3 eigenvalues not converged
     c_bands:  3 eigenvalues not converged
     c_bands:  5 eigenvalues not converged
     c_bands:  1 eigenvalues not converged
     c_bands:  1 eigenvalues not converged
     c_bands:  4 eigenvalues not converged
     c_bands:  1 eigenvalues not converged
     c_bands:  2 eigenvalues not converged
     c_bands:  3 eigenvalues not converged
     c_bands:  5 eigenvalues not converged
     c_bands:  2 eigenvalues not converged
     c_bands:  2 eigenvalues not converged
     c_bands:  5 eigenvalues not converged
     c_bands:  5 eigenvalues not converged
     c_bands:  3 eigenvalues not converged
     c_bands:  3 eigenvalues not converged
     c_bands:  2 eigenvalues not converged
     c_bands:  1 eigenvalues not converged
     c_bands:  3 eigenvalues not converged
     c_bands:  5 eigenvalues not converged
     c_bands:  2 eigenvalues not converged
     c_bands:  5 eigenvalues not converged
     c_bands:  4 eigenvalues not converged
     c_bands:  1 eigenvalues not converged
     ethr =  1.00E-02,  avg # of iterations = 12.9

     total cpu time spent up to now is      713.8 secs

     total energy              =   -2610.50938199 Ry
     Harris-Foulkes estimate   =   -2784.03222645 Ry
     estimated scf accuracy    <     404.99855352 Ry

     iteration #  4     ecut=    40.00 Ry     beta=0.70
     CG style diagonalization
     ethr =  1.00E-02,  avg # of iterations =  6.4

     total cpu time spent up to now is      821.9 secs

     total energy              =   -2707.44071790 Ry
     Harris-Foulkes estimate   =   -2715.95569026 Ry
     estimated scf accuracy    <      14.50099916 Ry

     iteration #  5     ecut=    40.00 Ry     beta=0.70
     CG style diagonalization
     ethr =  8.15E-03,  avg # of iterations =  3.6

     total cpu time spent up to now is      877.4 secs

     total energy              =   -2709.45801374 Ry
     Harris-Foulkes estimate   =   -2710.37010898 Ry
     estimated scf accuracy    <       2.04775182 Ry

     iteration #  6     ecut=    40.00 Ry     beta=0.70
     CG style diagonalization
     ethr =  1.15E-03,  avg # of iterations =  3.8

     total cpu time spent up to now is      937.0 secs

     total energy              =   -2709.78501753 Ry
     Harris-Foulkes estimate   =   -2710.13582648 Ry
     estimated scf accuracy    <       0.62912641 Ry

     iteration #  7     ecut=    40.00 Ry     beta=0.70
     CG style diagonalization
     ethr =  3.53E-04,  avg # of iterations =  3.7

     total cpu time spent up to now is      995.7 secs

     total energy              =   -2709.92763141 Ry
     Harris-Foulkes estimate   =   -2709.94126122 Ry
     estimated scf accuracy    <       0.03070147 Ry

     iteration #  8     ecut=    40.00 Ry     beta=0.70
     CG style diagonalization
     c_bands:  2 eigenvalues not converged
     c_bands:  1 eigenvalues not converged
     c_bands:  1 eigenvalues not converged
     c_bands:  2 eigenvalues not converged
     c_bands:  1 eigenvalues not converged
     c_bands:  1 eigenvalues not converged
     c_bands:  1 eigenvalues not converged
     c_bands:  1 eigenvalues not converged
     c_bands:  1 eigenvalues not converged
     c_bands:  1 eigenvalues not converged
     c_bands:  1 eigenvalues not converged
     c_bands:  1 eigenvalues not converged
     c_bands:  1 eigenvalues not converged
     c_bands:  2 eigenvalues not converged
     c_bands:  2 eigenvalues not converged
     c_bands:  3 eigenvalues not converged
     c_bands:  1 eigenvalues not converged
     c_bands:  3 eigenvalues not converged
     c_bands:  1 eigenvalues not converged
     c_bands:  1 eigenvalues not converged
     c_bands:  2 eigenvalues not converged
     c_bands:  1 eigenvalues not converged
     c_bands:  1 eigenvalues not converged
     c_bands:  1 eigenvalues not converged
     ethr =  1.72E-05,  avg # of iterations =  4.7

     total cpu time spent up to now is     1074.1 secs

     total energy              =   -2709.93575178 Ry
     Harris-Foulkes estimate   =   -2709.94051790 Ry
     estimated scf accuracy    <       0.00836028 Ry

     iteration #  9     ecut=    40.00 Ry     beta=0.70
     CG style diagonalization
     c_bands:  1 eigenvalues not converged
     c_bands:  2 eigenvalues not converged
     c_bands:  1 eigenvalues not converged
     c_bands:  1 eigenvalues not converged
     ethr =  4.70E-06,  avg # of iterations =  3.6

     total cpu time spent up to now is     1124.7 secs

     total energy              =   -2709.93731971 Ry
     Harris-Foulkes estimate   =   -2709.93737557 Ry
     estimated scf accuracy    <       0.00013662 Ry

     iteration # 10     ecut=    40.00 Ry     beta=0.70
     CG style diagonalization
     ethr =  7.68E-08,  avg # of iterations =  4.5

     total cpu time spent up to now is     1181.9 secs

     End of self-consistent calculation

          k = 0.0000 0.0000 0.0000 (  5047 PWs)   bands (ev):

   -85.0739 -85.0663 -74.8894 -74.8893 -74.8880 -74.8589 -74.8588 -74.8433
   -43.7672 -43.7613 -43.7304 -43.7304 -43.7214 -43.7214 -36.9399 -36.8873
   -36.8849 -36.8848 -36.8775 -36.8555 -36.8555 -36.8505 -36.8504 -36.8311
   -36.8143 -36.8142 -36.7799 -36.7775 -36.7774 -36.7709 -36.7709 -36.7639
     5.1691   5.1697   5.1880   5.1881   5.2033   5.2033   5.2471   5.2472
     5.2617   5.2617   9.0722   9.0745   9.1255   9.2052   9.2052   9.3764
     9.4900   9.5152   9.5152   9.5366   9.5367   9.7723   9.7724  10.0185
    10.0688  10.0798  10.0799  10.2623  10.2624  10.3551  10.3552  10.4892
    10.4893  10.5896  10.5896  10.7381  10.7382  10.8084  10.9396  10.9512
    11.2622  16.9274  18.2046  18.3081  18.3082  18.3086  18.3087  19.1836
    19.7064  23.8147  24.0417  24.0418  24.1305  24.3777  25.0277  25.0278
    25.1010  25.1012  27.1680  27.1680  27.5482  28.0614  28.0615  28.2237
    31.3619  31.5256  31.5256  31.5843  32.4468  32.4471  32.8415  32.9019
    32.9324  33.0464  33.0478

          k = 0.0000 0.0000 0.1808 (  5065 PWs)   bands (ev):

   -85.0845 -85.0759 -74.8869 -74.8824 -74.8823 -74.8809 -74.8809 -74.8634
   -43.7647 -43.7633 -43.7355 -43.7355 -43.7298 -43.7298 -36.9239 -36.9179
   -36.8945 -36.8944 -36.8765 -36.8617 -36.8617 -36.8528 -36.8528 -36.8165
   -36.8099 -36.8098 -36.8022 -36.7828 -36.7827 -36.7778 -36.7778 -36.7729
     5.1702   5.1707   5.1839   5.1839   5.2061   5.2061   5.2497   5.2497
     5.2577   5.2577   8.9262   9.0810   9.2181   9.2181   9.3414   9.3923
     9.4968   9.4969   9.5207   9.5208   9.5514   9.7084   9.7084   9.7567
    10.1531  10.1532  10.2539  10.2838  10.2839  10.3651  10.3652  10.4716
    10.4717  10.5046  10.5046  10.7743  10.8286  10.8287  10.9086  10.9355
    11.4112  16.7864  17.6240  18.4108  18.4110  18.4130  18.4717  18.4718
    21.7684  22.1141  23.2405  23.2406  23.4567  23.4568  23.7466  26.0082
    27.0805  27.0806  27.3580  27.3580  27.7885  28.7047  28.7048  28.8490
    31.3824  31.4654  31.6412  31.6413  32.2056  32.2057  32.5706  32.6835
    32.9396  32.9405  32.9600

          k = 0.0000 0.0000 0.3616 (  5047 PWs)   bands (ev):

   -85.0796 -85.0621 -74.8875 -74.8794 -74.8793 -74.8744 -74.8744 -74.8369
   -43.7568 -43.7444 -43.7360 -43.7360 -43.7293 -43.7293 -36.9198 -36.8980
   -36.8914 -36.8914 -36.8761 -36.8761 -36.8491 -36.8311 -36.8220 -36.8220
   -36.8164 -36.8006 -36.8006 -36.7895 -36.7895 -36.7814 -36.7656 -36.7655
     5.1735   5.1746   5.1813   5.1813   5.2097   5.2097   5.2515   5.2515
     5.2550   5.2550   8.8776   9.0949   9.2545   9.2545   9.3078   9.4270
     9.4270   9.4653   9.5261   9.5262   9.5994   9.5994   9.7090   9.7268
    10.2302  10.2303  10.2789  10.2789  10.3307  10.3940  10.3941  10.4355
    10.4356  10.5201  10.5202  10.5925  10.8831  10.9053  10.9053  10.9244
    11.8849  15.3654  17.6230  18.7285  18.7287  18.9446  18.9447  19.0133
    20.5246  21.7183  21.7185  22.2957  22.2958  22.4391  24.3662  27.9857
    27.9857  28.0766  28.4534  29.0914  29.0916  29.8731  29.8732  29.9635
    31.0271  31.3980  31.3981  31.7617  31.7770  31.9865  31.9869  32.1756
    32.3549  32.8376  32.8398

          k = 0.0000 0.0000 0.5424 (  5041 PWs)   bands (ev):

   -85.0752 -85.0604 -74.8839 -74.8838 -74.8684 -74.8683 -74.8587 -74.8548
   -43.7583 -43.7473 -43.7312 -43.7312 -43.7266 -43.7266 -36.9010 -36.8984
   -36.8920 -36.8920 -36.8826 -36.8826 -36.8355 -36.8196 -36.8157 -36.8157
   -36.8069 -36.8040 -36.8039 -36.7902 -36.7789 -36.7788 -36.7783 -36.7782
     5.1762   5.1766   5.1896   5.1897   5.2045   5.2045   5.2496   5.2496
     5.2540   5.2540   8.9430   9.0633   9.2607   9.2721   9.3060   9.3060
     9.3633   9.3633   9.5225   9.5226   9.5342   9.5343   9.9912  10.0220
    10.2287  10.2288  10.2392  10.2393  10.2475  10.3008  10.3946  10.3946
    10.4124  10.4124  10.7168  10.7168  10.8693  10.8693  10.8921  10.9084
    12.7190  13.8857  18.2589  19.2138  19.2578  19.2580  19.5285  19.5285
    19.9644  20.7128  20.7129  21.1346  21.1468  21.1470  27.0221  28.9870
    28.9870  29.4701  29.5379  29.9550  30.1380  30.1381  30.5785  30.6582
    30.6755  30.6756  30.7488  30.7489  31.5325  31.6829  32.2022  32.4293
    32.4301  32.6582  32.6592

          k = 0.0000 0.1925 0.0000 (  5083 PWs)   bands (ev):

   -85.0960 -85.0822 -74.9057 -74.8999 -74.8857 -74.8840 -74.8773 -74.8662
   -43.7737 -43.7669 -43.7416 -43.7378 -43.7316 -43.7302 -36.9295 -36.9022
   -36.8952 -36.8867 -36.8787 -36.8687 -36.8659 -36.8536 -36.8528 -36.8382
   -36.8294 -36.8209 -36.7951 -36.7939 -36.7908 -36.7846 -36.7796 -36.7774
     5.1728   5.1756   5.1886   5.1941   5.2120   5.2157   5.2494   5.2577
     5.2577   5.2600   9.1220   9.1242   9.1409   9.2514   9.2672   9.4248
     9.4348   9.5186   9.5282   9.5855   9.5914   9.7589   9.7973  10.0192
    10.0260  10.0560  10.0863  10.2137  10.2443  10.3035  10.3302  10.4719
    10.4823  10.5366  10.5943  10.6370  10.6629  10.8077  10.8799  10.9327
    11.4332  15.8549  16.9051  17.4266  19.0094  19.4487  19.5123  19.8069
    20.4363  22.5877  23.5902  23.7164  23.7676  24.6092  24.9397  25.2572
    25.4152  26.3359  26.9198  26.9880  27.5769  28.3534  28.3662  28.9399
    30.9743  31.2655  31.3816  31.6331  31.7980  31.9167  32.2511  32.3806
    33.0008  33.1466  33.1571

          k = 0.0000 0.1925 0.1808 (  5077 PWs)   bands (ev):

   -85.0955 -85.0771 -74.9025 -74.8966 -74.8811 -74.8802 -74.8776 -74.8676
   -43.7717 -43.7617 -43.7406 -43.7384 -43.7320 -43.7292 -36.9174 -36.9037
   -36.8979 -36.8919 -36.8790 -36.8726 -36.8658 -36.8536 -36.8448 -36.8312
   -36.8202 -36.8119 -36.8066 -36.7946 -36.7890 -36.7831 -36.7812 -36.7734
     5.1738   5.1760   5.1864   5.1908   5.2143   5.2182   5.2527   5.2551
     5.2582   5.2612   8.9829   9.1319   9.2140   9.2795   9.3980   9.4407
     9.4603   9.4866   9.5218   9.5703   9.5954   9.6962   9.7337   9.7980
    10.1150  10.1324  10.2172  10.2552  10.2714  10.2985  10.3395  10.4211
    10.4471  10.4883  10.5119  10.6929  10.7489  10.8240  10.8661  10.8931
    11.5905  15.9670  16.9966  17.5634  17.5789  19.3099  19.6528  20.5244
    21.3003  21.9070  22.3275  22.5998  24.2315  24.3430  24.8932  25.8359
    26.4317  26.4582  27.1408  27.3165  27.8098  29.0579  29.1366  29.7282
    30.7854  30.9877  31.1004  31.7267  31.7527  32.0699  32.4481  32.5779
    32.8531  32.9655  33.0513

          k = 0.0000 0.1925 0.3616 (  5061 PWs)   bands (ev):

   -85.0889 -85.0671 -74.8901 -74.8850 -74.8833 -74.8807 -74.8699 -74.8572
   -43.7618 -43.7485 -43.7423 -43.7383 -43.7314 -43.7280 -36.9057 -36.9037
   -36.8918 -36.8914 -36.8734 -36.8725 -36.8593 -36.8366 -36.8307 -36.8255
   -36.8152 -36.8083 -36.8034 -36.7993 -36.7880 -36.7846 -36.7815 -36.7747
     5.1781   5.1786   5.1857   5.1887   5.2181   5.2203   5.2499   5.2529
     5.2575   5.2646   8.9393   9.1448   9.2457   9.3113   9.3676   9.4201
     9.4486   9.4560   9.5893   9.5915   9.6004   9.6344   9.6988   9.7399
    10.1927  10.1978  10.2109  10.2404  10.3042  10.3608  10.3756  10.3849
    10.4213  10.4814  10.5267  10.5786  10.8000  10.8187  10.8341  10.9182
    12.0757  15.4995  16.5790  17.5526  17.9780  19.5979  19.9213  20.0186
    20.6505  21.0904  21.1814  23.0582  23.1677  24.0788  24.5001  26.8713
    27.2800  27.8987  28.3884  28.6716  28.9444  29.9170  30.2155  30.3133
    30.4066  30.8615  31.0015  31.6313  31.7828  32.0208  32.3379  32.5282
    32.6056  32.9039  33.0394

          k = 0.0000 0.1925 0.5424 (  5050 PWs)   bands (ev):

   -85.0798 -85.0659 -74.8891 -74.8839 -74.8807 -74.8731 -74.8647 -74.8504
   -43.7555 -43.7453 -43.7368 -43.7366 -43.7350 -43.7268 -36.9097 -36.9012
   -36.8974 -36.8947 -36.8860 -36.8849 -36.8317 -36.8263 -36.8204 -36.8141
   -36.8124 -36.8014 -36.8002 -36.7918 -36.7899 -36.7826 -36.7814 -36.7735
     5.1806   5.1811   5.1939   5.1969   5.2103   5.2110   5.2508   5.2562
     5.2563   5.2625   9.0044   9.1214   9.2621   9.2800   9.3491   9.3548
     9.3918   9.4056   9.5373   9.5571   9.5667   9.5872   9.9578  10.0270
    10.1491  10.1733  10.1984  10.2009  10.2497  10.2689  10.3644  10.3750
    10.3929  10.4136  10.6414  10.7091  10.7835  10.7994  10.8255  10.8847
    12.9127  14.0803  17.2462  18.0982  18.5265  18.6722  19.3728  19.6140
    20.6542  21.0428  21.5346  21.9866  22.0966  22.9271  27.1270  27.8816
    28.1925  28.9514  29.2084  29.4201  29.6029  29.8162  30.2943  30.4349
    30.6725  30.8897  31.0317  31.1202  31.4282  31.6179  32.3343  32.4632
    32.6827  32.9464  32.9883

          k = 0.0000 0.3849 0.0000 (  5079 PWs)   bands (ev):

   -85.0994 -85.0772 -74.9047 -74.8957 -74.8887 -74.8805 -74.8760 -74.8695
   -43.7665 -43.7579 -43.7467 -43.7465 -43.7302 -43.7284 -36.9168 -36.8894
   -36.8819 -36.8763 -36.8755 -36.8711 -36.8659 -36.8453 -36.8422 -36.8310
   -36.8235 -36.8197 -36.8116 -36.8094 -36.8016 -36.7969 -36.7943 -36.7769
     5.1809   5.1843   5.1919   5.2105   5.2338   5.2419   5.2505   5.2570
     5.2613   5.2799   9.1393   9.2562   9.2826   9.3619   9.3828   9.4303
     9.4773   9.5154   9.6073   9.6361   9.6797   9.7386   9.8445   9.9498
    10.0186  10.0204  10.0528  10.1137  10.2159  10.2499  10.2842  10.3769
    10.4403  10.4519  10.4787  10.4888  10.5850  10.6187  10.8698  10.8956
    11.9732  14.2850  16.2741  16.9089  19.7367  20.1838  20.4885  20.9277
    21.2811  22.5894  23.1310  23.2080  23.3754  24.3845  24.6352  24.7939
    24.8307  27.1681  27.5427  28.3175  28.5184  28.9136  29.0502  29.1445
    30.4414  30.5610  30.7198  30.9246  30.9791  31.0362  32.0929  32.0960
    32.9168  33.1234  33.6229

          k = 0.0000 0.3849 0.1808 (  5090 PWs)   bands (ev):

   -85.1024 -85.0845 -74.9043 -74.9006 -74.8946 -74.8914 -74.8779 -74.8712
   -43.7706 -43.7609 -43.7471 -43.7446 -43.7343 -43.7336 -36.9119 -36.8946
   -36.8914 -36.8855 -36.8757 -36.8687 -36.8678 -36.8492 -36.8431 -36.8344
   -36.8210 -36.8175 -36.8145 -36.8123 -36.8078 -36.8007 -36.7993 -36.7799
     5.1819   5.1847   5.1913   5.2081   5.2362   5.2429   5.2472   5.2588
     5.2590   5.2818   9.1178   9.2065   9.2777   9.4047   9.4465   9.4499
     9.4745   9.5423   9.5836   9.6164   9.6451   9.7595   9.7972   9.9082
    10.0346  10.0692  10.0836  10.1321  10.2574  10.2654  10.2834  10.2871
    10.3776  10.4763  10.4881  10.5396  10.5798  10.6294  10.8133  10.8979
    12.1350  14.4282  16.4077  17.0494  18.0289  19.8796  20.5535  21.0912
    21.9697  22.1801  22.3439  22.9893  24.2957  24.7032  24.7633  25.4565
    25.6512  26.8872  27.2085  28.1497  28.5027  28.6126  29.4975  29.6680
    30.0332  30.0906  30.9290  31.3883  31.8691  32.0446  32.1545  32.1970
    32.6464  32.8354  33.0757

          k = 0.0000 0.3849 0.3616 (  5078 PWs)   bands (ev):

   -85.0963 -85.0776 -74.8971 -74.8945 -74.8882 -74.8862 -74.8763 -74.8664
   -43.7702 -43.7546 -43.7410 -43.7406 -43.7340 -43.7337 -36.9084 -36.8983
   -36.8964 -36.8859 -36.8728 -36.8655 -36.8616 -36.8460 -36.8350 -36.8222
   -36.8185 -36.8166 -36.8116 -36.8111 -36.8007 -36.7976 -36.7911 -36.7824
     5.1856   5.1864   5.1927   5.2077   5.2347   5.2360   5.2466   5.2622
     5.2631   5.2847   9.0995   9.2210   9.2511   9.4013   9.4265   9.4475
     9.5203   9.5375   9.6196   9.6218   9.7174   9.7197   9.7816   9.8228
    10.0109  10.1067  10.1600  10.1892  10.1895  10.2307  10.2870  10.3219
    10.3735  10.4561  10.5154  10.5734  10.5978  10.6098  10.6606  10.9300
    12.6292  14.8462  16.1586  17.0120  17.4833  18.3310  20.1354  20.6178
    21.3149  21.5793  23.3724  24.3593  24.3876  24.8431  25.2753  25.7319
    26.2018  27.2477  27.9554  28.1390  28.6935  28.9457  29.2083  29.2141
    31.1615  31.2991  31.3319  31.4341  31.7674  31.9220  32.3826  32.6106
    32.6761  32.8874  33.0334

          k = 0.0000 0.3849 0.5424 (  5051 PWs)   bands (ev):

   -85.0800 -85.0663 -74.8881 -74.8802 -74.8781 -74.8760 -74.8628 -74.8583
   -43.7599 -43.7500 -43.7355 -43.7330 -43.7302 -43.7283 -36.8998 -36.8989
   -36.8921 -36.8804 -36.8792 -36.8594 -36.8333 -36.8307 -36.8280 -36.8213
   -36.8192 -36.8130 -36.8054 -36.7974 -36.7966 -36.7890 -36.7858 -36.7762
     5.1885   5.1887   5.2018   5.2135   5.2178   5.2251   5.2550   5.2616
     5.2745   5.2831   9.1579   9.2326   9.2560   9.3009   9.4275   9.4468
     9.4701   9.4941   9.6304   9.6600   9.7058   9.7521   9.8790   9.9127
     9.9536  10.1245  10.1305  10.1456  10.2144  10.2345  10.2683  10.3344
    10.3452  10.4007  10.4781  10.5712  10.5742  10.5815  10.7804  10.8972
    13.4648  14.5846  15.7947  16.8249  17.8410  18.2251  18.8723  19.2771
    22.0351  22.3501  23.0451  23.3424  24.3204  25.2829  26.1689  26.4186
    27.1160  27.3665  27.3862  29.0052  29.7143  29.8643  30.0386  30.3245
    30.5272  30.5325  30.9446  31.2645  31.4864  31.6888  32.1900  32.2199
    32.3184  32.4818  32.6952

          k = 0.0000-0.5774 0.0000 (  5068 PWs)   bands (ev):

   -85.0852 -85.0801 -74.8874 -74.8853 -74.8839 -74.8808 -74.8770 -74.8741
   -43.7679 -43.7634 -43.7368 -43.7355 -43.7296 -43.7273 -36.9225 -36.8851
   -36.8806 -36.8674 -36.8624 -36.8489 -36.8436 -36.8417 -36.8274 -36.8254
   -36.8235 -36.8210 -36.8206 -36.8198 -36.8136 -36.8007 -36.7939 -36.7839
     5.1852   5.1871   5.1938   5.2223   5.2420   5.2499   5.2576   5.2583
     5.2610   5.2919   9.1419   9.3385   9.3661   9.4118   9.4494   9.5296
     9.5400   9.5566   9.5708   9.6107   9.6519   9.7457   9.8277   9.8653
    10.0843  10.0979  10.1340  10.1481  10.1597  10.2025  10.2127  10.2674
    10.2935  10.3293  10.4510  10.4661  10.5139  10.5585  10.8752  10.8776
    12.6998  13.1942  16.0690  16.7387  20.1640  20.3667  21.1663  21.4009
    21.4439  21.9675  23.3073  23.3703  23.5053  23.7865  24.3354  24.7301
    25.7428  25.8804  28.5793  28.6442  29.1798  29.2685  29.3098  29.5872
    29.5910  29.6664  30.5642  30.5714  31.8222  31.9259  32.0339  32.1271
    32.3743  32.6511  32.6733

          k = 0.0000-0.5774 0.1808 (  5072 PWs)   bands (ev):

   -85.0855 -85.0832 -74.8931 -74.8921 -74.8855 -74.8805 -74.8729 -74.8723
   -43.7632 -43.7612 -43.7449 -43.7354 -43.7322 -43.7292 -36.9208 -36.8956
   -36.8794 -36.8768 -36.8701 -36.8539 -36.8460 -36.8399 -36.8372 -36.8311
   -36.8264 -36.8193 -36.8151 -36.8059 -36.8042 -36.7974 -36.7969 -36.7821
     5.1863   5.1885   5.1936   5.2228   5.2391   5.2516   5.2517   5.2599
     5.2635   5.2936   9.1620   9.2796   9.3892   9.3964   9.4434   9.4616
     9.5080   9.5676   9.5764   9.6644   9.7421   9.8001   9.8657   9.8667
    10.0344  10.0469  10.0664  10.1429  10.1762  10.2126  10.2728  10.2757
    10.2860  10.3405  10.4403  10.4797  10.5065  10.5514  10.7930  10.9037
    12.8653  13.3396  16.2145  16.8839  18.6892  18.9852  20.9494  21.8868
    22.4415  22.5665  22.7490  23.3271  23.5414  23.5422  25.8319  25.9732
    26.0599  26.0712  27.3013  27.4983  28.5972  28.7491  29.4595  29.7603
    30.4441  30.5698  30.6494  30.8811  31.4804  31.5700  32.2657  32.3677
    32.7534  32.7704  33.4350

          k = 0.0000-0.5774 0.3616 (  5090 PWs)   bands (ev):

   -85.0958 -85.0902 -74.9105 -74.8967 -74.8925 -74.8909 -74.8778 -74.8695
   -43.7670 -43.7627 -43.7435 -43.7434 -43.7390 -43.7348 -36.9128 -36.9003
   -36.8988 -36.8847 -36.8678 -36.8662 -36.8578 -36.8478 -36.8424 -36.8358
   -36.8311 -36.8214 -36.8181 -36.8036 -36.8022 -36.8019 -36.7956 -36.7849
     5.1889   5.1900   5.1961   5.2226   5.2318   5.2374   5.2549   5.2623
     5.2727   5.2953   9.2094   9.2173   9.3152   9.3970   9.4500   9.4983
     9.5409   9.5440   9.5966   9.7775   9.8121   9.8304   9.8352   9.8715
     9.8845  10.0253  10.1025  10.1503  10.1829  10.1914  10.1984  10.3014
    10.3328  10.3818  10.4194  10.4678  10.5329  10.5681  10.6156  10.9351
    13.3641  13.7918  16.4588  17.2500  17.2836  17.3238  19.9716  20.4937
    22.4315  22.7193  23.8023  23.9954  24.9990  25.4067  25.7907  26.1270
    26.3028  26.8155  26.8368  26.9973  28.6596  28.8209  29.1268  29.2154
    30.0429  30.3508  31.8756  31.9960  32.0843  32.1106  32.5971  32.6604
    32.9297  33.0590  33.0827

          k = 0.0000-0.5774 0.5424 (  5080 PWs)   bands (ev):

   -85.0939 -85.0823 -74.9078 -74.8916 -74.8874 -74.8865 -74.8744 -74.8667
   -43.7628 -43.7610 -43.7429 -43.7421 -43.7376 -43.7311 -36.9028 -36.8956
   -36.8939 -36.8792 -36.8690 -36.8584 -36.8550 -36.8449 -36.8429 -36.8409
   -36.8381 -36.8238 -36.8126 -36.8123 -36.8014 -36.7921 -36.7897 -36.7809
     5.1917   5.1922   5.2052   5.2204   5.2239   5.2264   5.2590   5.2618
     5.2843   5.2934   9.2247   9.2433   9.3015   9.3311   9.4980   9.5020
     9.5358   9.5810   9.7022   9.7224   9.7753   9.8093   9.8113   9.8559
     9.9050  10.0850  10.1314  10.1658  10.1832  10.2060  10.2171  10.2178
    10.3097  10.3582  10.3830  10.4111  10.4712  10.5007  10.7845  10.9036
    14.1717  14.5219  15.4891  15.8538  17.6463  18.0762  18.7021  19.1423
    23.1249  23.4617  23.9811  24.2301  25.1096  25.3969  25.7682  26.0338
    26.6233  26.8253  27.7893  27.7963  28.4557  28.5951  30.2811  30.3997
    30.5200  30.6900  31.0073  31.2493  31.7928  31.8998  32.2411  32.3224
    32.3432  32.5469  32.5680

          k = 0.2000 0.1155 0.0000 (  5087 PWs)   bands (ev):

   -85.0992 -85.0834 -74.9051 -74.8949 -74.8883 -74.8829 -74.8797 -74.8785
   -43.7715 -43.7657 -43.7469 -43.7422 -43.7321 -43.7288 -36.9282 -36.9006
   -36.8913 -36.8834 -36.8822 -36.8702 -36.8677 -36.8518 -36.8506 -36.8347
   -36.8276 -36.8206 -36.8165 -36.7969 -36.7958 -36.7868 -36.7810 -36.7756
     5.1744   5.1773   5.1894   5.1966   5.2155   5.2200   5.2507   5.2566
     5.2602   5.2619   9.1309   9.1453   9.1577   9.2730   9.2934   9.4099
     9.4498   9.5252   9.5283   9.6025   9.6143   9.7502   9.8067  10.0076
    10.0219  10.0463  10.0907  10.1850  10.2381  10.2908  10.3211  10.4616
    10.4813  10.5193  10.5947  10.6011  10.6301  10.7872  10.8699  10.9257
    11.5092  15.5314  16.7395  17.2937  19.1999  19.5610  19.7845  19.9045
    20.8466  22.4001  23.4560  23.5764  23.6328  24.5340  24.9086  25.4045
    25.4184  26.3623  26.9618  27.2264  27.6845  28.4587  28.4704  29.2167
    30.5387  31.2146  31.3227  31.6767  31.7059  31.7543  32.0653  32.1517
    33.0336  33.1233  33.2829

          k = 0.2000 0.1155 0.1808 (  5078 PWs)   bands (ev):

   -85.0961 -85.0776 -74.8973 -74.8962 -74.8844 -74.8804 -74.8761 -74.8742
   -43.7710 -43.7615 -43.7436 -43.7368 -43.7332 -43.7284 -36.9170 -36.8992
   -36.8956 -36.8927 -36.8742 -36.8704 -36.8603 -36.8528 -36.8479 -36.8291
   -36.8212 -36.8111 -36.8069 -36.8018 -36.7925 -36.7879 -36.7832 -36.7781
     5.1755   5.1778   5.1876   5.1938   5.2179   5.2232   5.2536   5.2541
     5.2582   5.2651   9.0064   9.1512   9.2156   9.3049   9.4195   9.4507
     9.4518   9.4827   9.5340   9.5745   9.6257   9.6880   9.7430   9.8153
    10.1000  10.1235  10.1988  10.2344  10.2678  10.2837  10.3294  10.3984
    10.4396  10.4851  10.5089  10.6680  10.7150  10.7975  10.8531  10.8912
    11.6690  15.6566  16.8461  17.4323  17.6291  19.5556  19.9299  20.7950
    21.2332  21.9538  22.2339  22.4909  24.4205  24.5479  24.9263  25.7972
    26.1866  26.4590  27.1168  27.2747  27.9024  29.1780  29.2975  30.0183
    30.4830  30.7621  30.8315  31.7195  31.8040  31.8941  32.4076  32.5242
    32.9601  32.9652  33.0460

          k = 0.2000 0.1155 0.3616 (  5067 PWs)   bands (ev):

   -85.0913 -85.0708 -74.8901 -74.8887 -74.8864 -74.8818 -74.8727 -74.8610
   -43.7635 -43.7499 -43.7432 -43.7379 -43.7352 -43.7291 -36.9065 -36.9033
   -36.8929 -36.8923 -36.8750 -36.8736 -36.8626 -36.8421 -36.8297 -36.8256
   -36.8154 -36.8103 -36.8045 -36.7994 -36.7897 -36.7885 -36.7842 -36.7766
     5.1796   5.1800   5.1873   5.1919   5.2215   5.2238   5.2490   5.2539
     5.2582   5.2683   8.9653   9.1634   9.2442   9.3337   9.3848   9.4162
     9.4578   9.4655   9.5988   9.6161   9.6165   9.6492   9.6880   9.7529
    10.1588  10.1838  10.2021  10.2290  10.2935  10.3397  10.3649  10.3652
    10.4141  10.4734  10.5251  10.5784  10.7685  10.7825  10.7985  10.9207
    12.1578  15.5287  16.3044  17.4013  17.8505  19.3847  20.1119  20.2708
    20.5708  21.0891  21.5089  23.3015  23.4155  24.4482  24.6109  26.5766
    26.9661  27.7153  28.4668  28.6138  28.8934  29.6171  29.9017  30.4426
    30.5753  30.8295  31.0926  31.4865  31.8609  32.0655  32.3191  32.3953
    32.6263  32.8973  33.1877

          k = 0.2000 0.1155 0.5424 (  5053 PWs)   bands (ev):

   -85.0815 -85.0673 -74.8966 -74.8847 -74.8828 -74.8741 -74.8605 -74.8502
   -43.7567 -43.7465 -43.7381 -43.7357 -43.7318 -43.7311 -36.9047 -36.9041
   -36.8962 -36.8911 -36.8870 -36.8863 -36.8319 -36.8283 -36.8204 -36.8193
   -36.8117 -36.8053 -36.8041 -36.7920 -36.7899 -36.7853 -36.7802 -36.7744
     5.1821   5.1825   5.1957   5.1996   5.2120   5.2138   5.2515   5.2574
     5.2592   5.2663   9.0304   9.1446   9.2611   9.2815   9.3650   9.3730
     9.4046   9.4220   9.5472   9.5702   9.5870   9.6115   9.9439  10.0243
    10.1132  10.1533  10.1854  10.1884  10.2503  10.2581  10.3472  10.3658
    10.3889  10.4137  10.6116  10.6972  10.7483  10.7614  10.8046  10.8867
    12.9982  14.1614  16.9396  17.8595  18.3350  18.5591  19.2460  19.5432
    20.9017  21.2642  21.8485  22.2380  22.4856  23.3796  27.1705  27.5410
    27.8498  28.5907  28.8492  29.5112  29.5337  29.8003  30.2874  30.4474
    30.7512  30.9478  31.0791  31.2228  31.2590  31.5450  32.2802  32.3822
    32.6610  32.7709  32.8343

          k = 0.2000 0.3079 0.0000 (  5075 PWs)   bands (ev):

   -85.0939 -85.0781 -74.9049 -74.8999 -74.8842 -74.8824 -74.8687 -74.8641
   -43.7633 -43.7622 -43.7452 -43.7402 -43.7311 -43.7290 -36.9210 -36.8967
   -36.8851 -36.8819 -36.8788 -36.8764 -36.8609 -36.8449 -36.8340 -36.8325
   -36.8223 -36.8157 -36.8108 -36.8072 -36.7922 -36.7899 -36.7840 -36.7770
     5.1823   5.1851   5.1928   5.2081   5.2312   5.2384   5.2508   5.2585
     5.2608   5.2767   9.1636   9.2417   9.2470   9.3664   9.3770   9.4021
     9.5062   9.5280   9.5612   9.6170   9.7301   9.7452   9.7877   9.9166
    10.0355  10.0653  10.0785  10.1128  10.1753  10.2543  10.2798  10.4026
    10.4441  10.4695  10.4777  10.4870  10.5840  10.7385  10.7915  10.8981
    11.9124  14.7551  15.3396  18.2333  18.9664  19.9216  20.1008  21.2146
    21.7001  22.6676  22.7316  23.0288  23.5305  23.6568  24.8944  25.5264
    25.9437  26.4562  26.9530  28.1203  28.2780  28.8058  29.2721  29.7734
    29.7978  30.0649  30.2676  30.6974  31.6053  31.7510  32.4779  32.8071
    33.0084  33.1242  33.8547

          k = 0.2000 0.3079 0.1808 (  5088 PWs)   bands (ev):

   -85.0984 -85.0862 -74.9106 -74.8998 -74.8960 -74.8818 -74.8755 -74.8706
   -43.7696 -43.7640 -43.7458 -43.7435 -43.7349 -43.7304 -36.9121 -36.8999
   -36.8953 -36.8895 -36.8778 -36.8702 -36.8668 -36.8508 -36.8437 -36.8356
   -36.8208 -36.8188 -36.8126 -36.8116 -36.7993 -36.7924 -36.7854 -36.7828
     5.1831   5.1850   5.1921   5.2054   5.2339   5.2398   5.2477   5.2576
     5.2612   5.2782   9.1120   9.2286   9.2454   9.4008   9.4172   9.4822
     9.5132   9.5240   9.5432   9.5852   9.6627   9.7296   9.7906   9.9048
    10.0293  10.0905  10.1145  10.1528  10.2004  10.2772  10.2840  10.3127
    10.3925  10.4762  10.4807  10.5370  10.5878  10.7492  10.8143  10.8293
    12.0759  14.8884  15.4869  17.8468  18.5222  19.1394  20.3043  20.8780
    21.9614  22.3536  22.4913  23.2289  24.2146  24.3559  24.8612  25.1098
    26.4523  26.8532  27.5472  27.7735  28.0402  28.5274  29.2939  29.6445
    29.9244  30.6815  31.0391  31.1262  31.4042  31.7554  32.3436  32.8810
    32.9545  33.1231  33.4778

          k = 0.2000 0.3079 0.3616 (  5068 PWs)   bands (ev):

   -85.0922 -85.0724 -74.8956 -74.8902 -74.8861 -74.8842 -74.8686 -74.8620
   -43.7677 -43.7518 -43.7416 -43.7399 -43.7326 -43.7265 -36.8995 -36.8982
   -36.8900 -36.8863 -36.8681 -36.8678 -36.8596 -36.8412 -36.8284 -36.8266
   -36.8212 -36.8196 -36.8139 -36.8026 -36.7976 -36.7914 -36.7864 -36.7803
     5.1863   5.1865   5.1938   5.2048   5.2341   5.2350   5.2467   5.2599
     5.2652   5.2813   9.0856   9.2354   9.2505   9.3876   9.4435   9.4481
     9.5099   9.5192   9.5733   9.6456   9.6609   9.7399   9.7493   9.8473
    10.0636  10.1047  10.1204  10.1900  10.1989  10.2288  10.3260  10.3400
    10.3725  10.4480  10.5300  10.5597  10.5674  10.6461  10.7654  10.8716
    12.5667  15.2423  15.9369  16.2683  18.6401  18.8575  19.3174  19.7983
    21.7894  22.4375  22.8875  23.0837  24.7930  24.8115  25.4274  25.7785
    26.8350  27.2371  27.7179  27.9924  28.1752  29.5429  29.8104  30.1319
    30.3032  30.4357  30.6703  31.7261  31.7874  31.8262  32.0442  32.5922
    33.1176  33.3170  33.4949

          k = 0.2000 0.3079 0.5424 (  5058 PWs)   bands (ev):

   -85.0799 -85.0740 -74.8932 -74.8920 -74.8748 -74.8726 -74.8658 -74.8626
   -43.7580 -43.7506 -43.7375 -43.7349 -43.7345 -43.7310 -36.9071 -36.8955
   -36.8905 -36.8848 -36.8775 -36.8718 -36.8376 -36.8342 -36.8306 -36.8197
   -36.8127 -36.8110 -36.8047 -36.8023 -36.7987 -36.7894 -36.7887 -36.7782
     5.1890   5.1896   5.2021   5.2107   5.2179   5.2233   5.2548   5.2609
     5.2721   5.2795   9.1477   9.2344   9.2657   9.2962   9.4376   9.4412
     9.4723   9.4789   9.5581   9.6021   9.7244   9.7615   9.8774   9.9949
    10.0162  10.0405  10.0652  10.1891  10.2084  10.2657  10.2760  10.3392
    10.3756  10.3829  10.4607  10.5100  10.6626  10.6873  10.7707  10.8491
    13.4022  14.5383  16.2446  16.7017  17.3728  17.8838  19.5731  20.5214
    20.6367  21.6878  23.2798  23.6571  24.3366  24.7325  25.6552  26.6474
    27.3659  28.0909  28.4790  29.0661  29.3957  29.6513  29.7501  29.9400
    30.4479  30.8025  31.0309  31.0942  31.1794  31.3303  31.4110  31.4334
    33.3204  33.6358  33.7712

          k = 0.2000 0.5004 0.0000 (  5072 PWs)   bands (ev):

   -85.0883 -85.0815 -74.8993 -74.8965 -74.8896 -74.8754 -74.8712 -74.8670
   -43.7618 -43.7606 -43.7469 -43.7357 -43.7338 -43.7274 -36.9129 -36.8824
   -36.8816 -36.8766 -36.8744 -36.8625 -36.8554 -36.8458 -36.8427 -36.8248
   -36.8215 -36.8180 -36.8165 -36.8097 -36.8040 -36.7968 -36.7907 -36.7821
     5.1892   5.1914   5.1959   5.2228   5.2404   5.2492   5.2548   5.2618
     5.2657   5.2854   9.2019   9.3119   9.3587   9.4106   9.4821   9.5137
     9.5443   9.6021   9.6136   9.6344   9.6577   9.7479   9.7534   9.8334
     9.9603  10.0737  10.0958  10.1414  10.1588  10.2202  10.2489  10.3082
    10.3095  10.3462  10.4687  10.4940  10.5456  10.5635  10.7584  10.8746
    12.6763  13.6572  14.7028  18.3507  19.7404  20.3022  20.8849  21.0323
    21.6987  22.0064  22.1642  22.9718  23.9020  24.8276  25.2094  25.5931
    26.0899  26.7475  26.9112  27.4620  27.9857  28.1767  28.4988  30.0538
    30.1719  30.7874  31.0415  31.3962  31.5137  31.6221  32.1991  32.6251
    32.8292  32.9283  33.4281

          k = 0.2000 0.5004 0.1808 (  5079 PWs)   bands (ev):

   -85.0952 -85.0816 -74.9015 -74.8982 -74.8946 -74.8837 -74.8706 -74.8673
   -43.7654 -43.7587 -43.7483 -43.7406 -43.7351 -43.7281 -36.9125 -36.8925
   -36.8833 -36.8820 -36.8765 -36.8669 -36.8522 -36.8465 -36.8431 -36.8321
   -36.8282 -36.8209 -36.8102 -36.8087 -36.8045 -36.7963 -36.7929 -36.7801
     5.1904   5.1922   5.1960   5.2215   5.2375   5.2492   5.2555   5.2600
     5.2675   5.2872   9.2175   9.2938   9.3412   9.4106   9.4679   9.5151
     9.5191   9.5585   9.5792   9.6544   9.7196   9.7581   9.8546   9.8741
     9.9943  10.0388  10.0778  10.1120  10.1485  10.2067  10.2253  10.2977
    10.3228  10.3686  10.4697  10.4858  10.5189  10.5951  10.7875  10.7936
    12.8342  13.8044  14.8520  18.3093  18.8202  19.3452  20.0535  20.5035
    22.2471  22.8175  23.3954  23.6614  23.9741  24.9199  25.0586  25.5001
    25.7404  26.8086  27.2580  27.5778  28.1392  28.5073  28.9340  29.4603
    29.8276  30.3388  30.9474  31.4891  31.6411  31.9558  32.2479  32.6690
    32.7906  33.5962  33.8367

          k = 0.2000 0.5004 0.3616 (  5085 PWs)   bands (ev):

   -85.0984 -85.0841 -74.9040 -74.9013 -74.8958 -74.8855 -74.8776 -74.8654
   -43.7692 -43.7614 -43.7480 -43.7404 -43.7363 -43.7288 -36.9017 -36.8966
   -36.8945 -36.8816 -36.8731 -36.8722 -36.8552 -36.8457 -36.8359 -36.8342
   -36.8277 -36.8266 -36.8165 -36.8104 -36.8048 -36.8023 -36.7920 -36.7840
     5.1924   5.1935   5.1993   5.2195   5.2324   5.2377   5.2592   5.2655
     5.2718   5.2899   9.2440   9.2633   9.2971   9.4318   9.4727   9.4844
     9.5026   9.5878   9.5984   9.7043   9.7501   9.8099   9.8890   9.9139
     9.9684   9.9749  10.0422  10.0808  10.1313  10.2018  10.2478  10.3101
    10.3347  10.3498  10.4555  10.5153  10.5195  10.5692  10.6550  10.8375
    13.3178  14.2567  15.3021  16.8895  17.7190  18.6756  19.0844  20.6563
    22.1681  22.9503  23.9804  24.1505  24.7873  25.2899  25.8767  26.0337
    26.3620  26.8564  27.6570  27.6774  27.9289  28.7411  28.9465  29.2945
    29.9118  30.2954  30.7859  31.0698  31.3958  32.4000  32.4858  32.5471
    32.8178  33.8205  34.0809

          k = 0.2000 0.5004 0.5424 (  5080 PWs)   bands (ev):

   -85.0907 -85.0851 -74.9024 -74.8971 -74.8843 -74.8817 -74.8791 -74.8687
   -43.7639 -43.7593 -43.7427 -43.7398 -43.7364 -43.7340 -36.9015 -36.8943
   -36.8842 -36.8804 -36.8706 -36.8668 -36.8496 -36.8431 -36.8396 -36.8333
   -36.8255 -36.8217 -36.8176 -36.8116 -36.8031 -36.8020 -36.7940 -36.7908
     5.1957   5.1959   5.2071   5.2205   5.2218   5.2265   5.2636   5.2668
     5.2809   5.2885   9.2593   9.2708   9.3116   9.3614   9.4802   9.5121
     9.5317   9.5901   9.6562   9.6732   9.7979   9.8360   9.8524   9.9181
     9.9513   9.9719   9.9974  10.1401  10.1658  10.1991  10.2407  10.2775
    10.2946  10.3323  10.3475  10.3920  10.5616  10.5857  10.7495  10.8283
    14.1253  14.8596  15.5566  16.0949  16.4168  17.2869  19.8140  20.7892
    21.5905  22.5561  23.8582  24.7769  24.9519  25.6986  26.0025  26.7870
    27.2020  27.4210  27.8258  28.4502  28.6816  28.8229  29.2333  29.5277
    29.6595  30.0028  30.3623  30.6842  30.9235  31.4048  31.5487  32.1248
    33.8580  33.9954  34.0665

          k = 0.2000-0.4619 0.0000 (  5078 PWs)   bands (ev):

   -85.0939 -85.0816 -74.9017 -74.8984 -74.8891 -74.8818 -74.8750 -74.8667
   -43.7641 -43.7625 -43.7460 -43.7406 -43.7327 -43.7283 -36.9190 -36.8843
   -36.8828 -36.8808 -36.8740 -36.8658 -36.8555 -36.8476 -36.8364 -36.8285
   -36.8238 -36.8236 -36.8140 -36.8128 -36.8011 -36.7970 -36.7929 -36.7833
     5.1881   5.1905   5.1954   5.2200   5.2424   5.2477   5.2504   5.2615
     5.2656   5.2846   9.1965   9.3110   9.3428   9.3881   9.4701   9.4943
     9.5397   9.5711   9.6158   9.6533   9.6590   9.7561   9.7663   9.8316
     9.9742  10.0794  10.1158  10.1411  10.1444  10.2130  10.2428  10.3176
    10.3263  10.3616  10.4696  10.4877  10.5547  10.6052  10.7591  10.8775
    12.5021  13.8876  14.7520  18.3737  19.5682  20.2303  20.8216  20.9168
    21.7254  22.2479  22.4371  23.0131  23.6438  24.3308  25.2202  25.8463
    26.0169  26.4596  27.2512  27.4250  27.9988  28.4941  28.8008  29.7423
    30.2385  30.5509  30.6275  31.1683  31.5198  31.8940  32.0684  32.8671
    32.9611  33.1492  33.2560

          k = 0.2000-0.4619 0.1808 (  5075 PWs)   bands (ev):

   -85.0920 -85.0804 -74.9031 -74.8950 -74.8917 -74.8793 -74.8695 -74.8666
   -43.7648 -43.7599 -43.7441 -43.7412 -43.7329 -43.7274 -36.9108 -36.8917
   -36.8853 -36.8800 -36.8726 -36.8679 -36.8559 -36.8414 -36.8366 -36.8347
   -36.8279 -36.8192 -36.8116 -36.8079 -36.8003 -36.7936 -36.7931 -36.7806
     5.1897   5.1912   5.1957   5.2185   5.2398   5.2483   5.2521   5.2593
     5.2678   5.2865   9.2068   9.2789   9.3258   9.4071   9.4619   9.5031
     9.5260   9.5656   9.5902   9.6332   9.6863   9.7401   9.8670   9.9045
    10.0080  10.0172  10.0997  10.1098  10.1440  10.2201  10.2437  10.2871
    10.3249  10.3906  10.4714  10.4811  10.5311  10.6303  10.7906  10.7952
    12.6616  14.0341  14.9025  18.2490  18.7638  19.4546  19.9773  20.4604
    22.4676  22.6798  23.3594  23.5807  23.9975  24.7124  24.8722  25.2081
    25.9747  27.1643  27.3828  27.6880  28.1248  28.6614  28.7682  29.4009
    29.4187  30.5553  31.0822  31.5026  31.7681  31.8520  32.2962  32.3733
    32.8963  33.5565  33.7030

          k = 0.2000-0.4619 0.3616 (  5078 PWs)   bands (ev):

   -85.0960 -85.0795 -74.9020 -74.9010 -74.8934 -74.8818 -74.8725 -74.8621
   -43.7679 -43.7596 -43.7446 -43.7412 -43.7346 -43.7269 -36.9006 -36.8980
   -36.8929 -36.8810 -36.8743 -36.8698 -36.8579 -36.8403 -36.8353 -36.8336
   -36.8265 -36.8222 -36.8119 -36.8081 -36.8008 -36.7999 -36.7917 -36.7805
     5.1918   5.1926   5.1987   5.2170   5.2342   5.2375   5.2567   5.2643
     5.2716   5.2891   9.2211   9.2618   9.2818   9.4316   9.4727   9.4800
     9.5100   9.5806   9.5961   9.6698   9.7224   9.8038   9.8800   9.9388
     9.9644   9.9902  10.0509  10.1044  10.1314  10.2145  10.2386  10.3305
    10.3403  10.3670  10.4517  10.5250  10.5353  10.5711  10.6752  10.8396
    13.1474  14.4783  15.3541  16.7364  17.9204  18.7163  19.1080  20.4458
    22.1101  23.2032  23.7543  23.9422  24.4860  25.1688  26.1202  26.2652
    26.3020  26.8000  27.3704  27.8882  28.1257  28.5233  29.1281  29.5157
    29.8946  30.6194  30.7554  30.9134  31.5058  32.3905  32.4513  32.5700
    32.7054  33.7656  34.0537

          k = 0.2000-0.4619 0.5424 (  5069 PWs)   bands (ev):

   -85.0859 -85.0787 -74.8991 -74.8944 -74.8791 -74.8764 -74.8739 -74.8638
   -43.7591 -43.7563 -43.7398 -43.7386 -43.7352 -43.7319 -36.9001 -36.8957
   -36.8825 -36.8813 -36.8692 -36.8652 -36.8456 -36.8414 -36.8369 -36.8258
   -36.8210 -36.8178 -36.8125 -36.8082 -36.8010 -36.7985 -36.7913 -36.7878
     5.1949   5.1952   5.2069   5.2195   5.2211   5.2270   5.2621   5.2662
     5.2800   5.2876   9.2559   9.2700   9.2863   9.3521   9.4817   9.5072
     9.5196   9.5671   9.6340   9.6445   9.8124   9.8586   9.8842   9.8989
     9.9287   9.9729  10.0012  10.1535  10.1874  10.2113  10.2434  10.2987
    10.3087  10.3362  10.3563  10.3899  10.5776  10.6076  10.7507  10.8294
    13.9634  14.8950  15.6023  16.1476  16.6040  17.3340  19.8212  20.7924
    21.3423  22.3421  24.1410  24.6489  25.1207  25.3236  25.7135  26.3843
    27.3333  27.5054  28.1227  28.4558  28.9757  29.1406  29.2854  29.5458
    29.6651  30.0623  30.4111  30.7282  30.9746  31.3897  31.5111  31.9821
    33.7821  34.0528  34.1268

          k = 0.2000-0.2694 0.0000 (  5077 PWs)   bands (ev):

   -85.0927 -85.0816 -74.9029 -74.9007 -74.8834 -74.8812 -74.8749 -74.8664
   -43.7636 -43.7621 -43.7442 -43.7391 -43.7355 -43.7297 -36.9214 -36.8990
   -36.8856 -36.8828 -36.8812 -36.8747 -36.8657 -36.8507 -36.8384 -36.8322
   -36.8222 -36.8126 -36.8108 -36.8067 -36.7897 -36.7864 -36.7841 -36.7771
     5.1803   5.1832   5.1921   5.2057   5.2274   5.2346   5.2523   5.2562
     5.2610   5.2730   9.1548   9.2173   9.2242   9.3500   9.3744   9.3764
     9.4975   9.5261   9.5449   9.6163   9.7190   9.7351   9.7989   9.9405
    10.0316  10.0503  10.0972  10.1144  10.1890  10.2712  10.2848  10.4195
    10.4713  10.4826  10.4911  10.5144  10.5883  10.7483  10.8148  10.9044
    11.8028  14.9132  15.6117  18.0320  18.9930  19.8710  19.9576  21.1826
    21.4732  22.5046  22.6925  23.1451  23.7626  23.8965  24.7498  25.3751
    26.0184  26.2929  27.1449  27.8988  28.1715  28.5054  29.4951  29.5526
    29.8700  30.1953  30.6543  30.8183  31.5169  31.7689  32.3167  32.6953
    33.1219  33.1315  33.5977

          k = 0.2000-0.2694 0.1808 (  5087 PWs)   bands (ev):

   -85.1007 -85.0830 -74.9086 -74.9005 -74.8946 -74.8813 -74.8762 -74.8710
   -43.7721 -43.7636 -43.7478 -43.7404 -43.7346 -43.7290 -36.9125 -36.8997
   -36.8963 -36.8908 -36.8799 -36.8737 -36.8657 -36.8528 -36.8469 -36.8340
   -36.8181 -36.8167 -36.8145 -36.8086 -36.8009 -36.7889 -36.7828 -36.7801
     5.1814   5.1833   5.1910   5.2022   5.2299   5.2362   5.2493   5.2575
     5.2596   5.2756   9.0854   9.2131   9.2323   9.3799   9.4236   9.4794
     9.4909   9.5056   9.5414   9.5798   9.6700   9.7353   9.7528   9.8822
    10.0485  10.0965  10.1418  10.1641  10.2179  10.2845  10.2910  10.3299
    10.4102  10.4800  10.4845  10.5794  10.6041  10.7605  10.8227  10.8477
    11.9635  15.0453  15.7583  17.7452  18.3045  19.1936  20.4201  21.0562
    21.6401  22.0831  22.3405  23.1392  24.1959  24.4589  25.0553  25.2291
    26.2204  26.8653  27.4316  27.5982  27.9077  28.7458  29.4859  29.8654
    30.3420  30.4045  30.8051  31.0272  31.5580  31.9143  32.2815  32.8255
    32.9755  33.1219  33.3658

          k = 0.2000-0.2694 0.3616 (  5068 PWs)   bands (ev):

   -85.0933 -85.0710 -74.8940 -74.8915 -74.8876 -74.8845 -74.8696 -74.8590
   -43.7661 -43.7494 -43.7425 -43.7399 -43.7338 -43.7286 -36.9009 -36.8994
   -36.8918 -36.8873 -36.8713 -36.8683 -36.8626 -36.8434 -36.8273 -36.8244
   -36.8186 -36.8174 -36.8118 -36.8036 -36.7949 -36.7894 -36.7879 -36.7784
     5.1847   5.1849   5.1922   5.2017   5.2319   5.2325   5.2470   5.2585
     5.2629   5.2786   9.0545   9.2195   9.2478   9.3781   9.4319   9.4382
     9.4904   9.5038   9.5819   9.6504   9.6574   9.7176   9.7188   9.8168
    10.0851  10.1263  10.1440  10.1949  10.2268  10.2563  10.3355  10.3467
    10.3801  10.4518  10.5340  10.5679  10.6084  10.6745  10.7766  10.8865
    12.4563  15.3598  16.0930  16.3144  18.5910  18.8719  19.4959  19.8505
    21.5865  22.0719  22.5659  23.0396  24.7175  24.9276  25.2761  25.5323
    26.8889  27.3284  28.0398  28.1049  28.3094  29.4147  29.9554  30.2233
    30.4160  30.5839  30.9482  31.5067  31.6785  31.8242  32.1479  32.7401
    33.1369  33.1926  33.3146

          k = 0.2000-0.2694 0.5424 (  5058 PWs)   bands (ev):

   -85.0820 -85.0718 -74.8907 -74.8847 -74.8766 -74.8752 -74.8711 -74.8629
   -43.7579 -43.7519 -43.7371 -43.7355 -43.7338 -43.7301 -36.9012 -36.8952
   -36.8924 -36.8872 -36.8826 -36.8761 -36.8363 -36.8338 -36.8237 -36.8189
   -36.8126 -36.8100 -36.8062 -36.8012 -36.7991 -36.7896 -36.7876 -36.7810
     5.1873   5.1878   5.2008   5.2080   5.2166   5.2212   5.2535   5.2600
     5.2691   5.2769   9.1178   9.2156   9.2638   9.2901   9.4191   9.4238
     9.4539   9.4664   9.5551   9.5954   9.6869   9.7226   9.8940  10.0043
    10.0404  10.0626  10.0995  10.1841  10.2210  10.2659  10.2930  10.3440
    10.3788  10.3934  10.4974  10.5648  10.6759  10.7041  10.7774  10.8596
    13.2932  14.4393  16.3763  16.9589  17.5247  18.1411  19.3725  20.3306
    20.6436  21.6854  22.8443  23.3390  23.9166  24.4240  26.0557  27.0527
    27.3197  27.9998  28.7428  29.0059  29.5075  29.8125  29.9235  29.9429
    30.6384  30.9493  31.0394  31.1354  31.3002  31.3420  31.3732  31.7100
    33.1647  33.3350  33.4836

          k = 0.2000-0.0770 0.0000 (  5083 PWs)   bands (ev):

   -85.0963 -85.0823 -74.9045 -74.8970 -74.8863 -74.8813 -74.8765 -74.8744
   -43.7711 -43.7665 -43.7442 -43.7388 -43.7334 -43.7280 -36.9285 -36.8991
   -36.8928 -36.8848 -36.8805 -36.8669 -36.8645 -36.8547 -36.8524 -36.8361
   -36.8276 -36.8184 -36.8065 -36.7955 -36.7921 -36.7860 -36.7803 -36.7776
     5.1738   5.1765   5.1892   5.1955   5.2138   5.2182   5.2504   5.2571
     5.2600   5.2604   9.1293   9.1358   9.1479   9.2633   9.2814   9.4162
     9.4453   9.5205   9.5271   9.5973   9.6028   9.7556   9.8013  10.0153
    10.0208  10.0509  10.0886  10.2002  10.2384  10.2970  10.3244  10.4672
    10.4809  10.5268  10.5945  10.6168  10.6445  10.8010  10.8708  10.9288
    11.4747  15.6905  16.6939  17.4946  19.0078  19.5102  19.6539  19.9620
    20.6468  22.4828  23.3661  23.6756  23.8492  24.5068  24.9723  25.1136
    25.6630  26.3405  26.9042  27.1285  27.6092  28.2898  28.5570  29.0793
    30.7652  31.2179  31.3835  31.5617  31.6603  31.9936  32.0162  32.4074
    33.0194  33.1790  33.1806

          k = 0.2000-0.0770 0.1808 (  5080 PWs)   bands (ev):

   -85.0958 -85.0800 -74.8997 -74.8986 -74.8852 -74.8787 -74.8761 -74.8751
   -43.7718 -43.7628 -43.7409 -43.7386 -43.7342 -43.7293 -36.9170 -36.9028
   -36.8966 -36.8946 -36.8760 -36.8702 -36.8637 -36.8537 -36.8486 -36.8314
   -36.8203 -36.8121 -36.8069 -36.7963 -36.7962 -36.7859 -36.7825 -36.7758
     5.1749   5.1770   5.1869   5.1925   5.2163   5.2210   5.2533   5.2543
     5.2579   5.2631   8.9958   9.1431   9.2145   9.2932   9.4103   9.4482
     9.4552   9.4849   9.5243   9.5725   9.6137   9.6930   9.7372   9.8080
    10.1065  10.1275  10.2083  10.2452  10.2666  10.2905  10.3336  10.4083
    10.4434  10.4871  10.5097  10.6786  10.7285  10.8155  10.8582  10.8887
    11.6335  15.8089  16.8140  17.4951  17.7232  19.2700  19.9610  20.7062
    21.2243  21.9136  22.1653  22.6824  24.1864  24.5507  24.9637  25.8210
    26.2536  26.4586  27.1508  27.3154  27.8226  29.0096  29.3410  29.8810
    30.5879  30.8681  31.0391  31.6091  31.7340  32.0543  32.3945  32.5914
    32.8856  32.9928  33.0755

          k = 0.2000-0.0770 0.3616 (  5063 PWs)   bands (ev):

   -85.0910 -85.0671 -74.8905 -74.8875 -74.8869 -74.8782 -74.8686 -74.8594
   -43.7642 -43.7490 -43.7431 -43.7365 -43.7330 -43.7273 -36.9047 -36.9028
   -36.8931 -36.8910 -36.8741 -36.8737 -36.8617 -36.8380 -36.8304 -36.8268
   -36.8155 -36.8086 -36.8040 -36.7984 -36.7907 -36.7838 -36.7831 -36.7741
     5.1790   5.1795   5.1864   5.1903   5.2200   5.2226   5.2494   5.2536
     5.2577   5.2668   8.9536   9.1554   9.2451   9.3231   9.3784   9.4187
     9.4531   9.4596   9.5926   9.6061   9.6108   9.6419   9.6927   9.7473
    10.1763  10.1895  10.2060  10.2308  10.2998  10.3485  10.3662  10.3801
    10.4160  10.4759  10.5274  10.5773  10.7825  10.7896  10.8266  10.9166
    12.1203  15.5212  16.4388  17.3299  18.0625  19.4811  19.8242  20.3370
    20.5458  21.1753  21.3517  22.9833  23.5027  24.2867  24.5424  26.6499
    27.1934  27.7961  28.4020  28.5826  28.9821  29.6591  30.1645  30.3138
    30.5701  30.9417  30.9867  31.5130  31.6368  32.1559  32.3356  32.4472
    32.6593  32.9374  32.9912

          k = 0.2000-0.0770 0.5424 (  5055 PWs)   bands (ev):

   -85.0805 -85.0703 -74.8953 -74.8844 -74.8821 -74.8780 -74.8623 -74.8516
   -43.7547 -43.7480 -43.7378 -43.7368 -43.7352 -43.7302 -36.9087 -36.9031
   -36.8965 -36.8938 -36.8889 -36.8854 -36.8321 -36.8261 -36.8205 -36.8191
   -36.8131 -36.8070 -36.8033 -36.7917 -36.7904 -36.7852 -36.7815 -36.7746
     5.1813   5.1819   5.1949   5.1985   5.2111   5.2124   5.2510   5.2568
     5.2577   5.2645   9.0187   9.1344   9.2619   9.2810   9.3584   9.3645
     9.3991   9.4144   9.5411   9.5612   9.5805   9.6012   9.9500  10.0266
    10.1318  10.1596  10.1888  10.1938  10.2517  10.2629  10.3549  10.3697
    10.3917  10.4128  10.6239  10.7047  10.7576  10.7848  10.8158  10.8830
    12.9594  14.1248  17.0916  17.9236  18.3170  18.7812  19.1590  19.7238
    20.6555  21.2883  21.6153  22.1043  22.4040  23.1591  27.1510  27.6043
    28.1357  28.6480  29.1550  29.3667  29.6148  29.8092  30.2350  30.4593
    30.6545  30.9258  31.0603  31.1645  31.3603  31.5828  32.3305  32.4302
    32.7232  32.7470  33.0138

          k = 0.4000 0.2309 0.0000 (  5085 PWs)   bands (ev):

   -85.0985 -85.0835 -74.9026 -74.9009 -74.8944 -74.8864 -74.8735 -74.8705
   -43.7707 -43.7615 -43.7440 -43.7432 -43.7337 -43.7311 -36.9233 -36.8860
   -36.8846 -36.8800 -36.8704 -36.8697 -36.8613 -36.8449 -36.8421 -36.8260
   -36.8245 -36.8186 -36.8180 -36.8174 -36.8155 -36.7984 -36.7949 -36.7789
     5.1830   5.1862   5.1928   5.2174   5.2426   5.2455   5.2506   5.2581
     5.2611   5.2872   9.1409   9.3162   9.3471   9.3570   9.4141   9.5051
     9.5163   9.5165   9.6084   9.6262   9.6461   9.7619   9.8575   9.9109
     9.9970  10.0494  10.0765  10.1253  10.2096  10.2289  10.2639  10.3293
    10.3487  10.3698  10.4705  10.5000  10.5247  10.5728  10.8731  10.8843
    12.2897  13.7372  16.1419  16.7993  19.9270  20.5689  20.5819  21.2796
    21.4824  22.0608  23.1330  23.3129  24.0816  24.2060  24.3106  24.3521
    24.7535  27.4301  27.8280  28.0440  28.7408  29.1376  29.3447  29.9868
    30.0451  30.2058  30.4376  30.7015  30.7631  31.1331  32.2164  32.3462
    32.7919  32.9786  33.1065

          k = 0.4000 0.2309 0.1808 (  5088 PWs)   bands (ev):

   -85.0984 -85.0863 -74.9024 -74.8973 -74.8934 -74.8888 -74.8779 -74.8750
   -43.7692 -43.7621 -43.7435 -43.7435 -43.7349 -43.7342 -36.9154 -36.8959
   -36.8854 -36.8800 -36.8710 -36.8645 -36.8562 -36.8467 -36.8359 -36.8357
   -36.8262 -36.8218 -36.8192 -36.8136 -36.8123 -36.8018 -36.8012 -36.7819
     5.1844   5.1872   5.1926   5.2158   5.2427   5.2446   5.2495   5.2600
     5.2605   5.2888   9.1514   9.2419   9.3262   9.4011   9.4428   9.4832
     9.5105   9.5531   9.5843   9.6109   9.6966   9.7842   9.8494   9.9556
     9.9667  10.0478  10.0856  10.0954  10.2250  10.2514  10.2671  10.2723
    10.3237  10.4331  10.4832  10.4915  10.5112  10.5779  10.8003  10.9015
    12.4491  13.8824  16.2831  16.9425  18.3071  19.4582  20.8239  21.6339
    22.1494  22.1521  22.5961  23.3772  24.1332  24.1409  24.6148  25.7394
    25.8937  27.0484  27.3094  27.5681  28.9001  29.0022  29.1256  29.1752
    30.3077  30.3351  30.5420  31.7195  31.8101  31.8819  32.0281  32.1913
    32.4725  32.7383  33.0004

          k = 0.4000 0.2309 0.3616 (  5084 PWs)   bands (ev):

   -85.0978 -85.0824 -74.9028 -74.8964 -74.8953 -74.8843 -74.8811 -74.8640
   -43.7695 -43.7579 -43.7443 -43.7400 -43.7368 -43.7343 -36.9101 -36.9004
   -36.8975 -36.8843 -36.8696 -36.8694 -36.8599 -36.8490 -36.8355 -36.8291
   -36.8290 -36.8210 -36.8110 -36.8109 -36.8019 -36.7965 -36.7912 -36.7825
     5.1877   5.1884   5.1953   5.2149   5.2361   5.2366   5.2498   5.2631
     5.2688   5.2910   9.1655   9.2234   9.2736   9.3992   9.4628   9.4694
     9.5372   9.5536   9.5938   9.6814   9.7611   9.7706   9.8558   9.8560
     9.9436  10.0503  10.1437  10.1516  10.1785  10.1841  10.2387  10.3203
    10.3473  10.4433  10.4854  10.5057  10.5199  10.5983  10.6196  10.9332
    12.9442  14.3307  16.3413  16.9757  17.3799  17.8544  20.0327  20.5434
    21.8923  22.1535  24.0615  24.4345  24.6065  25.0562  25.2226  25.6142
    26.3443  27.2880  27.5293  27.8024  28.1106  28.7481  28.8636  29.5404
    30.5632  30.9130  31.5422  31.7588  31.8421  32.0888  32.5405  32.6238
    32.9273  33.0534  33.1384

          k = 0.4000 0.2309 0.5424 (  5068 PWs)   bands (ev):

   -85.0870 -85.0766 -74.8972 -74.8880 -74.8871 -74.8821 -74.8747 -74.8553
   -43.7595 -43.7553 -43.7417 -43.7368 -43.7362 -43.7309 -36.9024 -36.8960
   -36.8940 -36.8773 -36.8739 -36.8583 -36.8464 -36.8430 -36.8360 -36.8326
   -36.8323 -36.8175 -36.8138 -36.7994 -36.7993 -36.7919 -36.7838 -36.7813
     5.1907   5.1910   5.2039   5.2192   5.2193   5.2272   5.2566   5.2622
     5.2806   5.2892   9.2076   9.2433   9.2705   9.3209   9.4618   9.4767
     9.5194   9.5209   9.6806   9.7100   9.7760   9.8229   9.8275   9.8623
     9.8705  10.1003  10.1361  10.1514  10.1943  10.2042  10.2327  10.3015
    10.3384  10.3656  10.4218  10.4869  10.4996  10.5286  10.7825  10.9012
    13.7723  14.7514  15.4054  16.3394  17.7146  18.1290  18.7628  19.1911
    22.6065  22.9207  23.5950  23.8742  25.2706  25.5013  25.7853  26.3110
    26.4755  26.6682  27.4063  28.7471  28.8894  29.3283  30.2699  30.2887
    30.4066  30.6469  30.8366  31.4959  31.6688  31.8621  31.9738  32.2499
    32.3371  32.5177  32.6635

          k = 0.4000 0.4234 0.0000 (  5078 PWs)   bands (ev):

   -85.0903 -85.0857 -74.9039 -74.8969 -74.8902 -74.8800 -74.8731 -74.8701
   -43.7646 -43.7615 -43.7454 -43.7373 -43.7349 -43.7310 -36.9131 -36.8833
   -36.8829 -36.8785 -36.8774 -36.8598 -36.8530 -36.8493 -36.8408 -36.8259
   -36.8238 -36.8211 -36.8148 -36.8135 -36.8098 -36.7997 -36.7944 -36.7850
     5.1886   5.1908   5.1958   5.2242   5.2391   5.2499   5.2587   5.2614
     5.2623   5.2873   9.1879   9.3151   9.3882   9.4183   9.4834   9.5112
     9.5489   9.5852   9.6294   9.6296   9.6508   9.7150   9.7797   9.8517
     9.9755  10.0493  10.1056  10.1574  10.1669  10.1996  10.2793  10.2963
    10.3000  10.3232  10.4657  10.4992  10.5053  10.5418  10.7918  10.8736
    12.8373  13.3381  14.9141  18.0294  20.0315  20.2809  20.9794  21.2717
    21.6095  21.8060  22.0871  23.1922  23.8921  24.8607  25.0032  25.5772
    25.8915  26.1310  27.4008  27.9401  28.1459  28.2099  28.4926  30.0810
    30.1719  30.7178  30.9807  31.1620  31.7477  31.9210  32.2307  32.2567
    32.4549  32.7356  33.4140

          k = 0.4000 0.4234 0.1808 (  5071 PWs)   bands (ev):

   -85.0885 -85.0803 -74.8967 -74.8941 -74.8873 -74.8821 -74.8691 -74.8677
   -43.7619 -43.7572 -43.7484 -43.7365 -43.7332 -43.7281 -36.9091 -36.8919
   -36.8833 -36.8764 -36.8757 -36.8578 -36.8455 -36.8442 -36.8417 -36.8298
   -36.8264 -36.8174 -36.8132 -36.8087 -36.8000 -36.7990 -36.7930 -36.7827
     5.1898   5.1922   5.1958   5.2240   5.2368   5.2501   5.2570   5.2625
     5.2647   5.2892   9.2069   9.2992   9.3664   9.4114   9.4703   9.4898
     9.5259   9.5529   9.5674   9.6736   9.7528   9.7924   9.8310   9.8490
    10.0013  10.0621  10.0685  10.0886  10.1746  10.1962  10.2255  10.2941
    10.3216  10.3503  10.4693  10.4888  10.5195  10.5383  10.7871  10.8244
    12.9980  13.4853  15.0640  18.1071  18.8668  19.0956  20.2686  20.8567
    22.2179  22.9475  23.2126  23.5115  23.7737  25.0077  25.1643  25.7189
    26.0595  26.3266  26.7082  28.0937  28.2200  28.5576  28.8889  29.7142
    29.8526  30.4342  30.8478  30.9464  31.8611  32.0541  32.2752  32.4258
    33.1843  33.3565  33.6425

          k = 0.4000 0.4234 0.3616 (  5075 PWs)   bands (ev):

   -85.0902 -85.0817 -74.8979 -74.8950 -74.8893 -74.8808 -74.8726 -74.8687
   -43.7649 -43.7602 -43.7447 -43.7390 -43.7351 -43.7262 -36.9006 -36.8934
   -36.8914 -36.8762 -36.8711 -36.8671 -36.8504 -36.8425 -36.8330 -36.8296
   -36.8264 -36.8223 -36.8192 -36.8063 -36.8045 -36.8021 -36.7923 -36.7823
     5.1922   5.1936   5.1995   5.2223   5.2306   5.2383   5.2599   5.2661
     5.2721   5.2920   9.2448   9.2514   9.3228   9.4153   9.4628   9.4874
     9.5159   9.5792   9.5980   9.7641   9.7894   9.8012   9.8309   9.9254
     9.9478   9.9862  10.0529  10.0772  10.1510  10.1710  10.2776  10.2972
    10.3105  10.3422  10.4593  10.4991  10.5145  10.5710  10.6239  10.8638
    13.4863  13.9406  15.5052  17.0523  17.4261  18.7480  18.8740  21.0233
    22.0704  22.7553  24.0408  24.5391  24.9185  25.4321  25.5393  25.7657
    26.5904  26.9503  27.0449  27.5696  28.4747  28.8349  28.9217  29.3712
    29.7026  29.7152  31.1943  31.4018  31.5747  32.3509  32.5138  32.5337
    32.8357  33.5852  33.8929

          k = 0.4000 0.4234 0.5424 (  5077 PWs)   bands (ev):

   -85.0890 -85.0840 -74.9027 -74.9020 -74.8816 -74.8784 -74.8764 -74.8657
   -43.7623 -43.7618 -43.7418 -43.7392 -43.7349 -43.7328 -36.9007 -36.8967
   -36.8860 -36.8794 -36.8692 -36.8666 -36.8501 -36.8460 -36.8378 -36.8360
   -36.8263 -36.8210 -36.8150 -36.8097 -36.8021 -36.7957 -36.7908 -36.7897
     5.1954   5.1956   5.2073   5.2207   5.2233   5.2262   5.2632   5.2662
     5.2827   5.2903   9.2515   9.2653   9.3285   9.3570   9.4853   9.5074
     9.5370   9.6057   9.6779   9.7365   9.7643   9.7787   9.8261   9.9268
     9.9574  10.0071  10.0237  10.1382  10.1462  10.1982  10.2204  10.2809
    10.2943  10.3311  10.3431  10.3884  10.5408  10.5532  10.7556  10.8479
    14.2832  14.6597  15.5811  16.0000  16.4499  17.4969  19.4844  20.5063
    22.0206  22.9232  23.8694  24.6888  24.8767  25.6073  26.5037  26.7227
    26.9743  27.2639  27.6688  28.1207  28.4476  28.5388  29.5346  29.7305
    29.8760  30.3357  30.4469  30.8298  30.8783  31.3800  31.4953  32.2192
    33.6271  33.7788  33.9863

          k = 0.4000 0.6158 0.0000 (  5071 PWs)   bands (ev):

   -85.0864 -85.0824 -74.9101 -74.8990 -74.8895 -74.8721 -74.8656 -74.8605
   -43.7646 -43.7612 -43.7437 -43.7360 -43.7329 -43.7254 -36.9118 -36.8852
   -36.8815 -36.8775 -36.8723 -36.8675 -36.8515 -36.8499 -36.8455 -36.8263
   -36.8205 -36.8197 -36.8100 -36.8040 -36.7998 -36.7960 -36.7909 -36.7810
     5.1923   5.1933   5.1967   5.2269   5.2356   5.2508   5.2619   5.2622
     5.2676   5.2827   9.2440   9.3067   9.3319   9.4588   9.5249   9.5565
     9.5624   9.6038   9.6257   9.6360   9.6735   9.6969   9.7329   9.8021
     9.9637  10.0208  10.0683  10.1057  10.1943  10.2057  10.2831  10.2985
    10.3021  10.3610  10.4759  10.4949  10.5240  10.5748  10.6838  10.8704
    13.0055  13.5214  14.2615  18.8760  19.5668  20.4592  20.8120  21.4122
    21.5247  21.5920  21.9056  22.4918  24.7333  25.3653  25.8444  26.0630
    26.3438  26.5954  26.6688  26.9511  27.3891  27.5589  27.5947  30.0484
    30.9482  31.3594  31.6455  31.6511  31.8109  32.0100  32.0808  32.3299
    32.5099  32.5776  32.9139

          k = 0.4000 0.6158 0.1808 (  5066 PWs)   bands (ev):

   -85.0853 -85.0785 -74.8957 -74.8940 -74.8901 -74.8763 -74.8652 -74.8635
   -43.7590 -43.7569 -43.7454 -43.7371 -43.7332 -43.7262 -36.9106 -36.8853
   -36.8817 -36.8751 -36.8709 -36.8638 -36.8476 -36.8444 -36.8413 -36.8252
   -36.8216 -36.8199 -36.8127 -36.8042 -36.7998 -36.7945 -36.7898 -36.7842
     5.1932   5.1944   5.1981   5.2258   5.2339   5.2505   5.2599   5.2637
     5.2692   5.2848   9.2599   9.3148   9.3313   9.4360   9.4736   9.5035
     9.5464   9.5595   9.5734   9.6781   9.7618   9.7772   9.8156   9.8335
     9.9599  10.0253  10.0854  10.1177  10.1457  10.1789  10.1824  10.3294
    10.3493  10.3498  10.4665  10.4825  10.4961  10.6150  10.7249  10.7825
    13.1617  13.6721  14.4103  18.6512  19.0982  19.3934  19.8946  20.1699
    21.7531  23.0521  23.3808  23.9555  24.4722  25.1352  25.3405  25.7249
    26.0813  26.3430  26.7835  27.0479  27.5823  28.4430  29.1751  29.7163
    30.3284  30.6222  30.7157  31.1332  31.2968  31.6995  32.5936  33.0494
    33.1431  33.6773  33.7661

          k = 0.4000 0.6158 0.3616 (  5090 PWs)   bands (ev):

   -85.0968 -85.0914 -74.9074 -74.9054 -74.8952 -74.8830 -74.8815 -74.8707
   -43.7681 -43.7662 -43.7491 -43.7409 -43.7371 -43.7299 -36.9018 -36.8976
   -36.8965 -36.8820 -36.8767 -36.8738 -36.8505 -36.8461 -36.8397 -36.8343
   -36.8322 -36.8279 -36.8188 -36.8100 -36.8058 -36.8036 -36.7932 -36.7872
     5.1951   5.1955   5.2003   5.2230   5.2288   5.2381   5.2649   5.2679
     5.2719   5.2878   9.2795   9.2866   9.3188   9.4332   9.4588   9.4913
     9.4928   9.6004   9.6210   9.7430   9.7889   9.8138   9.8428   9.9139
     9.9530   9.9823  10.0127  10.0410  10.1260  10.1833  10.2358  10.3091
    10.3329  10.3497  10.4570  10.4965  10.5041  10.5597  10.6810  10.7790
    13.6375  14.1294  14.8690  17.1716  17.6082  18.2746  19.6521  20.4419
    22.2689  22.9717  23.7768  24.8029  25.0266  25.2537  25.5601  26.4642
    26.6061  26.8359  27.2487  27.4395  27.9939  28.4447  29.0871  29.5599
    29.9039  30.2845  30.3429  30.6952  30.9430  32.0804  32.6425  32.6959
    33.0516  34.2791  34.3907

          k = 0.4000 0.6158 0.5424 (  5076 PWs)   bands (ev):

   -85.0892 -85.0827 -74.9047 -74.8958 -74.8807 -74.8790 -74.8762 -74.8675
   -43.7609 -43.7576 -43.7453 -43.7384 -43.7362 -43.7322 -36.9030 -36.8917
   -36.8804 -36.8749 -36.8700 -36.8675 -36.8470 -36.8404 -36.8388 -36.8291
   -36.8249 -36.8238 -36.8194 -36.8104 -36.8056 -36.8045 -36.7929 -36.7887
     5.1981   5.1982   5.2084   5.2220   5.2233   5.2257   5.2688   5.2703
     5.2800   5.2869   9.2747   9.2793   9.3548   9.3802   9.4545   9.5382
     9.5499   9.6075   9.6837   9.7166   9.7880   9.8131   9.8403   9.9059
     9.9279   9.9829   9.9982  10.1154  10.1318  10.1788  10.2025  10.2639
    10.2974  10.3151  10.3475  10.4074  10.5620  10.5760  10.7464  10.7899
    14.4199  14.8161  15.6025  15.9157  16.2556  16.8437  20.3775  21.0185
    21.7629  22.4121  23.2498  24.2276  25.7943  26.2770  26.6999  27.0674
    27.2613  27.6691  27.9610  28.1835  28.3346  28.5846  28.7995  29.1186
    29.3501  29.5325  29.7938  30.6806  30.8749  31.3005  31.9278  32.2340
    33.6573  34.4109  34.5921

          k = 0.4000-0.3464 0.0000 (  5079 PWs)   bands (ev):

   -85.0921 -85.0848 -74.9048 -74.8969 -74.8935 -74.8807 -74.8710 -74.8690
   -43.7654 -43.7617 -43.7487 -43.7379 -43.7323 -43.7303 -36.9112 -36.8905
   -36.8857 -36.8791 -36.8786 -36.8590 -36.8534 -36.8492 -36.8334 -36.8281
   -36.8245 -36.8225 -36.8216 -36.8133 -36.8078 -36.7991 -36.7927 -36.7800
     5.1860   5.1887   5.1939   5.2216   5.2420   5.2483   5.2547   5.2606
     5.2611   5.2891   9.1587   9.3244   9.3785   9.3980   9.4457   9.5073
     9.5315   9.5880   9.5917   9.6181   9.6425   9.7472   9.8284   9.8587
     9.9947  10.1086  10.1167  10.1266  10.1701  10.2120  10.2413  10.3046
    10.3056  10.3328  10.4660  10.4904  10.5058  10.5572  10.8437  10.8776
    12.6007  13.4303  15.4600  17.4292  20.0672  20.3601  20.9681  21.0886
    21.7345  21.9381  22.6901  23.3363  23.7129  24.2890  24.5456  25.0240
    25.3638  26.6402  27.5916  28.5403  28.6545  28.7793  29.2108  29.4263
    30.1379  30.3476  30.5594  30.9587  31.1308  31.6112  32.4678  32.5397
    32.5729  32.9251  32.9486

          k = 0.4000-0.3464 0.1808 (  5074 PWs)   bands (ev):

   -85.0885 -85.0827 -74.8954 -74.8937 -74.8890 -74.8811 -74.8736 -74.8698
   -43.7616 -43.7586 -43.7427 -43.7408 -43.7332 -43.7321 -36.9118 -36.8906
   -36.8826 -36.8751 -36.8728 -36.8615 -36.8532 -36.8391 -36.8367 -36.8346
   -36.8290 -36.8212 -36.8158 -36.8044 -36.8035 -36.7973 -36.7958 -36.7816
     5.1875   5.1897   5.1946   5.2212   5.2391   5.2493   5.2532   5.2605
     5.2637   5.2908   9.1767   9.2786   9.3620   9.4000   9.4557   9.4912
     9.5138   9.5485   9.5757   9.6561   9.7272   9.7879   9.8556   9.8874
    10.0208  10.0325  10.0773  10.1090  10.1845  10.2291  10.2507  10.2659
    10.3083  10.3677  10.4763  10.4879  10.5046  10.5513  10.7922  10.8736
    12.7611  13.5783  15.6090  17.5550  18.5968  19.1983  20.5851  21.2626
    22.5942  22.6776  23.0222  23.1721  23.4570  24.5610  25.2478  25.4096
    26.1518  26.7278  26.9501  28.1356  28.2378  28.6931  29.4164  29.5346
    29.9262  30.0399  31.1871  31.2483  31.3153  32.1194  32.2081  32.4878
    32.8726  32.9234  33.1399

          k = 0.4000-0.3464 0.3616 (  5081 PWs)   bands (ev):

   -85.0949 -85.0826 -74.9029 -74.8999 -74.8898 -74.8820 -74.8757 -74.8670
   -43.7677 -43.7589 -43.7456 -43.7373 -43.7367 -43.7321 -36.9051 -36.8975
   -36.8927 -36.8790 -36.8700 -36.8700 -36.8576 -36.8436 -36.8418 -36.8346
   -36.8267 -36.8240 -36.8147 -36.8084 -36.7996 -36.7979 -36.7919 -36.7809
     5.1901   5.1910   5.1977   5.2198   5.2329   5.2378   5.2550   5.2642
     5.2718   5.2933   9.2120   9.2336   9.3032   9.4083   9.4635   9.4843
     9.5305   9.5608   9.5936   9.7413   9.7617   9.8114   9.8732   9.8821
     9.9295  10.0110  10.0987  10.1203  10.1431  10.2037  10.2309  10.3194
    10.3287  10.3609  10.4578  10.4963  10.5232  10.5785  10.6146  10.9078
    13.2517  14.0330  16.0115  16.8724  17.5068  18.1332  19.3769  21.0544
    21.7343  23.2891  23.3287  24.6873  24.8911  25.1223  25.3032  26.1933
    26.4165  26.7075  27.2731  27.4786  28.3865  28.7121  29.2167  29.4449
    29.7375  30.1675  31.4826  31.7961  32.0488  32.2630  32.4804  32.6131
    32.6957  33.0971  33.4615

          k = 0.4000-0.3464 0.5424 (  5079 PWs)   bands (ev):

   -85.0878 -85.0874 -74.9059 -74.8957 -74.8856 -74.8803 -74.8784 -74.8660
   -43.7607 -43.7604 -43.7421 -43.7410 -43.7360 -43.7352 -36.9032 -36.8990
   -36.8868 -36.8797 -36.8717 -36.8630 -36.8532 -36.8446 -36.8421 -36.8374
   -36.8308 -36.8194 -36.8145 -36.8092 -36.7996 -36.7933 -36.7908 -36.7886
     5.1928   5.1932   5.2058   5.2200   5.2224   5.2270   5.2596   5.2633
     5.2829   5.2911   9.2331   9.2527   9.3008   9.3399   9.4833   9.5019
     9.5281   9.5728   9.6872   9.7138   9.7737   9.8148   9.8253   9.8760
     9.9148  10.0533  10.0837  10.1539  10.1753  10.2082  10.2244  10.2773
    10.3055  10.3523  10.3705  10.3932  10.5216  10.5353  10.7716  10.8816
    14.0628  14.7030  15.4393  16.0661  16.9725  18.0337  18.8557  19.9003
    22.3125  23.2495  24.0488  24.4947  24.9119  25.3416  26.0407  26.2051
    26.9088  27.1237  27.2540  28.4224  28.5747  28.7499  29.8528  30.1813
    30.4360  30.6442  30.7217  30.9937  31.1443  31.5211  31.6740  32.0583
    32.9764  33.1733  33.3383

          k = 0.4000-0.1540 0.0000 (  5078 PWs)   bands (ev):

   -85.0942 -85.0812 -74.9048 -74.8960 -74.8881 -74.8838 -74.8702 -74.8695
   -43.7642 -43.7603 -43.7440 -43.7432 -43.7328 -43.7305 -36.9154 -36.8914
   -36.8834 -36.8810 -36.8744 -36.8678 -36.8645 -36.8454 -36.8404 -36.8265
   -36.8206 -36.8173 -36.8155 -36.8115 -36.8026 -36.7952 -36.7912 -36.7811
     5.1830   5.1863   5.1930   5.2143   5.2391   5.2469   5.2478   5.2586
     5.2609   5.2837   9.1471   9.2900   9.3205   9.3542   9.4096   9.4649
     9.5025   9.5183   9.6138   9.6354   9.6604   9.7600   9.8380   9.9250
     9.9875  10.0453  10.0738  10.1189  10.2034  10.2321  10.2722  10.3524
    10.3848  10.4066  10.4727  10.4925  10.5773  10.5825  10.8579  10.8883
    12.1509  14.0226  15.8358  17.2329  19.8085  20.3866  20.4059  21.0654
    21.5826  22.3458  22.9386  23.3681  23.7140  24.0204  24.3104  24.9429
    25.1059  27.0875  27.9808  28.1774  28.3491  28.6834  29.5683  29.7296
    29.8607  30.2756  30.6100  30.8122  31.0133  31.0833  32.1862  32.3881
    33.0265  33.0890  33.3282

          k = 0.4000-0.1540 0.1808 (  5082 PWs)   bands (ev):

   -85.0978 -85.0810 -74.9007 -74.8968 -74.8896 -74.8858 -74.8767 -74.8712
   -43.7682 -43.7607 -43.7445 -43.7413 -43.7338 -43.7308 -36.9128 -36.8930
   -36.8876 -36.8812 -36.8728 -36.8673 -36.8605 -36.8467 -36.8368 -36.8301
   -36.8218 -36.8191 -36.8126 -36.8099 -36.8072 -36.8007 -36.7967 -36.7824
     5.1840   5.1869   5.1926   5.2125   5.2414   5.2444   5.2469   5.2590
     5.2617   5.2855   9.1453   9.2275   9.3028   9.4041   9.4505   9.4713
     9.4898   9.5717   9.5799   9.6017   9.6640   9.7709   9.8299   9.9426
     9.9940  10.0488  10.0839  10.1134  10.2277  10.2604  10.2712  10.2772
    10.3482  10.4600  10.4829  10.4935  10.5580  10.6049  10.8046  10.8869
    12.3101  14.1674  15.9804  17.3592  18.1965  19.6742  20.4586  21.2939
    21.9837  22.4848  22.5802  23.2971  23.9705  24.4011  24.9271  25.5064
    25.6204  27.0715  27.4599  28.0765  28.3300  28.8018  28.9033  29.7786
    29.9018  30.3528  30.6247  31.6755  31.7407  32.0115  32.2135  32.2865
    32.5007  32.9275  33.0993

          k = 0.4000-0.1540 0.3616 (  5080 PWs)   bands (ev):

   -85.0952 -85.0808 -74.8971 -74.8945 -74.8892 -74.8855 -74.8777 -74.8701
   -43.7689 -43.7571 -43.7418 -43.7394 -43.7369 -43.7325 -36.9037 -36.8997
[...]
    23.7700  23.8542  24.0444  24.6651  27.2132  27.8987  28.2969  28.5352
    28.9285  29.0452  29.1925  29.4810  29.9203  30.0657  30.1441  32.3456
    33.6848  33.6874  33.9660  34.1353  34.3653  34.3978  34.5921  34.7382
    34.8325  35.2648  35.6069

          k = 0.4116 0.6337 0.1844 (  4711 PWs)   bands (ev):

   -82.8157 -82.8125 -72.6543 -72.6488 -72.6467 -72.6346 -72.6301 -72.6157
   -41.5055 -41.5041 -41.4850 -41.4826 -41.4815 -41.4782 -34.6805 -34.6659
   -34.6619 -34.6453 -34.6377 -34.6318 -34.6308 -34.6306 -34.6190 -34.6167
   -34.6070 -34.5994 -34.5824 -34.5753 -34.5716 -34.5681 -34.5632 -34.5587
     7.3389   7.3421   7.3459   7.3855   7.3967   7.4071   7.4223   7.4290
     7.4318   7.4516  11.2316  11.3174  11.3289  11.4747  11.5009  11.5411
    11.5801  11.6065  11.6239  11.7341  11.8189  11.8559  11.8991  11.9325
    12.0611  12.1570  12.2261  12.2649  12.2872  12.3305  12.3372  12.5284
    12.5403  12.5502  12.7061  12.7196  12.7359  12.8797  13.0173  13.0686
    14.8977  15.4637  16.2263  20.8407  21.2985  21.6080  22.0849  22.4156
    23.9460  25.3187  25.6857  26.3133  26.8925  27.5897  27.8142  28.2510
    28.5696  28.8004  29.3358  29.5902  30.1465  30.9628  31.7038  32.3643
    32.9394  33.0303  33.0831  33.6542  33.7163  34.0891  35.1496  35.5844
    35.6464  36.2096  36.2587

          k = 0.4116 0.6337 0.3687 (  4695 PWs)   bands (ev):

   -82.8100 -82.8005 -72.6414 -72.6392 -72.6383 -72.6321 -72.6255 -72.6119
   -41.4986 -41.4951 -41.4854 -41.4799 -41.4792 -41.4751 -34.6738 -34.6679
   -34.6611 -34.6490 -34.6476 -34.6410 -34.6208 -34.6187 -34.6107 -34.6070
   -34.5990 -34.5868 -34.5750 -34.5685 -34.5664 -34.5620 -34.5607 -34.5561
     7.3415   7.3429   7.3513   7.3817   7.3908   7.3982   7.4260   7.4309
     7.4360   7.4588  11.2627  11.2744  11.3143  11.4425  11.4746  11.5195
    11.5216  11.6745  11.6834  11.8026  11.8622  11.8893  11.9228  12.0141
    12.0741  12.1063  12.1389  12.1834  12.2691  12.3460  12.4055  12.4998
    12.5360  12.5555  12.6790  12.7357  12.7474  12.8073  12.9588  13.0818
    15.4134  15.9527  16.7109  19.1817  19.6517  20.3365  21.9546  22.7972
    24.5231  25.3269  26.2012  27.3034  27.4791  27.6605  27.9958  28.9673
    29.0846  29.2539  29.8306  30.0079  30.5817  31.0966  31.7393  32.0657
    32.5420  32.7719  32.8539  33.1838  33.4689  34.4409  34.9983  35.0535
    35.4453  36.7768  36.8685

          k = 0.4116 0.6337 0.5531 (  4687 PWs)   bands (ev):

   -82.8040 -82.8006 -72.6430 -72.6403 -72.6283 -72.6270 -72.6214 -72.6149
   -41.4978 -41.4958 -41.4798 -41.4780 -41.4767 -41.4754 -34.6771 -34.6724
   -34.6563 -34.6523 -34.6485 -34.6454 -34.6163 -34.6132 -34.6035 -34.6005
   -34.5893 -34.5883 -34.5760 -34.5732 -34.5646 -34.5569 -34.5554 -34.5523
     7.3428   7.3432   7.3606   7.3765   7.3824   7.3856   7.4297   7.4319
     7.4493   7.4593  11.2623  11.2675  11.3461  11.3743  11.4767  11.5894
    11.6045  11.6582  11.7335  11.7742  11.8652  11.8945  11.9163  11.9942
    12.0477  12.1154  12.1382  12.2609  12.2729  12.3169  12.3385  12.4368
    12.5050  12.5267  12.5594  12.6293  12.8228  12.8379  13.0439  13.0977
    16.2681  16.7157  17.4936  17.7979  18.1797  18.8023  22.7428  23.5395
    23.9710  24.7697  25.5458  26.5719  28.3896  28.8828  29.3156  29.6728
    29.8842  30.2377  30.5310  30.7746  30.8776  31.1347  31.3648  31.6572
    31.7578  32.0212  32.2969  33.0256  33.2198  33.6717  34.3936  34.6977
    36.0280  36.9102  37.0969

          k = 0.4116-0.3564 0.0000 (  4707 PWs)   bands (ev):

   -82.8177 -82.8063 -72.6509 -72.6470 -72.6398 -72.6371 -72.6259 -72.6199
   -41.5047 -41.5024 -41.4925 -41.4800 -41.4788 -41.4733 -34.6776 -34.6658
   -34.6568 -34.6548 -34.6521 -34.6445 -34.6336 -34.6191 -34.6160 -34.6047
   -34.6011 -34.5930 -34.5918 -34.5865 -34.5814 -34.5649 -34.5451 -34.5398
     7.3246   7.3350   7.3418   7.3798   7.4016   7.4089   7.4098   7.4169
     7.4375   7.4573  11.1092  11.3511  11.3889  11.4037  11.4466  11.5296
    11.5842  11.6282  11.6501  11.6515  11.7334  11.8283  11.9261  11.9475
    12.0995  12.2363  12.2551  12.2650  12.3388  12.3612  12.4338  12.4701
    12.4922  12.5399  12.7107  12.7287  12.7632  12.8158  13.1708  13.1841
    14.2670  15.1794  17.4189  19.5626  22.3600  22.7110  23.0129  23.4003
    23.8487  24.3666  24.9896  25.6049  25.9927  26.6267  26.9209  27.5414
    27.7403  29.2383  30.1471  31.1172  31.2042  31.3709  31.8350  32.0692
    32.5950  32.6804  33.1915  33.2354  33.9000  33.9800  34.6549  34.8443
    35.0134  35.0763  35.7080

          k = 0.4116-0.3564 0.1844 (  4709 PWs)   bands (ev):

   -82.8181 -82.8078 -72.6500 -72.6424 -72.6398 -72.6382 -72.6315 -72.6235
   -41.5073 -41.5039 -41.4867 -41.4812 -41.4798 -41.4756 -34.6835 -34.6712
   -34.6613 -34.6594 -34.6516 -34.6310 -34.6285 -34.6221 -34.6164 -34.6106
   -34.6053 -34.5997 -34.5867 -34.5784 -34.5759 -34.5638 -34.5480 -34.5437
     7.3260   7.3339   7.3416   7.3792   7.4004   7.4077   7.4128   7.4197
     7.4316   7.4613  11.1308  11.2657  11.3558  11.4435  11.4624  11.5079
    11.5390  11.6030  11.6397  11.7012  11.7932  11.8824  11.9715  11.9802
    12.1381  12.1569  12.2153  12.2381  12.3562  12.4016  12.4302  12.4449
    12.5096  12.5602  12.7160  12.7313  12.7482  12.8050  13.0824  13.2054
    14.4404  15.3341  17.5748  19.6938  20.6703  21.3364  22.9412  23.5713
    24.8797  24.9459  25.3680  25.4730  25.7508  26.9672  27.7097  27.7823
    28.5772  29.2844  29.4933  30.7440  30.7715  31.2833  31.9921  32.1073
    32.5263  32.5947  33.5514  33.7913  33.8107  34.3841  34.5381  34.6729
    35.3699  35.4796  35.8594

          k = 0.4116-0.3564 0.3687 (  4694 PWs)   bands (ev):

   -82.8098 -82.8010 -72.6426 -72.6390 -72.6337 -72.6295 -72.6252 -72.6194
   -41.4998 -41.4965 -41.4822 -41.4808 -41.4779 -41.4759 -34.6773 -34.6660
   -34.6579 -34.6541 -34.6497 -34.6341 -34.6250 -34.6208 -34.6110 -34.6008
   -34.5981 -34.5947 -34.5851 -34.5683 -34.5656 -34.5612 -34.5541 -34.5475
     7.3299   7.3339   7.3439   7.3786   7.3961   7.3993   7.4112   7.4232
     7.4377   7.4669  11.1743  11.2059  11.2922  11.3993  11.4708  11.5291
    11.5581  11.6068  11.6761  11.7973  11.8288  11.8973  11.9719  11.9964
    12.0593  12.1286  12.2307  12.2826  12.2935  12.3841  12.4097  12.5033
    12.5347  12.5665  12.6823  12.7235  12.7739  12.8333  12.8821  13.2461
    14.9762  15.8167  18.0113  18.8345  19.5293  20.2616  21.5586  23.4697
    23.9504  25.6725  25.7514  27.1134  27.3719  27.5580  27.7293  28.6395
    28.8697  29.1759  29.8035  30.0290  31.0237  31.2207  31.6999  32.0159
    32.4090  32.7498  33.9269  34.1657  34.2730  34.6612  34.9480  35.0545
    35.1010  35.7248  35.9769

          k = 0.4116-0.3564 0.5531 (  4691 PWs)   bands (ev):

   -82.8098 -82.7990 -72.6417 -72.6386 -72.6323 -72.6295 -72.6230 -72.6201
   -41.5014 -41.4931 -41.4825 -41.4791 -41.4774 -41.4752 -34.6778 -34.6752
   -34.6585 -34.6535 -34.6499 -34.6415 -34.6186 -34.6140 -34.6059 -34.6026
   -34.5956 -34.5875 -34.5728 -34.5714 -34.5625 -34.5608 -34.5571 -34.5536
     7.3324   7.3339   7.3539   7.3750   7.3814   7.3881   7.4173   7.4230
     7.4534   7.4649  11.2036  11.2291  11.2807  11.3178  11.5002  11.5531
    11.5789  11.6079  11.7270  11.7878  11.8339  11.8919  11.9341  11.9896
    12.0355  12.1901  12.2338  12.3133  12.3337  12.3790  12.3979  12.4574
    12.4965  12.5554  12.5795  12.6027  12.7716  12.7879  13.0769  13.2140
    15.8637  16.5684  17.3026  17.9826  18.9711  20.1142  21.0344  22.1388
    24.7012  25.6874  26.5546  26.9011  27.4410  27.7795  28.5987  28.7221
    29.4241  29.7131  29.7855  30.9586  31.0138  31.3484  32.2590  32.7367
    32.8228  33.0949  33.3112  33.3976  33.6677  34.0047  34.1055  34.4361
    35.5140  35.7497  35.8905

          k = 0.4116-0.1584 0.0000 (  4707 PWs)   bands (ev):

   -82.8158 -82.8082 -72.6546 -72.6494 -72.6450 -72.6310 -72.6233 -72.6173
   -41.5087 -41.5041 -41.4894 -41.4787 -41.4766 -41.4743 -34.6791 -34.6660
   -34.6614 -34.6584 -34.6560 -34.6470 -34.6359 -34.6190 -34.6125 -34.6082
   -34.5997 -34.5976 -34.5908 -34.5779 -34.5714 -34.5646 -34.5501 -34.5325
     7.3187   7.3314   7.3392   7.3690   7.3862   7.3981   7.4130   7.4168
     7.4375   7.4489  11.0955  11.2810  11.2976  11.3965  11.3989  11.4836
    11.5169  11.5714  11.6396  11.7221  11.7421  11.8385  11.9616  12.0328
    12.0810  12.1661  12.1969  12.2674  12.3622  12.4242  12.4701  12.5318
    12.5882  12.6278  12.7198  12.7471  12.8428  12.8436  13.1888  13.1978
    13.7686  15.8322  17.8307  19.3371  22.1116  22.3857  22.7260  23.3756
    23.9959  24.5152  25.1766  25.7204  26.1360  26.3200  26.6042  27.3369
    27.4550  29.6314  30.6204  30.7298  30.9169  31.2266  32.0804  32.4361
    32.5008  32.8551  32.9386  33.2245  33.3027  33.6514  34.3500  34.7596
    35.1802  35.5716  35.7539

          k = 0.4116-0.1584 0.1844 (  4706 PWs)   bands (ev):

   -82.8184 -82.8055 -72.6502 -72.6467 -72.6447 -72.6359 -72.6251 -72.6177
   -41.5085 -41.5025 -41.4859 -41.4807 -41.4779 -41.4754 -34.6835 -34.6710
   -34.6676 -34.6635 -34.6536 -34.6354 -34.6311 -34.6244 -34.6201 -34.6063
   -34.5951 -34.5935 -34.5887 -34.5742 -34.5691 -34.5593 -34.5500 -34.5390
     7.3209   7.3297   7.3382   7.3659   7.3895   7.4014   7.4131   7.4173
     7.4311   7.4531  11.0866  11.2016  11.2829  11.4481  11.4485  11.5010
    11.5273  11.5865  11.6451  11.6636  11.7136  11.8644  11.9296  12.0405
    12.1196  12.1767  12.2196  12.2636  12.4086  12.4397  12.4613  12.4786
    12.5539  12.6806  12.7224  12.7385  12.8177  12.8695  13.0977  13.2222
    13.9437  15.9829  17.9837  19.4686  20.2271  21.8606  22.7983  23.6308
    24.2086  24.7388  24.8812  25.6850  26.3397  26.7376  27.3461  27.8393
    27.9986  29.5961  30.0261  30.7145  30.9136  31.3958  31.4674  32.2636
    32.3695  32.9969  33.1077  34.0059  34.0645  34.3058  34.6408  34.7055
    34.8617  35.3946  35.7259

          k = 0.4116-0.1584 0.3687 (  4699 PWs)   bands (ev):

   -82.8126 -82.8041 -72.6513 -72.6380 -72.6340 -72.6316 -72.6272 -72.6216
   -41.5029 -41.4984 -41.4841 -41.4832 -41.4786 -41.4738 -34.6786 -34.6745
   -34.6647 -34.6624 -34.6569 -34.6370 -34.6292 -34.6170 -34.6106 -34.5986
   -34.5959 -34.5867 -34.5796 -34.5745 -34.5651 -34.5605 -34.5545 -34.5493
     7.3251   7.3289   7.3387   7.3644   7.3951   7.3962   7.4046   7.4226
     7.4301   7.4588  11.0786  11.2001  11.2402  11.3886  11.4618  11.4825
    11.5823  11.6086  11.6600  11.6991  11.7808  11.8498  11.8942  11.9689
    12.1032  12.2135  12.3055  12.3237  12.3334  12.3747  12.4661  12.5350
    12.5748  12.6705  12.7249  12.7664  12.8181  12.8623  12.9159  13.2615
    14.4842  16.4431  18.1853  18.6173  19.9090  20.2026  21.9261  23.2369
    23.4501  24.7501  26.1569  26.6063  27.2235  27.2924  27.5385  28.2506
    28.7937  29.8808  30.0159  30.3851  31.1179  31.4662  31.5287  31.7625
    33.3596  33.5096  33.5910  34.0415  34.2071  34.2208  34.7360  35.2215
    35.4781  35.5052  35.8270

          k = 0.4116-0.1584 0.5531 (  4692 PWs)   bands (ev):

   -82.8089 -82.8017 -72.6470 -72.6386 -72.6302 -72.6274 -72.6256 -72.6206
   -41.5015 -41.4962 -41.4845 -41.4803 -41.4762 -41.4728 -34.6793 -34.6753
   -34.6615 -34.6613 -34.6561 -34.6457 -34.6261 -34.6119 -34.6052 -34.5988
   -34.5962 -34.5867 -34.5711 -34.5650 -34.5638 -34.5610 -34.5529 -34.5482
     7.3280   7.3292   7.3496   7.3699   7.3727   7.3845   7.4117   7.4207
     7.4448   7.4567  11.1390  11.2118  11.2408  11.2861  11.4412  11.4977
    11.5228  11.5708  11.6939  11.7330  11.8472  11.8929  11.9609  11.9820
    12.0177  12.2324  12.2757  12.3367  12.3851  12.4013  12.4390  12.5265
    12.5359  12.5971  12.6452  12.7047  12.8128  12.8440  13.0817  13.2242
    15.3921  16.5732  17.4467  18.5515  19.3785  20.4992  20.7654  21.8623
    24.2688  25.3288  25.5515  26.5510  27.3502  27.8555  28.3668  28.8775
    29.0351  29.8448  29.9739  31.2633  31.8831  32.2563  32.3910  32.6846
    32.7556  33.1334  33.2241  33.5864  33.9476  34.0846  34.0936  34.4544
    35.2359  35.3719  35.5923

          k = 0.4116 0.0396 0.0000 (  4697 PWs)   bands (ev):

   -82.8117 -82.8029 -72.6515 -72.6469 -72.6358 -72.6285 -72.6217 -72.6140
   -41.5044 -41.5025 -41.4871 -41.4798 -41.4755 -41.4685 -34.6806 -34.6704
   -34.6557 -34.6543 -34.6513 -34.6432 -34.6402 -34.6250 -34.6067 -34.6059
   -34.5945 -34.5877 -34.5849 -34.5648 -34.5627 -34.5601 -34.5497 -34.5472
     7.3217   7.3324   7.3395   7.3661   7.3789   7.3912   7.4145   7.4190
     7.4375   7.4424  11.1198  11.2526  11.2546  11.3908  11.4023  11.4465
    11.5239  11.5871  11.6024  11.7046  11.8067  11.8382  11.8873  11.9979
    12.1533  12.1730  12.2101  12.2651  12.3322  12.4188  12.4743  12.5705
    12.6076  12.6653  12.7146  12.7410  12.8442  12.9877  13.1050  13.2021
    13.6586  16.3786  17.0982  20.4431  21.3814  22.2328  22.2758  23.5123
    24.2267  25.0278  25.0326  25.4465  25.6571  25.7341  27.2551  27.9999
    28.5830  28.6891  29.6230  30.6638  31.2439  31.3982  31.9598  32.1194
    32.4242  32.5160  32.7524  32.9138  33.7384  34.0266  34.9110  35.1750
    35.2946  35.7975  35.8108

          k = 0.4116 0.0396 0.1844 (  4703 PWs)   bands (ev):

   -82.8173 -82.8038 -72.6545 -72.6495 -72.6385 -72.6324 -72.6223 -72.6166
   -41.5089 -41.5030 -41.4864 -41.4784 -41.4778 -41.4725 -34.6817 -34.6719
   -34.6692 -34.6621 -34.6449 -34.6421 -34.6345 -34.6216 -34.6178 -34.6075
   -34.5946 -34.5937 -34.5830 -34.5736 -34.5644 -34.5566 -34.5508 -34.5434
     7.3240   7.3301   7.3389   7.3605   7.3826   7.3949   7.4150   7.4194
     7.4314   7.4465  11.0757  11.2159  11.2467  11.4457  11.4628  11.4884
    11.5385  11.5705  11.6078  11.6527  11.7178  11.8073  11.9183  12.0295
    12.1415  12.2155  12.2277  12.2927  12.3716  12.4502  12.4736  12.4851
    12.5817  12.7091  12.7197  12.7334  12.8301  13.0044  13.1004  13.1439
    13.8349  16.5241  17.2522  20.0204  20.6847  21.5750  22.3275  23.0003
    24.4625  24.8866  25.1939  25.6201  26.4197  26.7328  27.1374  27.3528
    28.7692  29.6687  30.1157  30.4529  30.8483  30.9878  31.6371  31.8786
    32.2986  33.1573  33.4679  33.7041  33.9445  34.0857  34.5546  34.9959
    35.3716  35.7952  35.9615

          k = 0.4116 0.0396 0.3687 (  4691 PWs)   bands (ev):

   -82.8095 -82.7994 -72.6416 -72.6388 -72.6318 -72.6281 -72.6254 -72.6196
   -41.5037 -41.4989 -41.4795 -41.4785 -41.4774 -41.4720 -34.6826 -34.6687
   -34.6676 -34.6592 -34.6517 -34.6430 -34.6300 -34.6125 -34.6120 -34.5994
   -34.5924 -34.5895 -34.5779 -34.5710 -34.5579 -34.5541 -34.5457 -34.5455
     7.3276   7.3288   7.3405   7.3574   7.3908   7.3924   7.4063   7.4231
     7.4284   7.4531  11.0506  11.2192  11.2341  11.3988  11.4631  11.4723
    11.5703  11.5823  11.6156  11.7151  11.7282  11.8235  11.8674  11.9883
    12.1661  12.2324  12.2611  12.3309  12.3499  12.3849  12.5038  12.5530
    12.5874  12.6722  12.7199  12.7912  12.8261  12.8720  13.0309  13.1936
    14.3739  16.9527  17.7143  18.2661  20.5476  21.0792  21.2957  22.2019
    24.1922  25.1698  25.5135  25.8868  26.8726  27.2118  28.1233  28.5485
    29.1987  29.6266  29.8571  30.4214  30.7894  31.9634  32.1137  32.4495
    32.5990  32.9449  33.2351  33.9656  34.1798  34.3074  34.4380  35.1298
    35.4152  35.9135  36.0666

          k = 0.4116 0.0396 0.5531 (  4682 PWs)   bands (ev):

   -82.8047 -82.7949 -72.6387 -72.6349 -72.6279 -72.6236 -72.6219 -72.6160
   -41.4988 -41.4952 -41.4815 -41.4757 -41.4745 -41.4712 -34.6760 -34.6672
   -34.6628 -34.6588 -34.6497 -34.6457 -34.6239 -34.6144 -34.6007 -34.5948
   -34.5918 -34.5838 -34.5661 -34.5644 -34.5619 -34.5589 -34.5552 -34.5443
     7.3304   7.3311   7.3500   7.3639   7.3719   7.3817   7.4107   7.4203
     7.4408   7.4519  11.1180  11.2107  11.2486  11.2831  11.4519  11.4853
    11.5147  11.5482  11.6065  11.6666  11.8486  11.8855  11.9739  12.0684
    12.1197  12.1551  12.2004  12.3733  12.3862  12.4411  12.4557  12.5259
    12.5790  12.5995  12.6408  12.6707  12.9084  12.9492  13.0651  13.1698
    15.2796  16.4990  17.9333  18.5419  19.1324  19.7774  21.8353  22.7606
    23.1937  24.1974  26.0674  26.6127  27.1515  27.6706  27.7636  28.7475
    29.8284  30.3423  31.0908  31.3476  31.8188  32.0558  32.3095  32.3361
    32.6720  33.1471  33.3133  33.3770  33.5717  33.6682  33.7735  33.9147
    35.9068  36.1976  36.3987

     the Fermi energy is    29.2964 ev

!    total energy              =   -2709.35629753 Ry
     Harris-Foulkes estimate   =   -2709.35630865 Ry
     estimated scf accuracy    <       0.00001390 Ry

     The total energy is the sum of the following terms:

     one-electron contribution =    -735.04435816 Ry
     hartree contribution      =     469.93309428 Ry
     xc contribution           =    -228.04421793 Ry
     ewald contribution        =   -2215.95893525 Ry
     smearing contrib. (-TS)   =      -0.24188048 Ry

     convergence has been achieved in  10 iterations

     Forces acting on atoms (Ry/au):

     atom    1 type  1   force =     0.02777216    0.01603426    0.00000000
     atom    2 type  1   force =     0.02777216   -0.01603426    0.00000000
     atom    3 type  1   force =    -0.02777216   -0.01603426    0.00000000
     atom    4 type  1   force =    -0.02777216    0.01603426    0.00000000
     atom    5 type  1   force =     0.00000000   -0.03206853    0.00000000
     atom    6 type  1   force =     0.00000000    0.03206853    0.00000000
     atom    7 type  2   force =     0.00000000    0.00000000    0.00000000
     atom    8 type  2   force =     0.00000000    0.00000000    0.00000000

     Total force =     0.078552     Total SCF correction =     0.000000


     entering subroutine stress ...

          total   stress  (Ry/bohr**3)                   (kbar)     P=   93.65
   0.00054450   0.00000000   0.00000000         80.10      0.00      0.00
   0.00000000   0.00054450   0.00000000          0.00     80.10      0.00
   0.00000000   0.00000000   0.00082086          0.00      0.00    120.75


     Writing output data file Prototype-La-hP8-Mg3Cd.save
 
     init_run     :     14.82s CPU     19.39s WALL (       2 calls)
     electrons    :   2768.33s CPU   3305.11s WALL (       5 calls)
     update_pot   :      2.52s CPU      3.30s WALL (       3 calls)
     forces       :     14.81s CPU     16.79s WALL (       5 calls)
     stress       :     42.65s CPU     47.33s WALL (       5 calls)

     Called by init_run:
     wfcinit      :     13.88s CPU     17.73s WALL (       2 calls)
     potinit      :      0.42s CPU      0.42s WALL (       2 calls)

     Called by electrons:
     c_bands      :   2681.36s CPU   3173.50s WALL (      33 calls)
     sum_band     :     86.48s CPU    118.47s WALL (      33 calls)
     v_of_rho     :      0.07s CPU      0.08s WALL (      37 calls)
     mix_rho      :      0.06s CPU      0.08s WALL (      33 calls)

     Called by c_bands:
     init_us_2    :      4.82s CPU      6.18s WALL (    4992 calls)
     ccgdiagg     :   2402.89s CPU   2813.65s WALL (    2561 calls)
     wfcrot       :    287.34s CPU    368.34s WALL (    2625 calls)

     Called by *cgdiagg:
     h_psi        :   1772.61s CPU   2182.70s WALL ( 1414877 calls)
     cdiaghg      :     13.73s CPU     15.52s WALL (    2625 calls)

     Called by h_psi:
     add_vuspsi   :    221.15s CPU    263.22s WALL ( 1414877 calls)

     General routines
     calbec       :    589.39s CPU    629.36s WALL ( 2827769 calls)
     fft          :      0.13s CPU      0.16s WALL (     173 calls)
     fftw         :   1215.74s CPU   1495.75s WALL ( 3612238 calls)
     davcio       :      2.81s CPU      7.78s WALL (    7104 calls)
 
     Parallel routines
     fft_scatter  :    526.27s CPU    658.27s WALL ( 3612411 calls)
 
     PWSCF        : 47m24.37s CPU    56m37.00s WALL

 
   This run was terminated on:  23:43:55  22Mar2018            

=------------------------------------------------------------------------------=
   JOB DONE.
=------------------------------------------------------------------------------=
