
     Program PWSCF v.5.0.2 starts on 22Mar2018 at  0:39:38 

     This program is part of the open-source Quantum ESPRESSO suite
     for quantum simulation of materials; please cite
         "P. Giannozzi et al., J. Phys.:Condens. Matter 21 395502 (2009);
          URL http://www.quantum-espresso.org", 
     in publications or presentations arising from this work. More details at
     http://www.quantum-espresso.org/quote.php

     Parallel version (MPI), running on     4 processors
     R & G space division:  proc/nbgrp/npool/nimage =       4

     Current dimensions of program PWSCF are:
     Max number of different atomic species (ntypx) = 10
     Max number of k-points (npk) =  40000
     Max angular momentum in pseudopotentials (lmaxx) =  3
     Waiting for input...
     Reading input from standard input

     Subspace diagonalization in iterative solution of the eigenvalue problem:
     a serial algorithm will be used

 
     Parallelization info
     --------------------
     sticks:   dense  smooth     PW     G-vecs:    dense   smooth      PW
     Min         267     267     77                11587    11587    1762
     Max         268     268     79                11596    11596    1765
     Sum        1069    1069    313                46361    46361    7055
 


     bravais-lattice index     =            0
     lattice parameter (alat)  =       9.9235  a.u.
     unit-cell volume          =    1361.0366 (a.u.)^3
     number of atoms/cell      =           12
     number of atomic types    =            2
     number of electrons       =       232.00
     number of Kohn-Sham states=          139
     kinetic-energy cutoff     =      40.0000  Ry
     charge density cutoff     =     160.0000  Ry
     convergence threshold     =      1.0E-04
     mixing beta               =       0.7000
     number of iterations used =            8  plain     mixing
     Exchange-correlation      = SLA-PZ-NOGX-NOGC ( 1 1 0 0 0)
     EXX-fraction              =        0.00
     nstep                     =           50


     celldm(1)=   9.923489  celldm(2)=   0.000000  celldm(3)=   0.000000
     celldm(4)=   0.000000  celldm(5)=   0.000000  celldm(6)=   0.000000

     crystal axes: (cart. coord. in units of alat)
               a(1) = (   1.000000   0.000000   0.000000 )  
               a(2) = (  -0.500000   0.866025   0.000000 )  
               a(3) = (   0.000000   0.000000   1.608222 )  

     reciprocal axes: (cart. coord. in units 2 pi/alat)
               b(1) = (  1.000000  0.577350  0.000000 )  
               b(2) = (  0.000000  1.154701  0.000000 )  
               b(3) = (  0.000000  0.000000  0.621805 )  


     PseudoPot. # 1 for Ce read from file:
     /home/jld5415/pp.La/Ce.UPF
     MD5 check sum: 44451aa79a44a00cf2bc029dc19922f6
     Pseudo is Norm-conserving, Zval = 12.0
     Generated in analytical, separable form
     Using radial grid of 1255 points,  6 beta functions with: 
                l(1) =   0
                l(2) =   0
                l(3) =   1
                l(4) =   1
                l(5) =   2
                l(6) =   3

     PseudoPot. # 2 for Tm read from file:
     /home/jld5415/pp.La/Tm.UPF
     MD5 check sum: 245516e0878b5372ceeb9443ded2c4e1
     Pseudo is Norm-conserving, Zval = 23.0
     Generated in analytical, separable form
     Using radial grid of 1269 points,  6 beta functions with: 
                l(1) =   0
                l(2) =   0
                l(3) =   1
                l(4) =   1
                l(5) =   2
                l(6) =   3

     atomic species   valence    mass     pseudopotential
        Mg            12.00    24.30500     Ce( 1.00)
        Zn            23.00    65.39000     Tm( 1.00)

     24 Sym. Ops., with inversion, found (12 have fractional translation)



   Cartesian axes

     site n.     atom                  positions (alat units)
         1           Mg  tau(   1) = (  -0.0000005   0.5773506   0.1003820  )
         2           Mg  tau(   2) = (   0.5000005   0.2886748   0.9044931  )
         3           Mg  tau(   3) = (   0.5000005   0.2886748   1.5078402  )
         4           Mg  tau(   4) = (  -0.0000005   0.5773506   0.7037291  )
         5           Zn  tau(   5) = (   0.0000000   0.0000000   0.0000000  )
         6           Zn  tau(   6) = (   0.0000000   0.0000000   0.8041111  )
         7           Zn  tau(   7) = (   0.0000000   0.2950739   1.2061667  )
         8           Zn  tau(   8) = (   0.7444585   0.1475370   0.4020556  )
         9           Zn  tau(   9) = (   0.2555415   0.1475370   0.4020556  )
        10           Zn  tau(  10) = (   0.2444585   0.7184884   1.2061667  )
        11           Zn  tau(  11) = (  -0.2444585   0.7184884   1.2061667  )
        12           Zn  tau(  12) = (   0.5000000   0.5709515   0.4020556  )

     number of k points=    12  gaussian smearing, width (Ry)=  0.1000
                       cart. coord. in units 2pi/alat
        k(    1) = (   0.0000000   0.0000000   0.0000000), wk =   0.0833333
        k(    2) = (   0.0000000   0.0000000   0.1554512), wk =   0.1666667
        k(    3) = (   0.0000000   0.0000000  -0.3109023), wk =   0.0833333
        k(    4) = (   0.0000000   0.3849002   0.0000000), wk =   0.1666667
        k(    5) = (   0.0000000   0.3849002   0.1554512), wk =   0.3333333
        k(    6) = (   0.0000000   0.3849002  -0.3109023), wk =   0.1666667
        k(    7) = (  -0.5000000  -0.2886751   0.0000000), wk =   0.0833333
        k(    8) = (  -0.5000000  -0.2886751   0.1554512), wk =   0.1666667
        k(    9) = (  -0.5000000  -0.2886751  -0.3109023), wk =   0.0833333
        k(   10) = (  -0.5000000   0.0962250   0.0000000), wk =   0.1666667
        k(   11) = (  -0.5000000   0.0962250   0.1554512), wk =   0.3333333
        k(   12) = (  -0.5000000   0.0962250  -0.3109023), wk =   0.1666667

     Dense  grid:    46361 G-vectors     FFT dimensions: (  40,  40,  72)

     Largest allocated arrays     est. size (Mb)     dimensions
        Kohn-Sham Wavefunctions         3.13 Mb     (   1478,  139)
        NL pseudopotentials             5.41 Mb     (   1478,  240)
        Each V/rho on FFT grid          0.44 Mb     (  28800)
        Each G-vector array             0.09 Mb     (  11589)
        G-vector shells                 0.09 Mb     (  11589)
     Largest temporary arrays     est. size (Mb)     dimensions
        Each subspace H/S matrix        0.29 Mb     ( 139, 139)
        Each <psi_i|beta_j> matrix      0.51 Mb     (    240,  139)
        Arrays for rho mixing           3.52 Mb     (  28800,   8)

     Initial potential from superposition of free atoms

     Starting from uniform charge
     Starting wfc are    0 randomized atomic wfcs

     total cpu time spent up to now is        3.9 secs

     Self-consistent Calculation

     iteration #  1     ecut=    40.00 Ry     beta=0.70
     CG style diagonalization
     c_bands:  2 eigenvalues not converged
     c_bands:  4 eigenvalues not converged
     c_bands:  4 eigenvalues not converged
     c_bands:  5 eigenvalues not converged
     c_bands:  5 eigenvalues not converged
     c_bands:  5 eigenvalues not converged
     c_bands:  3 eigenvalues not converged
     ethr =  1.00E-02,  avg # of iterations = 23.3

     total cpu time spent up to now is      130.9 secs

     total energy              =   -2299.72558587 Ry
     Harris-Foulkes estimate   =   -4623.86966724 Ry
     estimated scf accuracy    <    2791.05022769 Ry

     iteration #  2     ecut=    40.00 Ry     beta=0.70
     CG style diagonalization
     ethr =  1.00E-02,  avg # of iterations = 18.4

     total cpu time spent up to now is      228.4 secs

     total energy              =   -2369.09776124 Ry
     Harris-Foulkes estimate   =   -3893.34115357 Ry
     estimated scf accuracy    <    2803.96371184 Ry

     iteration #  3     ecut=    40.00 Ry     beta=0.70
     CG style diagonalization
     ethr =  1.00E-02,  avg # of iterations = 17.8

     total cpu time spent up to now is      322.4 secs

     total energy              =   -3202.49730200 Ry
     Harris-Foulkes estimate   =   -3416.01499859 Ry
     estimated scf accuracy    <     594.37149698 Ry

     iteration #  4     ecut=    40.00 Ry     beta=0.70
     CG style diagonalization
     ethr =  1.00E-02,  avg # of iterations =  6.9

     total cpu time spent up to now is      361.0 secs

     total energy              =   -3243.29750282 Ry
     Harris-Foulkes estimate   =   -3269.43385281 Ry
     estimated scf accuracy    <      84.51117076 Ry

     iteration #  5     ecut=    40.00 Ry     beta=0.70
     CG style diagonalization
     ethr =  1.00E-02,  avg # of iterations =  4.0

     total cpu time spent up to now is      382.0 secs

     total energy              =   -3241.93725274 Ry
     Harris-Foulkes estimate   =   -3251.75768877 Ry
     estimated scf accuracy    <      28.46297217 Ry

     iteration #  6     ecut=    40.00 Ry     beta=0.70
     CG style diagonalization
     ethr =  1.00E-02,  avg # of iterations =  3.3

     total cpu time spent up to now is      399.7 secs

     total energy              =   -3240.97994434 Ry
     Harris-Foulkes estimate   =   -3244.06418940 Ry
     estimated scf accuracy    <       6.81854950 Ry

     iteration #  7     ecut=    40.00 Ry     beta=0.70
     CG style diagonalization
     ethr =  2.94E-03,  avg # of iterations =  4.2

     total cpu time spent up to now is      422.2 secs

     total energy              =   -3242.66401688 Ry
     Harris-Foulkes estimate   =   -3242.74458314 Ry
     estimated scf accuracy    <       0.15414309 Ry

     iteration #  8     ecut=    40.00 Ry     beta=0.70
     CG style diagonalization
     c_bands:  1 eigenvalues not converged
     c_bands:  4 eigenvalues not converged
     c_bands:  2 eigenvalues not converged
     c_bands:  1 eigenvalues not converged
     c_bands:  3 eigenvalues not converged
     c_bands:  2 eigenvalues not converged
     ethr =  6.64E-05,  avg # of iterations =  7.0

     total cpu time spent up to now is      460.0 secs

     total energy              =   -3242.80748278 Ry
     Harris-Foulkes estimate   =   -3242.82181775 Ry
     estimated scf accuracy    <       0.05536421 Ry

     iteration #  9     ecut=    40.00 Ry     beta=0.70
     CG style diagonalization
     c_bands:  1 eigenvalues not converged
     c_bands:  1 eigenvalues not converged
     c_bands:  1 eigenvalues not converged
     ethr =  2.39E-05,  avg # of iterations =  3.6

     total cpu time spent up to now is      479.1 secs

     total energy              =   -3242.79495927 Ry
     Harris-Foulkes estimate   =   -3242.81546346 Ry
     estimated scf accuracy    <       0.03723324 Ry

     iteration # 10     ecut=    40.00 Ry     beta=0.70
     CG style diagonalization
     c_bands:  1 eigenvalues not converged
     c_bands:  1 eigenvalues not converged
     ethr =  1.60E-05,  avg # of iterations =  3.7

     total cpu time spent up to now is      498.3 secs

     total energy              =   -3242.80488696 Ry
     Harris-Foulkes estimate   =   -3242.80655404 Ry
     estimated scf accuracy    <       0.00354159 Ry

     iteration # 11     ecut=    40.00 Ry     beta=0.70
     CG style diagonalization
     c_bands:  1 eigenvalues not converged
     c_bands:  1 eigenvalues not converged
     ethr =  1.53E-06,  avg # of iterations =  4.0

     total cpu time spent up to now is      519.4 secs

     total energy              =   -3242.80585240 Ry
     Harris-Foulkes estimate   =   -3242.80592522 Ry
     estimated scf accuracy    <       0.00013177 Ry

     iteration # 12     ecut=    40.00 Ry     beta=0.70
     CG style diagonalization
     ethr =  5.68E-08,  avg # of iterations =  4.8

     total cpu time spent up to now is      544.1 secs

     End of self-consistent calculation

          k = 0.0000 0.0000 0.0000 (  5769 PWs)   bands (ev):

   -79.0081 -79.0067 -78.9807 -78.9507 -78.9507 -78.9347 -78.9347 -78.9056
   -38.4837 -38.3499 -38.1670 -37.9471 -37.9289 -37.9289 -37.9061 -37.9061
   -37.8113 -37.8113 -37.7052 -37.6518 -37.6518 -37.6491 -37.6491 -37.5694
   -37.5694 -37.5532 -37.5325 -37.5325 -37.4901 -37.4901 -37.4586 -37.4436
    -4.0834  -3.9232  -3.6849  -3.5246   7.4758   7.9229   8.1788   8.8612
     8.8612   8.9845   8.9845   9.1058   9.1058   9.2827   9.5548   9.5548
     9.9088  10.2448  10.2448  10.4109  10.4109  10.5264  10.6841  10.8498
    10.8498  11.4459  11.4460  11.5260  11.5702  11.5702  11.7661  11.7661
    11.7701  11.7888  11.8571  11.8571  11.9249  11.9249  12.2720  12.4688
    12.4688  12.7374  12.7374  13.1410  13.1435  13.5782  13.5783  13.9878
    14.1003  14.1004  14.1690  14.1690  14.1920  14.3448  14.6237  14.6237
    15.8868  18.5240  20.4279  22.3802  23.4434  24.3124  24.3124  25.9079
    26.2832  26.2833  26.4356  26.4356  26.5504  26.5504  27.8627  27.8628
    28.9873  30.4152  30.4152  32.2574  32.3959  33.1868  33.1868  33.7974
    33.7974  34.2337  34.2338  34.3568  34.7443  35.1068  35.7934  35.7934
    35.8635  35.8635  36.2006  36.3088  36.7731  36.8451  36.9189  36.9190
    37.6149  37.6150  37.9358  38.1099  38.2796  38.2797  38.3314  38.3316
    38.6736  38.8675  38.8682

          k = 0.0000 0.0000 0.1555 (  5780 PWs)   bands (ev):

   -79.0134 -79.0096 -78.9560 -78.9559 -78.9497 -78.9451 -78.9451 -78.9312
   -38.4704 -38.3738 -38.1423 -37.9725 -37.9333 -37.9333 -37.9143 -37.9143
   -37.7993 -37.7993 -37.7117 -37.7116 -37.6720 -37.6031 -37.6031 -37.5627
   -37.5597 -37.5597 -37.5400 -37.5400 -37.5024 -37.5023 -37.4636 -37.4565
    -4.0657  -3.9573  -3.6510  -3.5427   7.5159   7.7913   8.3655   8.8705
     8.8705   8.9429   8.9429   9.0682   9.2027   9.2027   9.5210   9.5210
     9.9910  10.2013  10.2013  10.2417  10.2417  10.4225  10.9034  11.0843
    11.0843  11.4532  11.4532  11.4661  11.5899  11.5899  11.7193  11.7193
    11.7715  11.7850  11.8679  11.8679  11.9281  11.9281  12.4675  12.4892
    12.4892  12.7030  12.7031  13.1410  13.1420  13.5731  13.5731  13.6207
    13.8687  13.8687  14.2170  14.3164  14.3767  14.3767  14.6144  14.6144
    16.2320  17.8938  21.2252  22.4921  23.5253  24.4593  24.4593  25.0542
    25.5818  25.5818  26.5914  26.5915  27.0618  27.0619  27.9997  27.9997
    29.3967  29.8012  29.8013  30.8004  33.7193  33.7193  33.8417  33.8418
    34.0002  34.5007  34.6589  34.6701  34.6702  34.9189  35.7085  35.7085
    35.7633  35.7633  36.4954  36.8420  36.8420  36.9718  36.9769  37.2103
    37.2810  37.2810  37.6489  37.6490  37.9533  38.0001  38.5487  38.5600
    38.5602  38.8705  38.8772

          k = 0.0000 0.0000-0.3109 (  5780 PWs)   bands (ev):

   -79.0039 -79.0039 -78.9873 -78.9872 -78.9296 -78.9296 -78.9296 -78.9296
   -38.4219 -38.4219 -38.0769 -38.0769 -37.9182 -37.9182 -37.9182 -37.9182
   -37.7512 -37.7511 -37.7511 -37.7511 -37.6342 -37.6342 -37.5647 -37.5647
   -37.5647 -37.5647 -37.5345 -37.5345 -37.5345 -37.5345 -37.4503 -37.4502
    -4.0182  -4.0181  -3.5903  -3.5902   7.6252   7.6252   8.6952   8.6953
     8.8985   8.8985   8.8985   8.8985   9.3841   9.3841   9.3841   9.3841
    10.1485  10.1485  10.1485  10.1486  10.1921  10.1921  11.2538  11.2538
    11.3647  11.3647  11.3647  11.3647  11.6362  11.6361  11.6362  11.6362
    11.7808  11.7809  11.9015  11.9015  11.9015  11.9015  12.5917  12.5917
    12.5917  12.5917  12.9783  12.9784  13.1422  13.1422  13.6543  13.6543
    13.6544  13.6544  14.2585  14.2587  14.5445  14.5445  14.5447  14.5447
    16.9739  16.9739  22.3285  22.3286  23.8684  23.8684  24.8996  24.8996
    24.8996  24.8996  26.9427  26.9427  26.9427  26.9428  28.7735  28.7735
    28.7735  28.7735  29.9082  29.9083  34.1927  34.1927  34.1928  34.1928
    34.5018  34.5018  34.9965  34.9965  35.0507  35.0507  35.0507  35.0507
    36.2297  36.2297  36.2297  36.2297  37.2287  37.2288  37.3598  37.3599
    37.3599  37.3600  37.5772  37.5773  37.8669  37.8670  38.2626  38.2628
    38.6305  38.6308  38.9282

          k = 0.0000 0.3849 0.0000 (  5787 PWs)   bands (ev):

   -79.0126 -79.0104 -78.9890 -78.9652 -78.9474 -78.9454 -78.9302 -78.9240
   -38.3648 -38.2411 -38.1838 -38.0497 -37.9574 -37.8873 -37.8515 -37.8460
   -37.8159 -37.8086 -37.6779 -37.6656 -37.6607 -37.6523 -37.6499 -37.6404
   -37.6226 -37.5826 -37.5802 -37.5538 -37.5143 -37.4985 -37.4956 -37.4825
    -3.9914  -3.8421  -3.7653  -3.6176   8.0604   8.4493   8.5105   9.0314
     9.0589   9.1957   9.2623   9.4214   9.5633   9.6703   9.7193   9.8941
    10.1073  10.2087  10.3658  10.4077  10.6294  10.7370  10.7808  10.8487
    10.9246  10.9453  11.0099  11.0786  11.1712  11.3723  11.5043  11.5424
    11.6056  11.6595  11.6905  11.7314  11.7594  11.9589  11.9712  12.0411
    12.0861  12.1494  12.5128  12.6221  12.8546  13.0103  13.4364  13.4526
    13.4628  13.6507  14.0347  14.1422  14.6066  14.6692  14.7752  14.8897
    17.5432  18.4329  20.0199  21.1300  21.3862  24.2209  24.8252  25.7485
    26.1891  26.3116  26.6216  27.5504  28.7966  28.9230  29.1139  29.1868
    30.0153  30.3045  30.8422  32.0410  32.2713  32.3872  32.7534  32.8267
    33.0380  33.3174  33.5649  34.1539  34.5341  34.9034  34.9719  35.1880
    35.3473  35.4919  35.8870  36.4253  36.6131  36.6162  36.6776  37.2869
    37.4121  37.8654  37.9082  38.0599  38.1158  38.3572  38.5489  38.6823
    38.8782  39.1087  39.3947

          k = 0.0000 0.3849 0.1555 (  5804 PWs)   bands (ev):

   -79.0264 -79.0179 -78.9793 -78.9682 -78.9606 -78.9541 -78.9446 -78.9329
   -38.3614 -38.2865 -38.1429 -38.0602 -37.9505 -37.8804 -37.8798 -37.8650
   -37.8089 -37.7973 -37.7299 -37.7043 -37.6603 -37.6512 -37.6301 -37.6073
   -37.6005 -37.5873 -37.5720 -37.5619 -37.5298 -37.5118 -37.4954 -37.4896
    -3.9774  -3.8827  -3.7254  -3.6317   8.0898   8.3004   8.6970   9.0011
     9.0559   9.2598   9.2899   9.4014   9.4043   9.5921   9.7000   9.8610
    10.2280  10.2880  10.3462  10.4737  10.5115  10.6270  10.7728  10.7958
    10.9411  11.0737  11.0837  11.1599  11.2550  11.3806  11.5085  11.5546
    11.6377  11.6725  11.6765  11.7053  11.7477  11.8400  11.9227  12.0593
    12.0793  12.1532  12.5277  12.7416  12.7820  12.9864  13.2923  13.4771
    13.5964  13.6088  13.9993  14.1157  14.6042  14.6639  14.7333  14.8574
    17.6610  18.2659  20.1957  20.9844  21.9384  24.3238  24.7693  24.7954
    25.8633  26.2563  27.2719  27.5431  28.5214  28.7589  29.3163  29.3581
    30.3136  30.4647  30.7122  31.3122  32.2189  32.4450  32.9189  33.2210
    33.3222  33.4116  33.7421  34.5370  34.7835  34.8840  34.9770  35.0853
    35.1603  35.4062  35.7822  36.0569  36.2324  36.8128  36.8748  37.3875
    37.5614  37.6578  37.8329  37.9522  38.0762  38.5293  38.5997  38.8117
    39.0662  39.2975  39.3613

          k = 0.0000 0.3849-0.3109 (  5816 PWs)   bands (ev):

   -79.0263 -79.0263 -78.9749 -78.9749 -78.9615 -78.9615 -78.9516 -78.9516
   -38.3367 -38.3367 -38.0961 -38.0961 -37.9266 -37.9266 -37.8780 -37.8780
   -37.7841 -37.7840 -37.7555 -37.7555 -37.6540 -37.6539 -37.5936 -37.5936
   -37.5930 -37.5930 -37.5584 -37.5584 -37.5417 -37.5417 -37.4937 -37.4937
    -3.9383  -3.9381  -3.6708  -3.6706   8.1715   8.1715   8.8966   8.8966
     9.1545   9.1545   9.3530   9.3530   9.3999   9.3999   9.7792   9.7792
    10.3634  10.3634  10.3938  10.3938  10.5159  10.5160  10.7420  10.7420
    11.0123  11.0123  11.2140  11.2140  11.4454  11.4454  11.4704  11.4704
    11.6707  11.6707  11.7016  11.7016  11.7351  11.7351  11.9492  11.9492
    12.1227  12.1227  12.6261  12.6261  12.8758  12.8758  13.4828  13.4830
    13.5366  13.5366  13.9899  13.9901  14.6410  14.6412  14.7711  14.7712
    17.9398  17.9399  20.6269  20.6270  23.1921  23.1921  24.5674  24.5674
    26.0439  26.0439  27.8463  27.8463  28.0055  28.0055  29.8536  29.8537
    30.0362  30.0362  30.9554  30.9554  32.8080  32.8080  33.2244  33.2244
    33.5722  33.5722  34.0726  34.0726  34.3005  34.3006  34.9209  34.9210
    35.5072  35.5072  35.6787  35.6787  36.8795  36.8796  37.4979  37.4979
    37.5093  37.5094  38.1027  38.1028  38.3899  38.3901  38.5235  38.5237
    39.0066  39.0072  39.1921

          k =-0.5000-0.2887 0.0000 (  5800 PWs)   bands (ev):

   -79.0309 -79.0105 -78.9760 -78.9726 -78.9573 -78.9535 -78.9343 -78.9322
   -38.3152 -38.1938 -38.1868 -38.1092 -37.9735 -37.8696 -37.8401 -37.8362
   -37.8199 -37.8054 -37.6943 -37.6915 -37.6646 -37.6538 -37.6515 -37.6497
   -37.6288 -37.5980 -37.5955 -37.5462 -37.5261 -37.5125 -37.5027 -37.4857
    -3.9391  -3.8138  -3.7948  -3.6692   8.2919   8.5561   8.6831   9.0968
     9.1719   9.3182   9.4528   9.4775   9.6683   9.7340   9.9723  10.3036
    10.3614  10.4000  10.4190  10.4584  10.4950  10.6359  10.6498  10.6674
    10.7777  10.9613  10.9799  10.9964  11.0324  11.2153  11.2853  11.3933
    11.5029  11.5966  11.6012  11.6306  11.6954  11.7044  11.7691  11.8242
    11.9493  11.9823  12.5311  12.6584  12.8489  13.0287  13.1801  13.3441
    13.4337  13.5494  13.8951  14.1898  14.7118  14.7663  14.8103  14.9341
    18.1253  18.3947  19.4481  20.5828  21.6416  24.3768  24.4715  25.9621
    26.0458  26.4799  26.8523  28.0919  28.6723  29.1089  29.6745  30.2961
    30.5083  30.5773  31.3636  31.3690  32.0097  32.0717  32.1997  32.5220
    32.8590  33.2535  33.5391  34.2931  34.2946  34.7159  35.0394  35.2457
    35.2967  35.3468  35.5508  35.7277  35.9217  36.4153  36.9240  37.6702
    37.9821  38.0136  38.2112  38.2113  38.2160  38.6652  38.8029  38.8243
    38.8324  38.8891  39.0200

          k =-0.5000-0.2887 0.1555 (  5822 PWs)   bands (ev):

   -79.0368 -79.0167 -78.9824 -78.9808 -78.9778 -78.9568 -78.9553 -78.9383
   -38.3099 -38.2444 -38.1498 -38.1119 -37.9737 -37.8724 -37.8702 -37.8529
   -37.8143 -37.7879 -37.7417 -37.7098 -37.6736 -37.6630 -37.6331 -37.6207
   -37.6079 -37.6058 -37.5837 -37.5630 -37.5351 -37.5152 -37.5076 -37.5070
    -3.9285  -3.8550  -3.7535  -3.6805   8.3106   8.4634   8.8193   9.0969
     9.1546   9.2904   9.3444   9.4589   9.6887   9.8612   9.9074  10.2886
    10.3038  10.4101  10.4238  10.4704  10.4818  10.5653  10.6538  10.7742
    10.8247  10.8769  10.9732  10.9950  11.1625  11.2727  11.3163  11.4164
    11.5746  11.5847  11.5912  11.6521  11.6537  11.6758  11.7175  11.8697
    11.8737  11.9695  12.5372  12.6459  12.7659  12.8849  13.3020  13.4395
    13.4587  13.5369  13.8704  14.1609  14.6810  14.7504  14.7698  14.9048
    18.1494  18.3353  19.6628  20.4968  22.0909  24.4297  24.5030  24.8221
    25.9503  26.0704  27.6363  28.0178  28.6474  29.2949  29.7531  30.1965
    30.2745  31.1366  31.4668  31.6503  31.7649  31.8746  32.3179  32.4522
    33.4539  33.5227  33.5391  33.7783  34.6533  34.7723  34.8105  35.2313
    35.2581  35.3191  35.3543  35.7275  36.0698  36.2145  36.3746  37.6281
    37.7391  37.8296  37.9255  38.2457  38.4120  38.5644  38.6656  38.7258
    39.3015  39.4980  39.5005

          k =-0.5000-0.2887-0.3109 (  5804 PWs)   bands (ev):

   -79.0248 -79.0248 -78.9640 -78.9640 -78.9616 -78.9616 -78.9419 -78.9419
   -38.2843 -38.2843 -38.1222 -38.1222 -37.9283 -37.9283 -37.8659 -37.8659
   -37.7720 -37.7720 -37.7439 -37.7439 -37.6644 -37.6644 -37.6101 -37.6101
   -37.5856 -37.5856 -37.5573 -37.5573 -37.5419 -37.5419 -37.5085 -37.5084
    -3.8986  -3.8984  -3.7102  -3.7100   8.3697   8.3697   9.0379   9.0379
     9.1234   9.1234   9.4065   9.4065   9.7556   9.7557  10.1179  10.1179
    10.3321  10.3321  10.4593  10.4594  10.5465  10.5465  10.6709  10.6709
    10.9341  10.9341  10.9458  10.9458  11.2885  11.2885  11.4922  11.4922
    11.5424  11.5424  11.5455  11.5455  11.6754  11.6754  11.7593  11.7593
    11.9336  11.9336  12.6125  12.6125  12.6826  12.6827  13.5040  13.5040
    13.5315  13.5316  13.9124  13.9126  14.6898  14.6900  14.8318  14.8318
    18.2301  18.2302  20.1465  20.1466  23.2635  23.2635  24.5164  24.5164
    25.8776  25.8776  28.1118  28.1118  28.5928  28.5928  30.1082  30.1083
    30.6161  30.6161  31.6572  31.6572  32.7960  32.7960  32.8106  32.8106
    33.0676  33.0676  33.5319  33.5319  33.8138  33.8138  35.0089  35.0089
    35.2052  35.2052  35.6429  35.6429  36.7167  36.7168  36.8527  36.8528
    37.3765  37.3766  38.3383  38.3384  38.5974  38.5975  39.0647  39.0650
    39.2313  39.2322  39.5110

          k =-0.5000 0.0962 0.0000 (  5827 PWs)   bands (ev):

   -79.0319 -79.0293 -78.9918 -78.9795 -78.9725 -78.9639 -78.9523 -78.9365
   -38.3177 -38.2038 -38.1886 -38.1071 -38.0035 -37.8535 -37.8471 -37.8358
   -37.8252 -37.8175 -37.6868 -37.6843 -37.6773 -37.6670 -37.6520 -37.6511
   -37.6320 -37.5980 -37.5957 -37.5550 -37.5255 -37.5248 -37.5216 -37.5025
    -3.9409  -3.8123  -3.7961  -3.6683   8.3795   8.5711   8.8380   9.0742
     9.1284   9.2495   9.2636   9.4864   9.6625   9.8068   9.8980  10.0924
    10.2259  10.2425  10.4520  10.4860  10.5377  10.5780  10.6723  10.8352
    10.8788  10.8941  10.9795  11.0103  11.1099  11.2040  11.2982  11.4025
    11.4844  11.5721  11.5987  11.6882  11.7217  11.7789  11.8013  11.9261
    12.0607  12.1206  12.4534  12.6261  12.6903  12.8909  13.2218  13.3534
    13.5816  13.6738  13.9454  14.1572  14.5110  14.7726  14.8014  14.8557
    17.9928  18.4663  19.7177  20.5895  21.6106  23.6864  23.7232  26.5522
    26.9390  27.0137  27.1243  27.9288  28.3434  29.2758  29.7836  29.8114
    30.2188  30.4157  30.9411  31.9030  31.9978  32.3094  32.3861  32.8382
    33.2532  33.2774  33.4559  33.9198  33.9293  34.0795  34.2592  35.2085
    35.2143  35.5253  35.8173  35.9107  36.2892  36.7602  36.9133  37.1225
    37.6154  37.7820  37.9368  37.9581  38.0618  38.4327  38.8649  38.8902
    39.2229  39.2344  39.4937

          k =-0.5000 0.0962 0.1555 (  5825 PWs)   bands (ev):

   -79.0294 -79.0264 -78.9884 -78.9837 -78.9664 -78.9605 -78.9566 -78.9402
   -38.3090 -38.2430 -38.1524 -38.1113 -37.9864 -37.8820 -37.8592 -37.8453
   -37.8125 -37.7924 -37.7331 -37.7099 -37.6750 -37.6669 -37.6344 -37.6168
   -37.5980 -37.5945 -37.5893 -37.5593 -37.5347 -37.5256 -37.5196 -37.5135
    -3.9300  -3.8554  -3.7529  -3.6792   8.3970   8.5205   8.9205   9.0523
     9.1189   9.2959   9.3035   9.4084   9.5907   9.6535  10.0346  10.1114
    10.1915  10.3057  10.4011  10.4766  10.5164  10.6639  10.6866  10.7168
    10.8526  10.9512  10.9765  11.1133  11.1727  11.2599  11.3598  11.3743
    11.5251  11.5575  11.6090  11.7050  11.7385  11.7652  11.8113  11.9015
    11.9592  12.0470  12.4491  12.5950  12.7051  12.9471  13.1664  13.3513
    13.5673  13.6184  13.9729  14.1540  14.5847  14.7153  14.7691  14.8189
    18.0490  18.3753  19.9162  20.5532  22.0697  23.6406  23.6738  24.9667
    26.8700  27.1825  27.8262  27.9663  28.6879  29.2019  29.7448  30.0977
    30.1575  30.4433  30.9871  31.5913  31.9911  32.3223  32.6480  32.6777
    33.1784  33.3352  33.6235  33.7891  34.1606  34.3919  34.7866  34.9264
    35.1409  35.3859  35.7983  36.0207  36.2456  36.4834  36.8444  37.0433
    37.3438  37.7510  37.8450  38.1231  38.2731  38.4516  38.6829  38.9164
    39.1186  39.2155  39.5813

          k =-0.5000 0.0962-0.3109 (  5824 PWs)   bands (ev):

   -79.0260 -79.0260 -78.9821 -78.9821 -78.9599 -78.9599 -78.9561 -78.9561
   -38.2829 -38.2829 -38.1222 -38.1222 -37.9388 -37.9388 -37.8573 -37.8572
   -37.7757 -37.7757 -37.7572 -37.7572 -37.6707 -37.6706 -37.6031 -37.6030
   -37.5881 -37.5881 -37.5666 -37.5665 -37.5440 -37.5440 -37.5233 -37.5233
    -3.8996  -3.8994  -3.7095  -3.7093   8.4484   8.4484   9.0176   9.0176
     9.2000   9.2000   9.3760   9.3760   9.5235   9.5235  10.1228  10.1228
    10.2306  10.2306  10.4496  10.4496  10.5712  10.5712  10.7252  10.7252
    10.8907  10.8908  11.0373  11.0373  11.2931  11.2931  11.4338  11.4338
    11.5392  11.5392  11.7107  11.7107  11.7318  11.7318  11.8266  11.8266
    11.9234  11.9234  12.5054  12.5054  12.7865  12.7866  13.2999  13.3000
    13.5736  13.5737  14.0470  14.0471  14.6832  14.6833  14.7420  14.7421
    18.1950  18.1951  20.3215  20.3216  23.2068  23.2068  23.6876  23.6876
    27.0461  27.0462  28.0524  28.0524  28.7405  28.7406  30.0243  30.0243
    30.3686  30.3686  31.5521  31.5522  32.3403  32.3403  32.7307  32.7308
    33.1410  33.1410  33.6997  33.6998  34.1773  34.1773  34.4687  34.4688
    35.4140  35.4140  35.9844  35.9844  36.5130  36.5131  37.3118  37.3119
    37.4999  37.5000  37.8140  37.8141  38.4017  38.4019  38.7298  38.7300
    38.7971  38.7973  39.4522

     the Fermi energy is    34.2482 ev

!    total energy              =   -3242.80594273 Ry
     Harris-Foulkes estimate   =   -3242.80595974 Ry
     estimated scf accuracy    <       0.00001953 Ry

     The total energy is the sum of the following terms:

     one-electron contribution =    -916.61134758 Ry
     hartree contribution      =     633.42033033 Ry
     xc contribution           =    -286.34586135 Ry
     ewald contribution        =   -2672.74473170 Ry
     smearing contrib. (-TS)   =      -0.52433242 Ry

     convergence has been achieved in  12 iterations

     Forces acting on atoms (Ry/au):

     atom    1 type  1   force =     0.00000000    0.00000000    0.03277867
     atom    2 type  1   force =     0.00000000    0.00000000    0.03277867
     atom    3 type  1   force =     0.00000000    0.00000000   -0.03277867
     atom    4 type  1   force =     0.00000000    0.00000000   -0.03277867
     atom    5 type  2   force =     0.00000000    0.00000000    0.00000000
     atom    6 type  2   force =     0.00000000    0.00000000    0.00000000
     atom    7 type  2   force =     0.00000000    0.19044181    0.00000000
     atom    8 type  2   force =    -0.16492745    0.09522091    0.00000000
     atom    9 type  2   force =     0.16492745    0.09522091    0.00000000
     atom   10 type  2   force =    -0.16492745   -0.09522091    0.00000000
     atom   11 type  2   force =     0.16492745   -0.09522091    0.00000000
     atom   12 type  2   force =     0.00000000   -0.19044181    0.00000000

     Total force =     0.471069     Total SCF correction =     0.000000


     entering subroutine stress ...

          total   stress  (Ry/bohr**3)                   (kbar)     P= 1290.83
   0.00873451   0.00000000   0.00000000       1284.89      0.00      0.00
   0.00000000   0.00873451   0.00000000          0.00   1284.89      0.00
   0.00000000   0.00000000   0.00885563          0.00      0.00   1302.71


     BFGS Geometry Optimization

     number of scf cycles    =   1
     number of bfgs steps    =   0

     enthalpy new            =   -3242.8059427299 Ry

     new trust radius        =       0.5000000000 bohr
     new conv_thr            =       0.0001000000 Ry

     new unit-cell volume =   1654.02680 a.u.^3 (   245.10148 Ang^3 )

CELL_PARAMETERS (alat=  9.92348860)
   1.066838139   0.000000000   0.000000000
  -0.533419069   0.923908930   0.000000000
   0.000000000   0.000000000   1.717203317

ATOMIC_POSITIONS (crystal)
Mg       0.333333000   0.666667000   0.063046675
Mg       0.666667000   0.333333000   0.563046675
Mg       0.666667000   0.333333000   0.936953325
Mg       0.333333000   0.666667000   0.436953325
Zn       0.000000000   0.000000000   0.000000000
Zn       0.000000000   0.000000000   0.500000000
Zn       0.173752430   0.347504860   0.750000000
Zn       0.826247570   0.173752430   0.250000000
Zn       0.347504860   0.173752430   0.250000000
Zn       0.652495140   0.826247570   0.750000000
Zn       0.173752430   0.826247570   0.750000000
Zn       0.826247570   0.652495140   0.250000000



     Writing output data file Prototype-La-hP12-MgZn2.save
     NEW-OLD atomic charge density approx. for the potential
     NEW k-points:
        k(    1) = (   0.0000000   0.0000000   0.0000000), wk =   0.0833333
        k(    2) = (   0.0000000   0.0000000   0.1455856), wk =   0.1666667
        k(    3) = (   0.0000000   0.0000000  -0.2911711), wk =   0.0833333
        k(    4) = (   0.0000000   0.3607859   0.0000000), wk =   0.1666667
        k(    5) = (   0.0000000   0.3607859   0.1455856), wk =   0.3333333
        k(    6) = (   0.0000000   0.3607859  -0.2911711), wk =   0.1666667
        k(    7) = (  -0.4686747  -0.2705894   0.0000000), wk =   0.0833333
        k(    8) = (  -0.4686747  -0.2705894   0.1455856), wk =   0.1666667
        k(    9) = (  -0.4686747  -0.2705894  -0.2911711), wk =   0.0833333
        k(   10) = (  -0.4686747   0.0901965   0.0000000), wk =   0.1666667
        k(   11) = (  -0.4686747   0.0901965   0.1455856), wk =   0.3333333
        k(   12) = (  -0.4686747   0.0901965  -0.2911711), wk =   0.1666667

     total cpu time spent up to now is      552.3 secs

     Self-consistent Calculation

     iteration #  1     ecut=    40.00 Ry     beta=0.70
     CG style diagonalization
     c_bands:  2 eigenvalues not converged
     c_bands:  1 eigenvalues not converged
     c_bands:  2 eigenvalues not converged
     c_bands:  4 eigenvalues not converged
     c_bands:  4 eigenvalues not converged
     c_bands:  1 eigenvalues not converged
     c_bands:  5 eigenvalues not converged
     c_bands:  3 eigenvalues not converged
     ethr =  1.00E-06,  avg # of iterations = 23.8

     total cpu time spent up to now is      677.8 secs

     total energy              =   -3222.03826372 Ry
     Harris-Foulkes estimate   =   -3262.17823386 Ry
     estimated scf accuracy    <      48.73776884 Ry

     iteration #  2     ecut=    40.00 Ry     beta=0.70
     CG style diagonalization
     ethr =  1.00E-02,  avg # of iterations =  4.5

     total cpu time spent up to now is      701.4 secs

     total energy              =   -3230.78627819 Ry
     Harris-Foulkes estimate   =   -3257.99204734 Ry
     estimated scf accuracy    <      50.81244852 Ry

     iteration #  3     ecut=    40.00 Ry     beta=0.70
     CG style diagonalization
     ethr =  1.00E-02,  avg # of iterations =  4.0

     total cpu time spent up to now is      722.3 secs

     total energy              =   -3242.97576278 Ry
     Harris-Foulkes estimate   =   -3243.84333361 Ry
     estimated scf accuracy    <       1.54126263 Ry

     iteration #  4     ecut=    40.00 Ry     beta=0.70
     CG style diagonalization
     ethr =  6.64E-04,  avg # of iterations =  4.6

     total cpu time spent up to now is      747.1 secs

     total energy              =   -3243.73492869 Ry
     Harris-Foulkes estimate   =   -3244.01011930 Ry
     estimated scf accuracy    <       0.70675994 Ry

     iteration #  5     ecut=    40.00 Ry     beta=0.70
     CG style diagonalization
     ethr =  3.05E-04,  avg # of iterations =  3.3

     total cpu time spent up to now is      763.4 secs

     total energy              =   -3243.83162911 Ry
     Harris-Foulkes estimate   =   -3243.84608816 Ry
     estimated scf accuracy    <       0.02859204 Ry

     iteration #  6     ecut=    40.00 Ry     beta=0.70
     CG style diagonalization
     c_bands:  1 eigenvalues not converged
     c_bands:  1 eigenvalues not converged
     c_bands:  1 eigenvalues not converged
     c_bands:  2 eigenvalues not converged
     c_bands:  1 eigenvalues not converged
     c_bands:  1 eigenvalues not converged
     c_bands:  1 eigenvalues not converged
     c_bands:  1 eigenvalues not converged
     ethr =  1.23E-05,  avg # of iterations =  5.1

     total cpu time spent up to now is      790.1 secs

     total energy              =   -3243.84479530 Ry
     Harris-Foulkes estimate   =   -3243.84587533 Ry
     estimated scf accuracy    <       0.00187463 Ry

     iteration #  7     ecut=    40.00 Ry     beta=0.70
     CG style diagonalization
     c_bands:  1 eigenvalues not converged
     c_bands:  1 eigenvalues not converged
     ethr =  8.08E-07,  avg # of iterations =  4.6

     total cpu time spent up to now is      815.0 secs

     total energy              =   -3243.84550418 Ry
     Harris-Foulkes estimate   =   -3243.84568404 Ry
     estimated scf accuracy    <       0.00033033 Ry

     iteration #  8     ecut=    40.00 Ry     beta=0.70
     CG style diagonalization
     ethr =  1.42E-07,  avg # of iterations =  3.8

     total cpu time spent up to now is      836.4 secs

     total energy              =   -3243.84558820 Ry
     Harris-Foulkes estimate   =   -3243.84564704 Ry
     estimated scf accuracy    <       0.00014078 Ry

     iteration #  9     ecut=    40.00 Ry     beta=0.70
     CG style diagonalization
     ethr =  6.07E-08,  avg # of iterations =  3.3

     total cpu time spent up to now is      852.7 secs

     End of self-consistent calculation

          k = 0.0000 0.0000 0.0000 (  5769 PWs)   bands (ev):

   -84.2808 -84.2364 -84.2364 -84.2240 -84.2240 -84.2154 -84.1975 -84.1667
   -43.7657 -43.7044 -43.5183 -43.4761 -43.4761 -43.4692 -43.4691 -43.4531
   -43.3473 -43.3472 -43.3228 -43.2947 -43.2947 -43.2846 -43.2846 -43.2526
   -43.2526 -43.2475 -43.2475 -43.2470 -43.2035 -43.1901 -43.1859 -43.1858
   -10.3658 -10.2909 -10.1823 -10.1076   3.2533   3.4707   3.8102   4.0681
     4.0681   4.1161   4.1161   4.3749   4.3750   4.3973   4.7011   4.7011
     4.8621   5.1121   5.1121   5.1527   5.1528   5.2028   5.3658   5.5127
     5.5127   5.7960   5.8012   5.8012   5.8345   5.8346   5.9642   5.9642
     5.9696   5.9800   6.0138   6.0138   6.0996   6.0996   6.4090   6.4091
     6.5472   6.5472   6.8090   6.8166   6.9067   7.4686   7.4686   7.6786
     7.7650   7.7650   7.9135   7.9135   7.9468   8.0034   8.1368   8.1368
    11.3354  13.1084  15.1945  16.8405  18.0460  18.4509  18.4509  19.8935
    19.8935  20.2875  20.9987  20.9987  21.2506  21.2507  21.9832  21.9832
    22.6837  24.5982  24.5982  25.4223  26.1434  26.6349  26.6350  27.4827
    27.4828  27.8218  27.8219  28.0520  28.0563  28.1482  28.7573  29.2622
    29.2622  29.4248  29.4248  30.6971  30.7516  30.7517  31.0457  31.2587
    31.2587  31.2811  31.2901  31.9054  31.9056  31.9427  31.9429  32.0228
    32.0229  32.4647  32.5259

          k = 0.0000 0.0000 0.1456 (  5780 PWs)   bands (ev):

   -84.2618 -84.2547 -84.2547 -84.2387 -84.2386 -84.2138 -84.1960 -84.1847
   -43.7571 -43.7105 -43.5219 -43.4797 -43.4797 -43.4758 -43.4758 -43.4552
   -43.3470 -43.3470 -43.3147 -43.3146 -43.3068 -43.2722 -43.2722 -43.2631
   -43.2631 -43.2485 -43.2388 -43.2388 -43.2105 -43.2013 -43.1920 -43.1919
   -10.3576 -10.3070 -10.1663 -10.1159   3.2773   3.4272   3.8907   4.0720
     4.0720   4.1068   4.1068   4.2850   4.4229   4.4229   4.6602   4.6602
     4.9120   5.0966   5.0966   5.0984   5.0984   5.1519   5.4703   5.6070
     5.6070   5.7618   5.7945   5.7945   5.8534   5.8535   5.9374   5.9374
     5.9661   5.9743   6.0204   6.0204   6.0880   6.0880   6.4206   6.4206
     6.5265   6.5266   6.8082   6.8121   7.0170   7.4854   7.4854   7.5706
     7.6699   7.6700   7.9271   7.9814   7.9913   7.9913   8.1256   8.1256
    11.5265  12.6940  15.7345  16.8320  18.1419  18.5759  18.5760  19.5055
    19.5055  19.5269  21.1235  21.1235  21.6944  21.6944  21.9132  21.9132
    23.2032  23.9155  23.9156  24.5146  27.2041  27.2041  27.2267  27.5952
    27.5953  27.8127  28.1381  28.1381  28.1942  28.2496  29.3053  29.3053
    29.4015  29.4015  29.5687  30.4297  30.4430  30.4430  30.6041  30.6042
    31.0220  31.2074  31.3972  31.5810  31.5812  31.6481  31.6483  31.9231
    32.3743  32.4488  32.7884

          k = 0.0000 0.0000-0.2912 (  5780 PWs)   bands (ev):

   -84.2915 -84.2915 -84.2157 -84.2156 -84.2156 -84.2156 -84.1964 -84.1964
   -43.7270 -43.7270 -43.5130 -43.5130 -43.4724 -43.4723 -43.4723 -43.4723
   -43.3221 -43.3221 -43.3221 -43.3221 -43.2951 -43.2950 -43.2705 -43.2705
   -43.2705 -43.2705 -43.2138 -43.2137 -43.2137 -43.2137 -43.1965 -43.1964
   -10.3355 -10.3354 -10.1380 -10.1379   3.3367   3.3367   4.0752   4.0752
     4.0870   4.0870   4.0870   4.0870   4.5461   4.5461   4.5461   4.5461
     5.0215   5.0215   5.0730   5.0730   5.0730   5.0730   5.6453   5.6453
     5.7406   5.7406   5.7406   5.7406   5.8904   5.8904   5.8904   5.8904
     5.9796   5.9796   6.0507   6.0507   6.0507   6.0507   6.4713   6.4713
     6.4713   6.4713   6.8122   6.8122   7.2873   7.2875   7.5505   7.5506
     7.5507   7.5507   7.9387   7.9389   8.0816   8.0816   8.0817   8.0817
    12.0312  12.0312  16.5332  16.5333  18.5458  18.5458  18.9577  18.9577
    18.9577  18.9577  21.4418  21.4418  21.4418  21.4418  22.8169  22.8169
    22.8170  22.8170  23.7868  23.7870  27.7136  27.7136  27.7136  27.7137
    27.8817  27.8817  28.4287  28.4288  28.8281  28.8282  28.8282  28.8282
    29.6548  29.6548  29.6548  29.6548  30.1936  30.1936  30.8740  30.8741
    30.8823  30.8823  30.8824  30.8824  31.6833  31.6833  31.9108  31.9108
    31.9110  32.0013  32.0014

          k = 0.0000 0.3608 0.0000 (  5787 PWs)   bands (ev):

   -84.2997 -84.2708 -84.2523 -84.2405 -84.2186 -84.2115 -84.2006 -84.1791
   -43.7005 -43.6697 -43.5471 -43.5364 -43.5007 -43.4682 -43.4617 -43.4125
   -43.3479 -43.3414 -43.3119 -43.3075 -43.2912 -43.2907 -43.2864 -43.2812
   -43.2677 -43.2582 -43.2503 -43.2480 -43.2260 -43.2200 -43.2073 -43.1798
   -10.3251 -10.2528 -10.2201 -10.1482   3.6414   3.8197   4.0150   4.2031
     4.2562   4.2855   4.4782   4.5039   4.5599   4.6625   4.7376   4.8051
     4.9176   4.9958   5.1573   5.1599   5.3260   5.3946   5.4261   5.4466
     5.4481   5.5185   5.5347   5.5630   5.6899   5.7942   5.8136   5.8797
     5.9121   5.9151   5.9187   5.9414   5.9666   6.0958   6.1622   6.1803
     6.2094   6.3104   6.4188   6.6251   6.9730   7.3216   7.3519   7.4367
     7.4579   7.5301   7.8119   7.9155   8.1158   8.1475   8.2179   8.2667
    12.3034  13.3946  14.6930  15.4829  15.7889  18.2989  18.7866  20.1141
    20.2259  20.7694  20.9375  21.9748  22.4280  23.0253  23.1693  23.4229
    23.7431  24.2336  24.8083  26.0305  26.0765  26.4025  26.5865  26.5983
    26.6770  26.8452  27.1684  27.5092  28.0491  28.0593  28.5455  28.8791
    29.1006  29.1175  29.1620  29.7370  29.7429  30.1564  30.1566  30.4957
    30.6157  31.2733  31.3441  31.4940  31.5520  31.6983  31.7577  32.5215
    32.7114  32.8181  33.1913

          k = 0.0000 0.3608 0.1456 (  5804 PWs)   bands (ev):

   -84.2888 -84.2789 -84.2699 -84.2660 -84.2520 -84.2371 -84.2083 -84.1770
   -43.7015 -43.6792 -43.5446 -43.5402 -43.4930 -43.4660 -43.4634 -43.4359
   -43.3481 -43.3466 -43.3284 -43.3115 -43.3079 -43.3029 -43.2804 -43.2802
   -43.2741 -43.2542 -43.2453 -43.2349 -43.2237 -43.2169 -43.2164 -43.1999
   -10.3185 -10.2733 -10.1999 -10.1549   3.6595   3.7716   4.0738   4.2050
     4.2240   4.3353   4.4777   4.4973   4.5416   4.5946   4.6610   4.7651
     5.0050   5.0816   5.1564   5.1844   5.2634   5.3393   5.3523   5.4101
     5.5209   5.5539   5.6016   5.6084   5.7022   5.7575   5.8391   5.8767
     5.9008   5.9113   5.9285   5.9689   5.9728   6.0402   6.1111   6.1913
     6.2112   6.2850   6.4588   6.5970   7.0560   7.3126   7.3698   7.3965
     7.4715   7.4929   7.8048   7.8914   8.1315   8.1459   8.1974   8.2503
    12.4215  13.1623  14.7783  15.2858  16.4190  18.3692  18.7184  19.0956
    20.2374  20.5493  21.4119  22.0117  22.7659  22.7954  23.0874  23.5520
    24.1459  24.3256  24.6765  25.4066  25.8733  26.4675  26.5543  26.8647
    26.9978  27.0277  27.2592  27.9720  28.1110  28.3747  28.5393  28.7464
    28.7959  29.1112  29.2382  29.2633  29.4852  30.0438  30.2851  30.5054
    30.9227  30.9989  31.2937  31.3913  31.6953  31.8278  32.2110  32.5689
    32.7375  32.7644  32.8500

          k = 0.0000 0.3608-0.2912 (  5816 PWs)   bands (ev):

   -84.2954 -84.2954 -84.2657 -84.2657 -84.2572 -84.2572 -84.2093 -84.2093
   -43.6961 -43.6961 -43.5468 -43.5468 -43.4689 -43.4689 -43.4680 -43.4680
   -43.3441 -43.3441 -43.3278 -43.3278 -43.3078 -43.3077 -43.2788 -43.2787
   -43.2682 -43.2682 -43.2293 -43.2293 -43.2282 -43.2282 -43.2131 -43.2131
   -10.3000 -10.2999 -10.1735 -10.1734   3.7036   3.7037   4.1531   4.1531
     4.2995   4.2995   4.4879   4.4879   4.5187   4.5187   4.6781   4.6781
     5.1420   5.1421   5.1777   5.1777   5.2188   5.2188   5.3706   5.3706
     5.5586   5.5586   5.6221   5.6221   5.8024   5.8024   5.8087   5.8087
     5.9314   5.9314   5.9369   5.9369   5.9794   5.9794   6.1436   6.1436
     6.2340   6.2340   6.5308   6.5308   7.2158   7.2158   7.4234   7.4235
     7.4290   7.4292   7.8215   7.8217   8.1546   8.1547   8.2026   8.2026
    12.7423  12.7423  15.0255  15.0256  17.6389  17.6389  18.5453  18.5453
    20.3325  20.3325  22.0813  22.0813  22.2858  22.2858  23.7728  23.7729
    24.1122  24.1123  24.9484  24.9484  26.3541  26.3541  26.9486  26.9486
    27.0755  27.0755  27.5663  27.5663  27.9685  27.9685  28.5574  28.5575
    28.9175  28.9175  29.2728  29.2728  29.9718  29.9718  30.7793  30.7794
    30.8294  30.8295  31.3568  31.3569  31.9209  31.9210  32.1585  32.1587
    32.2453  32.2458  32.5100

          k =-0.4687-0.2706 0.0000 (  5800 PWs)   bands (ev):

   -84.3130 -84.2795 -84.2764 -84.2454 -84.2270 -84.2187 -84.2150 -84.1738
   -43.6738 -43.6506 -43.5812 -43.5396 -43.5131 -43.4669 -43.4591 -43.4141
   -43.3507 -43.3400 -43.3232 -43.3096 -43.3068 -43.3023 -43.2887 -43.2793
   -43.2656 -43.2552 -43.2522 -43.2454 -43.2357 -43.2297 -43.2140 -43.1824
   -10.3019 -10.2425 -10.2309 -10.1712   3.7854   3.9202   4.0783   4.3481
     4.3571   4.4719   4.5140   4.5858   4.6021   4.6676   4.7461   4.8905
     5.0427   5.1689   5.1739   5.2168   5.2585   5.2632   5.2707   5.3562
     5.4282   5.5124   5.5789   5.5832   5.6163   5.6551   5.6719   5.7835
     5.8461   5.8693   5.9153   5.9192   5.9269   6.0379   6.0586   6.1017
     6.1124   6.1492   6.4296   6.6177   7.0006   7.2402   7.3275   7.3814
     7.4257   7.4709   7.7232   7.9124   8.1683   8.1907   8.2368   8.2905
    12.8102  13.5462  14.1876  14.7543  15.9727  18.3151  18.5392  20.0870
    20.3389  20.9323  21.0064  22.2837  22.3287  23.3305  23.4441  24.2821
    24.7098  24.8247  25.2662  25.4698  25.9411  26.0733  26.1000  26.2641
    26.4893  26.5444  27.1758  28.0277  28.1880  28.2211  28.3046  28.3509
    28.6212  28.7705  29.0029  29.0546  29.5736  29.7507  30.0669  30.7072
    31.2600  31.2908  31.3926  31.6865  31.7465  31.8303  31.9136  32.1498
    32.1815  32.3311  32.4759

          k =-0.4687-0.2706 0.1456 (  5822 PWs)   bands (ev):

   -84.3080 -84.3035 -84.3018 -84.2817 -84.2568 -84.2413 -84.1967 -84.1946
   -43.6744 -43.6564 -43.5776 -43.5656 -43.5016 -43.4692 -43.4660 -43.4303
   -43.3540 -43.3394 -43.3338 -43.3196 -43.3138 -43.3055 -43.2823 -43.2770
   -43.2759 -43.2548 -43.2548 -43.2447 -43.2406 -43.2303 -43.2202 -43.1972
   -10.2969 -10.2618 -10.2115 -10.1765   3.7953   3.8831   4.1381   4.3430
     4.3523   4.4435   4.4974   4.5262   4.5904   4.6727   4.8297   4.9011
     5.0116   5.1422   5.1913   5.1959   5.2190   5.2309   5.2965   5.3920
     5.4467   5.4806   5.5626   5.5705   5.6576   5.7060   5.7207   5.8087
     5.8410   5.8907   5.8926   5.9144   5.9262   5.9952   6.0428   6.0738
     6.1052   6.1316   6.4538   6.5864   7.0558   7.2369   7.3441   7.3798
     7.4240   7.4431   7.7255   7.8828   8.1691   8.1880   8.2170   8.2760
    12.8861  13.4156  14.2077  14.6720  16.4921  18.3541  18.5187  19.1300
    20.2868  20.3856  21.6001  22.3502  23.0620  23.0791  23.5412  24.2072
    24.5384  25.1556  25.3290  25.6536  25.8021  25.8177  26.2351  26.2539
    26.6738  27.0841  27.0927  27.2591  28.0425  28.3492  28.4472  28.5176
    28.6384  29.0461  29.0901  29.0904  29.1749  29.4514  29.8228  30.6540
    30.8675  30.9463  31.4050  31.4446  31.7304  32.2344  32.4146  32.4928
    32.6325  32.7830  32.9032

          k =-0.4687-0.2706-0.2912 (  5804 PWs)   bands (ev):

   -84.3037 -84.3037 -84.2658 -84.2657 -84.2564 -84.2564 -84.1630 -84.1630
   -43.6681 -43.6681 -43.5704 -43.5704 -43.4686 -43.4686 -43.4630 -43.4630
   -43.3336 -43.3336 -43.3245 -43.3245 -43.3051 -43.3051 -43.2784 -43.2784
   -43.2551 -43.2551 -43.2349 -43.2348 -43.2295 -43.2295 -43.2172 -43.2172
   -10.2827 -10.2825 -10.1907 -10.1905   3.8314   3.8315   4.2657   4.2657
     4.3584   4.3585   4.5630   4.5630   4.5734   4.5734   4.9472   4.9472
     5.0089   5.0089   5.1998   5.1998   5.2111   5.2111   5.3599   5.3599
     5.4779   5.4779   5.5436   5.5436   5.7485   5.7485   5.8085   5.8085
     5.8421   5.8421   5.8949   5.8949   5.9710   5.9711   6.0148   6.0148
     6.1104   6.1104   6.5189   6.5189   7.1626   7.1627   7.3892   7.3893
     7.4187   7.4189   7.7814   7.7815   8.1826   8.1827   8.2343   8.2343
    13.1176  13.1176  14.4433  14.4434  17.6783  17.6783  18.4543  18.4543
    20.1997  20.1997  22.4537  22.4537  22.5608  22.5608  24.2159  24.2160
    24.7928  24.7929  25.6382  25.6382  26.3345  26.3345  26.5096  26.5096
    26.5706  26.5706  27.0297  27.0297  27.4295  27.4295  28.5144  28.5145
    28.7486  28.7487  29.1200  29.1200  30.0231  30.0232  30.1796  30.1796
    30.4845  30.4845  31.6379  31.6381  31.9484  31.9486  32.5493  32.5498
    32.7624  32.8501  32.8507

          k =-0.4687 0.0902 0.0000 (  5827 PWs)   bands (ev):

   -84.3182 -84.3028 -84.2942 -84.2748 -84.2518 -84.2500 -84.2160 -84.1999
   -43.6776 -43.6631 -43.5815 -43.5421 -43.5272 -43.4633 -43.4621 -43.4173
   -43.3569 -43.3499 -43.3222 -43.3122 -43.3085 -43.3027 -43.2868 -43.2864
   -43.2818 -43.2628 -43.2564 -43.2546 -43.2405 -43.2344 -43.2171 -43.1986
   -10.3024 -10.2422 -10.2311 -10.1711   3.8613   4.0030   4.1088   4.2835
     4.2970   4.3075   4.4473   4.5899   4.6736   4.7013   4.8007   4.8339
     4.8808   5.0412   5.2182   5.2399   5.2716   5.3038   5.3311   5.4041
     5.4456   5.5187   5.5400   5.5680   5.6043   5.6708   5.6920   5.7441
     5.8662   5.8787   5.9023   5.9467   6.0170   6.0336   6.0733   6.1080
     6.1927   6.2000   6.3886   6.4921   7.0199   7.1373   7.2834   7.3682
     7.5059   7.5928   7.7431   7.8992   8.1046   8.1989   8.2282   8.2520
    12.7137  13.5921  14.2975  14.8521  15.9532  17.8558  17.9870  20.7091
    21.0186  21.1115  21.3014  22.1059  22.3275  23.3114  23.5002  23.5920
    24.2707  24.5251  25.1308  25.7356  25.9678  26.1133  26.2601  26.5351
    26.9719  27.0041  27.1384  27.2256  27.6412  27.6749  28.1044  28.5212
    28.7706  29.0774  29.2037  29.2715  29.8146  29.8284  30.1412  30.4283
    30.8492  31.0089  31.2763  31.2918  31.6034  31.7123  32.0130  32.5916
    32.6388  32.8078  32.9858

          k =-0.4687 0.0902 0.1456 (  5825 PWs)   bands (ev):

   -84.3050 -84.2980 -84.2954 -84.2745 -84.2645 -84.2585 -84.2061 -84.1944
   -43.6742 -43.6618 -43.5816 -43.5624 -43.5033 -43.4646 -43.4594 -43.4366
   -43.3544 -43.3440 -43.3290 -43.3148 -43.3138 -43.3079 -43.2853 -43.2816
   -43.2767 -43.2536 -43.2506 -43.2449 -43.2384 -43.2321 -43.2197 -43.2048
   -10.2973 -10.2619 -10.2114 -10.1762   3.8712   3.9579   4.1634   4.2510
     4.2947   4.3744   4.4640   4.5432   4.6004   4.6517   4.7863   4.8457
     4.9473   5.1037   5.1935   5.2228   5.2625   5.3096   5.3303   5.3847
     5.4437   5.5110   5.5549   5.5774   5.6506   5.6646   5.7377   5.7806
     5.8654   5.8785   5.9126   5.9689   6.0050   6.0215   6.0657   6.1012
     6.1128   6.1797   6.4051   6.4803   7.0752   7.1841   7.2859   7.3556
     7.4624   7.5400   7.7718   7.8846   8.1329   8.1783   8.2147   8.2351
    12.8075  13.4064  14.3790  14.7699  16.4873  17.8421  17.9379  19.2505
    21.0275  21.3093  21.8608  22.1783  22.6844  23.1192  23.7171  23.9184
    24.1264  24.4487  25.1368  25.5264  25.9985  26.1169  26.2726  26.5210
    26.8228  26.8887  27.2984  27.3947  27.7322  28.0240  28.3226  28.5795
    28.6783  28.7817  29.2266  29.4281  29.6161  29.6671  30.0145  30.3246
    30.8473  31.0879  31.1814  31.4671  31.6447  31.7735  31.9157  32.2433
    32.3113  32.7935  32.9242

          k =-0.4687 0.0902-0.2912 (  5824 PWs)   bands (ev):

   -84.2910 -84.2909 -84.2816 -84.2816 -84.2637 -84.2636 -84.2088 -84.2088
   -43.6691 -43.6691 -43.5729 -43.5729 -43.4698 -43.4698 -43.4615 -43.4615
   -43.3406 -43.3406 -43.3314 -43.3314 -43.3098 -43.3097 -43.2831 -43.2830
   -43.2643 -43.2643 -43.2424 -43.2423 -43.2322 -43.2322 -43.2184 -43.2184
   -10.2830 -10.2828 -10.1906 -10.1904   3.9063   3.9063   4.2163   4.2163
     4.3685   4.3686   4.4827   4.4827   4.5773   4.5773   4.7998   4.7998
     5.0861   5.0861   5.2036   5.2036   5.2598   5.2598   5.3619   5.3619
     5.4933   5.4933   5.5441   5.5441   5.6883   5.6883   5.8137   5.8137
     5.8620   5.8620   5.9664   5.9664   5.9910   5.9910   6.0504   6.0504
     6.1196   6.1196   6.4446   6.4446   7.1714   7.1715   7.3352   7.3353
     7.4467   7.4469   7.8274   7.8276   8.1728   8.1729   8.1987   8.1988
    13.0628  13.0629  14.5921  14.5923  17.6541  17.6541  17.9034  17.9034
    21.1658  21.1658  22.2415  22.2415  22.7092  22.7093  23.9647  23.9647
    24.4732  24.4732  25.5610  25.5610  25.9817  25.9818  26.4518  26.4519
    26.6578  26.6578  27.2371  27.2371  27.8316  27.8316  28.2313  28.2314
    29.0298  29.0298  29.4087  29.4087  29.6659  29.6660  30.5268  30.5268
    30.8349  30.8349  31.3217  31.3217  31.4433  31.4434  32.0374  32.0375
    32.3150  32.3160  32.5689

     the Fermi energy is    27.8034 ev

!    total energy              =   -3243.84560585 Ry
     Harris-Foulkes estimate   =   -3243.84561363 Ry
     estimated scf accuracy    <       0.00000853 Ry

     The total energy is the sum of the following terms:

     one-electron contribution =   -1153.01827618 Ry
     hartree contribution      =     700.55983819 Ry
     xc contribution           =    -282.11427379 Ry
     ewald contribution        =   -2508.71049092 Ry
     smearing contrib. (-TS)   =      -0.56240315 Ry

     convergence has been achieved in   9 iterations

     Forces acting on atoms (Ry/au):

     atom    1 type  1   force =     0.00000000    0.00000000    0.01849352
     atom    2 type  1   force =     0.00000000    0.00000000    0.01849352
     atom    3 type  1   force =     0.00000000    0.00000000   -0.01849352
     atom    4 type  1   force =     0.00000000    0.00000000   -0.01849352
     atom    5 type  2   force =     0.00000000    0.00000000    0.00000000
     atom    6 type  2   force =     0.00000000    0.00000000    0.00000000
     atom    7 type  2   force =     0.00000000   -0.05154344    0.00000000
     atom    8 type  2   force =     0.04463793   -0.02577172    0.00000000
     atom    9 type  2   force =    -0.04463793   -0.02577172    0.00000000
     atom   10 type  2   force =     0.04463793    0.02577172    0.00000000
     atom   11 type  2   force =    -0.04463793    0.02577172    0.00000000
     atom   12 type  2   force =     0.00000000    0.05154344    0.00000000

     Total force =     0.131561     Total SCF correction =     0.000000


     entering subroutine stress ...

          total   stress  (Ry/bohr**3)                   (kbar)     P= -108.64
  -0.00056933   0.00000000   0.00000000        -83.75      0.00      0.00
   0.00000000  -0.00056933   0.00000000          0.00    -83.75      0.00
   0.00000000   0.00000000  -0.00107694          0.00      0.00   -158.42


     number of scf cycles    =   2
     number of bfgs steps    =   1

     enthalpy old            =   -3242.8059427299 Ry
     enthalpy new            =   -3243.8456058481 Ry

     CASE: enthalpy_new < enthalpy_old

     small trust_radius: resetting bfgs history

     new trust radius        =       0.2189947689 bohr
     new conv_thr            =       0.0000515434 Ry

     new unit-cell volume =   1564.00382 a.u.^3 (   231.76145 Ang^3 )

CELL_PARAMETERS (alat=  9.92348860)
   1.051653540   0.000000000   0.000000000
  -0.525826770   0.910758681   0.000000000
   0.000000000   0.000000000   1.670970091

ATOMIC_POSITIONS (crystal)
Mg       0.333333000   0.666667000   0.064131935
Mg       0.666667000   0.333333000   0.564131935
Mg       0.666667000   0.333333000   0.935868065
Mg       0.333333000   0.666667000   0.435868065
Zn       0.000000000   0.000000000   0.000000000
Zn       0.000000000   0.000000000   0.500000000
Zn       0.170941501   0.341883002   0.750000000
Zn       0.829058499   0.170941501   0.250000000
Zn       0.341883002   0.170941501   0.250000000
Zn       0.658116998   0.829058499   0.750000000
Zn       0.170941501   0.829058499   0.750000000
Zn       0.829058499   0.658116998   0.250000000



     Writing output data file Prototype-La-hP12-MgZn2.save
     NEW-OLD atomic charge density approx. for the potential
     NEW k-points:
        k(    1) = (   0.0000000   0.0000000   0.0000000), wk =   0.0833333
        k(    2) = (   0.0000000   0.0000000   0.1496137), wk =   0.1666667
        k(    3) = (   0.0000000   0.0000000  -0.2992274), wk =   0.0833333
        k(    4) = (   0.0000000   0.3659952   0.0000000), wk =   0.1666667
        k(    5) = (   0.0000000   0.3659952   0.1496137), wk =   0.3333333
        k(    6) = (   0.0000000   0.3659952  -0.2992274), wk =   0.1666667
        k(    7) = (  -0.4754418  -0.2744964   0.0000000), wk =   0.0833333
        k(    8) = (  -0.4754418  -0.2744964   0.1496137), wk =   0.1666667
        k(    9) = (  -0.4754418  -0.2744964  -0.2992274), wk =   0.0833333
        k(   10) = (  -0.4754418   0.0914988   0.0000000), wk =   0.1666667
        k(   11) = (  -0.4754418   0.0914988   0.1496137), wk =   0.3333333
        k(   12) = (  -0.4754418   0.0914988  -0.2992274), wk =   0.1666667

     total cpu time spent up to now is      860.4 secs

     Self-consistent Calculation

     iteration #  1     ecut=    40.00 Ry     beta=0.70
     CG style diagonalization
     c_bands:  1 eigenvalues not converged
     c_bands:  1 eigenvalues not converged
     c_bands:  1 eigenvalues not converged
     c_bands:  2 eigenvalues not converged
     c_bands:  1 eigenvalues not converged
     c_bands:  1 eigenvalues not converged
     ethr =  1.00E-06,  avg # of iterations = 21.4

     total cpu time spent up to now is      975.4 secs

     total energy              =   -3232.90036542 Ry
     Harris-Foulkes estimate   =   -3249.36646012 Ry
     estimated scf accuracy    <      19.50144790 Ry

     iteration #  2     ecut=    40.00 Ry     beta=0.70
     CG style diagonalization
     ethr =  8.41E-03,  avg # of iterations =  4.5

     total cpu time spent up to now is     1000.3 secs

     total energy              =   -3234.70939011 Ry
     Harris-Foulkes estimate   =   -3254.60047092 Ry
     estimated scf accuracy    <      44.65744890 Ry

     iteration #  3     ecut=    40.00 Ry     beta=0.70
     CG style diagonalization
     ethr =  8.41E-03,  avg # of iterations =  3.8

     total cpu time spent up to now is     1020.6 secs

     total energy              =   -3243.30443906 Ry
     Harris-Foulkes estimate   =   -3243.60117404 Ry
     estimated scf accuracy    <       0.48381496 Ry

     iteration #  4     ecut=    40.00 Ry     beta=0.70
     CG style diagonalization
     ethr =  2.09E-04,  avg # of iterations =  5.1

     total cpu time spent up to now is     1049.2 secs

     total energy              =   -3243.79659424 Ry
     Harris-Foulkes estimate   =   -3243.82003680 Ry
     estimated scf accuracy    <       0.04697114 Ry

     iteration #  5     ecut=    40.00 Ry     beta=0.70
     CG style diagonalization
     c_bands:  1 eigenvalues not converged
     c_bands:  1 eigenvalues not converged
     ethr =  2.02E-05,  avg # of iterations =  4.1

     total cpu time spent up to now is     1070.6 secs

     total energy              =   -3243.80037880 Ry
     Harris-Foulkes estimate   =   -3243.80605915 Ry
     estimated scf accuracy    <       0.00946256 Ry

     iteration #  6     ecut=    40.00 Ry     beta=0.70
     CG style diagonalization
     c_bands:  2 eigenvalues not converged
     ethr =  4.08E-06,  avg # of iterations =  4.4

     total cpu time spent up to now is     1093.4 secs

     total energy              =   -3243.80437900 Ry
     Harris-Foulkes estimate   =   -3243.80570199 Ry
     estimated scf accuracy    <       0.00334689 Ry

     iteration #  7     ecut=    40.00 Ry     beta=0.70
     CG style diagonalization
     ethr =  1.44E-06,  avg # of iterations =  3.4

     total cpu time spent up to now is     1111.0 secs

     total energy              =   -3243.80478391 Ry
     Harris-Foulkes estimate   =   -3243.80500959 Ry
     estimated scf accuracy    <       0.00049280 Ry

     iteration #  8     ecut=    40.00 Ry     beta=0.70
     CG style diagonalization
     ethr =  2.12E-07,  avg # of iterations =  3.9

     total cpu time spent up to now is     1130.8 secs

     End of self-consistent calculation

          k = 0.0000 0.0000 0.0000 (  5769 PWs)   bands (ev):

   -82.9260 -82.9080 -82.8230 -82.8229 -82.8173 -82.8016 -82.8016 -82.7212
   -42.3131 -42.1840 -42.1502 -42.0110 -41.9286 -41.9285 -41.9066 -41.9066
   -41.8825 -41.8825 -41.7927 -41.7927 -41.7697 -41.7423 -41.7423 -41.6893
   -41.6882 -41.6882 -41.6572 -41.6571 -41.6556 -41.6556 -41.6032 -41.5880
    -8.6255  -8.5176  -8.4071  -8.2987   4.4884   4.8395   4.9615   5.4711
     5.4711   5.5652   5.5652   5.5755   5.5755   5.7978   5.9096   5.9096
     6.2691   6.4619   6.4620   6.6284   6.6284   6.7011   6.7751   6.9218
     6.9218   7.3389   7.3443   7.3443   7.3792   7.3792   7.5222   7.5222
     7.5446   7.5584   7.6059   7.6059   7.6710   7.6710   8.0525   8.0526
     8.2154   8.2154   8.4010   8.4765   8.4823   9.1277   9.1277   9.3646
     9.5076   9.5076   9.6129   9.6129   9.7181   9.7839   9.9137   9.9137
    12.4621  14.4847  16.5064  18.4268  19.5069  19.9066  19.9066  21.5422
    21.5423  21.7982  22.4406  22.4406  22.6151  22.6152  23.5788  23.5788
    24.4605  26.1964  26.1964  27.4684  27.9214  28.4545  28.4546  29.1217
    29.1217  29.6331  29.6331  29.7244  29.8819  30.0233  30.7969  30.9798
    30.9799  31.1561  31.1562  32.3153  32.3155  32.3157  32.5023  32.8156
    33.1723  33.2185  33.2186  33.6695  33.6697  33.7960  33.7961  34.0566
    34.0976  34.0976  34.0982

          k = 0.0000 0.0000 0.1496 (  5780 PWs)   bands (ev):

   -82.9244 -82.9241 -82.8312 -82.8312 -82.8169 -82.8169 -82.7810 -82.7483
   -42.3024 -42.2208 -42.1200 -42.0175 -41.9351 -41.9351 -41.9193 -41.9193
   -41.8704 -41.8704 -41.8142 -41.8141 -41.7519 -41.7312 -41.7311 -41.6926
   -41.6784 -41.6784 -41.6654 -41.6654 -41.6653 -41.6653 -41.6087 -41.6012
    -8.6144  -8.5429  -8.3818  -8.3101   4.5187   4.7291   5.1149   5.4768
     5.4768   5.5224   5.5224   5.6396   5.6563   5.6563   5.8775   5.8776
     6.3329   6.4475   6.4475   6.5185   6.5185   6.6336   6.9224   7.0689
     7.0689   7.2980   7.3299   7.3299   7.4014   7.4014   7.4972   7.4972
     7.5433   7.5530   7.6114   7.6115   7.6660   7.6660   8.0653   8.0654
     8.1929   8.1929   8.4764   8.4786   8.5346   9.1423   9.1423   9.2243
     9.3690   9.3690   9.6894   9.7310   9.7310   9.7562   9.9004   9.9004
    12.6827  13.9968  17.1566  18.4481  19.5894  20.0441  20.0441  20.9756
    21.0679  21.0679  22.5807  22.5807  23.1089  23.1089  23.5252  23.5252
    24.9857  25.5030  25.5030  26.3534  29.0252  29.0252  29.1144  29.2641
    29.2642  29.7361  29.9177  29.9648  29.9649  30.0142  31.0133  31.0133
    31.1101  31.1101  31.6570  32.1700  32.1702  32.2295  32.5183  32.5184
    32.6797  32.8723  33.0048  33.3621  33.3622  33.4124  33.4125  33.9427
    34.0535  34.1029  34.1035

          k = 0.0000 0.0000-0.2992 (  5780 PWs)   bands (ev):

   -82.9244 -82.9244 -82.8193 -82.8193 -82.7933 -82.7932 -82.7932 -82.7932
   -42.2656 -42.2656 -42.0753 -42.0753 -41.9244 -41.9243 -41.9243 -41.9243
   -41.8326 -41.8326 -41.8326 -41.8326 -41.7492 -41.7491 -41.6909 -41.6909
   -41.6909 -41.6909 -41.6780 -41.6780 -41.6780 -41.6780 -41.5950 -41.5950
    -8.5840  -8.5839  -8.3408  -8.3407   4.5995   4.5995   5.3638   5.3639
     5.4954   5.4954   5.4955   5.4955   5.7784   5.7784   5.7784   5.7784
     6.4411   6.4412   6.4412   6.4412   6.4731   6.4731   7.1553   7.1553
     7.2498   7.2498   7.2498   7.2498   7.4465   7.4465   7.4465   7.4465
     7.5551   7.5551   7.6370   7.6371   7.6371   7.6371   8.1280   8.1280
     8.1280   8.1280   8.4789   8.4789   8.8674   8.8676   9.2175   9.2175
     9.2177   9.2177   9.7026   9.7027   9.8458   9.8458   9.8459   9.8459
    13.2489  13.2489  18.1298  18.1299  19.9392  19.9392  20.4576  20.4576
    20.4576  20.4576  22.9303  22.9303  22.9303  22.9303  24.3750  24.3750
    24.3751  24.3751  25.5658  25.5659  29.4968  29.4968  29.4969  29.4969
    29.6395  29.6395  30.3020  30.3021  30.5611  30.5611  30.5612  30.5612
    31.4511  31.4511  31.4511  31.4511  32.3317  32.3318  32.6990  32.6990
    32.6990  32.6991  32.7581  32.7581  33.2032  33.2033  33.6772  33.6772
    33.6772  33.7390  33.7391

          k = 0.0000 0.3660 0.0000 (  5787 PWs)   bands (ev):

   -82.9327 -82.9309 -82.8463 -82.8228 -82.8218 -82.7956 -82.7908 -82.7675
   -42.2458 -42.1679 -42.1230 -42.0389 -41.9544 -41.9192 -41.9025 -41.8852
   -41.8828 -41.8812 -41.8073 -41.7871 -41.7565 -41.7418 -41.7341 -41.7265
   -41.7054 -41.7011 -41.6899 -41.6772 -41.6733 -41.6475 -41.6318 -41.6277
    -8.5765  -8.4724  -8.4517  -8.3478   4.9070   5.1572   5.2496   5.5225
     5.5848   5.6672   5.7035   5.8229   5.9490   6.0435   6.1168   6.2090
     6.3483   6.4492   6.5513   6.6286   6.7292   6.8742   6.8841   6.8999
     6.9779   6.9926   7.0132   7.0524   7.1599   7.3197   7.3661   7.4015
     7.4559   7.4777   7.4818   7.5067   7.5353   7.6756   7.7193   7.7712
     7.8357   7.8697   8.0686   8.2917   8.5123   8.9001   9.0151   9.0824
     9.1114   9.2381   9.5412   9.6046   9.8612   9.9657  10.0274  10.0588
    13.5466  14.6529  16.1678  17.0618  17.1635  19.8010  20.3620  21.6688
    21.7890  22.2534  22.4245  23.3950  24.1782  24.6007  24.7858  24.9065
    25.5147  25.8095  26.4660  27.7598  27.7882  28.0340  28.1612  28.2438
    28.3437  28.6422  28.8983  29.3840  29.8073  29.8823  30.2723  30.5957
    30.7775  30.8483  30.9570  31.5345  31.5901  31.8783  31.9694  32.2874
    32.3257  33.0847  33.2370  33.3059  33.4771  33.5516  33.6197  34.1851
    34.3095  34.4368  34.9504

          k = 0.0000 0.3660 0.1496 (  5804 PWs)   bands (ev):

   -82.9564 -82.9336 -82.8404 -82.8353 -82.8155 -82.8151 -82.8123 -82.7853
   -42.2463 -42.1970 -42.1022 -42.0499 -41.9510 -41.9169 -41.9115 -41.9026
   -41.8792 -41.8681 -41.8282 -41.8070 -41.7461 -41.7385 -41.7285 -41.7256
   -41.7098 -41.7005 -41.6892 -41.6855 -41.6851 -41.6734 -41.6282 -41.6222
    -8.5678  -8.5064  -8.4180  -8.3567   4.9284   5.0714   5.3575   5.5109
     5.5941   5.6905   5.7322   5.8013   5.8439   5.9903   6.0634   6.1802
     6.4580   6.5072   6.5492   6.6675   6.6894   6.7567   6.8500   6.8868
     6.9906   7.0767   7.1012   7.1018   7.1823   7.2912   7.3802   7.4090
     7.4480   7.4768   7.4875   7.5182   7.5304   7.6073   7.6990   7.7640
     7.8203   7.8578   8.0983   8.2571   8.6196   8.8980   9.0214   9.0374
     9.1274   9.1892   9.5274   9.5957   9.9022   9.9308  10.0004  10.0375
    13.6639  14.4085  16.2868  16.8862  17.7965  19.8847  20.2887  20.6198
    21.7238  22.0519  22.9661  23.4337  24.3294  24.3965  24.8361  25.0532
    25.8720  25.9327  26.2905  27.0640  27.5836  28.1196  28.2651  28.5585
    28.6125  28.7578  28.9573  29.8005  29.9722  30.1248  30.3128  30.4459
    30.5225  30.8376  31.1023  31.1327  31.3133  31.8435  32.0172  32.3821
    32.6958  32.8071  33.0925  33.2217  33.5381  33.6434  34.1558  34.2258
    34.3934  34.5898  34.6935

          k = 0.0000 0.3660-0.2992 (  5816 PWs)   bands (ev):

   -82.9534 -82.9534 -82.8417 -82.8417 -82.8261 -82.8261 -82.8098 -82.8098
   -42.2304 -42.2304 -42.0762 -42.0762 -41.9389 -41.9389 -41.9105 -41.9105
   -41.8666 -41.8666 -41.8412 -41.8412 -41.7358 -41.7358 -41.7157 -41.7157
   -41.6995 -41.6995 -41.6989 -41.6989 -41.6861 -41.6861 -41.6268 -41.6267
    -8.5430  -8.5429  -8.3817  -8.3816   4.9841   4.9841   5.4727   5.4727
     5.6645   5.6645   5.7487   5.7487   5.8302   5.8302   6.1180   6.1180
     6.5795   6.5795   6.5799   6.5799   6.6892   6.6892   6.8475   6.8475
     7.0335   7.0335   7.1589   7.1589   7.3234   7.3234   7.3289   7.3290
     7.4842   7.4842   7.4938   7.4938   7.5400   7.5400   7.7289   7.7289
     7.8137   7.8137   8.1751   8.1752   8.8066   8.8067   9.0608   9.0610
     9.1019   9.1019   9.5345   9.5347   9.9456   9.9457   9.9772   9.9773
    13.9826  13.9827  16.6005  16.6006  19.0671  19.0671  20.0912  20.0912
    21.8366  21.8367  23.6800  23.6800  23.7435  23.7436  25.4654  25.4654
    25.6631  25.6631  26.5698  26.5698  28.1252  28.1253  28.6443  28.6443
    28.8277  28.8277  29.2821  29.2821  29.6584  29.6584  30.3177  30.3178
    30.7120  30.7121  31.0391  31.0391  31.8593  31.8593  32.6065  32.6066
    32.7117  32.7118  33.3741  33.3743  33.6511  33.6514  33.9807  33.9808
    34.0136  34.0139  34.3458

          k =-0.4754-0.2745 0.0000 (  5800 PWs)   bands (ev):

   -82.9626 -82.9301 -82.8575 -82.8271 -82.8086 -82.8026 -82.7999 -82.7830
   -42.2258 -42.1726 -42.0951 -42.0718 -41.9631 -41.9154 -41.9104 -41.8831
   -41.8830 -41.8771 -41.8160 -41.7851 -41.7664 -41.7477 -41.7344 -41.7255
   -41.7180 -41.6967 -41.6931 -41.6864 -41.6783 -41.6516 -41.6444 -41.6347
    -8.5485  -8.4782  -8.4463  -8.3755   5.0706   5.2276   5.3653   5.5460
     5.6696   5.6980   5.8508   5.8643   6.0495   6.1230   6.2439   6.5133
     6.5470   6.5852   6.5998   6.6277   6.6374   6.7287   6.7808   6.8241
     6.8965   7.0230   7.0273   7.0381   7.0484   7.1260   7.2142   7.3119
     7.3727   7.4146   7.4293   7.4824   7.4904   7.6056   7.6187   7.6453
     7.6836   7.7287   8.0803   8.2867   8.5511   8.8287   8.9938   8.9941
     9.0363   9.1715   9.4435   9.6168   9.9247  10.0192  10.0526  10.0847
    14.0140  14.7608  15.6291  16.4591  17.3603  19.8368  20.1086  21.7311
    21.8057  22.4425  22.4910  23.7769  24.0308  24.9759  25.1516  25.9579
    26.2773  26.3625  26.8180  27.0460  27.4894  27.7133  27.7435  28.0570
    28.2185  28.2509  28.8896  29.6442  29.9694  30.0088  30.1421  30.1539
    30.4850  30.5194  30.6430  30.7260  31.3904  31.5544  32.0117  32.6143
    33.0082  33.2578  33.4029  33.4823  33.5358  33.6528  33.8021  33.9529
    34.0148  34.1704  34.2921

          k =-0.4754-0.2745 0.1496 (  5822 PWs)   bands (ev):

   -82.9744 -82.9408 -82.8708 -82.8460 -82.8343 -82.8327 -82.8089 -82.7807
   -42.2214 -42.1935 -42.0885 -42.0752 -41.9710 -41.9224 -41.9172 -41.9007
   -41.8822 -41.8615 -41.8397 -41.8117 -41.7475 -41.7382 -41.7343 -41.7251
   -41.7182 -41.7067 -41.6917 -41.6904 -41.6898 -41.6719 -41.6473 -41.6382
    -8.5421  -8.4978  -8.4266  -8.3824   5.0820   5.1791   5.4415   5.5568
     5.6466   5.7188   5.7567   5.8293   6.0615   6.1860   6.2262   6.5158
     6.5221   6.5528   6.5945   6.6441   6.6527   6.6583   6.7859   6.8720
     6.9287   6.9511   7.0340   7.0386   7.1363   7.2101   7.2107   7.3385
     7.4047   7.4090   7.4309   7.4475   7.4803   7.5790   7.5906   7.6314
     7.6674   7.6948   8.0995   8.2484   8.6108   8.8153   9.0141   9.0157
     9.0362   9.1367   9.4375   9.5962   9.9524   9.9784  10.0272  10.0654
    14.0811  14.5917  15.7493  16.3682  17.8822  19.8892  20.0876  20.6584
    21.7687  21.8787  23.1982  23.7918  24.5700  24.8329  25.3092  25.8827
    26.0164  26.6849  26.9793  27.3100  27.3746  27.4326  27.8877  27.9213
    28.4034  28.8110  28.8469  28.9657  29.8477  30.1143  30.1983  30.2163
    30.5317  30.7647  30.8867  30.8944  31.0295  31.2613  31.5729  32.5832
    32.7691  32.7806  33.2717  33.3479  33.4982  33.9287  34.1784  34.2984
    34.3755  34.5869  34.6216

          k =-0.4754-0.2745-0.2992 (  5804 PWs)   bands (ev):

   -82.9580 -82.9580 -82.8426 -82.8426 -82.8158 -82.8158 -82.7839 -82.7839
   -42.2067 -42.2067 -42.0813 -42.0813 -41.9473 -41.9473 -41.9137 -41.9136
   -41.8514 -41.8514 -41.8315 -41.8315 -41.7274 -41.7274 -41.7166 -41.7166
   -41.6981 -41.6980 -41.6948 -41.6948 -41.6869 -41.6869 -41.6414 -41.6414
    -8.5239  -8.5236  -8.4007  -8.4005   5.1220   5.1220   5.5753   5.5754
     5.6118   5.6118   5.7759   5.7759   6.1045   6.1045   6.3937   6.3937
     6.5364   6.5364   6.5865   6.5865   6.7074   6.7074   6.7821   6.7821
     7.0019   7.0019   7.0104   7.0104   7.2271   7.2271   7.3338   7.3338
     7.3812   7.3812   7.4536   7.4536   7.5173   7.5173   7.5520   7.5520
     7.6772   7.6772   8.1662   8.1662   8.7203   8.7204   9.0659   9.0661
     9.0705   9.0706   9.4838   9.4840   9.9818   9.9819  10.0126  10.0127
    14.2941  14.2942  16.0872  16.0874  19.1160  19.1160  20.0120  20.0120
    21.6895  21.6895  24.0169  24.0169  24.1234  24.1234  25.8940  25.8941
    26.2845  26.2846  27.2376  27.2376  28.0397  28.0397  28.2288  28.2288
    28.4104  28.4104  28.7474  28.7474  29.0952  29.0952  30.2985  30.2985
    30.5064  30.5064  30.8534  30.8534  31.8643  31.8643  31.9846  31.9847
    32.4025  32.4026  33.6406  33.6407  33.8177  33.8179  34.3775  34.3777
    34.5984  34.5988  34.6653

          k =-0.4754 0.0915 0.0000 (  5827 PWs)   bands (ev):

   -82.9600 -82.9585 -82.8777 -82.8520 -82.8333 -82.8297 -82.8162 -82.7836
   -42.2279 -42.1752 -42.1092 -42.0671 -41.9838 -41.9116 -41.9026 -41.8938
   -41.8899 -41.8871 -41.8116 -41.7972 -41.7663 -41.7553 -41.7345 -41.7296
   -41.7231 -41.7050 -41.6966 -41.6910 -41.6859 -41.6663 -41.6499 -41.6443
    -8.5492  -8.4778  -8.4467  -8.3753   5.1339   5.2429   5.4716   5.5261
     5.6439   5.6511   5.7292   5.8776   6.0284   6.1294   6.2415   6.3478
     6.4399   6.4808   6.6248   6.6567   6.6866   6.7110   6.7897   6.9143
     6.9438   6.9466   7.0350   7.0478   7.1028   7.1787   7.2256   7.2914
     7.3810   7.4240   7.4468   7.5155   7.5317   7.5844   7.6330   7.6487
     7.8005   7.8081   8.0312   8.1446   8.5735   8.7114   8.8966   9.0295
     9.2056   9.2484   9.4678   9.5977   9.8390  10.0113  10.0339  10.0644
    13.9277  14.7785  15.8309  16.4983  17.3397  19.3539  19.4980  22.4418
    22.4897  22.6420  22.8105  23.5794  23.9422  24.8775  25.2424  25.2925
    25.9587  26.1081  26.6568  27.3749  27.6328  27.7309  27.9170  28.2151
    28.5837  28.7550  28.8516  28.9734  29.3307  29.3591  29.8654  30.3247
    30.5509  30.8261  30.9330  31.0153  31.5786  31.6675  32.0147  32.2071
    32.5914  32.8132  33.1105  33.2183  33.5760  33.6946  33.8199  34.2086
    34.5647  34.6158  34.7393

          k =-0.4754 0.0915 0.1496 (  5825 PWs)   bands (ev):

   -82.9605 -82.9555 -82.8559 -82.8537 -82.8394 -82.8297 -82.8139 -82.7917
   -42.2239 -42.1904 -42.0943 -42.0702 -41.9748 -41.9274 -41.9101 -41.9000
   -41.8824 -41.8666 -41.8294 -41.8122 -41.7481 -41.7382 -41.7342 -41.7302
   -41.7179 -41.7034 -41.6957 -41.6905 -41.6877 -41.6761 -41.6478 -41.6432
    -8.5426  -8.4979  -8.4265  -8.3820   5.1437   5.2165   5.5142   5.5271
     5.6189   5.7074   5.7444   5.8223   5.9750   6.0278   6.3292   6.3662
     6.4171   6.5222   6.5990   6.6281   6.6762   6.7749   6.8094   6.8310
     6.9377   6.9999   7.0286   7.0883   7.1537   7.1982   7.2683   7.2959
     7.4061   7.4174   7.4347   7.5355   7.5379   7.5635   7.6237   7.6425
     7.7059   7.7737   8.0435   8.1296   8.6339   8.7762   8.9032   9.0017
     9.1485   9.1968   9.4904   9.5943   9.8814   9.9842  10.0107  10.0383
    14.0135  14.5863  15.9574  16.4351  17.8758  19.3346  19.4426  20.7776
    22.5445  22.8381  23.4424  23.6605  24.3342  24.7683  25.3487  25.6249
    25.7494  26.0864  26.7186  27.1440  27.5758  27.7834  27.9546  28.1557
    28.5112  28.6174  28.9551  29.1515  29.4291  29.7322  30.1187  30.3954
    30.4978  30.5361  31.0325  31.2107  31.3536  31.4848  31.8622  32.1712
    32.6447  32.8836  32.9493  33.3356  33.5053  33.7044  33.7888  34.0601
    34.1766  34.5466  34.7068

          k =-0.4754 0.0915-0.2992 (  5824 PWs)   bands (ev):

   -82.9570 -82.9570 -82.8394 -82.8394 -82.8380 -82.8380 -82.8134 -82.8133
   -42.2091 -42.2091 -42.0782 -42.0782 -41.9517 -41.9517 -41.9088 -41.9088
   -41.8605 -41.8605 -41.8396 -41.8396 -41.7336 -41.7336 -41.7220 -41.7220
   -41.7082 -41.7082 -41.6975 -41.6975 -41.6880 -41.6880 -41.6476 -41.6476
    -8.5242  -8.5240  -8.4006  -8.4003   5.1758   5.1758   5.5364   5.5364
     5.6872   5.6872   5.7676   5.7676   5.9337   5.9337   6.3724   6.3724
     6.4701   6.4701   6.6188   6.6188   6.7191   6.7191   6.8278   6.8278
     6.9766   6.9766   7.0532   7.0533   7.2181   7.2181   7.3316   7.3316
     7.3951   7.3951   7.5122   7.5122   7.5408   7.5408   7.6015   7.6015
     7.6903   7.6903   8.0856   8.0856   8.7424   8.7425   8.9885   8.9886
     9.1008   9.1009   9.5422   9.5424   9.9493   9.9493   9.9932   9.9933
    14.2530  14.2531  16.2381  16.2382  19.0871  19.0871  19.3991  19.3991
    22.6940  22.6940  23.7875  23.7875  24.3297  24.3297  25.5690  25.5690
    26.0971  26.0971  27.1645  27.1646  27.6927  27.6927  28.1669  28.1669
    28.4056  28.4056  28.9436  28.9437  29.5035  29.5035  29.9387  29.9387
    30.7726  30.7726  31.1962  31.1962  31.5043  31.5043  32.3885  32.3886
    32.7157  32.7158  33.1811  33.1812  33.3704  33.3705  33.8677  33.8681
    34.1308  34.1313  34.4054

     the Fermi energy is    29.5494 ev

!    total energy              =   -3243.80490154 Ry
     Harris-Foulkes estimate   =   -3243.80491727 Ry
     estimated scf accuracy    <       0.00001908 Ry

     The total energy is the sum of the following terms:

     one-electron contribution =   -1090.55293475 Ry
     hartree contribution      =     683.12464674 Ry
     xc contribution           =    -283.25626559 Ry
     ewald contribution        =   -2552.57569431 Ry
     smearing contrib. (-TS)   =      -0.54465362 Ry

     convergence has been achieved in   8 iterations

     Forces acting on atoms (Ry/au):

     atom    1 type  1   force =     0.00000000    0.00000000    0.01179295
     atom    2 type  1   force =     0.00000000    0.00000000    0.01179295
     atom    3 type  1   force =     0.00000000    0.00000000   -0.01179295
     atom    4 type  1   force =     0.00000000    0.00000000   -0.01179295
     atom    5 type  2   force =     0.00000000    0.00000000    0.00000000
     atom    6 type  2   force =     0.00000000    0.00000000    0.00000000
     atom    7 type  2   force =     0.00000000    0.12756022    0.00000000
     atom    8 type  2   force =    -0.11047039    0.06378011    0.00000000
     atom    9 type  2   force =     0.11047039    0.06378011    0.00000000
     atom   10 type  2   force =    -0.11047039   -0.06378011    0.00000000
     atom   11 type  2   force =     0.11047039   -0.06378011    0.00000000
     atom   12 type  2   force =     0.00000000   -0.12756022    0.00000000

     Total force =     0.313346     Total SCF correction =     0.000000


     entering subroutine stress ...

          total   stress  (Ry/bohr**3)                   (kbar)     P=  226.47
   0.00138528   0.00000000   0.00000000        203.78      0.00      0.00
   0.00000000   0.00138528   0.00000000          0.00    203.78      0.00
   0.00000000   0.00000000   0.00184795          0.00      0.00    271.84


     number of scf cycles    =   3
     number of bfgs steps    =   2

     enthalpy old            =   -3243.8456058481 Ry
     enthalpy new            =   -3243.8049015413 Ry

     CASE: enthalpy_new > enthalpy_old

     new trust radius        =       0.0758776574 bohr

     trust_radius < trust_radius_min

     resetting bfgs history

     Message from routine bfgs:
     history already reset at previous step: stopping
     new conv_thr            =       0.0000515434 Ry

     new unit-cell volume =   1562.69479 a.u.^3 (   231.56747 Ang^3 )

CELL_PARAMETERS (alat=  9.92348860)
   1.051233405   0.000000000   0.000000000
  -0.525616702   0.910394834   0.000000000
   0.000000000   0.000000000   1.670906318

ATOMIC_POSITIONS (crystal)
Mg       0.333333000   0.666667000   0.064192820
Mg       0.666667000   0.333333000   0.564192820
Mg       0.666667000   0.333333000   0.935807180
Mg       0.333333000   0.666667000   0.435807180
Zn       0.000000000   0.000000000   0.000000000
Zn       0.000000000   0.000000000   0.500000000
Zn       0.170859742   0.341719485   0.750000000
Zn       0.829140258   0.170859742   0.250000000
Zn       0.341719485   0.170859742   0.250000000
Zn       0.658280515   0.829140258   0.750000000
Zn       0.170859742   0.829140258   0.750000000
Zn       0.829140258   0.658280515   0.250000000



     Writing output data file Prototype-La-hP12-MgZn2.save
     NEW-OLD atomic charge density approx. for the potential
     NEW k-points:
[...]
     5.5423   5.6386   5.6386   5.6493   5.6494   5.8718   5.9812   5.9812
     6.3381   6.5331   6.5331   6.7036   6.7037   6.7709   6.8474   6.9946
     6.9946   7.4225   7.4225   7.4312   7.4678   7.4678   7.6007   7.6007
     7.6258   7.6365   7.6889   7.6890   7.7568   7.7568   8.1310   8.1311
     8.3010   8.3010   8.3920   8.5706   8.5731   9.1353   9.1353   9.3686
     9.5090   9.5091   9.6053   9.6053   9.7118   9.7802   9.9082   9.9082
    12.4133  14.4543  16.4735  18.4145  19.5274  19.8728  19.8728  21.4733
    21.4734  21.8074  22.4448  22.4448  22.6207  22.6207  23.5827  23.5827
    24.4132  26.2030  26.2030  27.4446  27.9233  28.3990  28.3990  29.0917
    29.0917  29.6464  29.6464  29.7097  29.8565  30.0481  30.7859  30.9632
    30.9632  31.1498  31.1498  32.2355  32.2355  32.2741  32.4067  32.7380
    33.1376  33.2181  33.2182  33.5968  33.5970  33.7321  33.7323  33.9955
    34.0193  34.0197  34.1188

          k = 0.0000 0.0000 0.1496 (  6681 PWs)   bands (ev):

   -83.2052 -83.1950 -83.0931 -83.0931 -83.0877 -83.0877 -83.0801 -83.0653
   -42.2673 -42.2211 -42.1333 -42.0283 -41.9613 -41.9613 -41.9349 -41.9349
   -41.8731 -41.8731 -41.8153 -41.8153 -41.7659 -41.7302 -41.7301 -41.7159
   -41.6995 -41.6995 -41.6893 -41.6892 -41.6848 -41.6848 -41.6483 -41.6408
    -8.6106  -8.5381  -8.3765  -8.3045   4.5824   4.7899   5.1849   5.5491
     5.5491   5.5975   5.5975   5.7095   5.7291   5.7291   5.9488   5.9488
     6.3978   6.5176   6.5177   6.5896   6.5896   6.6988   6.9986   7.1499
     7.1499   7.3889   7.4104   7.4104   7.4852   7.4852   7.5763   7.5763
     7.6280   7.6374   7.6991   7.6991   7.7532   7.7532   8.1501   8.1501
     8.2794   8.2795   8.5263   8.5723   8.5733   9.1457   9.1457   9.2235
     9.3688   9.3688   9.6872   9.7283   9.7283   9.7526   9.8963   9.8963
    12.6364  13.9622  17.1149  18.4312  19.6134  20.0111  20.0111  20.9771
    21.0206  21.0206  22.5861  22.5861  23.1115  23.1115  23.5224  23.5224
    24.9556  25.5023  25.5023  26.3379  28.9802  28.9803  29.0904  29.2383
    29.2383  29.7404  29.9013  29.9739  29.9739  29.9992  30.9974  30.9974
    31.0933  31.0933  31.6497  32.1261  32.1261  32.1969  32.5006  32.5006
    32.5875  32.8586  32.9493  33.3408  33.3413  33.3438  33.3438  33.9020
    33.9738  34.0516  34.0519

          k = 0.0000 0.0000-0.2992 (  6718 PWs)   bands (ev):

   -83.2148 -83.2148 -83.1001 -83.1001 -83.1001 -83.1000 -83.0906 -83.0906
   -42.2457 -42.2457 -42.0824 -42.0824 -41.9606 -41.9606 -41.9606 -41.9606
   -41.8484 -41.8484 -41.8484 -41.8483 -41.7414 -41.7414 -41.7223 -41.7223
   -41.7223 -41.7223 -41.6918 -41.6918 -41.6918 -41.6918 -41.6583 -41.6583
    -8.5800  -8.5800  -8.3354  -8.3353   4.6662   4.6662   5.4317   5.4317
     5.5675   5.5675   5.5675   5.5675   5.8479   5.8479   5.8479   5.8479
     6.5099   6.5099   6.5099   6.5099   6.5421   6.5422   7.2411   7.2411
     7.3308   7.3308   7.3308   7.3308   7.5254   7.5254   7.5254   7.5254
     7.6321   7.6321   7.7261   7.7261   7.7261   7.7261   8.2142   8.2142
     8.2142   8.2142   8.5716   8.5716   8.8620   8.8621   9.2181   9.2181
     9.2182   9.2182   9.7023   9.7024   9.8410   9.8410   9.8411   9.8411
    13.2049  13.2050  18.0943  18.0944  19.9594  19.9594  20.4126  20.4126
    20.4126  20.4126  22.9351  22.9351  22.9351  22.9351  24.3651  24.3651
    24.3652  24.3652  25.5458  25.5458  29.4599  29.4599  29.4599  29.4599
    29.6191  29.6191  30.2830  30.2830  30.5409  30.5409  30.5409  30.5409
    31.4400  31.4400  31.4400  31.4400  32.3502  32.3503  32.6546  32.6547
    32.6548  32.6548  32.7194  32.7196  33.1127  33.1131  33.6425  33.6426
    33.6429  33.6499  33.6822

          k = 0.0000 0.3661 0.0000 (  6670 PWs)   bands (ev):

   -83.2026 -83.1895 -83.1048 -83.0902 -83.0825 -83.0780 -83.0666 -83.0647
   -42.2214 -42.1744 -42.1273 -42.0524 -41.9564 -41.9393 -41.9048 -41.9032
   -41.8921 -41.8809 -41.8161 -41.8127 -41.7685 -41.7504 -41.7301 -41.7298
   -41.7251 -41.7019 -41.6998 -41.6975 -41.6909 -41.6859 -41.6503 -41.6476
    -8.5723  -8.4674  -8.4464  -8.3420   4.9746   5.2241   5.3167   5.5926
     5.6571   5.7423   5.7728   5.8976   6.0219   6.1233   6.1890   6.2927
     6.4278   6.5275   6.6257   6.6982   6.8084   6.9451   6.9672   6.9682
     7.0517   7.0722   7.0945   7.1334   7.2329   7.3963   7.4461   7.4800
     7.5380   7.5609   7.5645   7.5973   7.6240   7.7615   7.8050   7.8530
     7.9138   7.9454   8.1585   8.3790   8.5143   8.8956   9.0300   9.0829
     9.1118   9.2417   9.5361   9.5983   9.8569   9.9661  10.0216  10.0514
    13.5123  14.6163  16.1416  17.0358  17.1297  19.7681  20.3242  21.6786
    21.7684  22.2677  22.4319  23.4033  24.1419  24.6070  24.7981  24.9121
    25.5287  25.8024  26.4774  27.7641  27.7741  28.0340  28.1664  28.2360
    28.3064  28.6499  28.8824  29.3702  29.8060  29.8326  30.2405  30.5750
    30.7612  30.8430  30.9187  31.5320  31.5801  31.8482  31.9290  32.2722
    32.2901  33.0376  33.2123  33.2706  33.4291  33.5034  33.5834  34.1127
    34.2411  34.3480  34.8670

          k = 0.0000 0.3661 0.1496 (  6685 PWs)   bands (ev):

   -83.2113 -83.1935 -83.1108 -83.0954 -83.0879 -83.0825 -83.0783 -83.0667
   -42.2183 -42.1900 -42.1113 -42.0648 -41.9520 -41.9361 -41.9191 -41.9156
   -41.8821 -41.8687 -41.8349 -41.8286 -41.7572 -41.7361 -41.7341 -41.7277
   -41.7260 -41.7123 -41.7060 -41.7038 -41.7015 -41.7014 -41.6491 -41.6461
    -8.5635  -8.5015  -8.4126  -8.3511   4.9950   5.1389   5.4277   5.5807
     5.6666   5.7665   5.8024   5.8780   5.9185   6.0632   6.1426   6.2631
     6.5367   6.5815   6.6253   6.7423   6.7658   6.8311   6.9303   6.9565
     7.0697   7.1544   7.1794   7.1848   7.2605   7.3725   7.4614   7.4901
     7.5317   7.5601   7.5705   7.6042   7.6167   7.6916   7.7802   7.8511
     7.8991   7.9375   8.1816   8.3441   8.6238   8.8925   9.0184   9.0517
     9.1343   9.1944   9.5233   9.5908   9.8975   9.9292   9.9958  10.0296
    13.6273  14.3718  16.2614  16.8564  17.7694  19.8539  20.2509  20.5975
    21.7348  22.0645  22.9746  23.4435  24.3426  24.4103  24.8171  25.0522
    25.8759  25.9264  26.2955  27.0614  27.5652  28.1229  28.2618  28.5310
    28.6139  28.7594  28.9527  29.7600  29.9416  30.1173  30.2812  30.4421
    30.5057  30.8194  31.0897  31.0999  31.2980  31.8276  31.9833  32.3595
    32.6686  32.7776  33.0510  33.1763  33.4988  33.5929  34.0970  34.1608
    34.3148  34.5405  34.6363

          k = 0.0000 0.3661-0.2992 (  6684 PWs)   bands (ev):

   -83.2011 -83.2011 -83.1011 -83.1010 -83.0800 -83.0799 -83.0789 -83.0789
   -42.2060 -42.2060 -42.0844 -42.0844 -41.9376 -41.9376 -41.9289 -41.9289
   -41.8621 -41.8621 -41.8475 -41.8475 -41.7357 -41.7357 -41.7229 -41.7228
   -41.7162 -41.7162 -41.7154 -41.7154 -41.7005 -41.7005 -41.6514 -41.6514
    -8.5383  -8.5382  -8.3761  -8.3760   5.0521   5.0521   5.5449   5.5449
     5.7391   5.7392   5.8251   5.8251   5.9050   5.9050   6.1977   6.1977
     6.6565   6.6565   6.6566   6.6566   6.7645   6.7645   6.9231   6.9232
     7.1131   7.1131   7.2387   7.2387   7.4078   7.4078   7.4117   7.4118
     7.5688   7.5688   7.5776   7.5776   7.6224   7.6224   7.8074   7.8074
     7.9002   7.9002   8.2587   8.2587   8.8048   8.8048   9.0658   9.0659
     9.1120   9.1121   9.5311   9.5312   9.9422   9.9423   9.9723   9.9723
    13.9463  13.9464  16.5721  16.5722  19.0428  19.0428  20.0573  20.0573
    21.8505  21.8505  23.6916  23.6916  23.7557  23.7557  25.4664  25.4665
    25.6631  25.6631  26.5632  26.5632  28.1026  28.1026  28.6375  28.6375
    28.8261  28.8261  29.2703  29.2703  29.6522  29.6522  30.3052  30.3052
    30.6882  30.6882  31.0147  31.0147  31.8375  31.8375  32.5750  32.5750
    32.6798  32.6798  33.3438  33.3439  33.5956  33.5958  33.9161  33.9165
    33.9720  33.9726  34.2982

          k =-0.4756-0.2746 0.0000 (  6656 PWs)   bands (ev):

   -83.1959 -83.1869 -83.1201 -83.0873 -83.0811 -83.0643 -83.0590 -83.0435
   -42.2012 -42.1733 -42.1035 -42.0731 -41.9507 -41.9304 -41.9044 -41.8910
   -41.8902 -41.8782 -41.8103 -41.8071 -41.7791 -41.7530 -41.7321 -41.7224
   -41.7119 -41.7075 -41.7043 -41.7035 -41.7012 -41.6916 -41.6482 -41.6414
    -8.5440  -8.4729  -8.4405  -8.3697   5.1388   5.2934   5.4318   5.6147
     5.7383   5.7734   5.9236   5.9377   6.1336   6.1992   6.3266   6.5997
     6.6388   6.6635   6.6715   6.7087   6.7104   6.8204   6.8518   6.8936
     6.9701   7.0999   7.1023   7.1044   7.1273   7.2084   7.2953   7.3976
     7.4511   7.5045   7.5157   7.5668   7.5785   7.6797   7.6910   7.7170
     7.7707   7.8149   8.1704   8.3734   8.5575   8.8266   8.9852   9.0127
     9.0389   9.1753   9.4394   9.6089   9.9191  10.0207  10.0470  10.0774
    13.9810  14.7234  15.6043  16.4385  17.3277  19.8189  20.0685  21.7257
    21.8208  22.4563  22.5002  23.7848  23.9876  24.9870  25.1673  25.9696
    26.2788  26.3801  26.8318  27.0461  27.4963  27.7085  27.7502  28.0677
    28.1825  28.2371  28.8287  29.6357  29.9471  29.9956  30.1166  30.1720
    30.4696  30.5271  30.6182  30.7188  31.3664  31.5251  31.9614  32.6018
    32.9484  33.2099  33.3389  33.4405  33.4873  33.6274  33.7916  33.9152
    33.9706  34.0538  34.2145

          k =-0.4756-0.2746 0.1496 (  6654 PWs)   bands (ev):

   -83.1970 -83.1828 -83.1055 -83.0773 -83.0754 -83.0727 -83.0645 -83.0576
   -42.1980 -42.1765 -42.0975 -42.0768 -41.9502 -41.9285 -41.9095 -41.9069
   -41.8815 -41.8644 -41.8332 -41.8214 -41.7528 -41.7380 -41.7300 -41.7212
   -41.7158 -41.7097 -41.7086 -41.7003 -41.6939 -41.6849 -41.6499 -41.6487
    -8.5372  -8.4924  -8.4210  -8.3765   5.1524   5.2468   5.5107   5.6280
     5.7165   5.7969   5.8295   5.9042   6.1462   6.2675   6.3060   6.6005
     6.6038   6.6455   6.6721   6.7227   6.7301   6.7516   6.8596   6.9462
     7.0034   7.0219   7.1019   7.1185   7.2203   7.2897   7.2928   7.4189
     7.4914   7.4946   7.5144   7.5360   7.5672   7.6492   7.6640   7.7194
     7.7510   7.7780   8.1853   8.3355   8.6134   8.8087   9.0103   9.0335
     9.0452   9.1438   9.4344   9.5920   9.9481   9.9785  10.0243  10.0575
    14.0516  14.5542  15.7278  16.3463  17.8586  19.8709  20.0559  20.6424
    21.7851  21.8930  23.2082  23.8024  24.5847  24.8479  25.2825  25.8939
    26.0179  26.6951  26.9846  27.3231  27.3842  27.4307  27.8789  27.9243
    28.3902  28.7733  28.8492  28.9691  29.8360  30.0952  30.1781  30.2066
    30.4875  30.7466  30.8671  30.8920  31.0117  31.2525  31.5547  32.5782
    32.7448  32.7524  33.2303  33.3112  33.4553  33.8575  34.1187  34.2141
    34.3569  34.5480  34.5629

          k =-0.4756-0.2746-0.2992 (  6672 PWs)   bands (ev):

   -83.1967 -83.1967 -83.0951 -83.0950 -83.0805 -83.0805 -83.0716 -83.0716
   -42.1938 -42.1938 -42.0866 -42.0866 -41.9303 -41.9303 -41.9206 -41.9206
   -41.8659 -41.8659 -41.8458 -41.8458 -41.7353 -41.7353 -41.7248 -41.7248
   -41.7210 -41.7210 -41.7094 -41.7093 -41.7035 -41.7035 -41.6498 -41.6498
    -8.5186  -8.5185  -8.3953  -8.3952   5.1896   5.1896   5.6446   5.6446
     5.6794   5.6794   5.8520   5.8520   6.1886   6.1886   6.4741   6.4741
     6.6188   6.6188   6.6777   6.6777   6.7845   6.7845   6.8527   6.8527
     7.0765   7.0765   7.0803   7.0803   7.3071   7.3071   7.4177   7.4178
     7.4665   7.4665   7.5296   7.5296   7.5961   7.5961   7.6333   7.6333
     7.7631   7.7631   8.2496   8.2496   8.7112   8.7112   9.0747   9.0748
     9.0841   9.0842   9.4775   9.4776   9.9774   9.9775  10.0076  10.0076
    14.2550  14.2551  16.0615  16.0615  19.0941  19.0941  19.9807  19.9807
    21.7050  21.7050  24.0307  24.0307  24.1355  24.1355  25.9019  25.9019
    26.2867  26.2867  27.2253  27.2253  28.0527  28.0527  28.2315  28.2315
    28.3882  28.3883  28.7363  28.7364  29.0865  29.0865  30.2757  30.2757
    30.4721  30.4721  30.8319  30.8319  31.8412  31.8412  31.9629  31.9629
    32.3842  32.3842  33.5993  33.5993  33.7723  33.7723  34.3211  34.3214
    34.5244  34.5256  34.6298

          k =-0.4756 0.0915 0.0000 (  6671 PWs)   bands (ev):

   -83.1976 -83.1962 -83.1159 -83.0932 -83.0826 -83.0765 -83.0648 -83.0555
   -42.2064 -42.1760 -42.1050 -42.0733 -41.9668 -41.9202 -41.9044 -41.8929
   -41.8908 -41.8898 -41.8160 -41.8106 -41.7762 -41.7497 -41.7340 -41.7338
   -41.7283 -41.7059 -41.7047 -41.6991 -41.6949 -41.6882 -41.6555 -41.6448
    -8.5446  -8.4725  -8.4410  -8.3695   5.2034   5.3104   5.5427   5.5983
     5.7143   5.7268   5.8026   5.9499   6.1067   6.2125   6.3188   6.4369
     6.5274   6.5600   6.7030   6.7352   6.7681   6.7886   6.8673   6.9996
     7.0151   7.0286   7.1055   7.1212   7.1811   7.2605   7.3070   7.3721
     7.4622   7.5066   7.5303   7.6009   7.6137   7.6708   7.7089   7.7354
     7.8888   7.8888   8.1174   8.2352   8.5800   8.7186   8.9032   9.0346
     9.2073   9.2486   9.4638   9.5924   9.8329  10.0070  10.0324  10.0606
    13.8994  14.7434  15.8110  16.4760  17.3114  19.3310  19.4715  22.4155
    22.5052  22.6509  22.8230  23.5886  23.9321  24.8911  25.2394  25.3088
    25.9741  26.1123  26.6555  27.3707  27.6138  27.7279  27.9218  28.2109
    28.5698  28.7635  28.8417  28.9377  29.3302  29.3608  29.8571  30.3109
    30.5374  30.8133  30.9033  30.9990  31.5533  31.6421  31.9693  32.1768
    32.5679  32.7736  33.0699  33.1904  33.5370  33.6694  33.7692  34.1481
    34.5093  34.5485  34.6695

          k =-0.4756 0.0915 0.1496 (  6660 PWs)   bands (ev):

   -83.1962 -83.1880 -83.1022 -83.0885 -83.0799 -83.0703 -83.0653 -83.0591
   -42.2006 -42.1770 -42.0973 -42.0780 -41.9572 -41.9164 -41.9142 -41.9017
   -41.8810 -41.8708 -41.8315 -41.8210 -41.7512 -41.7451 -41.7370 -41.7273
   -41.7206 -41.7049 -41.7017 -41.7005 -41.6959 -41.6918 -41.6521 -41.6481
    -8.5378  -8.4926  -8.4208  -8.3761   5.2156   5.2856   5.5869   5.5986
     5.6898   5.7821   5.8186   5.8960   6.0533   6.1074   6.4095   6.4518
     6.5041   6.6017   6.6797   6.7061   6.7551   6.8551   6.8862   6.9077
     7.0145   7.0743   7.1017   7.1725   7.2331   7.2780   7.3493   7.3749
     7.4879   7.5006   7.5191   7.6170   7.6236   7.6495   7.7048   7.7269
     7.7886   7.8565   8.1296   8.2186   8.6384   8.7818   8.9056   9.0091
     9.1540   9.1977   9.4872   9.5911   9.8754   9.9819  10.0069  10.0344
    13.9821  14.5535  15.9359  16.4157  17.8504  19.3079  19.4167  20.7593
    22.5547  22.8503  23.4539  23.6712  24.3425  24.7845  25.3540  25.6150
    25.7555  26.0939  26.7226  27.1462  27.5696  27.7678  27.9545  28.1543
    28.5023  28.6133  28.9435  29.1255  29.4250  29.7273  30.1048  30.3842
    30.4715  30.5171  31.0102  31.1964  31.3328  31.4568  31.8431  32.1453
    32.6086  32.8505  32.9177  33.2992  33.4711  33.6637  33.7462  34.0120
    34.1308  34.4881  34.6524

          k =-0.4756 0.0915-0.2992 (  6660 PWs)   bands (ev):

   -83.1922 -83.1922 -83.0881 -83.0881 -83.0762 -83.0762 -83.0686 -83.0686
   -42.1884 -42.1884 -42.0864 -42.0864 -41.9359 -41.9359 -41.9098 -41.9098
   -41.8590 -41.8590 -41.8460 -41.8460 -41.7392 -41.7392 -41.7259 -41.7259
   -41.7190 -41.7190 -41.7078 -41.7078 -41.6953 -41.6953 -41.6486 -41.6485
    -8.5191  -8.5190  -8.3947  -8.3946   5.2459   5.2459   5.6083   5.6083
     5.7597   5.7597   5.8430   5.8430   6.0124   6.0124   6.4586   6.4586
     6.5514   6.5514   6.6989   6.6989   6.7939   6.7939   6.9048   6.9048
     7.0505   7.0505   7.1327   7.1327   7.2988   7.2988   7.4149   7.4149
     7.4784   7.4784   7.5985   7.5985   7.6236   7.6236   7.6853   7.6853
     7.7702   7.7702   8.1722   8.1722   8.7404   8.7404   8.9958   8.9958
     9.1080   9.1081   9.5383   9.5384   9.9440   9.9440   9.9907   9.9908
    14.2199  14.2199  16.2172  16.2172  19.0647  19.0647  19.3721  19.3721
    22.7050  22.7050  23.8014  23.8014  24.3424  24.3425  25.5780  25.5780
    26.1030  26.1031  27.1609  27.1610  27.6858  27.6858  28.1655  28.1655
    28.3736  28.3736  28.9364  28.9364  29.4990  29.4990  29.9235  29.9235
    30.7484  30.7484  31.1783  31.1783  31.4785  31.4785  32.3725  32.3726
    32.6882  32.6883  33.1411  33.1412  33.3380  33.3382  33.8212  33.8214
    34.0786  34.0790  34.3577

     the Fermi energy is    29.5348 ev

!    total energy              =   -3245.29830489 Ry
     Harris-Foulkes estimate   =   -3245.29833872 Ry
     estimated scf accuracy    <       0.00003705 Ry

     The total energy is the sum of the following terms:

     one-electron contribution =   -1092.35413790 Ry
     hartree contribution      =     684.23864152 Ry
     xc contribution           =    -283.46811430 Ry
     ewald contribution        =   -2553.16823012 Ry
     smearing contrib. (-TS)   =      -0.54646410 Ry

     convergence has been achieved in  14 iterations

     Forces acting on atoms (Ry/au):

     atom    1 type  1   force =     0.00000000    0.00000000    0.01316298
     atom    2 type  1   force =     0.00000000    0.00000000    0.01316298
     atom    3 type  1   force =     0.00000000    0.00000000   -0.01316298
     atom    4 type  1   force =     0.00000000    0.00000000   -0.01316298
     atom    5 type  2   force =     0.00000000    0.00000000    0.00000000
     atom    6 type  2   force =     0.00000000    0.00000000    0.00000000
     atom    7 type  2   force =     0.00000000    0.07201303    0.00000000
     atom    8 type  2   force =    -0.06236512    0.03600652    0.00000000
     atom    9 type  2   force =     0.06236512    0.03600652    0.00000000
     atom   10 type  2   force =    -0.06236512   -0.03600652    0.00000000
     atom   11 type  2   force =     0.06236512   -0.03600652    0.00000000
     atom   12 type  2   force =     0.00000000   -0.07201303    0.00000000

     Total force =     0.178349     Total SCF correction =     0.000000


     entering subroutine stress ...

          total   stress  (Ry/bohr**3)                   (kbar)     P=  526.36
   0.00353563   0.00000000   0.00000000        520.11      0.00      0.00
   0.00000000   0.00353563   0.00000000          0.00    520.11      0.00
   0.00000000   0.00000000   0.00366303          0.00      0.00    538.85


     Writing output data file Prototype-La-hP12-MgZn2.save
 
     init_run     :      6.23s CPU      9.01s WALL (       2 calls)
     electrons    :   1872.08s CPU   2154.89s WALL (       5 calls)
     update_pot   :      2.97s CPU      3.02s WALL (       3 calls)
     forces       :      6.86s CPU      7.15s WALL (       5 calls)
     stress       :     22.44s CPU     22.88s WALL (       5 calls)

     Called by init_run:
     wfcinit      :      5.09s CPU      6.34s WALL (       2 calls)
     potinit      :      0.52s CPU      0.53s WALL (       2 calls)

     Called by electrons:
     c_bands      :   1838.40s CPU   2083.81s WALL (      47 calls)
     sum_band     :     33.08s CPU     44.20s WALL (      47 calls)
     v_of_rho     :      0.13s CPU      0.15s WALL (      52 calls)
     mix_rho      :      0.12s CPU      0.16s WALL (      47 calls)

     Called by c_bands:
     init_us_2    :      2.24s CPU      2.62s WALL (    1272 calls)
     ccgdiagg     :   1706.62s CPU   1920.27s WALL (     695 calls)
     wfcrot       :    134.49s CPU    165.70s WALL (     707 calls)

     Called by *cgdiagg:
     h_psi        :   1203.86s CPU   1442.55s WALL (  517135 calls)
     cdiaghg      :      6.97s CPU      7.65s WALL (     707 calls)

     Called by h_psi:
     add_vuspsi   :    284.56s CPU    292.86s WALL (  517135 calls)

     General routines
     calbec       :    573.22s CPU    612.46s WALL ( 1033683 calls)
     fft          :      0.20s CPU      0.23s WALL (     231 calls)
     fftw         :    548.11s CPU    712.01s WALL ( 1307798 calls)
     davcio       :      1.57s CPU      3.86s WALL (    1836 calls)
 
     Parallel routines
     fft_scatter  :    205.85s CPU    278.31s WALL ( 1308029 calls)
 
     PWSCF        : 31m51.07s CPU    36m40.75s WALL

 
   This run was terminated on:   1:16:19  22Mar2018            

=------------------------------------------------------------------------------=
   JOB DONE.
=------------------------------------------------------------------------------=
