
     Program PWSCF v.5.0.2 starts on 22Mar2018 at 16: 4:10 

     This program is part of the open-source Quantum ESPRESSO suite
     for quantum simulation of materials; please cite
         "P. Giannozzi et al., J. Phys.:Condens. Matter 21 395502 (2009);
          URL http://www.quantum-espresso.org", 
     in publications or presentations arising from this work. More details at
     http://www.quantum-espresso.org/quote.php

     Parallel version (MPI), running on     4 processors
     R & G space division:  proc/nbgrp/npool/nimage =       4

     Current dimensions of program PWSCF are:
     Max number of different atomic species (ntypx) = 10
     Max number of k-points (npk) =  40000
     Max angular momentum in pseudopotentials (lmaxx) =  3
     Waiting for input...
     Reading input from standard input

     Subspace diagonalization in iterative solution of the eigenvalue problem:
     a serial algorithm will be used

 
     Parallelization info
     --------------------
     sticks:   dense  smooth     PW     G-vecs:    dense   smooth      PW
     Min         207     207     61                 7381     7381    1191
     Max         208     208     62                 7386     7386    1192
     Sum         829     829    247                29529    29529    4767
 


     bravais-lattice index     =            0
     lattice parameter (alat)  =       7.0151  a.u.
     unit-cell volume          =     862.2778 (a.u.)^3
     number of atoms/cell      =           12
     number of atomic types    =            2
     number of electrons       =       264.00
     number of Kohn-Sham states=          158
     kinetic-energy cutoff     =      40.0000  Ry
     charge density cutoff     =     160.0000  Ry
     convergence threshold     =      1.0E-04
     mixing beta               =       0.7000
     number of iterations used =            8  plain     mixing
     Exchange-correlation      = SLA-PZ-NOGX-NOGC ( 1 1 0 0 0)
     EXX-fraction              =        0.00
     nstep                     =           50


     celldm(1)=   7.015105  celldm(2)=   0.000000  celldm(3)=   0.000000
     celldm(4)=   0.000000  celldm(5)=   0.000000  celldm(6)=   0.000000

     crystal axes: (cart. coord. in units of alat)
               a(1) = (   1.000000   0.000000   0.000000 )  
               a(2) = (   0.000000   1.315963   0.000000 )  
               a(3) = (   0.000000   0.000000   1.898020 )  

     reciprocal axes: (cart. coord. in units 2 pi/alat)
               b(1) = (  1.000000  0.000000  0.000000 )  
               b(2) = (  0.000000  0.759900  0.000000 )  
               b(3) = (  0.000000  0.000000  0.526865 )  


     PseudoPot. # 1 for Tm read from file:
     /home/cwx6513/pp.La/Tm.UPF
     MD5 check sum: 245516e0878b5372ceeb9443ded2c4e1
     Pseudo is Norm-conserving, Zval = 23.0
     Generated in analytical, separable form
     Using radial grid of 1269 points,  6 beta functions with: 
                l(1) =   0
                l(2) =   0
                l(3) =   1
                l(4) =   1
                l(5) =   2
                l(6) =   3

     PseudoPot. # 2 for Dy read from file:
     /home/cwx6513/pp.La/Dy.UPF
     MD5 check sum: 9597327bec62616a94a14d07f3fd9936
     Pseudo is Norm-conserving, Zval = 20.0
     Generated in analytical, separable form
     Using radial grid of 1265 points,  6 beta functions with: 
                l(1) =   0
                l(2) =   0
                l(3) =   1
                l(4) =   1
                l(5) =   2
                l(6) =   3

     atomic species   valence    mass     pseudopotential
        Co            23.00    58.93320     Tm( 1.00)
        Si            20.00    28.08550     Dy( 1.00)

      8 Sym. Ops., with inversion, found ( 6 have fractional translation)



   Cartesian axes

     site n.     atom                  positions (alat units)
         1           Co  tau(   1) = (   0.7500000   1.0875135   0.8270358  )
         2           Co  tau(   2) = (   0.2500000   0.2284499   1.0709846  )
         3           Co  tau(   3) = (   0.7500000   0.4295318   0.1219744  )
         4           Co  tau(   4) = (   0.2500000   0.8864316   1.7760460  )
         5           Co  tau(   5) = (   0.2500000   0.7067855   0.5358966  )
         6           Co  tau(   6) = (   0.7500000   0.6091779   1.3621238  )
         7           Co  tau(   7) = (   0.2500000   0.0488038   0.4131136  )
         8           Co  tau(   8) = (   0.7500000   1.2671596   1.4849068  )
         9           Si  tau(   9) = (   0.2500000   0.2669484   1.6960710  )
        10           Si  tau(  10) = (   0.7500000   1.0490149   0.2019494  )
        11           Si  tau(  11) = (   0.2500000   0.9249301   1.1509596  )
        12           Si  tau(  12) = (   0.7500000   0.3910333   0.7470608  )

     number of k points=    12  gaussian smearing, width (Ry)=  0.1000
                       cart. coord. in units 2pi/alat
        k(    1) = (   0.0000000   0.0000000   0.0000000), wk =   0.0833333
        k(    2) = (   0.0000000   0.0000000   0.1317162), wk =   0.1666667
        k(    3) = (   0.0000000   0.0000000  -0.2634324), wk =   0.0833333
        k(    4) = (   0.0000000   0.2532999   0.0000000), wk =   0.1666667
        k(    5) = (   0.0000000   0.2532999   0.1317162), wk =   0.3333333
        k(    6) = (   0.0000000   0.2532999  -0.2634324), wk =   0.1666667
        k(    7) = (  -0.5000000   0.0000000   0.0000000), wk =   0.0833333
        k(    8) = (  -0.5000000   0.0000000   0.1317162), wk =   0.1666667
        k(    9) = (  -0.5000000   0.0000000  -0.2634324), wk =   0.0833333
        k(   10) = (  -0.5000000   0.2532999   0.0000000), wk =   0.1666667
        k(   11) = (  -0.5000000   0.2532999   0.1317162), wk =   0.3333333
        k(   12) = (  -0.5000000   0.2532999  -0.2634324), wk =   0.1666667

     Dense  grid:    29529 G-vectors     FFT dimensions: (  30,  40,  54)

     Largest allocated arrays     est. size (Mb)     dimensions
        Kohn-Sham Wavefunctions         2.22 Mb     (    922,  158)
        NL pseudopotentials             3.38 Mb     (    922,  240)
        Each V/rho on FFT grid          0.26 Mb     (  16800)
        Each G-vector array             0.06 Mb     (   7386)
        G-vector shells                 0.06 Mb     (   7386)
     Largest temporary arrays     est. size (Mb)     dimensions
        Each subspace H/S matrix        0.38 Mb     ( 158, 158)
        Each <psi_i|beta_j> matrix      0.58 Mb     (    240,  158)
        Arrays for rho mixing           2.05 Mb     (  16800,   8)

     Initial potential from superposition of free atoms

     Starting from uniform charge
     Starting wfc are    0 randomized atomic wfcs

     total cpu time spent up to now is        3.7 secs

     Self-consistent Calculation

     iteration #  1     ecut=    40.00 Ry     beta=0.70
     CG style diagonalization
     c_bands:  1 eigenvalues not converged
     ethr =  1.00E-02,  avg # of iterations = 12.0

     total cpu time spent up to now is       64.5 secs

     total energy              =   -3596.49333494 Ry
     Harris-Foulkes estimate   =   -4528.76134448 Ry
     estimated scf accuracy    <    1189.06084940 Ry

     iteration #  2     ecut=    40.00 Ry     beta=0.70
     CG style diagonalization
     c_bands:  1 eigenvalues not converged
     ethr =  1.00E-02,  avg # of iterations =  9.5

     total cpu time spent up to now is      104.8 secs

     total energy              =   -3902.69238529 Ry
     Harris-Foulkes estimate   =   -4021.12044419 Ry
     estimated scf accuracy    <     166.21600043 Ry

     iteration #  3     ecut=    40.00 Ry     beta=0.70
     CG style diagonalization
     ethr =  1.00E-02,  avg # of iterations =  5.3

     total cpu time spent up to now is      126.7 secs

     total energy              =   -3947.87903183 Ry
     Harris-Foulkes estimate   =   -3972.64664156 Ry
     estimated scf accuracy    <      51.17480087 Ry

     iteration #  4     ecut=    40.00 Ry     beta=0.70
     CG style diagonalization
     ethr =  1.00E-02,  avg # of iterations =  3.6

     total cpu time spent up to now is      140.8 secs

     total energy              =   -3958.52439165 Ry
     Harris-Foulkes estimate   =   -3960.04642686 Ry
     estimated scf accuracy    <       2.85093897 Ry

     iteration #  5     ecut=    40.00 Ry     beta=0.70
     CG style diagonalization
     ethr =  1.08E-03,  avg # of iterations =  3.8

     total cpu time spent up to now is      156.2 secs

     total energy              =   -3959.28379343 Ry
     Harris-Foulkes estimate   =   -3959.48947017 Ry
     estimated scf accuracy    <       0.36523810 Ry

     iteration #  6     ecut=    40.00 Ry     beta=0.70
     CG style diagonalization
     c_bands:  1 eigenvalues not converged
     c_bands:  1 eigenvalues not converged
     c_bands:  1 eigenvalues not converged
     c_bands:  1 eigenvalues not converged
     ethr =  1.38E-04,  avg # of iterations =  3.9

     total cpu time spent up to now is      171.8 secs

     total energy              =   -3959.37479177 Ry
     Harris-Foulkes estimate   =   -3959.39799298 Ry
     estimated scf accuracy    <       0.04275398 Ry

     iteration #  7     ecut=    40.00 Ry     beta=0.70
     CG style diagonalization
     c_bands:  1 eigenvalues not converged
     c_bands:  1 eigenvalues not converged
     ethr =  1.62E-05,  avg # of iterations =  3.7

     total cpu time spent up to now is      186.4 secs

     total energy              =   -3959.38230709 Ry
     Harris-Foulkes estimate   =   -3959.38429979 Ry
     estimated scf accuracy    <       0.00313117 Ry

     iteration #  8     ecut=    40.00 Ry     beta=0.70
     CG style diagonalization
     c_bands:  1 eigenvalues not converged
     c_bands:  1 eigenvalues not converged
     ethr =  1.19E-06,  avg # of iterations =  4.2

     total cpu time spent up to now is      203.6 secs

     total energy              =   -3959.38320803 Ry
     Harris-Foulkes estimate   =   -3959.38339856 Ry
     estimated scf accuracy    <       0.00039210 Ry

     iteration #  9     ecut=    40.00 Ry     beta=0.70
     CG style diagonalization
     c_bands:  1 eigenvalues not converged
     ethr =  1.49E-07,  avg # of iterations =  3.7

     total cpu time spent up to now is      213.3 secs

     End of self-consistent calculation

          k = 0.0000 0.0000 0.0000 (  3675 PWs)   bands (ev):

   -56.8258 -56.8070 -56.8065 -56.7871 -56.6641 -56.6179 -56.5501 -56.5492
   -31.4764 -31.4685 -31.4671 -31.4655 -16.2979 -16.2414 -16.1935 -16.0917
   -16.0497 -16.0357 -16.0147 -16.0136 -16.0075 -15.9005 -15.8145 -15.7764
   -15.7227 -15.7076 -15.6706 -15.6668 -15.5886 -15.5669 -15.5456 -15.5348
   -15.4805 -15.3856 -15.2587 -15.2233   0.7459   0.8411   0.8660   0.8662
     0.8757   0.8906   0.8914   0.9453   1.2478   1.3273   1.3286   1.4291
    28.6065  28.8008  28.8390  28.9066  28.9169  29.1616  29.2947  29.3852
    29.7423  29.8406  29.8969  30.2587  30.3593  30.7220  30.8374  31.2598
    31.3374  31.3501  31.4330  31.5803  31.7157  31.8671  31.8745  31.9008
    32.1455  32.1815  32.4604  32.6048  32.6685  32.7036  32.8483  32.9203
    32.9883  33.2737  33.2998  33.8406  34.2186  34.3873  34.4711  34.5161
    34.7752  36.7105  36.8062  37.4701  39.1263  40.1601  40.2098  40.2363
    40.2490  40.8107  41.0443  41.6255  41.7603  41.7777  42.0851  42.2875
    42.6394  43.3449  43.4814  43.5075  43.5616  43.6477  43.6591  44.3998
    46.4959  48.1336  48.4644  48.8068  49.3105  50.4401  50.9402  54.1513
    54.3383  54.5223  54.9785  55.3145  55.4457  55.5858  56.2975  56.4740
    56.8009  56.8936  57.2523  57.3650  57.5574  57.6618  57.9673  58.0463
    58.0540  58.3048  58.4020  58.5284  58.6061  58.7601  59.0070  59.4282
    59.9036  59.9692  61.0389  61.0701  61.3414  62.2617  62.5203  62.6308
    62.6415  62.6698  62.8497  63.6216  63.6669  63.8728

          k = 0.0000 0.0000 0.1317 (  3675 PWs)   bands (ev):

   -56.8241 -56.8086 -56.8020 -56.7918 -56.6601 -56.6570 -56.5584 -56.5119
   -31.4727 -31.4716 -31.4675 -31.4669 -16.2826 -16.2189 -16.1971 -16.1333
   -16.0974 -16.0782 -16.0248 -15.9610 -15.9437 -15.9273 -15.8265 -15.8129
   -15.7176 -15.7171 -15.6726 -15.6463 -15.5605 -15.5600 -15.5459 -15.4936
   -15.4767 -15.4043 -15.2577 -15.2333   0.7625   0.8183   0.8690   0.8719
     0.8780   0.8852   0.9056   0.9399   1.2537   1.2923   1.3625   1.4133
    28.5606  28.6657  28.7452  28.7907  29.0605  29.1526  29.2931  29.4266
    29.9435  30.0417  30.1059  30.4181  30.6061  30.7469  30.7899  30.9902
    31.1932  31.3627  31.5343  31.5797  31.6201  31.7747  31.8039  31.9644
    32.1912  32.2120  32.3066  32.4597  32.4877  32.6898  32.8139  32.8837
    33.1088  33.3480  33.7559  33.7575  34.2001  34.2573  34.4036  34.5797
    34.8102  35.4932  37.0292  38.1019  39.0431  39.2262  40.4200  40.6236
    40.8812  40.9266  40.9523  41.4565  41.8002  41.8229  41.8819  42.2679
    42.2703  42.8105  43.1113  43.4364  43.4839  43.6050  44.9467  45.0480
    47.5980  47.7879  48.5059  48.5896  49.5244  50.5415  51.0672  52.5498
    53.4553  54.5867  54.8568  54.9890  55.8665  55.9674  56.0585  56.3116
    56.5763  56.8648  57.0261  57.2202  57.5363  57.7356  57.9827  58.1481
    58.2400  58.4266  58.7005  58.8164  58.8391  59.0358  59.1056  59.4276
    60.0930  60.1492  60.7686  61.1640  61.2469  61.8540  61.9515  62.0891
    62.3014  62.4163  63.6663  63.9184  64.2161  64.5383

          k = 0.0000 0.0000-0.2634 (  3690 PWs)   bands (ev):

   -56.8252 -56.8252 -56.8176 -56.8176 -56.6538 -56.6538 -56.5478 -56.5478
   -31.4759 -31.4759 -31.4700 -31.4700 -16.2476 -16.2476 -16.1654 -16.1654
   -16.1291 -16.1291 -15.9833 -15.9833 -15.8931 -15.8931 -15.8652 -15.8652
   -15.7161 -15.7161 -15.6604 -15.6604 -15.5538 -15.5538 -15.5321 -15.5321
   -15.4508 -15.4508 -15.2528 -15.2528   0.7912   0.7912   0.8706   0.8706
     0.8844   0.8844   0.9137   0.9137   1.2612   1.2612   1.3854   1.3854
    28.5509  28.5509  28.6542  28.6542  29.0856  29.0856  29.7717  29.7717
    29.8739  29.8739  30.4768  30.4768  30.6353  30.6353  30.9793  30.9793
    31.2497  31.2497  31.4262  31.4262  31.5133  31.5133  31.7717  31.7717
    32.2306  32.2306  32.5596  32.5596  32.6101  32.6101  32.8254  32.8254
    33.4084  33.4084  33.8122  33.8122  33.9836  33.9836  34.4878  34.4878
    34.7566  34.7566  37.8121  37.8121  38.8262  38.8262  40.8047  40.8047
    41.2215  41.2215  41.2718  41.2718  41.4430  41.4430  41.8894  41.8894
    42.2966  42.2966  43.2091  43.2091  43.5133  43.5133  46.2629  46.2629
    47.4694  47.4694  48.6547  48.6547  50.1003  50.1003  51.0227  51.0227
    54.1021  54.1021  54.9950  54.9950  55.4787  55.4787  55.9498  55.9498
    56.6749  56.6749  57.0503  57.0503  57.3495  57.3495  58.0604  58.0604
    58.5974  58.5974  59.0190  59.0190  59.1220  59.1220  59.9939  59.9939
    60.3598  60.3598  60.5327  60.5327  60.9232  60.9233  61.7136  61.7136
    62.8664  62.8665  63.8276  63.8278  64.4206  64.4209

          k = 0.0000 0.2533 0.0000 (  3664 PWs)   bands (ev):

   -56.8118 -56.8057 -56.7975 -56.7782 -56.6267 -56.6090 -56.5631 -56.5569
   -31.4785 -31.4779 -31.4627 -31.4528 -16.1988 -16.1744 -16.1142 -16.1028
   -16.0557 -16.0103 -15.9989 -15.9880 -15.9678 -15.9258 -15.8295 -15.7965
   -15.7795 -15.6654 -15.6572 -15.6158 -15.5696 -15.5661 -15.5258 -15.5074
   -15.4974 -15.4072 -15.3810 -15.3367   0.7679   0.8076   0.8614   0.8677
     0.8682   0.8944   0.8948   0.9242   1.2202   1.2507   1.3563   1.3902
    28.9246  29.0250  29.2292  29.2408  29.3929  29.5337  29.6297  29.6474
    29.8086  29.9965  30.0678  30.2823  30.4786  30.5209  30.8678  30.9382
    31.0307  31.1243  31.2736  31.4918  31.6113  31.7710  31.9611  32.0374
    32.2884  32.3017  32.3792  32.4886  32.6523  32.7024  33.1851  33.2345
    33.3243  33.3751  33.5981  33.8521  33.8893  33.9621  34.3667  34.6866
    34.8825  36.2021  37.2814  37.3308  39.2550  39.4374  39.9684  40.1433
    40.3010  40.3424  41.0057  41.0259  41.1383  41.8694  41.9273  42.1046
    42.1152  42.3351  42.7285  42.8586  43.0046  43.1705  43.4044  43.6338
    45.0819  45.6645  49.7797  50.8170  51.4663  52.1240  53.2694  53.8700
    54.1861  54.3829  54.8350  55.1872  55.2055  55.4684  55.8116  56.2968
    56.5924  56.6004  56.8946  56.9252  57.3079  57.5693  57.9224  58.2671
    58.5617  58.7336  58.8712  58.9854  59.3850  59.4692  59.7050  59.9061
    60.5175  60.8460  60.8643  61.0266  61.3233  61.7465  61.8896  62.1050
    62.8571  63.0511  63.2421  64.1956  64.3756  64.6595

          k = 0.0000 0.2533 0.1317 (  3669 PWs)   bands (ev):

   -56.8171 -56.8093 -56.7950 -56.7869 -56.6300 -56.6240 -56.5633 -56.5577
   -31.4817 -31.4776 -31.4625 -31.4579 -16.2082 -16.1632 -16.1484 -16.1078
   -16.0878 -16.0401 -15.9675 -15.9617 -15.9544 -15.9235 -15.8376 -15.8113
   -15.7633 -15.6724 -15.6387 -15.6148 -15.5836 -15.5661 -15.5572 -15.5274
   -15.4559 -15.4127 -15.3685 -15.3436   0.7739   0.8066   0.8571   0.8700
     0.8704   0.8938   0.8951   0.9126   1.2210   1.2401   1.3571   1.3865
    28.8928  28.9353  29.0095  29.1962  29.3797  29.5467  29.6949  29.7459
    29.9929  30.2103  30.2822  30.3295  30.4573  30.4805  30.7475  30.9429
    31.1612  31.3005  31.4149  31.4865  31.6392  31.7636  31.9527  31.9754
    32.0211  32.1948  32.3098  32.5221  32.6037  32.6113  32.8785  33.1528
    33.3031  33.6228  33.8277  33.8302  33.8904  34.0949  34.3898  34.6857
    34.8451  36.1024  36.4324  37.7200  38.8475  39.2809  40.1751  40.2997
    40.3838  40.5423  40.6525  40.8269  41.1094  41.4824  41.8854  42.1531
    42.3143  42.3671  42.7945  43.0022  43.0292  43.1081  43.5589  43.7098
    45.6556  46.8906  50.2965  50.4051  51.2040  51.9350  52.7526  53.1297
    53.5002  54.0588  54.2537  54.5741  55.2564  55.6631  56.5487  56.6553
    56.8564  56.9109  57.0319  57.1603  57.3216  57.7473  57.9807  58.1836
    58.6605  58.7692  59.1336  59.2428  59.5173  59.5239  59.9136  60.0762
    60.1091  60.5551  60.5919  60.8824  61.1923  61.8259  62.0918  62.4450
    62.5122  62.6831  63.2507  63.7040  64.0509  64.6212

          k = 0.0000 0.2533-0.2634 (  3666 PWs)   bands (ev):

   -56.8100 -56.8100 -56.7919 -56.7919 -56.6176 -56.6176 -56.5658 -56.5658
   -31.4803 -31.4803 -31.4587 -31.4587 -16.1895 -16.1895 -16.1261 -16.1261
   -16.0768 -16.0768 -15.9433 -15.9433 -15.9400 -15.9400 -15.8232 -15.8232
   -15.7128 -15.7128 -15.6211 -15.6211 -15.5775 -15.5775 -15.5535 -15.5535
   -15.4329 -15.4329 -15.3494 -15.3494   0.7918   0.7918   0.8676   0.8676
     0.8809   0.8809   0.9003   0.9003   1.2292   1.2292   1.3733   1.3733
    28.8535  28.8535  28.9686  28.9686  29.5576  29.5576  29.8184  29.8184
    30.0773  30.0773  30.4457  30.4457  30.5722  30.5722  30.9334  30.9334
    31.2809  31.2809  31.5332  31.5332  31.5866  31.5866  31.7709  31.7709
    32.1596  32.1596  32.3540  32.3540  32.4557  32.4557  32.9676  32.9676
    33.5761  33.5761  33.7428  33.7428  34.2701  34.2701  34.7531  34.7531
    34.8254  34.8254  37.0800  37.0800  38.8798  38.8798  40.4545  40.4545
    40.5090  40.5090  40.7985  40.7985  40.8674  40.8674  42.0335  42.0335
    42.5827  42.5827  42.7159  42.7159  43.3295  43.3295  43.4728  43.4728
    47.7317  47.7317  49.5581  49.5581  51.6699  51.6699  52.2164  52.2164
    53.4856  53.4856  54.7986  54.7986  54.9592  54.9592  56.3727  56.3727
    57.2339  57.2339  57.4573  57.4573  57.8130  57.8130  58.2668  58.2668
    58.3096  58.3096  59.3576  59.3576  59.6334  59.6334  59.9219  59.9220
    60.6616  60.6617  60.9269  60.9269  61.3904  61.3905  62.2436  62.2436
    62.4129  62.4129  62.6357  62.6357  64.4237  64.4238

          k =-0.5000 0.0000 0.0000 (  3722 PWs)   bands (ev):

   -56.8380 -56.8380 -56.8289 -56.8289 -56.6700 -56.6700 -56.5914 -56.5914
   -31.4951 -31.4951 -31.4823 -31.4823 -16.3242 -16.3242 -16.1828 -16.1828
   -16.1650 -16.1650 -16.0040 -16.0040 -15.9840 -15.9840 -15.8139 -15.8139
   -15.7465 -15.7465 -15.6550 -15.6550 -15.5214 -15.5214 -15.4846 -15.4846
   -15.4203 -15.4203 -15.2653 -15.2653   0.7502   0.7502   0.8305   0.8305
     0.9420   0.9420   0.9730   0.9730   1.3135   1.3135   1.3432   1.3432
    29.0468  29.0468  29.2970  29.2970  29.6418  29.6418  29.9431  29.9431
    30.1787  30.1787  30.4034  30.4034  30.6566  30.6566  30.7609  30.7609
    30.7952  30.7952  31.1165  31.1165  31.2745  31.2745  31.3456  31.3456
    31.7046  31.7046  32.1139  32.1139  32.4542  32.4542  32.7120  32.7120
    32.7534  32.7534  33.7682  33.7682  34.6045  34.6045  34.6790  34.6790
    36.9422  36.9422  38.8436  38.8436  38.9507  38.9507  40.5844  40.5844
    40.6599  40.6599  41.1124  41.1124  41.5766  41.5766  41.7165  41.7165
    42.4977  42.4977  42.8493  42.8493  43.5592  43.5592  44.4406  44.4406
    44.7222  44.7222  45.9894  45.9894  50.4487  50.4487  51.8694  51.8694
    52.8530  52.8530  53.5588  53.5588  54.2109  54.2109  56.0484  56.0484
    57.0636  57.0636  57.5020  57.5020  57.8030  57.8030  57.9683  57.9683
    58.4768  58.4768  59.2874  59.2874  60.2030  60.2031  60.5956  60.5957
    61.6212  61.6213  62.3643  62.3644  62.4173  62.4173  62.6597  62.6600
    62.7317  62.7317  64.1817  64.1817  64.2022  64.2023

          k =-0.5000 0.0000 0.1317 (  3710 PWs)   bands (ev):

   -56.8379 -56.8379 -56.8122 -56.8122 -56.6608 -56.6608 -56.5850 -56.5850
   -31.4932 -31.4932 -31.4784 -31.4784 -16.3162 -16.3162 -16.2291 -16.2291
   -16.0810 -16.0810 -16.0635 -16.0635 -15.9150 -15.9150 -15.8196 -15.8196
   -15.7892 -15.7892 -15.6256 -15.6256 -15.5356 -15.5356 -15.4648 -15.4648
   -15.4152 -15.4152 -15.2674 -15.2674   0.7525   0.7525   0.8428   0.8428
     0.9445   0.9445   0.9694   0.9694   1.3156   1.3156   1.3421   1.3421
    29.1030  29.1030  29.2835  29.2835  29.5548  29.5548  29.9788  29.9788
    30.1884  30.1884  30.4002  30.4002  30.5542  30.5542  30.8059  30.8059
    30.9108  30.9108  31.1529  31.1529  31.2224  31.2224  31.5624  31.5624
    31.6934  31.6934  32.0271  32.0271  32.4861  32.4861  32.5871  32.5871
    32.9713  32.9713  33.7265  33.7265  34.4321  34.4321  34.6498  34.6498
    36.7461  36.7461  38.2908  38.2908  39.2280  39.2280  40.5570  40.5570
    41.1022  41.1022  41.1567  41.1567  41.2970  41.2970  41.7398  41.7398
    42.4583  42.4583  43.2032  43.2032  43.4987  43.4987  43.9458  43.9458
    45.3168  45.3168  46.5417  46.5417  49.3813  49.3813  52.0241  52.0241
    53.5591  53.5591  53.8453  53.8453  54.1827  54.1827  55.5424  55.5424
    56.7065  56.7065  57.2074  57.2074  57.5728  57.5728  58.3932  58.3932
    58.6105  58.6105  59.4377  59.4377  60.0602  60.0602  60.5771  60.5772
    61.3914  61.3914  61.8104  61.8104  62.2579  62.2580  62.9388  62.9389
    63.6507  63.6508  63.7942  63.7943  64.4111  64.4114

          k =-0.5000 0.0000-0.2634 (  3680 PWs)   bands (ev):

   -56.8107 -56.8107 -56.8022 -56.8022 -56.6241 -56.6241 -56.5847 -56.5847
   -31.4839 -31.4839 -31.4746 -31.4746 -16.3104 -16.3104 -16.2308 -16.2308
   -16.0966 -16.0966 -16.0040 -16.0040 -15.8592 -15.8592 -15.8428 -15.8428
   -15.8194 -15.8194 -15.6032 -15.6032 -15.5497 -15.5497 -15.4462 -15.4462
   -15.3919 -15.3919 -15.2577 -15.2577   0.7596   0.7596   0.8553   0.8553
     0.9488   0.9488   0.9736   0.9736   1.3216   1.3216   1.3419   1.3419
    29.0649  29.0649  29.4046  29.4046  29.5836  29.5836  29.7994  29.7994
    30.2016  30.2016  30.3069  30.3069  30.7098  30.7098  30.8659  30.8659
    30.9588  30.9588  31.1473  31.1473  31.2001  31.2001  31.5880  31.5880
    31.9127  31.9127  32.1123  32.1123  32.2660  32.2660  32.3923  32.3923
    33.3140  33.3140  33.7727  33.7727  34.1166  34.1166  34.6259  34.6259
    36.5690  36.5690  37.8933  37.8933  39.5980  39.5980  40.5430  40.5430
    40.9835  40.9835  41.1927  41.1927  41.2308  41.2308  41.6937  41.6937
    42.7254  42.7254  43.2583  43.2583  43.6344  43.6344  43.6580  43.6580
    45.8124  45.8124  47.5198  47.5198  47.9908  47.9908  52.2744  52.2744
    53.4644  53.4644  54.0701  54.0701  54.3262  54.3262  56.0486  56.0486
    56.4505  56.4505  56.7612  56.7612  56.9580  56.9580  58.3830  58.3830
    58.8297  58.8297  59.7160  59.7160  59.8461  59.8461  60.9471  60.9471
    61.4169  61.4170  61.7146  61.7146  61.9977  61.9977  62.8719  62.8719
    63.3116  63.3116  63.8768  63.8769  64.1134  64.1134

          k =-0.5000 0.2533 0.0000 (  3686 PWs)   bands (ev):

   -56.8160 -56.8160 -56.8094 -56.8094 -56.6256 -56.6256 -56.5938 -56.5938
   -31.4886 -31.4886 -31.4781 -31.4781 -16.2254 -16.2254 -16.1633 -16.1633
   -16.1241 -16.1241 -16.0056 -16.0056 -15.8718 -15.8718 -15.8103 -15.8103
   -15.7674 -15.7674 -15.6591 -15.6591 -15.5325 -15.5325 -15.4983 -15.4983
   -15.4074 -15.4074 -15.3630 -15.3630   0.7669   0.7669   0.8089   0.8089
     0.9522   0.9522   0.9620   0.9620   1.3032   1.3032   1.3154   1.3154
    29.4719  29.4719  29.4963  29.4963  29.9012  29.9012  29.9900  29.9900
    30.2837  30.2837  30.3762  30.3762  30.8560  30.8560  30.9337  30.9337
    31.0910  31.0910  31.2748  31.2748  31.3535  31.3535  31.5509  31.5509
    31.8885  31.8885  31.9017  31.9017  32.3774  32.3774  32.7005  32.7005
    32.9667  32.9667  33.3306  33.3306  34.0331  34.0331  34.3762  34.3762
    37.2379  37.2379  38.5667  38.5667  39.1928  39.1928  39.7058  39.7058
    40.5425  40.5425  40.6442  40.6442  41.5067  41.5067  41.7083  41.7083
    42.2524  42.2524  42.4201  42.4201  42.6001  42.6001  43.6789  43.6789
    46.2415  46.2415  46.4771  46.4771  48.5065  48.5065  49.2092  49.2092
    54.1526  54.1526  55.2651  55.2651  56.2607  56.2607  57.0493  57.0493
    57.5852  57.5852  57.9070  57.9070  58.1354  58.1354  58.7054  58.7054
    58.8224  58.8224  59.3286  59.3286  60.5288  60.5288  60.6296  60.6297
    61.3204  61.3204  61.5422  61.5423  62.3880  62.3880  62.7089  62.7090
    63.4482  63.4482  63.6536  63.6537  64.4687  64.4808

          k =-0.5000 0.2533 0.1317 (  3692 PWs)   bands (ev):

   -56.8198 -56.8198 -56.8141 -56.8141 -56.6314 -56.6314 -56.5935 -56.5935
   -31.4867 -31.4867 -31.4825 -31.4825 -16.2414 -16.2414 -16.1469 -16.1469
   -16.1053 -16.1053 -16.0298 -16.0298 -15.8857 -15.8857 -15.8411 -15.8411
   -15.7327 -15.7327 -15.6284 -15.6284 -15.5347 -15.5347 -15.5144 -15.5144
   -15.4169 -15.4169 -15.3700 -15.3700   0.7721   0.7721   0.8128   0.8128
     0.9473   0.9473   0.9569   0.9569   1.2955   1.2955   1.3148   1.3148
    29.3523  29.3523  29.6339  29.6339  29.8315  29.8315  30.1185  30.1185
    30.2472  30.2472  30.4191  30.4191  30.6760  30.6760  30.9628  30.9628
    31.1478  31.1478  31.2560  31.2560  31.4036  31.4036  31.6919  31.6919
    31.8375  31.8375  32.0509  32.0509  32.4396  32.4396  32.5513  32.5513
    33.0427  33.0427  33.2834  33.2834  33.9275  33.9275  34.3556  34.3556
    37.1365  37.1365  37.9107  37.9107  39.3957  39.3957  40.0437  40.0437
    40.5282  40.5282  40.7139  40.7139  41.2396  41.2396  41.9203  41.9203
    42.1901  42.1901  42.4786  42.4786  42.6445  42.6445  43.6346  43.6346
    46.0059  46.0059  47.1846  47.1846  47.8066  47.8066  50.4555  50.4555
    54.1204  54.1204  54.4690  54.4690  56.0280  56.0280  56.6393  56.6393
    56.9630  56.9630  58.0316  58.0316  58.4743  58.4743  59.0047  59.0047
    59.1109  59.1109  59.5837  59.5837  60.3438  60.3438  60.6235  60.6235
    61.1386  61.1386  61.6015  61.6015  62.0521  62.0521  62.6340  62.6342
    63.1334  63.1335  63.8941  63.8942  64.0095  64.0095

          k =-0.5000 0.2533-0.2634 (  3704 PWs)   bands (ev):

   -56.8290 -56.8290 -56.8194 -56.8194 -56.6419 -56.6419 -56.5995 -56.5995
   -31.4894 -31.4894 -31.4853 -31.4853 -16.2557 -16.2557 -16.1127 -16.1127
   -16.1080 -16.1080 -16.0607 -16.0607 -15.9224 -15.9224 -15.8553 -15.8553
   -15.7041 -15.7041 -15.5888 -15.5888 -15.5668 -15.5668 -15.5277 -15.5277
   -15.4133 -15.4133 -15.3744 -15.3744   0.7697   0.7697   0.8164   0.8164
     0.9418   0.9418   0.9532   0.9532   1.2927   1.2927   1.3074   1.3074
    29.2668  29.2668  29.7307  29.7307  29.9160  29.9160  30.1091  30.1091
    30.2004  30.2004  30.4310  30.4310  30.5739  30.5739  31.0044  31.0044
    31.2353  31.2353  31.2543  31.2543  31.3021  31.3021  31.8809  31.8809
    31.9533  31.9533  32.1469  32.1469  32.3002  32.3002  32.5134  32.5134
    32.9324  32.9324  33.5382  33.5382  33.6903  33.6903  34.3210  34.3210
    37.1241  37.1241  37.3880  37.3880  39.7460  39.7460  39.8901  39.8901
    40.4930  40.4930  40.7191  40.7191  41.5655  41.5655  41.5747  41.5747
    42.1365  42.1365  42.4664  42.4664  43.0262  43.0262  43.5305  43.5305
    46.3070  46.3070  46.5686  46.5686  48.3014  48.3014  51.8438  51.8438
    53.0402  53.0402  54.2363  54.2363  55.5534  55.5534  56.2828  56.2828
    56.5925  56.5925  58.3127  58.3127  59.0179  59.0179  59.1366  59.1366
    59.2259  59.2258  59.6058  59.6058  60.1889  60.1890  60.7495  60.7496
    61.0701  61.0701  61.4314  61.4314  62.2306  62.2307  62.3268  62.3269
    62.9207  62.9208  63.5571  63.5572  64.1430  64.1431

     the Fermi energy is    57.5892 ev

!    total energy              =   -3959.38327972 Ry
     Harris-Foulkes estimate   =   -3959.38332481 Ry
     estimated scf accuracy    <       0.00005702 Ry

     The total energy is the sum of the following terms:

     one-electron contribution =      51.77088128 Ry
     hartree contribution      =     379.28906662 Ry
     xc contribution           =    -353.21733348 Ry
     ewald contribution        =   -4036.69478692 Ry
     smearing contrib. (-TS)   =      -0.53110722 Ry

     convergence has been achieved in   9 iterations

     Forces acting on atoms (Ry/au):

     atom    1 type  1   force =     0.00000000   -0.06140671   -0.09954371
     atom    2 type  1   force =     0.00000000    0.06140671    0.09954371
     atom    3 type  1   force =     0.00000000   -0.06140671    0.09954371
     atom    4 type  1   force =     0.00000000    0.06140671   -0.09954371
     atom    5 type  1   force =     0.00000000    0.08156508   -0.15172404
     atom    6 type  1   force =     0.00000000   -0.08156508    0.15172404
     atom    7 type  1   force =     0.00000000    0.08156508    0.15172404
     atom    8 type  1   force =     0.00000000   -0.08156508   -0.15172404
     atom    9 type  2   force =     0.00000000   -0.17715674    0.02876768
     atom   10 type  2   force =     0.00000000    0.17715674   -0.02876768
     atom   11 type  2   force =     0.00000000   -0.17715674   -0.02876768
     atom   12 type  2   force =     0.00000000    0.17715674    0.02876768

     Total force =     0.549781     Total SCF correction =     0.000000


     entering subroutine stress ...

          total   stress  (Ry/bohr**3)                   (kbar)     P= 7847.60
   0.05705231   0.00000000   0.00000000       8392.68      0.00      0.00
   0.00000000   0.05073420   0.00000000          0.00   7463.26      0.00
   0.00000000   0.00000000   0.05225413          0.00      0.00   7686.85


 %%%%%%%%%%%%%%%%%%%%%%%%%%%%%%%%%%%%%%%%%%%%%%%%%%%%%%%%%%%%%%%%%%%%%%%%%%%%%%
     Error in routine seqopn (27):
     error opening ./oP12-Co2Si-out/Prototype-La-oP12-Co2Si.update
 %%%%%%%%%%%%%%%%%%%%%%%%%%%%%%%%%%%%%%%%%%%%%%%%%%%%%%%%%%%%%%%%%%%%%%%%%%%%%%

     stopping ...
