
     Program PWSCF v.5.0.2 starts on 23Mar2018 at  0:57:24 

     This program is part of the open-source Quantum ESPRESSO suite
     for quantum simulation of materials; please cite
         "P. Giannozzi et al., J. Phys.:Condens. Matter 21 395502 (2009);
          URL http://www.quantum-espresso.org", 
     in publications or presentations arising from this work. More details at
     http://www.quantum-espresso.org/quote.php

     Parallel version (MPI), running on     4 processors
     R & G space division:  proc/nbgrp/npool/nimage =       4

     Current dimensions of program PWSCF are:
     Max number of different atomic species (ntypx) = 10
     Max number of k-points (npk) =  40000
     Max angular momentum in pseudopotentials (lmaxx) =  3
     Waiting for input...
     Reading input from standard input

     Subspace diagonalization in iterative solution of the eigenvalue problem:
     a serial algorithm will be used

 
     Parallelization info
     --------------------
     sticks:   dense  smooth     PW     G-vecs:    dense   smooth      PW
     Min          93      93     30                 1717     1717     310
     Max          94      94     31                 1720     1720     313
     Sum         373     373    121                 6871     6871    1247
 


     bravais-lattice index     =            0
     lattice parameter (alat)  =       5.4125  a.u.
     unit-cell volume          =     202.7222 (a.u.)^3
     number of atoms/cell      =            2
     number of atomic types    =            2
     number of electrons       =        35.00
     number of Kohn-Sham states=           22
     kinetic-energy cutoff     =      40.0000  Ry
     charge density cutoff     =     160.0000  Ry
     convergence threshold     =      1.0E-04
     mixing beta               =       0.7000
     number of iterations used =            8  plain     mixing
     Exchange-correlation      = SLA-PZ-NOGX-NOGC ( 1 1 0 0 0)
     EXX-fraction              =        0.00
     nstep                     =           50


     celldm(1)=   5.412493  celldm(2)=   0.000000  celldm(3)=   0.000000
     celldm(4)=   0.000000  celldm(5)=   0.000000  celldm(6)=   0.000000

     crystal axes: (cart. coord. in units of alat)
               a(1) = (   1.000000   0.000000   0.000000 )  
               a(2) = (   0.000000   1.000000   0.000000 )  
               a(3) = (   0.000000   0.000000   1.278525 )  

     reciprocal axes: (cart. coord. in units 2 pi/alat)
               b(1) = (  1.000000  0.000000  0.000000 )  
               b(2) = (  0.000000  1.000000  0.000000 )  
               b(3) = (  0.000000  0.000000  0.782151 )  


     PseudoPot. # 1 for Ho read from file:
     /home/cwx6513/pp.La/Ho.UPF
     MD5 check sum: f307ee11bce99f5b724fa279e3790763
     Pseudo is Norm-conserving, Zval = 21.0
     Generated in analytical, separable form
     Using radial grid of 1265 points,  6 beta functions with: 
                l(1) =   0
                l(2) =   0
                l(3) =   1
                l(4) =   1
                l(5) =   2
                l(6) =   3

     PseudoPot. # 2 for Nd read from file:
     /home/cwx6513/pp.La/Nd.UPF
     MD5 check sum: c66c5b6abe7b5840ced9b1e244e3bed6
     Pseudo is Norm-conserving, Zval = 14.0
     Generated in analytical, separable form
     Using radial grid of 1257 points,  6 beta functions with: 
                l(1) =   0
                l(2) =   0
                l(3) =   1
                l(4) =   1
                l(5) =   2
                l(6) =   3

     atomic species   valence    mass     pseudopotential
        Cu            21.00    63.54600     Ho( 1.00)
        Au            14.00   196.96600     Nd( 1.00)

     16 Sym. Ops., with inversion, found



   Cartesian axes

     site n.     atom                  positions (alat units)
         1           Cu  tau(   1) = (   0.5000000   0.5000000   0.6392626  )
         2           Au  tau(   2) = (   0.0000000   0.0000000   0.0000000  )

     number of k points=   100  gaussian smearing, width (Ry)=  0.1000

     Number of k-points >= 100: set verbosity='high' to print them.

     Dense  grid:     6871 G-vectors     FFT dimensions: (  24,  24,  27)

     Largest allocated arrays     est. size (Mb)     dimensions
        Kohn-Sham Wavefunctions         0.08 Mb     (    228,   22)
        NL pseudopotentials             0.14 Mb     (    228,   40)
        Each V/rho on FFT grid          0.06 Mb     (   4032)
        Each G-vector array             0.01 Mb     (   1720)
        G-vector shells                 0.01 Mb     (   1720)
     Largest temporary arrays     est. size (Mb)     dimensions
        Each subspace H/S matrix        0.01 Mb     (  22,  22)
        Each <psi_i|beta_j> matrix      0.01 Mb     (     40,   22)
        Arrays for rho mixing           0.49 Mb     (   4032,   8)

     Initial potential from superposition of free atoms

     Starting from uniform charge
     Starting wfc are    0 randomized atomic wfcs

     total cpu time spent up to now is        3.9 secs

     Self-consistent Calculation

     iteration #  1     ecut=    40.00 Ry     beta=0.70
     CG style diagonalization
     c_bands:  1 eigenvalues not converged
     c_bands:  1 eigenvalues not converged
     ethr =  1.00E-02,  avg # of iterations = 11.5

     total cpu time spent up to now is       15.7 secs

     total energy              =    -212.77826658 Ry
     Harris-Foulkes estimate   =    -506.80996715 Ry
     estimated scf accuracy    <     356.47920130 Ry

     iteration #  2     ecut=    40.00 Ry     beta=0.70
     CG style diagonalization
     c_bands:  2 eigenvalues not converged
     c_bands:  2 eigenvalues not converged
     c_bands:  2 eigenvalues not converged
     c_bands:  1 eigenvalues not converged
     c_bands:  2 eigenvalues not converged
     c_bands:  1 eigenvalues not converged
     c_bands:  2 eigenvalues not converged
     c_bands:  1 eigenvalues not converged
     c_bands:  1 eigenvalues not converged
     c_bands:  1 eigenvalues not converged
     c_bands:  1 eigenvalues not converged
     c_bands:  1 eigenvalues not converged
     c_bands:  1 eigenvalues not converged
     c_bands:  1 eigenvalues not converged
     c_bands:  1 eigenvalues not converged
     c_bands:  1 eigenvalues not converged
     c_bands:  1 eigenvalues not converged
     c_bands:  1 eigenvalues not converged
     c_bands:  1 eigenvalues not converged
     c_bands:  1 eigenvalues not converged
     c_bands:  1 eigenvalues not converged
     c_bands:  2 eigenvalues not converged
     c_bands:  2 eigenvalues not converged
     c_bands:  1 eigenvalues not converged
     c_bands:  1 eigenvalues not converged
     c_bands:  1 eigenvalues not converged
     c_bands:  1 eigenvalues not converged
     c_bands:  1 eigenvalues not converged
     c_bands:  1 eigenvalues not converged
     c_bands:  1 eigenvalues not converged
     c_bands:  1 eigenvalues not converged
     c_bands:  2 eigenvalues not converged
     c_bands:  1 eigenvalues not converged
     c_bands:  1 eigenvalues not converged
     c_bands:  1 eigenvalues not converged
     c_bands:  2 eigenvalues not converged
     c_bands:  2 eigenvalues not converged
     c_bands:  3 eigenvalues not converged
     c_bands:  1 eigenvalues not converged
     c_bands:  1 eigenvalues not converged
     c_bands:  1 eigenvalues not converged
     c_bands:  1 eigenvalues not converged
     c_bands:  2 eigenvalues not converged
     c_bands:  2 eigenvalues not converged
     c_bands:  2 eigenvalues not converged
     c_bands:  1 eigenvalues not converged
     c_bands:  4 eigenvalues not converged
     c_bands:  2 eigenvalues not converged
     c_bands:  2 eigenvalues not converged
     c_bands:  2 eigenvalues not converged
     c_bands:  2 eigenvalues not converged
     c_bands:  1 eigenvalues not converged
     ethr =  1.00E-02,  avg # of iterations = 12.9

     total cpu time spent up to now is       27.1 secs

     total energy              =    -308.28798735 Ry
     Harris-Foulkes estimate   =    -571.06453088 Ry
     estimated scf accuracy    <     533.71777895 Ry

     iteration #  3     ecut=    40.00 Ry     beta=0.70
     CG style diagonalization
     ethr =  1.00E-02,  avg # of iterations = 11.2

     total cpu time spent up to now is       36.5 secs

     total energy              =    -401.62328229 Ry
     Harris-Foulkes estimate   =    -409.67559318 Ry
     estimated scf accuracy    <      13.80620633 Ry

     iteration #  4     ecut=    40.00 Ry     beta=0.70
     CG style diagonalization
     ethr =  1.00E-02,  avg # of iterations =  4.2

     total cpu time spent up to now is       40.2 secs

     total energy              =    -403.27539102 Ry
     Harris-Foulkes estimate   =    -403.77502389 Ry
     estimated scf accuracy    <       1.11514310 Ry

     iteration #  5     ecut=    40.00 Ry     beta=0.70
     CG style diagonalization
     ethr =  3.19E-03,  avg # of iterations =  3.5

     negative rho (up, down):  0.206E-04 0.000E+00

     total cpu time spent up to now is       44.1 secs

     total energy              =    -403.31846258 Ry
     Harris-Foulkes estimate   =    -403.43616307 Ry
     estimated scf accuracy    <       0.17571079 Ry

     iteration #  6     ecut=    40.00 Ry     beta=0.70
     CG style diagonalization
     ethr =  5.02E-04,  avg # of iterations =  4.5

     total cpu time spent up to now is       47.0 secs

     total energy              =    -403.37627168 Ry
     Harris-Foulkes estimate   =    -403.43356972 Ry
     estimated scf accuracy    <       0.09295200 Ry

     iteration #  7     ecut=    40.00 Ry     beta=0.70
     CG style diagonalization
     ethr =  2.66E-04,  avg # of iterations =  3.6

     total cpu time spent up to now is       50.0 secs

     total energy              =    -403.38998047 Ry
     Harris-Foulkes estimate   =    -403.39135766 Ry
     estimated scf accuracy    <       0.00196930 Ry

     iteration #  8     ecut=    40.00 Ry     beta=0.70
     CG style diagonalization
     c_bands:  1 eigenvalues not converged
     c_bands:  1 eigenvalues not converged
     c_bands:  1 eigenvalues not converged
     c_bands:  1 eigenvalues not converged
     c_bands:  1 eigenvalues not converged
     c_bands:  1 eigenvalues not converged
     c_bands:  1 eigenvalues not converged
     c_bands:  1 eigenvalues not converged
     c_bands:  1 eigenvalues not converged
     c_bands:  1 eigenvalues not converged
     c_bands:  1 eigenvalues not converged
     c_bands:  1 eigenvalues not converged
     c_bands:  1 eigenvalues not converged
     ethr =  5.63E-06,  avg # of iterations =  5.1

     total cpu time spent up to now is       55.6 secs

     total energy              =    -403.39135199 Ry
     Harris-Foulkes estimate   =    -403.39149975 Ry
     estimated scf accuracy    <       0.00029396 Ry

     iteration #  9     ecut=    40.00 Ry     beta=0.70
     CG style diagonalization
     c_bands:  1 eigenvalues not converged
     c_bands:  1 eigenvalues not converged
     ethr =  8.40E-07,  avg # of iterations =  3.6

     total cpu time spent up to now is       59.0 secs

     End of self-consistent calculation

     Number of k-points >= 100: set verbosity='high' to print the bands.

     the Fermi energy is    35.1394 ev

!    total energy              =    -403.39135963 Ry
     Harris-Foulkes estimate   =    -403.39139549 Ry
     estimated scf accuracy    <       0.00004252 Ry

     The total energy is the sum of the following terms:

     one-electron contribution =     -23.44548768 Ry
     hartree contribution      =      47.62454049 Ry
     xc contribution           =     -40.10814202 Ry
     ewald contribution        =    -387.38215093 Ry
     smearing contrib. (-TS)   =      -0.08011950 Ry

     convergence has been achieved in   9 iterations

     Forces acting on atoms (Ry/au):

     atom    1 type  1   force =     0.00000000    0.00000000    0.00000000
     atom    2 type  2   force =     0.00000000    0.00000000    0.00000000

     Total force =     0.000000     Total SCF correction =     0.000000


     entering subroutine stress ...

          total   stress  (Ry/bohr**3)                   (kbar)     P= 1501.74
   0.01041703   0.00000000   0.00000000       1532.40      0.00      0.00
   0.00000000   0.01041703   0.00000000          0.00   1532.40      0.00
   0.00000000   0.00000000   0.00979177          0.00      0.00   1440.42


     BFGS Geometry Optimization

     number of scf cycles    =   1
     number of bfgs steps    =   0

     enthalpy new            =    -403.3913596296 Ry

     new trust radius        =       0.5000000000 bohr
     new conv_thr            =       0.0001000000 Ry

     new unit-cell volume =    326.40228 a.u.^3 (    48.36783 Ang^3 )

CELL_PARAMETERS (alat=  5.41249258)
   1.175585808   0.000000000   0.000000000
   0.000000000   1.175585808   0.000000000
   0.000000000   0.000000000   1.489541355

ATOMIC_POSITIONS (crystal)
Cu       0.500000000   0.500000000   0.500000000
Au       0.000000000   0.000000000   0.000000000



     Writing output data file Prototype-La-tP2-AuCu.save
     NEW-OLD atomic charge density approx. for the potential
     NEW k-points: (use verbosity='high' to print them)

     total cpu time spent up to now is       62.6 secs

     Self-consistent Calculation

     iteration #  1     ecut=    40.00 Ry     beta=0.70
     CG style diagonalization
     c_bands:  1 eigenvalues not converged
     c_bands:  1 eigenvalues not converged
     c_bands:  1 eigenvalues not converged
     c_bands:  1 eigenvalues not converged
     c_bands:  1 eigenvalues not converged
     c_bands:  2 eigenvalues not converged
     c_bands:  4 eigenvalues not converged
     c_bands:  2 eigenvalues not converged
     c_bands:  2 eigenvalues not converged
     c_bands:  1 eigenvalues not converged
     c_bands:  4 eigenvalues not converged
     c_bands:  3 eigenvalues not converged
     c_bands:  4 eigenvalues not converged
     c_bands:  2 eigenvalues not converged
     c_bands:  1 eigenvalues not converged
     c_bands:  5 eigenvalues not converged
     c_bands:  3 eigenvalues not converged
     c_bands:  5 eigenvalues not converged
     c_bands:  5 eigenvalues not converged
     c_bands:  1 eigenvalues not converged
     c_bands:  2 eigenvalues not converged
     c_bands:  1 eigenvalues not converged
     c_bands:  2 eigenvalues not converged
     c_bands:  3 eigenvalues not converged
     c_bands:  2 eigenvalues not converged
     c_bands:  1 eigenvalues not converged
     c_bands:  4 eigenvalues not converged
     c_bands:  5 eigenvalues not converged
     c_bands:  3 eigenvalues not converged
     c_bands:  3 eigenvalues not converged
     c_bands:  5 eigenvalues not converged
     c_bands:  1 eigenvalues not converged
     c_bands:  1 eigenvalues not converged
     c_bands:  3 eigenvalues not converged
     c_bands:  1 eigenvalues not converged
     c_bands:  3 eigenvalues not converged
     c_bands:  3 eigenvalues not converged
     c_bands:  3 eigenvalues not converged
     c_bands:  2 eigenvalues not converged
     c_bands:  2 eigenvalues not converged
     c_bands:  1 eigenvalues not converged
     c_bands:  4 eigenvalues not converged
     c_bands:  1 eigenvalues not converged
     c_bands:  5 eigenvalues not converged
     c_bands:  5 eigenvalues not converged
     c_bands:  4 eigenvalues not converged
     c_bands:  4 eigenvalues not converged
     c_bands:  2 eigenvalues not converged
     c_bands:  3 eigenvalues not converged
     c_bands:  2 eigenvalues not converged
     c_bands:  4 eigenvalues not converged
     c_bands:  2 eigenvalues not converged
     c_bands:  5 eigenvalues not converged
     c_bands:  4 eigenvalues not converged
     c_bands:  2 eigenvalues not converged
     c_bands:  4 eigenvalues not converged
     c_bands:  4 eigenvalues not converged
     c_bands:  4 eigenvalues not converged
     c_bands:  4 eigenvalues not converged
     c_bands:  3 eigenvalues not converged
     c_bands:  3 eigenvalues not converged
     ethr =  1.00E-06,  avg # of iterations = 16.6

     total cpu time spent up to now is       76.6 secs

     total energy              =    -397.12237949 Ry
     Harris-Foulkes estimate   =    -412.55730734 Ry
     estimated scf accuracy    <      19.82505942 Ry

     iteration #  2     ecut=    40.00 Ry     beta=0.70
     CG style diagonalization
     ethr =  1.00E-02,  avg # of iterations =  4.2

     total cpu time spent up to now is       79.9 secs

     total energy              =    -402.67363979 Ry
     Harris-Foulkes estimate   =    -404.23681382 Ry
     estimated scf accuracy    <       2.33945892 Ry

     iteration #  3     ecut=    40.00 Ry     beta=0.70
     CG style diagonalization
     ethr =  6.68E-03,  avg # of iterations =  3.6

     total cpu time spent up to now is       82.5 secs

     total energy              =    -403.28420348 Ry
     Harris-Foulkes estimate   =    -403.34043646 Ry
     estimated scf accuracy    <       0.14299761 Ry

     iteration #  4     ecut=    40.00 Ry     beta=0.70
     CG style diagonalization
     ethr =  4.09E-04,  avg # of iterations =  3.6

     total cpu time spent up to now is       84.7 secs

     total energy              =    -403.29637827 Ry
     Harris-Foulkes estimate   =    -403.30883687 Ry
     estimated scf accuracy    <       0.02223206 Ry

     iteration #  5     ecut=    40.00 Ry     beta=0.70
     CG style diagonalization
     ethr =  6.35E-05,  avg # of iterations =  3.8

     total cpu time spent up to now is       87.6 secs

     total energy              =    -403.30306224 Ry
     Harris-Foulkes estimate   =    -403.30342800 Ry
     estimated scf accuracy    <       0.00069960 Ry

     iteration #  6     ecut=    40.00 Ry     beta=0.70
     CG style diagonalization
     c_bands:  1 eigenvalues not converged
     c_bands:  1 eigenvalues not converged
     c_bands:  1 eigenvalues not converged
     c_bands:  1 eigenvalues not converged
     c_bands:  1 eigenvalues not converged
     ethr =  2.00E-06,  avg # of iterations =  4.2

     total cpu time spent up to now is       91.5 secs

     total energy              =    -403.30317076 Ry
     Harris-Foulkes estimate   =    -403.30332728 Ry
     estimated scf accuracy    <       0.00024556 Ry

     iteration #  7     ecut=    40.00 Ry     beta=0.70
     CG style diagonalization
     ethr =  7.02E-07,  avg # of iterations =  3.7

     total cpu time spent up to now is       93.5 secs

     End of self-consistent calculation

     Number of k-points >= 100: set verbosity='high' to print the bands.

     the Fermi energy is    20.2992 ev

!    total energy              =    -403.30322979 Ry
     Harris-Foulkes estimate   =    -403.30328802 Ry
     estimated scf accuracy    <       0.00006251 Ry

     The total energy is the sum of the following terms:

     one-electron contribution =    -104.46123328 Ry
     hartree contribution      =      70.42679495 Ry
     xc contribution           =     -38.59673631 Ry
     ewald contribution        =    -330.54286570 Ry
     smearing contrib. (-TS)   =      -0.12918945 Ry

     convergence has been achieved in   7 iterations

     Forces acting on atoms (Ry/au):

     atom    1 type  1   force =     0.00000000    0.00000000    0.00000000
     atom    2 type  2   force =     0.00000000    0.00000000    0.00000000

     Total force =     0.000000     Total SCF correction =     0.000000


     entering subroutine stress ...

          total   stress  (Ry/bohr**3)                   (kbar)     P= -936.93
  -0.00641658   0.00000000   0.00000000       -943.91      0.00      0.00
   0.00000000  -0.00641658   0.00000000          0.00   -943.91      0.00
   0.00000000   0.00000000  -0.00627413          0.00      0.00   -922.96


     number of scf cycles    =   2
     number of bfgs steps    =   1

     enthalpy old            =    -403.3913596296 Ry
     enthalpy new            =    -403.3032297877 Ry

     CASE: enthalpy_new > enthalpy_old

     new trust radius        =       0.2492951217 bohr

     trust_radius < trust_radius_min

     resetting bfgs history

     new conv_thr            =       0.0001000000 Ry

     new unit-cell volume =    315.19762 a.u.^3 (    46.70747 Ang^3 )

CELL_PARAMETERS (alat=  5.41249258)
   1.162673855   0.000000000   0.000000000
   0.000000000   1.162673855   0.000000000
   0.000000000   0.000000000   1.470534370

ATOMIC_POSITIONS (crystal)
Cu       0.500000000   0.500000000   0.500000000
Au       0.000000000   0.000000000   0.000000000



     Writing output data file Prototype-La-tP2-AuCu.save
     NEW-OLD atomic charge density approx. for the potential
     NEW k-points: (use verbosity='high' to print them)

     total cpu time spent up to now is       95.9 secs

     Self-consistent Calculation

     iteration #  1     ecut=    40.00 Ry     beta=0.70
     CG style diagonalization
     c_bands:  1 eigenvalues not converged
     c_bands:  1 eigenvalues not converged
     c_bands:  1 eigenvalues not converged
     c_bands:  1 eigenvalues not converged
     ethr =  1.00E-06,  avg # of iterations =  7.4

     total cpu time spent up to now is      103.1 secs

     total energy              =    -403.32159843 Ry
     Harris-Foulkes estimate   =    -403.43321536 Ry
     estimated scf accuracy    <       0.13973277 Ry

     iteration #  2     ecut=    40.00 Ry     beta=0.70
     CG style diagonalization
     ethr =  3.99E-04,  avg # of iterations =  3.7

     total cpu time spent up to now is      106.2 secs

     total energy              =    -403.36290164 Ry
     Harris-Foulkes estimate   =    -403.38715057 Ry
     estimated scf accuracy    <       0.03662494 Ry

     iteration #  3     ecut=    40.00 Ry     beta=0.70
     CG style diagonalization
     ethr =  1.05E-04,  avg # of iterations =  3.6

     total cpu time spent up to now is      109.2 secs

     total energy              =    -403.37230133 Ry
     Harris-Foulkes estimate   =    -403.37452370 Ry
     estimated scf accuracy    <       0.00427208 Ry

     iteration #  4     ecut=    40.00 Ry     beta=0.70
     CG style diagonalization
     ethr =  1.22E-05,  avg # of iterations =  3.4

     total cpu time spent up to now is      111.6 secs

     End of self-consistent calculation

     Number of k-points >= 100: set verbosity='high' to print the bands.

     the Fermi energy is    21.1607 ev

!    total energy              =    -403.37317002 Ry
     Harris-Foulkes estimate   =    -403.37320484 Ry
     estimated scf accuracy    <       0.00004946 Ry

     The total energy is the sum of the following terms:

     one-electron contribution =     -98.75307727 Ry
     hartree contribution      =      68.60324671 Ry
     xc contribution           =     -38.67891002 Ry
     ewald contribution        =    -334.41990563 Ry
     smearing contrib. (-TS)   =      -0.12452381 Ry

     convergence has been achieved in   4 iterations

     Forces acting on atoms (Ry/au):

     atom    1 type  1   force =     0.00000000    0.00000000    0.00000000
     atom    2 type  2   force =     0.00000000    0.00000000    0.00000000

     Total force =     0.000000     Total SCF correction =     0.000000


     entering subroutine stress ...

          total   stress  (Ry/bohr**3)                   (kbar)     P= -876.28
  -0.00598675   0.00000000   0.00000000       -880.68      0.00      0.00
   0.00000000  -0.00598675   0.00000000          0.00   -880.68      0.00
   0.00000000   0.00000000  -0.00589707          0.00      0.00   -867.49


     number of scf cycles    =   3
     number of bfgs steps    =   1

     enthalpy old            =    -403.3913596296 Ry
     enthalpy new            =    -403.3731700185 Ry

     CASE: enthalpy_new > enthalpy_old

     new trust radius        =       0.2438966595 bohr

     trust_radius < trust_radius_min

     resetting bfgs history

     Message from routine bfgs:
     history already reset at previous step: stopping
     new conv_thr            =       0.0001000000 Ry

     new unit-cell volume =    315.88269 a.u.^3 (    46.80898 Ang^3 )

CELL_PARAMETERS (alat=  5.41249258)
   1.163721778   0.000000000   0.000000000
   0.000000000   1.163721778   0.000000000
   0.000000000   0.000000000   1.471077517

ATOMIC_POSITIONS (crystal)
Cu       0.500000000   0.500000000   0.500000000
Au       0.000000000   0.000000000   0.000000000



     Writing output data file Prototype-La-tP2-AuCu.save
     NEW-OLD atomic charge density approx. for the potential
     NEW k-points: (use verbosity='high' to print them)

     total cpu time spent up to now is      114.0 secs

     Self-consistent Calculation

     iteration #  1     ecut=    40.00 Ry     beta=0.70
     CG style diagonalization
     c_bands:  1 eigenvalues not converged
     ethr =  1.00E-06,  avg # of iterations =  4.6

     total cpu time spent up to now is      117.8 secs

     total energy              =    -403.36883721 Ry
     Harris-Foulkes estimate   =    -403.36936313 Ry
     estimated scf accuracy    <       0.00064832 Ry

     iteration #  2     ecut=    40.00 Ry     beta=0.70
     CG style diagonalization
     ethr =  1.85E-06,  avg # of iterations =  3.7

     total cpu time spent up to now is      121.5 secs

     total energy              =    -403.36901817 Ry
     Harris-Foulkes estimate   =    -403.36919406 Ry
     estimated scf accuracy    <       0.00027760 Ry

     iteration #  3     ecut=    40.00 Ry     beta=0.70
     CG style diagonalization
     ethr =  7.93E-07,  avg # of iterations =  3.5

     total cpu time spent up to now is      125.2 secs

     End of self-consistent calculation

     Number of k-points >= 100: set verbosity='high' to print the bands.

     the Fermi energy is    21.1160 ev

!    total energy              =    -403.36908596 Ry
     Harris-Foulkes estimate   =    -403.36910247 Ry
     estimated scf accuracy    <       0.00002124 Ry

     The total energy is the sum of the following terms:

     one-electron contribution =     -99.11713871 Ry
     hartree contribution      =      68.72364048 Ry
     xc contribution           =     -38.67120925 Ry
     ewald contribution        =    -334.17969476 Ry
     smearing contrib. (-TS)   =      -0.12468372 Ry

     convergence has been achieved in   3 iterations

     Forces acting on atoms (Ry/au):

     atom    1 type  1   force =     0.00000000    0.00000000    0.00000000
     atom    2 type  2   force =     0.00000000    0.00000000    0.00000000

     Total force =     0.000000     Total SCF correction =     0.000000


     entering subroutine stress ...

          total   stress  (Ry/bohr**3)                   (kbar)     P= -887.65
  -0.00608653   0.00000000   0.00000000       -895.36      0.00      0.00
   0.00000000  -0.00608653   0.00000000          0.00   -895.36      0.00
   0.00000000   0.00000000  -0.00592936          0.00      0.00   -872.24


     The maximum number of steps has been reached.

     End of BFGS Geometry Optimization
Begin final coordinates
     new unit-cell volume =    315.88269 a.u.^3 (    46.80898 Ang^3 )

CELL_PARAMETERS (alat=  5.41249258)
   1.163721778   0.000000000   0.000000000
   0.000000000   1.163721778   0.000000000
   0.000000000   0.000000000   1.471077517

ATOMIC_POSITIONS (crystal)
Cu       0.500000000   0.500000000   0.500000000
Au       0.000000000   0.000000000   0.000000000
End final coordinates



     A final scf calculation at the relaxed structure.
     The G-vectors are recalculated for the final unit cell
     Results may differ from those at the preceding step.
 
     Parallelization info
     --------------------
     sticks:   dense  smooth     PW     G-vecs:    dense   smooth      PW
     Min         126     126     40                 2712     2712     468
     Max         127     127     41                 2713     2713     469
     Sum         505     505    161                10849    10849    1873
 


     bravais-lattice index     =            0
     lattice parameter (alat)  =       5.4125  a.u.
     unit-cell volume          =     315.8827 (a.u.)^3
     number of atoms/cell      =            2
     number of atomic types    =            2
     number of electrons       =        35.00
     number of Kohn-Sham states=           22
     kinetic-energy cutoff     =      40.0000  Ry
     charge density cutoff     =     160.0000  Ry
     convergence threshold     =      1.0E-04
     mixing beta               =       0.7000
     number of iterations used =            8  plain     mixing
     Exchange-correlation      = SLA-PZ-NOGX-NOGC ( 1 1 0 0 0)
     EXX-fraction              =        0.00

     celldm(1)=   5.412493  celldm(2)=   0.000000  celldm(3)=   0.000000
     celldm(4)=   0.000000  celldm(5)=   0.000000  celldm(6)=   0.000000

     crystal axes: (cart. coord. in units of alat)
               a(1) = (   1.163722   0.000000   0.000000 )  
               a(2) = (   0.000000   1.163722   0.000000 )  
               a(3) = (   0.000000   0.000000   1.471078 )  

     reciprocal axes: (cart. coord. in units 2 pi/alat)
               b(1) = (  0.859312  0.000000  0.000000 )  
               b(2) = (  0.000000  0.859312  0.000000 )  
               b(3) = (  0.000000  0.000000  0.679774 )  


     PseudoPot. # 1 for Ho read from file:
     /home/cwx6513/pp.La/Ho.UPF
     MD5 check sum: f307ee11bce99f5b724fa279e3790763
     Pseudo is Norm-conserving, Zval = 21.0
     Generated in analytical, separable form
     Using radial grid of 1265 points,  6 beta functions with: 
                l(1) =   0
                l(2) =   0
                l(3) =   1
                l(4) =   1
                l(5) =   2
                l(6) =   3

     PseudoPot. # 2 for Nd read from file:
     /home/cwx6513/pp.La/Nd.UPF
     MD5 check sum: c66c5b6abe7b5840ced9b1e244e3bed6
     Pseudo is Norm-conserving, Zval = 14.0
     Generated in analytical, separable form
     Using radial grid of 1257 points,  6 beta functions with: 
                l(1) =   0
                l(2) =   0
                l(3) =   1
                l(4) =   1
                l(5) =   2
                l(6) =   3

     atomic species   valence    mass     pseudopotential
        Cu            21.00    63.54600     Ho( 1.00)
        Au            14.00   196.96600     Nd( 1.00)

     16 Sym. Ops., with inversion, found



   Cartesian axes

     site n.     atom                  positions (alat units)
         1           Cu  tau(   1) = (   0.5818609   0.5818609   0.7355388  )
         2           Au  tau(   2) = (   0.0000000   0.0000000   0.0000000  )

     number of k points=   100  gaussian smearing, width (Ry)=  0.1000

     Number of k-points >= 100: set verbosity='high' to print them.

     Dense  grid:    10849 G-vectors     FFT dimensions: (  25,  25,  36)

     Largest allocated arrays     est. size (Mb)     dimensions
        Kohn-Sham Wavefunctions         0.12 Mb     (    349,   22)
        NL pseudopotentials             0.21 Mb     (    349,   40)
        Each V/rho on FFT grid          0.09 Mb     (   5625)
        Each G-vector array             0.02 Mb     (   2712)
        G-vector shells                 0.01 Mb     (    719)
     Largest temporary arrays     est. size (Mb)     dimensions
        Each subspace H/S matrix        0.01 Mb     (  22,  22)
        Each <psi_i|beta_j> matrix      0.01 Mb     (     40,   22)
        Arrays for rho mixing           0.69 Mb     (   5625,   8)

     Initial potential from superposition of free atoms

     Starting from uniform charge
     Starting wfc are    0 randomized atomic wfcs

     Writing output data file Prototype-La-tP2-AuCu.save

     total cpu time spent up to now is      128.3 secs

     Self-consistent Calculation

     iteration #  1     ecut=    40.00 Ry     beta=0.70
     CG style diagonalization
     c_bands:  5 eigenvalues not converged
     c_bands:  5 eigenvalues not converged
     c_bands:  5 eigenvalues not converged
     c_bands:  1 eigenvalues not converged
     c_bands:  1 eigenvalues not converged
     c_bands:  5 eigenvalues not converged
     c_bands:  5 eigenvalues not converged
     ethr =  1.00E-06,  avg # of iterations = 42.0

     total cpu time spent up to now is      183.7 secs

     total energy              =    -171.33133157 Ry
     Harris-Foulkes estimate   =    -550.40066921 Ry
     estimated scf accuracy    <     456.23424246 Ry

     iteration #  2     ecut=    40.00 Ry     beta=0.70
     CG style diagonalization
     c_bands:  2 eigenvalues not converged
     c_bands:  2 eigenvalues not converged
     c_bands:  1 eigenvalues not converged
     c_bands:  1 eigenvalues not converged
     c_bands:  1 eigenvalues not converged
     c_bands:  2 eigenvalues not converged
     c_bands:  1 eigenvalues not converged
     c_bands:  1 eigenvalues not converged
     c_bands:  3 eigenvalues not converged
     c_bands:  1 eigenvalues not converged
     c_bands:  2 eigenvalues not converged
     c_bands:  1 eigenvalues not converged
     c_bands:  1 eigenvalues not converged
     c_bands:  1 eigenvalues not converged
     c_bands:  2 eigenvalues not converged
     c_bands:  2 eigenvalues not converged
     c_bands:  1 eigenvalues not converged
     c_bands:  1 eigenvalues not converged
     c_bands:  2 eigenvalues not converged
     c_bands:  1 eigenvalues not converged
     c_bands:  1 eigenvalues not converged
     c_bands:  2 eigenvalues not converged
     c_bands:  2 eigenvalues not converged
     c_bands:  1 eigenvalues not converged
     c_bands:  3 eigenvalues not converged
     c_bands:  2 eigenvalues not converged
     c_bands:  3 eigenvalues not converged
     c_bands:  1 eigenvalues not converged
     c_bands:  1 eigenvalues not converged
     c_bands:  1 eigenvalues not converged
     c_bands:  1 eigenvalues not converged
     c_bands:  1 eigenvalues not converged
     c_bands:  2 eigenvalues not converged
     c_bands:  3 eigenvalues not converged
     c_bands:  2 eigenvalues not converged
     c_bands:  2 eigenvalues not converged
     c_bands:  1 eigenvalues not converged
     c_bands:  1 eigenvalues not converged
     c_bands:  1 eigenvalues not converged
     c_bands:  2 eigenvalues not converged
     c_bands:  2 eigenvalues not converged
     c_bands:  2 eigenvalues not converged
     c_bands:  4 eigenvalues not converged
     c_bands:  2 eigenvalues not converged
     c_bands:  1 eigenvalues not converged
     c_bands:  1 eigenvalues not converged
     c_bands:  1 eigenvalues not converged
     c_bands:  2 eigenvalues not converged
     c_bands:  2 eigenvalues not converged
     c_bands:  2 eigenvalues not converged
     c_bands:  1 eigenvalues not converged
     c_bands:  3 eigenvalues not converged
     c_bands:  2 eigenvalues not converged
     c_bands:  5 eigenvalues not converged
     c_bands:  4 eigenvalues not converged
     c_bands:  2 eigenvalues not converged
     c_bands:  3 eigenvalues not converged
     c_bands:  3 eigenvalues not converged
     c_bands:  4 eigenvalues not converged
     c_bands:  1 eigenvalues not converged
     c_bands:  1 eigenvalues not converged
     c_bands:  2 eigenvalues not converged
     c_bands:  1 eigenvalues not converged
     c_bands:  1 eigenvalues not converged
     c_bands:  1 eigenvalues not converged
     c_bands:  1 eigenvalues not converged
     c_bands:  1 eigenvalues not converged
     c_bands:  1 eigenvalues not converged
     c_bands:  1 eigenvalues not converged
     c_bands:  4 eigenvalues not converged
     c_bands:  1 eigenvalues not converged
     c_bands:  5 eigenvalues not converged
     c_bands:  1 eigenvalues not converged
     c_bands:  1 eigenvalues not converged
     c_bands:  1 eigenvalues not converged
     c_bands:  1 eigenvalues not converged
     c_bands:  3 eigenvalues not converged
     c_bands:  1 eigenvalues not converged
     c_bands:  1 eigenvalues not converged
     c_bands:  3 eigenvalues not converged
     c_bands:  3 eigenvalues not converged
     c_bands:  5 eigenvalues not converged
     ethr =  1.00E-02,  avg # of iterations = 13.7

     total cpu time spent up to now is      200.8 secs

     total energy              =    -307.28960663 Ry
     Harris-Foulkes estimate   =    -633.50151892 Ry
     estimated scf accuracy    <     659.73888649 Ry

     iteration #  3     ecut=    40.00 Ry     beta=0.70
     CG style diagonalization
     c_bands:  2 eigenvalues not converged
     c_bands:  1 eigenvalues not converged
     c_bands:  1 eigenvalues not converged
     ethr =  1.00E-02,  avg # of iterations = 11.1

     total cpu time spent up to now is      213.9 secs

     total energy              =    -401.13537800 Ry
     Harris-Foulkes estimate   =    -412.45502984 Ry
     estimated scf accuracy    <      18.86944681 Ry

     iteration #  4     ecut=    40.00 Ry     beta=0.70
     CG style diagonalization
     ethr =  1.00E-02,  avg # of iterations =  4.5

     total cpu time spent up to now is      218.2 secs

     total energy              =    -403.85194169 Ry
     Harris-Foulkes estimate   =    -404.47239733 Ry
     estimated scf accuracy    <       1.33165513 Ry

     iteration #  5     ecut=    40.00 Ry     beta=0.70
     CG style diagonalization
     ethr =  3.80E-03,  avg # of iterations =  3.5

     negative rho (up, down):  0.804E-05 0.000E+00

     total cpu time spent up to now is      222.6 secs

     total energy              =    -403.98201922 Ry
     Harris-Foulkes estimate   =    -404.06618779 Ry
     estimated scf accuracy    <       0.14357874 Ry

     iteration #  6     ecut=    40.00 Ry     beta=0.70
     CG style diagonalization
     c_bands:  1 eigenvalues not converged
     ethr =  4.10E-04,  avg # of iterations =  4.6

     total cpu time spent up to now is      228.8 secs

     total energy              =    -404.03295724 Ry
     Harris-Foulkes estimate   =    -404.07613986 Ry
     estimated scf accuracy    <       0.09324373 Ry

     iteration #  7     ecut=    40.00 Ry     beta=0.70
     CG style diagonalization
     ethr =  2.66E-04,  avg # of iterations =  3.3

     total cpu time spent up to now is      233.2 secs

     total energy              =    -404.03730944 Ry
     Harris-Foulkes estimate   =    -404.04249882 Ry
     estimated scf accuracy    <       0.00831679 Ry

     iteration #  8     ecut=    40.00 Ry     beta=0.70
     CG style diagonalization
     c_bands:  1 eigenvalues not converged
     c_bands:  1 eigenvalues not converged
     c_bands:  1 eigenvalues not converged
     c_bands:  1 eigenvalues not converged
     c_bands:  1 eigenvalues not converged
     c_bands:  1 eigenvalues not converged
     c_bands:  1 eigenvalues not converged
     c_bands:  1 eigenvalues not converged
     ethr =  2.38E-05,  avg # of iterations =  4.4

     total cpu time spent up to now is      238.0 secs

     total energy              =    -404.04132556 Ry
     Harris-Foulkes estimate   =    -404.04192307 Ry
     estimated scf accuracy    <       0.00165378 Ry

     iteration #  9     ecut=    40.00 Ry     beta=0.70
     CG style diagonalization
     c_bands:  1 eigenvalues not converged
     ethr =  4.73E-06,  avg # of iterations =  3.3

     total cpu time spent up to now is      242.6 secs

     total energy              =    -404.04126212 Ry
     Harris-Foulkes estimate   =    -404.04147399 Ry
     estimated scf accuracy    <       0.00038024 Ry

     iteration # 10     ecut=    40.00 Ry     beta=0.70
     CG style diagonalization
     c_bands:  1 eigenvalues not converged
     c_bands:  1 eigenvalues not converged
     ethr =  1.09E-06,  avg # of iterations =  4.0

     total cpu time spent up to now is      246.5 secs

     End of self-consistent calculation

     Number of k-points >= 100: set verbosity='high' to print the bands.

     the Fermi energy is    21.0583 ev

!    total energy              =    -404.04139363 Ry
     Harris-Foulkes estimate   =    -404.04140239 Ry
     estimated scf accuracy    <       0.00001036 Ry

     The total energy is the sum of the following terms:

     one-electron contribution =    -100.11224507 Ry
     hartree contribution      =      69.12609321 Ry
     xc contribution           =     -38.75068627 Ry
     ewald contribution        =    -334.17968605 Ry
     smearing contrib. (-TS)   =      -0.12486945 Ry

     convergence has been achieved in  10 iterations

     Forces acting on atoms (Ry/au):

     atom    1 type  1   force =     0.00000000    0.00000000    0.00000000
     atom    2 type  2   force =     0.00000000    0.00000000    0.00000000

     Total force =     0.000000     Total SCF correction =     0.000000


     entering subroutine stress ...

          total   stress  (Ry/bohr**3)                   (kbar)     P= -268.04
  -0.00179973   0.00000000   0.00000000       -264.75      0.00      0.00
   0.00000000  -0.00179973   0.00000000          0.00   -264.75      0.00
   0.00000000   0.00000000  -0.00186690          0.00      0.00   -274.63


     Writing output data file Prototype-La-tP2-AuCu.save
 
     init_run     :      3.36s CPU      5.36s WALL (       2 calls)
     electrons    :    183.36s CPU    230.99s WALL (       5 calls)
     update_pot   :      0.74s CPU      1.09s WALL (       3 calls)
     forces       :      0.97s CPU      1.10s WALL (       5 calls)
     stress       :      2.65s CPU      3.20s WALL (       5 calls)

     Called by init_run:
     wfcinit      :      2.75s CPU      4.03s WALL (       2 calls)
     potinit      :      0.36s CPU      0.44s WALL (       2 calls)

     Called by electrons:
     c_bands      :    175.18s CPU    210.63s WALL (      33 calls)
     sum_band     :      7.70s CPU      9.47s WALL (      33 calls)
     v_of_rho     :      0.08s CPU      0.15s WALL (      38 calls)
     mix_rho      :      0.17s CPU      0.34s WALL (      33 calls)

     Called by c_bands:
     init_us_2    :      0.97s CPU      1.20s WALL (    7800 calls)
     ccgdiagg     :    155.61s CPU    185.99s WALL (    3527 calls)
     wfcrot       :     21.45s CPU     26.86s WALL (    3627 calls)

     Called by *cgdiagg:
     h_psi        :    114.97s CPU    140.34s WALL (  416806 calls)
     cdiaghg      :      0.96s CPU      1.32s WALL (    3627 calls)

     Called by h_psi:
     add_vuspsi   :      3.24s CPU      4.98s WALL (  416806 calls)

     General routines
     calbec       :     29.68s CPU     36.11s WALL (  830985 calls)
     fft          :      0.58s CPU      0.81s WALL (     175 calls)
     fftw         :     96.40s CPU    113.82s WALL ( 1058546 calls)
     davcio       :      0.49s CPU      0.89s WALL (   11100 calls)
 
     Parallel routines
     fft_scatter  :     60.77s CPU     72.39s WALL ( 1058721 calls)
 
     PWSCF        :  3m12.73s CPU     4m 7.89s WALL

 
   This run was terminated on:   1: 1:32  23Mar2018            

=------------------------------------------------------------------------------=
   JOB DONE.
=------------------------------------------------------------------------------=
