
     Program PWSCF v.5.0.2 starts on 22Mar2018 at 12:15:33 

     This program is part of the open-source Quantum ESPRESSO suite
     for quantum simulation of materials; please cite
         "P. Giannozzi et al., J. Phys.:Condens. Matter 21 395502 (2009);
          URL http://www.quantum-espresso.org", 
     in publications or presentations arising from this work. More details at
     http://www.quantum-espresso.org/quote.php

     Parallel version (MPI), running on     4 processors
     R & G space division:  proc/nbgrp/npool/nimage =       4

     Current dimensions of program PWSCF are:
     Max number of different atomic species (ntypx) = 10
     Max number of k-points (npk) =  40000
     Max angular momentum in pseudopotentials (lmaxx) =  3
     Waiting for input...
     Reading input from standard input

     Subspace diagonalization in iterative solution of the eigenvalue problem:
     a serial algorithm will be used

 
     Parallelization info
     --------------------
     sticks:   dense  smooth     PW     G-vecs:    dense   smooth      PW
     Min          93      93     30                 1717     1717     310
     Max          94      94     31                 1720     1720     313
     Sum         373     373    121                 6871     6871    1247
 


     bravais-lattice index     =            0
     lattice parameter (alat)  =       5.4125  a.u.
     unit-cell volume          =     202.7222 (a.u.)^3
     number of atoms/cell      =            2
     number of atomic types    =            2
     number of electrons       =        47.00
     number of Kohn-Sham states=           29
     kinetic-energy cutoff     =      40.0000  Ry
     charge density cutoff     =     160.0000  Ry
     convergence threshold     =      1.0E-04
     mixing beta               =       0.7000
     number of iterations used =            8  plain     mixing
     Exchange-correlation      = SLA-PZ-NOGX-NOGC ( 1 1 0 0 0)
     EXX-fraction              =        0.00
     nstep                     =           50


     celldm(1)=   5.412493  celldm(2)=   0.000000  celldm(3)=   0.000000
     celldm(4)=   0.000000  celldm(5)=   0.000000  celldm(6)=   0.000000

     crystal axes: (cart. coord. in units of alat)
               a(1) = (   1.000000   0.000000   0.000000 )  
               a(2) = (   0.000000   1.000000   0.000000 )  
               a(3) = (   0.000000   0.000000   1.278525 )  

     reciprocal axes: (cart. coord. in units 2 pi/alat)
               b(1) = (  1.000000  0.000000  0.000000 )  
               b(2) = (  0.000000  1.000000  0.000000 )  
               b(3) = (  0.000000  0.000000  0.782151 )  


     PseudoPot. # 1 for Yb read from file:
     /home/jld5415/pp.La/Yb.UPF
     MD5 check sum: 3e859b81cc28c53ec6aa3a2e888efcdf
     Pseudo is Norm-conserving, Zval = 24.0
     Generated in analytical, separable form
     Using radial grid of 1269 points,  6 beta functions with: 
                l(1) =   0
                l(2) =   0
                l(3) =   1
                l(4) =   1
                l(5) =   2
                l(6) =   3

     PseudoPot. # 2 for Tm read from file:
     /home/jld5415/pp.La/Tm.UPF
     MD5 check sum: 245516e0878b5372ceeb9443ded2c4e1
     Pseudo is Norm-conserving, Zval = 23.0
     Generated in analytical, separable form
     Using radial grid of 1269 points,  6 beta functions with: 
                l(1) =   0
                l(2) =   0
                l(3) =   1
                l(4) =   1
                l(5) =   2
                l(6) =   3

     atomic species   valence    mass     pseudopotential
        Cu            24.00    63.54600     Yb( 1.00)
        Au            23.00   196.96600     Tm( 1.00)

     16 Sym. Ops., with inversion, found



   Cartesian axes

     site n.     atom                  positions (alat units)
         1           Cu  tau(   1) = (   0.5000000   0.5000000   0.6392626  )
         2           Au  tau(   2) = (   0.0000000   0.0000000   0.0000000  )

     number of k points=   100  gaussian smearing, width (Ry)=  0.1000

     Number of k-points >= 100: set verbosity='high' to print them.

     Dense  grid:     6871 G-vectors     FFT dimensions: (  24,  24,  27)

     Largest allocated arrays     est. size (Mb)     dimensions
        Kohn-Sham Wavefunctions         0.10 Mb     (    228,   29)
        NL pseudopotentials             0.14 Mb     (    228,   40)
        Each V/rho on FFT grid          0.06 Mb     (   4032)
        Each G-vector array             0.01 Mb     (   1720)
        G-vector shells                 0.01 Mb     (   1720)
     Largest temporary arrays     est. size (Mb)     dimensions
        Each subspace H/S matrix        0.01 Mb     (  29,  29)
        Each <psi_i|beta_j> matrix      0.02 Mb     (     40,   29)
        Arrays for rho mixing           0.49 Mb     (   4032,   8)

     Initial potential from superposition of free atoms

     Starting from uniform charge
     Starting wfc are    0 randomized atomic wfcs

     total cpu time spent up to now is        1.3 secs

     Self-consistent Calculation

     iteration #  1     ecut=    40.00 Ry     beta=0.70
     CG style diagonalization
     c_bands:  5 eigenvalues not converged
     c_bands:  3 eigenvalues not converged
     c_bands:  5 eigenvalues not converged
     c_bands:  5 eigenvalues not converged
     c_bands:  5 eigenvalues not converged
     c_bands:  4 eigenvalues not converged
     c_bands:  5 eigenvalues not converged
     c_bands:  3 eigenvalues not converged
     c_bands:  3 eigenvalues not converged
     c_bands:  4 eigenvalues not converged
     c_bands:  4 eigenvalues not converged
     c_bands:  4 eigenvalues not converged
     c_bands:  4 eigenvalues not converged
     c_bands:  5 eigenvalues not converged
     c_bands:  4 eigenvalues not converged
     c_bands:  5 eigenvalues not converged
     c_bands:  5 eigenvalues not converged
     c_bands:  3 eigenvalues not converged
     c_bands:  4 eigenvalues not converged
     c_bands:  5 eigenvalues not converged
     c_bands:  2 eigenvalues not converged
     c_bands:  5 eigenvalues not converged
     c_bands:  4 eigenvalues not converged
     c_bands:  5 eigenvalues not converged
     c_bands:  4 eigenvalues not converged
     c_bands:  5 eigenvalues not converged
     c_bands:  5 eigenvalues not converged
     c_bands:  4 eigenvalues not converged
     c_bands:  4 eigenvalues not converged
     c_bands:  3 eigenvalues not converged
     c_bands:  5 eigenvalues not converged
     c_bands:  3 eigenvalues not converged
     c_bands:  4 eigenvalues not converged
     c_bands:  5 eigenvalues not converged
     c_bands:  5 eigenvalues not converged
     c_bands:  4 eigenvalues not converged
     c_bands:  3 eigenvalues not converged
     c_bands:  5 eigenvalues not converged
     c_bands:  4 eigenvalues not converged
     c_bands:  3 eigenvalues not converged
     c_bands:  4 eigenvalues not converged
     c_bands:  4 eigenvalues not converged
     c_bands:  3 eigenvalues not converged
     c_bands:  4 eigenvalues not converged
     c_bands:  4 eigenvalues not converged
     c_bands:  3 eigenvalues not converged
     c_bands:  5 eigenvalues not converged
     c_bands:  5 eigenvalues not converged
     c_bands:  3 eigenvalues not converged
     c_bands:  2 eigenvalues not converged
     c_bands:  5 eigenvalues not converged
     c_bands:  2 eigenvalues not converged
     c_bands:  3 eigenvalues not converged
     c_bands:  5 eigenvalues not converged
     c_bands:  5 eigenvalues not converged
     c_bands:  5 eigenvalues not converged
     c_bands:  5 eigenvalues not converged
     c_bands:  5 eigenvalues not converged
     c_bands:  1 eigenvalues not converged
     c_bands:  4 eigenvalues not converged
     c_bands:  4 eigenvalues not converged
     c_bands:  3 eigenvalues not converged
     c_bands:  4 eigenvalues not converged
     c_bands:  4 eigenvalues not converged
     c_bands:  3 eigenvalues not converged
     c_bands:  3 eigenvalues not converged
     c_bands:  5 eigenvalues not converged
     c_bands:  5 eigenvalues not converged
     ethr =  1.00E-02,  avg # of iterations = 16.1

     total cpu time spent up to now is       10.8 secs

     total energy              =    -670.24329827 Ry
     Harris-Foulkes estimate   =    -947.43087072 Ry
     estimated scf accuracy    <     346.26592338 Ry

     iteration #  2     ecut=    40.00 Ry     beta=0.70
     CG style diagonalization
     c_bands:  1 eigenvalues not converged
     c_bands:  1 eigenvalues not converged
     c_bands:  1 eigenvalues not converged
     c_bands:  1 eigenvalues not converged
     c_bands:  1 eigenvalues not converged
     ethr =  1.00E-02,  avg # of iterations =  9.0

     total cpu time spent up to now is       16.1 secs

     total energy              =    -713.12889531 Ry
     Harris-Foulkes estimate   =    -817.86418693 Ry
     estimated scf accuracy    <     162.41732352 Ry

     iteration #  3     ecut=    40.00 Ry     beta=0.70
     CG style diagonalization
     c_bands:  1 eigenvalues not converged
     ethr =  1.00E-02,  avg # of iterations =  8.6

     total cpu time spent up to now is       21.4 secs

     total energy              =    -753.66794678 Ry
     Harris-Foulkes estimate   =    -790.10751846 Ry
     estimated scf accuracy    <      84.38302510 Ry

     iteration #  4     ecut=    40.00 Ry     beta=0.70
     CG style diagonalization
     ethr =  1.00E-02,  avg # of iterations =  5.7

     total cpu time spent up to now is       24.7 secs

     total energy              =    -775.46589075 Ry
     Harris-Foulkes estimate   =    -775.91107515 Ry
     estimated scf accuracy    <       0.75375206 Ry

     iteration #  5     ecut=    40.00 Ry     beta=0.70
     CG style diagonalization
     ethr =  1.60E-03,  avg # of iterations =  3.8

     total cpu time spent up to now is       26.8 secs

     total energy              =    -775.62518524 Ry
     Harris-Foulkes estimate   =    -775.64325193 Ry
     estimated scf accuracy    <       0.03536797 Ry

     iteration #  6     ecut=    40.00 Ry     beta=0.70
     CG style diagonalization
     c_bands:  1 eigenvalues not converged
     c_bands:  1 eigenvalues not converged
     c_bands:  1 eigenvalues not converged
     c_bands:  1 eigenvalues not converged
     ethr =  7.53E-05,  avg # of iterations =  4.3

     total cpu time spent up to now is       29.2 secs

     total energy              =    -775.63464090 Ry
     Harris-Foulkes estimate   =    -775.63707599 Ry
     estimated scf accuracy    <       0.00433125 Ry

     iteration #  7     ecut=    40.00 Ry     beta=0.70
     CG style diagonalization
     c_bands:  1 eigenvalues not converged
     c_bands:  1 eigenvalues not converged
     c_bands:  1 eigenvalues not converged
     ethr =  9.22E-06,  avg # of iterations =  3.8

     total cpu time spent up to now is       31.3 secs

     total energy              =    -775.63500343 Ry
     Harris-Foulkes estimate   =    -775.63557840 Ry
     estimated scf accuracy    <       0.00102856 Ry

     iteration #  8     ecut=    40.00 Ry     beta=0.70
     CG style diagonalization
     ethr =  2.19E-06,  avg # of iterations =  3.7

     total cpu time spent up to now is       33.4 secs

     End of self-consistent calculation

     Number of k-points >= 100: set verbosity='high' to print the bands.

     the Fermi energy is    42.0228 ev

!    total energy              =    -775.63511813 Ry
     Harris-Foulkes estimate   =    -775.63517672 Ry
     estimated scf accuracy    <       0.00006218 Ry

     The total energy is the sum of the following terms:

     one-electron contribution =    -137.96139499 Ry
     hartree contribution      =     109.92122559 Ry
     xc contribution           =     -63.20478089 Ry
     ewald contribution        =    -684.30988281 Ry
     smearing contrib. (-TS)   =      -0.08028503 Ry

     convergence has been achieved in   8 iterations

     Forces acting on atoms (Ry/au):

     atom    1 type  1   force =     0.00000000    0.00000000    0.00000000
     atom    2 type  2   force =     0.00000000    0.00000000    0.00000000

     Total force =     0.000000     Total SCF correction =     0.000000


     entering subroutine stress ...

          total   stress  (Ry/bohr**3)                   (kbar)     P= 2122.48
   0.01442895   0.00000000   0.00000000       2122.57      0.00      0.00
   0.00000000   0.01442895   0.00000000          0.00   2122.57      0.00
   0.00000000   0.00000000   0.01442704          0.00      0.00   2122.29


     BFGS Geometry Optimization

     number of scf cycles    =   1
     number of bfgs steps    =   0

     enthalpy new            =    -775.6351181342 Ry

     new trust radius        =       0.5000000000 bohr
     new conv_thr            =       0.0001000000 Ry

     new unit-cell volume =    329.34844 a.u.^3 (    48.80440 Ang^3 )

CELL_PARAMETERS (alat=  5.41249258)
   1.175585808   0.000000000   0.000000000
   0.000000000   1.175585808   0.000000000
   0.000000000   0.000000000   1.502986234

ATOMIC_POSITIONS (crystal)
Cu       0.500000000   0.500000000   0.500000000
Au       0.000000000   0.000000000   0.000000000



     Writing output data file Prototype-La-tP2-AuCu.save
     NEW-OLD atomic charge density approx. for the potential
     NEW k-points: (use verbosity='high' to print them)

     total cpu time spent up to now is       34.2 secs

     Self-consistent Calculation

     iteration #  1     ecut=    40.00 Ry     beta=0.70
     CG style diagonalization
     c_bands:  4 eigenvalues not converged
     c_bands:  1 eigenvalues not converged
     c_bands:  4 eigenvalues not converged
     c_bands:  5 eigenvalues not converged
     c_bands:  3 eigenvalues not converged
     c_bands:  1 eigenvalues not converged
     c_bands:  3 eigenvalues not converged
     c_bands:  1 eigenvalues not converged
     c_bands:  5 eigenvalues not converged
     c_bands:  1 eigenvalues not converged
     c_bands:  2 eigenvalues not converged
     c_bands:  2 eigenvalues not converged
     c_bands:  3 eigenvalues not converged
     c_bands:  2 eigenvalues not converged
     c_bands:  4 eigenvalues not converged
     c_bands:  4 eigenvalues not converged
     c_bands:  1 eigenvalues not converged
     c_bands:  1 eigenvalues not converged
     c_bands:  1 eigenvalues not converged
     c_bands:  1 eigenvalues not converged
     c_bands:  1 eigenvalues not converged
     c_bands:  4 eigenvalues not converged
     c_bands:  1 eigenvalues not converged
     c_bands:  5 eigenvalues not converged
     c_bands:  5 eigenvalues not converged
     c_bands:  1 eigenvalues not converged
     c_bands:  2 eigenvalues not converged
     c_bands:  4 eigenvalues not converged
     c_bands:  5 eigenvalues not converged
     c_bands:  4 eigenvalues not converged
     c_bands:  1 eigenvalues not converged
     c_bands:  5 eigenvalues not converged
     c_bands:  5 eigenvalues not converged
     c_bands:  5 eigenvalues not converged
     c_bands:  1 eigenvalues not converged
     c_bands:  1 eigenvalues not converged
     c_bands:  1 eigenvalues not converged
     c_bands:  2 eigenvalues not converged
     c_bands:  5 eigenvalues not converged
     c_bands:  1 eigenvalues not converged
     c_bands:  5 eigenvalues not converged
     c_bands:  1 eigenvalues not converged
     c_bands:  1 eigenvalues not converged
     c_bands:  4 eigenvalues not converged
     c_bands:  3 eigenvalues not converged
     c_bands:  3 eigenvalues not converged
     c_bands:  1 eigenvalues not converged
     c_bands:  3 eigenvalues not converged
     c_bands:  1 eigenvalues not converged
     c_bands:  5 eigenvalues not converged
     c_bands:  3 eigenvalues not converged
     c_bands:  1 eigenvalues not converged
     c_bands:  1 eigenvalues not converged
     c_bands:  1 eigenvalues not converged
     c_bands:  1 eigenvalues not converged
     c_bands:  1 eigenvalues not converged
     c_bands:  2 eigenvalues not converged
     c_bands:  1 eigenvalues not converged
     c_bands:  2 eigenvalues not converged
     c_bands:  3 eigenvalues not converged
     ethr =  1.00E-06,  avg # of iterations = 18.7

     total cpu time spent up to now is       44.8 secs

     total energy              =    -764.14096299 Ry
     Harris-Foulkes estimate   =    -792.62095491 Ry
     estimated scf accuracy    <      35.23238409 Ry

     iteration #  2     ecut=    40.00 Ry     beta=0.70
     CG style diagonalization
     ethr =  1.00E-02,  avg # of iterations =  4.5

     total cpu time spent up to now is       47.4 secs

     total energy              =    -774.07726311 Ry
     Harris-Foulkes estimate   =    -777.00968140 Ry
     estimated scf accuracy    <       4.15516685 Ry

     iteration #  3     ecut=    40.00 Ry     beta=0.70
     CG style diagonalization
     ethr =  8.84E-03,  avg # of iterations =  3.5

     total cpu time spent up to now is       49.3 secs

     total energy              =    -775.21273840 Ry
     Harris-Foulkes estimate   =    -775.38157615 Ry
     estimated scf accuracy    <       0.29389220 Ry

     iteration #  4     ecut=    40.00 Ry     beta=0.70
     CG style diagonalization
     ethr =  6.25E-04,  avg # of iterations =  3.7

     total cpu time spent up to now is       51.5 secs

     total energy              =    -775.31077710 Ry
     Harris-Foulkes estimate   =    -775.31833191 Ry
     estimated scf accuracy    <       0.01232854 Ry

     iteration #  5     ecut=    40.00 Ry     beta=0.70
     CG style diagonalization
     c_bands:  1 eigenvalues not converged
     c_bands:  1 eigenvalues not converged
     ethr =  2.62E-05,  avg # of iterations =  4.0

     total cpu time spent up to now is       53.7 secs

     total energy              =    -775.31396297 Ry
     Harris-Foulkes estimate   =    -775.31414413 Ry
     estimated scf accuracy    <       0.00033937 Ry

     iteration #  6     ecut=    40.00 Ry     beta=0.70
     CG style diagonalization
     c_bands:  1 eigenvalues not converged
     c_bands:  1 eigenvalues not converged
     c_bands:  1 eigenvalues not converged
     c_bands:  1 eigenvalues not converged
     c_bands:  1 eigenvalues not converged
     c_bands:  1 eigenvalues not converged
     ethr =  7.22E-07,  avg # of iterations =  4.3

     total cpu time spent up to now is       56.2 secs

     End of self-consistent calculation

     Number of k-points >= 100: set verbosity='high' to print the bands.

     the Fermi energy is    24.6367 ev

!    total energy              =    -775.31409401 Ry
     Harris-Foulkes estimate   =    -775.31414515 Ry
     estimated scf accuracy    <       0.00006147 Ry

     The total energy is the sum of the following terms:

     one-electron contribution =    -288.32120564 Ry
     hartree contribution      =     156.48137936 Ry
     xc contribution           =     -61.28910296 Ry
     ewald contribution        =    -582.10503356 Ry
     smearing contrib. (-TS)   =      -0.08013120 Ry

     convergence has been achieved in   6 iterations

     Forces acting on atoms (Ry/au):

     atom    1 type  1   force =     0.00000000    0.00000000    0.00000000
     atom    2 type  2   force =     0.00000000    0.00000000    0.00000000

     Total force =     0.000000     Total SCF correction =     0.000000


     entering subroutine stress ...

          total   stress  (Ry/bohr**3)                   (kbar)     P=-1921.84
  -0.01305882   0.00000000   0.00000000      -1921.02      0.00      0.00
   0.00000000  -0.01305882   0.00000000          0.00  -1921.02      0.00
   0.00000000   0.00000000  -0.01307549          0.00      0.00  -1923.47


     number of scf cycles    =   2
     number of bfgs steps    =   1

     enthalpy old            =    -775.6351181342 Ry
     enthalpy new            =    -775.3140940068 Ry

     CASE: enthalpy_new > enthalpy_old

     new trust radius        =       0.2243179146 bohr

     trust_radius < trust_radius_min

     resetting bfgs history

     new conv_thr            =       0.0001000000 Ry

     new unit-cell volume =    318.01462 a.u.^3 (    47.12490 Ang^3 )

CELL_PARAMETERS (alat=  5.41249258)
   1.161944626   0.000000000   0.000000000
   0.000000000   1.161944626   0.000000000
   0.000000000   0.000000000   1.485539757

ATOMIC_POSITIONS (crystal)
Cu       0.500000000   0.500000000   0.500000000
Au       0.000000000   0.000000000   0.000000000



     Writing output data file Prototype-La-tP2-AuCu.save
     NEW-OLD atomic charge density approx. for the potential
     NEW k-points: (use verbosity='high' to print them)

     total cpu time spent up to now is       57.0 secs

     Self-consistent Calculation

     iteration #  1     ecut=    40.00 Ry     beta=0.70
     CG style diagonalization
     ethr =  1.00E-06,  avg # of iterations =  7.0

     total cpu time spent up to now is       61.0 secs

     total energy              =    -775.38147716 Ry
     Harris-Foulkes estimate   =    -775.55060683 Ry
     estimated scf accuracy    <       0.20733652 Ry

     iteration #  2     ecut=    40.00 Ry     beta=0.70
     CG style diagonalization
     ethr =  4.41E-04,  avg # of iterations =  3.8

     total cpu time spent up to now is       63.2 secs

     total energy              =    -775.44723313 Ry
     Harris-Foulkes estimate   =    -775.46417489 Ry
     estimated scf accuracy    <       0.02428945 Ry

     iteration #  3     ecut=    40.00 Ry     beta=0.70
     CG style diagonalization
     ethr =  5.17E-05,  avg # of iterations =  3.6

     total cpu time spent up to now is       65.3 secs

     total energy              =    -775.45287780 Ry
     Harris-Foulkes estimate   =    -775.45306134 Ry
     estimated scf accuracy    <       0.00025249 Ry

     iteration #  4     ecut=    40.00 Ry     beta=0.70
     CG style diagonalization
     ethr =  5.37E-07,  avg # of iterations =  4.4

     total cpu time spent up to now is       67.8 secs

     End of self-consistent calculation

     Number of k-points >= 100: set verbosity='high' to print the bands.

     the Fermi energy is    25.6684 ev

!    total energy              =    -775.45307720 Ry
     Harris-Foulkes estimate   =    -775.45314769 Ry
     estimated scf accuracy    <       0.00007852 Ry

     The total energy is the sum of the following terms:

     one-electron contribution =    -278.17731603 Ry
     hartree contribution      =     153.15435301 Ry
     xc contribution           =     -61.41201695 Ry
     ewald contribution        =    -588.93973599 Ry
     smearing contrib. (-TS)   =      -0.07836125 Ry

     convergence has been achieved in   4 iterations

     Forces acting on atoms (Ry/au):

     atom    1 type  1   force =     0.00000000    0.00000000    0.00000000
     atom    2 type  2   force =     0.00000000    0.00000000    0.00000000

     Total force =     0.000000     Total SCF correction =     0.000000


     entering subroutine stress ...

          total   stress  (Ry/bohr**3)                   (kbar)     P=-1721.56
  -0.01169695   0.00000000   0.00000000      -1720.68      0.00      0.00
   0.00000000  -0.01169695   0.00000000          0.00  -1720.68      0.00
   0.00000000   0.00000000  -0.01171483          0.00      0.00  -1723.31


     number of scf cycles    =   3
     number of bfgs steps    =   1

     enthalpy old            =    -775.6351181342 Ry
     enthalpy new            =    -775.4530772034 Ry

     CASE: enthalpy_new > enthalpy_old

     new trust radius        =       0.2203192722 bohr

     trust_radius < trust_radius_min

     resetting bfgs history

     Message from routine bfgs:
     history already reset at previous step: stopping
     new conv_thr            =       0.0001000000 Ry

     new unit-cell volume =    318.79337 a.u.^3 (    47.24030 Ang^3 )

CELL_PARAMETERS (alat=  5.41249258)
   1.162892805   0.000000000   0.000000000
   0.000000000   1.162892805   0.000000000
   0.000000000   0.000000000   1.486750074

ATOMIC_POSITIONS (crystal)
Cu       0.500000000   0.500000000   0.500000000
Au       0.000000000   0.000000000   0.000000000



     Writing output data file Prototype-La-tP2-AuCu.save
     NEW-OLD atomic charge density approx. for the potential
     NEW k-points: (use verbosity='high' to print them)

     total cpu time spent up to now is       68.6 secs

     Self-consistent Calculation

     iteration #  1     ecut=    40.00 Ry     beta=0.70
     CG style diagonalization
     ethr =  1.00E-06,  avg # of iterations =  4.6

     total cpu time spent up to now is       71.2 secs

     total energy              =    -775.44353820 Ry
     Harris-Foulkes estimate   =    -775.44460474 Ry
     estimated scf accuracy    <       0.00130480 Ry

     iteration #  2     ecut=    40.00 Ry     beta=0.70
     CG style diagonalization
     ethr =  2.78E-06,  avg # of iterations =  3.8

     total cpu time spent up to now is       73.3 secs

     total energy              =    -775.44391532 Ry
     Harris-Foulkes estimate   =    -775.44413089 Ry
     estimated scf accuracy    <       0.00032300 Ry

     iteration #  3     ecut=    40.00 Ry     beta=0.70
     CG style diagonalization
     ethr =  6.87E-07,  avg # of iterations =  3.4

     total cpu time spent up to now is       75.3 secs

     End of self-consistent calculation

     Number of k-points >= 100: set verbosity='high' to print the bands.

     the Fermi energy is    25.5970 ev

!    total energy              =    -775.44399872 Ry
     Harris-Foulkes estimate   =    -775.44403073 Ry
     estimated scf accuracy    <       0.00003457 Ry

     The total energy is the sum of the following terms:

     one-electron contribution =    -278.87403616 Ry
     hartree contribution      =     153.37058225 Ry
     xc contribution           =     -61.40218351 Ry
     ewald contribution        =    -588.45979055 Ry
     smearing contrib. (-TS)   =      -0.07857075 Ry

     convergence has been achieved in   3 iterations

     Forces acting on atoms (Ry/au):

     atom    1 type  1   force =     0.00000000    0.00000000    0.00000000
     atom    2 type  2   force =     0.00000000    0.00000000    0.00000000

     Total force =     0.000000     Total SCF correction =     0.000000


     entering subroutine stress ...

          total   stress  (Ry/bohr**3)                   (kbar)     P=-1737.73
  -0.01181120   0.00000000   0.00000000      -1737.49      0.00      0.00
   0.00000000  -0.01181120   0.00000000          0.00  -1737.49      0.00
   0.00000000   0.00000000  -0.01181618          0.00      0.00  -1738.22


     The maximum number of steps has been reached.

     End of BFGS Geometry Optimization
Begin final coordinates
     new unit-cell volume =    318.79337 a.u.^3 (    47.24030 Ang^3 )

CELL_PARAMETERS (alat=  5.41249258)
   1.162892805   0.000000000   0.000000000
   0.000000000   1.162892805   0.000000000
   0.000000000   0.000000000   1.486750074

ATOMIC_POSITIONS (crystal)
Cu       0.500000000   0.500000000   0.500000000
Au       0.000000000   0.000000000   0.000000000
End final coordinates



     A final scf calculation at the relaxed structure.
     The G-vectors are recalculated for the final unit cell
     Results may differ from those at the preceding step.
 
     Parallelization info
     --------------------
     sticks:   dense  smooth     PW     G-vecs:    dense   smooth      PW
     Min         125     125     39                 2724     2724     472
     Max         128     128     41                 2725     2725     473
     Sum         505     505    161                10897    10897    1891
 


     bravais-lattice index     =            0
     lattice parameter (alat)  =       5.4125  a.u.
     unit-cell volume          =     318.7934 (a.u.)^3
     number of atoms/cell      =            2
     number of atomic types    =            2
     number of electrons       =        47.00
     number of Kohn-Sham states=           29
     kinetic-energy cutoff     =      40.0000  Ry
     charge density cutoff     =     160.0000  Ry
     convergence threshold     =      1.0E-04
     mixing beta               =       0.7000
     number of iterations used =            8  plain     mixing
     Exchange-correlation      = SLA-PZ-NOGX-NOGC ( 1 1 0 0 0)
     EXX-fraction              =        0.00

     celldm(1)=   5.412493  celldm(2)=   0.000000  celldm(3)=   0.000000
     celldm(4)=   0.000000  celldm(5)=   0.000000  celldm(6)=   0.000000

     crystal axes: (cart. coord. in units of alat)
               a(1) = (   1.162893   0.000000   0.000000 )  
               a(2) = (   0.000000   1.162893   0.000000 )  
               a(3) = (   0.000000   0.000000   1.486750 )  

     reciprocal axes: (cart. coord. in units 2 pi/alat)
               b(1) = (  0.859924  0.000000  0.000000 )  
               b(2) = (  0.000000  0.859924  0.000000 )  
               b(3) = (  0.000000  0.000000  0.672608 )  


     PseudoPot. # 1 for Yb read from file:
     /home/jld5415/pp.La/Yb.UPF
     MD5 check sum: 3e859b81cc28c53ec6aa3a2e888efcdf
     Pseudo is Norm-conserving, Zval = 24.0
     Generated in analytical, separable form
     Using radial grid of 1269 points,  6 beta functions with: 
                l(1) =   0
                l(2) =   0
                l(3) =   1
                l(4) =   1
                l(5) =   2
                l(6) =   3

     PseudoPot. # 2 for Tm read from file:
     /home/jld5415/pp.La/Tm.UPF
     MD5 check sum: 245516e0878b5372ceeb9443ded2c4e1
     Pseudo is Norm-conserving, Zval = 23.0
     Generated in analytical, separable form
     Using radial grid of 1269 points,  6 beta functions with: 
                l(1) =   0
                l(2) =   0
                l(3) =   1
                l(4) =   1
                l(5) =   2
                l(6) =   3

     atomic species   valence    mass     pseudopotential
        Cu            24.00    63.54600     Yb( 1.00)
        Au            23.00   196.96600     Tm( 1.00)

     16 Sym. Ops., with inversion, found



   Cartesian axes

     site n.     atom                  positions (alat units)
         1           Cu  tau(   1) = (   0.5814464   0.5814464   0.7433750  )
         2           Au  tau(   2) = (   0.0000000   0.0000000   0.0000000  )

     number of k points=   100  gaussian smearing, width (Ry)=  0.1000

     Number of k-points >= 100: set verbosity='high' to print them.

     Dense  grid:    10897 G-vectors     FFT dimensions: (  25,  25,  36)

     Largest allocated arrays     est. size (Mb)     dimensions
        Kohn-Sham Wavefunctions         0.15 Mb     (    346,   29)
        NL pseudopotentials             0.21 Mb     (    346,   40)
        Each V/rho on FFT grid          0.09 Mb     (   5625)
        Each G-vector array             0.02 Mb     (   2724)
        G-vector shells                 0.01 Mb     (    727)
     Largest temporary arrays     est. size (Mb)     dimensions
        Each subspace H/S matrix        0.01 Mb     (  29,  29)
        Each <psi_i|beta_j> matrix      0.02 Mb     (     40,   29)
        Arrays for rho mixing           0.69 Mb     (   5625,   8)

     Initial potential from superposition of free atoms

     Starting from uniform charge
     Starting wfc are    0 randomized atomic wfcs

     Writing output data file Prototype-La-tP2-AuCu.save

     total cpu time spent up to now is       76.8 secs

     Self-consistent Calculation

     iteration #  1     ecut=    40.00 Ry     beta=0.70
     CG style diagonalization
     c_bands:  4 eigenvalues not converged
     c_bands:  4 eigenvalues not converged
     c_bands:  4 eigenvalues not converged
     c_bands:  3 eigenvalues not converged
     c_bands:  3 eigenvalues not converged
     c_bands:  5 eigenvalues not converged
     c_bands:  3 eigenvalues not converged
     c_bands:  3 eigenvalues not converged
     c_bands:  3 eigenvalues not converged
     c_bands:  3 eigenvalues not converged
     c_bands:  4 eigenvalues not converged
     c_bands:  3 eigenvalues not converged
     c_bands:  3 eigenvalues not converged
     c_bands:  3 eigenvalues not converged
     c_bands:  3 eigenvalues not converged
     c_bands:  3 eigenvalues not converged
     c_bands:  3 eigenvalues not converged
     c_bands:  3 eigenvalues not converged
     c_bands:  3 eigenvalues not converged
     c_bands:  3 eigenvalues not converged
     c_bands:  5 eigenvalues not converged
     c_bands:  4 eigenvalues not converged
     c_bands:  3 eigenvalues not converged
     c_bands:  3 eigenvalues not converged
     c_bands:  5 eigenvalues not converged
     c_bands:  5 eigenvalues not converged
     c_bands:  3 eigenvalues not converged
     c_bands:  3 eigenvalues not converged
     c_bands:  3 eigenvalues not converged
     c_bands:  3 eigenvalues not converged
     c_bands:  4 eigenvalues not converged
     c_bands:  3 eigenvalues not converged
     c_bands:  4 eigenvalues not converged
     c_bands:  3 eigenvalues not converged
     c_bands:  3 eigenvalues not converged
     c_bands:  3 eigenvalues not converged
     c_bands:  5 eigenvalues not converged
     c_bands:  3 eigenvalues not converged
     c_bands:  3 eigenvalues not converged
     c_bands:  4 eigenvalues not converged
     c_bands:  3 eigenvalues not converged
     c_bands:  3 eigenvalues not converged
     c_bands:  3 eigenvalues not converged
     c_bands:  3 eigenvalues not converged
     c_bands:  3 eigenvalues not converged
     c_bands:  3 eigenvalues not converged
     c_bands:  2 eigenvalues not converged
     c_bands:  3 eigenvalues not converged
     c_bands:  3 eigenvalues not converged
     c_bands:  4 eigenvalues not converged
     c_bands:  3 eigenvalues not converged
     c_bands:  3 eigenvalues not converged
     c_bands:  3 eigenvalues not converged
     c_bands:  3 eigenvalues not converged
     c_bands:  3 eigenvalues not converged
     c_bands:  3 eigenvalues not converged
     c_bands:  4 eigenvalues not converged
     c_bands:  3 eigenvalues not converged
     c_bands:  3 eigenvalues not converged
     c_bands:  3 eigenvalues not converged
     c_bands:  3 eigenvalues not converged
     c_bands:  5 eigenvalues not converged
     c_bands:  3 eigenvalues not converged
     c_bands:  3 eigenvalues not converged
     c_bands:  3 eigenvalues not converged
     c_bands:  3 eigenvalues not converged
     c_bands:  3 eigenvalues not converged
     c_bands:  3 eigenvalues not converged
     c_bands:  4 eigenvalues not converged
     c_bands:  3 eigenvalues not converged
     c_bands:  3 eigenvalues not converged
     c_bands:  5 eigenvalues not converged
     c_bands:  4 eigenvalues not converged
     c_bands:  3 eigenvalues not converged
     c_bands:  3 eigenvalues not converged
     c_bands:  3 eigenvalues not converged
     c_bands:  3 eigenvalues not converged
     c_bands:  3 eigenvalues not converged
     c_bands:  3 eigenvalues not converged
     c_bands:  3 eigenvalues not converged
     c_bands:  4 eigenvalues not converged
     c_bands:  4 eigenvalues not converged
     c_bands:  4 eigenvalues not converged
     c_bands:  4 eigenvalues not converged
     c_bands:  3 eigenvalues not converged
     c_bands:  5 eigenvalues not converged
     c_bands:  3 eigenvalues not converged
     c_bands:  3 eigenvalues not converged
     c_bands:  3 eigenvalues not converged
     c_bands:  3 eigenvalues not converged
     c_bands:  3 eigenvalues not converged
     c_bands:  2 eigenvalues not converged
     c_bands:  3 eigenvalues not converged
     c_bands:  3 eigenvalues not converged
     c_bands:  3 eigenvalues not converged
     c_bands:  3 eigenvalues not converged
     c_bands:  4 eigenvalues not converged
     c_bands:  3 eigenvalues not converged
     c_bands:  3 eigenvalues not converged
     c_bands:  5 eigenvalues not converged
     ethr =  1.00E-06,  avg # of iterations = 46.9

     total cpu time spent up to now is      115.2 secs

     total energy              =    -663.85144142 Ry
     Harris-Foulkes estimate   =   -1018.22115661 Ry
     estimated scf accuracy    <     438.60399844 Ry

     iteration #  2     ecut=    40.00 Ry     beta=0.70
     CG style diagonalization
     c_bands:  1 eigenvalues not converged
     c_bands:  1 eigenvalues not converged
     ethr =  1.00E-02,  avg # of iterations =  9.2

     total cpu time spent up to now is      123.1 secs

     total energy              =    -684.87605406 Ry
     Harris-Foulkes estimate   =    -830.10272910 Ry
     estimated scf accuracy    <     226.62619817 Ry

     iteration #  3     ecut=    40.00 Ry     beta=0.70
     CG style diagonalization
     c_bands:  1 eigenvalues not converged
     ethr =  1.00E-02,  avg # of iterations =  9.6

     total cpu time spent up to now is      131.3 secs

     total energy              =    -740.22459107 Ry
     Harris-Foulkes estimate   =    -812.56120250 Ry
     estimated scf accuracy    <     186.42141739 Ry

     iteration #  4     ecut=    40.00 Ry     beta=0.70
     CG style diagonalization
     ethr =  1.00E-02,  avg # of iterations =  7.0

     total cpu time spent up to now is      137.3 secs

     total energy              =    -776.90501664 Ry
     Harris-Foulkes estimate   =    -777.14972338 Ry
     estimated scf accuracy    <       0.47291146 Ry

     iteration #  5     ecut=    40.00 Ry     beta=0.70
     CG style diagonalization
     ethr =  1.01E-03,  avg # of iterations =  3.9

     total cpu time spent up to now is      140.8 secs

     total energy              =    -776.99602466 Ry
     Harris-Foulkes estimate   =    -777.02163341 Ry
     estimated scf accuracy    <       0.06123712 Ry

     iteration #  6     ecut=    40.00 Ry     beta=0.70
     CG style diagonalization
     c_bands:  1 eigenvalues not converged
     ethr =  1.30E-04,  avg # of iterations =  3.6

     total cpu time spent up to now is      144.0 secs

     total energy              =    -777.00271865 Ry
     Harris-Foulkes estimate   =    -777.00577118 Ry
     estimated scf accuracy    <       0.00834320 Ry

     iteration #  7     ecut=    40.00 Ry     beta=0.70
     CG style diagonalization
     c_bands:  1 eigenvalues not converged
     c_bands:  1 eigenvalues not converged
     c_bands:  1 eigenvalues not converged
     c_bands:  1 eigenvalues not converged
     ethr =  1.78E-05,  avg # of iterations =  3.7

     total cpu time spent up to now is      147.0 secs

     total energy              =    -777.00238542 Ry
     Harris-Foulkes estimate   =    -777.00369328 Ry
     estimated scf accuracy    <       0.00241000 Ry

     iteration #  8     ecut=    40.00 Ry     beta=0.70
     CG style diagonalization
     c_bands:  1 eigenvalues not converged
     ethr =  5.13E-06,  avg # of iterations =  3.5

     total cpu time spent up to now is      150.0 secs

     End of self-consistent calculation

     Number of k-points >= 100: set verbosity='high' to print the bands.

     the Fermi energy is    25.5397 ev

!    total energy              =    -777.00283834 Ry
     Harris-Foulkes estimate   =    -777.00287536 Ry
     estimated scf accuracy    <       0.00004402 Ry

     The total energy is the sum of the following terms:

     one-electron contribution =    -281.65078731 Ry
     hartree contribution      =     154.80304646 Ry
     xc contribution           =     -61.61695218 Ry
     ewald contribution        =    -588.45977373 Ry
     smearing contrib. (-TS)   =      -0.07837160 Ry

     convergence has been achieved in   8 iterations

     Forces acting on atoms (Ry/au):

     atom    1 type  1   force =     0.00000000    0.00000000    0.00000000
     atom    2 type  2   force =     0.00000000    0.00000000    0.00000000

     Total force =     0.000000     Total SCF correction =     0.000000


     entering subroutine stress ...

          total   stress  (Ry/bohr**3)                   (kbar)     P= -320.53
  -0.00215138   0.00000000   0.00000000       -316.48      0.00      0.00
   0.00000000  -0.00215138   0.00000000          0.00   -316.48      0.00
   0.00000000   0.00000000  -0.00223405          0.00      0.00   -328.64


     Writing output data file Prototype-La-tP2-AuCu.save
 
     init_run     :      1.59s CPU      1.91s WALL (       2 calls)
     electrons    :    137.05s CPU    144.76s WALL (       5 calls)
     update_pot   :      0.46s CPU      0.47s WALL (       3 calls)
     forces       :      0.67s CPU      0.68s WALL (       5 calls)
     stress       :      1.78s CPU      1.81s WALL (       5 calls)

     Called by init_run:
     wfcinit      :      1.23s CPU      1.40s WALL (       2 calls)
     potinit      :      0.10s CPU      0.10s WALL (       2 calls)

     Called by electrons:
     c_bands      :    131.53s CPU    138.86s WALL (      29 calls)
     sum_band     :      5.46s CPU      5.71s WALL (      29 calls)
     v_of_rho     :      0.01s CPU      0.01s WALL (      34 calls)
     mix_rho      :      0.01s CPU      0.01s WALL (      29 calls)

     Called by c_bands:
     init_us_2    :      0.87s CPU      0.91s WALL (    7000 calls)
     ccgdiagg     :    117.14s CPU    122.55s WALL (    3203 calls)
     wfcrot       :     14.90s CPU     16.29s WALL (    3303 calls)

     Called by *cgdiagg:
     h_psi        :     85.14s CPU     92.57s WALL (  522506 calls)
     cdiaghg      :      0.69s CPU      0.91s WALL (    3303 calls)

     Called by h_psi:
     add_vuspsi   :      3.51s CPU      5.02s WALL (  522506 calls)

     General routines
     calbec       :     17.70s CPU     18.77s WALL ( 1042709 calls)
     fft          :      0.02s CPU      0.02s WALL (     159 calls)
     fftw         :     69.20s CPU     72.83s WALL ( 1314080 calls)
     davcio       :      0.38s CPU      1.01s WALL (    9900 calls)
 
     Parallel routines
     fft_scatter  :     24.36s CPU     27.53s WALL ( 1314239 calls)
 
     PWSCF        :  2m22.29s CPU     2m30.77s WALL

 
   This run was terminated on:  12:18: 4  22Mar2018            

=------------------------------------------------------------------------------=
   JOB DONE.
=------------------------------------------------------------------------------=
