
     Program PWSCF v.5.0.2 starts on 22Mar2018 at 12:15:13 

     This program is part of the open-source Quantum ESPRESSO suite
     for quantum simulation of materials; please cite
         "P. Giannozzi et al., J. Phys.:Condens. Matter 21 395502 (2009);
          URL http://www.quantum-espresso.org", 
     in publications or presentations arising from this work. More details at
     http://www.quantum-espresso.org/quote.php

     Parallel version (MPI), running on     4 processors
     R & G space division:  proc/nbgrp/npool/nimage =       4

     Current dimensions of program PWSCF are:
     Max number of different atomic species (ntypx) = 10
     Max number of k-points (npk) =  40000
     Max angular momentum in pseudopotentials (lmaxx) =  3
     Waiting for input...
     Reading input from standard input

     Subspace diagonalization in iterative solution of the eigenvalue problem:
     a serial algorithm will be used

 
     Parallelization info
     --------------------
     sticks:   dense  smooth     PW     G-vecs:    dense   smooth      PW
     Min         521     521    161                11869    11869    2028
     Max         522     522    162                11872    11872    2030
     Sum        2087    2087    647                47485    47485    8117
 


     bravais-lattice index     =            0
     lattice parameter (alat)  =      12.8532  a.u.
     unit-cell volume          =    1390.2597 (a.u.)^3
     number of atoms/cell      =            6
     number of atomic types    =            2
     number of electrons       =       140.00
     number of Kohn-Sham states=           84
     kinetic-energy cutoff     =      40.0000  Ry
     charge density cutoff     =     160.0000  Ry
     convergence threshold     =      1.0E-04
     mixing beta               =       0.7000
     number of iterations used =            8  plain     mixing
     Exchange-correlation      = SLA-PZ-NOGX-NOGC ( 1 1 0 0 0)
     EXX-fraction              =        0.00
     nstep                     =           50


     celldm(1)=  12.853229  celldm(2)=   0.000000  celldm(3)=   0.000000
     celldm(4)=   0.000000  celldm(5)=   0.000000  celldm(6)=   0.000000

     crystal axes: (cart. coord. in units of alat)
               a(1) = (   1.000000   0.000000   0.000000 )  
               a(2) = (  -0.036574   0.999331   0.000000 )  
               a(3) = (  -0.266883  -0.706777   0.655164 )  

     reciprocal axes: (cart. coord. in units 2 pi/alat)
               b(1) = (  1.000000  0.036598  0.446834 )  
               b(2) = (  0.000000  1.000669  1.079502 )  
               b(3) = (  0.000000  0.000000  1.526336 )  


     PseudoPot. # 1 for Yb read from file:
     /home/jld5415/pp.La/Yb.UPF
     MD5 check sum: 3e859b81cc28c53ec6aa3a2e888efcdf
     Pseudo is Norm-conserving, Zval = 24.0
     Generated in analytical, separable form
     Using radial grid of 1269 points,  6 beta functions with: 
                l(1) =   0
                l(2) =   0
                l(3) =   1
                l(4) =   1
                l(5) =   2
                l(6) =   3

     PseudoPot. # 2 for Tm read from file:
     /home/jld5415/pp.La/Tm.UPF
     MD5 check sum: 245516e0878b5372ceeb9443ded2c4e1
     Pseudo is Norm-conserving, Zval = 23.0
     Generated in analytical, separable form
     Using radial grid of 1269 points,  6 beta functions with: 
                l(1) =   0
                l(2) =   0
                l(3) =   1
                l(4) =   1
                l(5) =   2
                l(6) =   3

     atomic species   valence    mass     pseudopotential
        K             24.00    39.09830     Yb( 1.00)
        Hg            23.00   200.59000     Tm( 1.00)

      2 Sym. Ops., with inversion, found



   Cartesian axes

     site n.     atom                  positions (alat units)
         1           K   tau(   1) = (  -0.0340766   0.4201429   0.4913727  )
         2           K   tau(   2) = (   0.7306201  -0.1275892   0.1637909  )
         3           Hg  tau(   3) = (   0.2308977  -0.0548727   0.3630373  )
         4           Hg  tau(   4) = (   0.4656458   0.3474265   0.2921263  )
         5           Hg  tau(   5) = (   0.5181090  -0.3317640   0.6197082  )
         6           Hg  tau(   6) = (   0.1784345   0.6243178   0.0354555  )

     number of k points=   253  gaussian smearing, width (Ry)=  0.1000

     Number of k-points >= 100: set verbosity='high' to print them.

     Dense  grid:    47485 G-vectors     FFT dimensions: (  54,  54,  54)

     Largest allocated arrays     est. size (Mb)     dimensions
        Kohn-Sham Wavefunctions         1.92 Mb     (   1500,   84)
        NL pseudopotentials             2.75 Mb     (   1500,  120)
        Each V/rho on FFT grid          0.62 Mb     (  40824)
        Each G-vector array             0.09 Mb     (  11872)
        G-vector shells                 0.09 Mb     (  11872)
     Largest temporary arrays     est. size (Mb)     dimensions
        Each subspace H/S matrix        0.11 Mb     (  84,  84)
        Each <psi_i|beta_j> matrix      0.15 Mb     (    120,   84)
        Arrays for rho mixing           4.98 Mb     (  40824,   8)

     Initial potential from superposition of free atoms

     Starting from uniform charge
     Starting wfc are    0 randomized atomic wfcs

     total cpu time spent up to now is       54.5 secs

     Self-consistent Calculation

     iteration #  1     ecut=    40.00 Ry     beta=0.70
     CG style diagonalization
     ethr =  1.00E-02,  avg # of iterations = 19.5

     total cpu time spent up to now is     1652.6 secs

     total energy              =   -2006.93112709 Ry
     Harris-Foulkes estimate   =   -3158.84698900 Ry
     estimated scf accuracy    <    1426.41437902 Ry

     iteration #  2     ecut=    40.00 Ry     beta=0.70
     CG style diagonalization
     c_bands:  1 eigenvalues not converged
     c_bands:  1 eigenvalues not converged
     c_bands:  1 eigenvalues not converged
     c_bands:  1 eigenvalues not converged
     c_bands:  1 eigenvalues not converged
     c_bands:  1 eigenvalues not converged
     c_bands:  1 eigenvalues not converged
     c_bands:  1 eigenvalues not converged
     c_bands:  1 eigenvalues not converged
     c_bands:  1 eigenvalues not converged
     c_bands:  1 eigenvalues not converged
     c_bands:  1 eigenvalues not converged
     c_bands:  1 eigenvalues not converged
     c_bands:  1 eigenvalues not converged
     c_bands:  1 eigenvalues not converged
     c_bands:  1 eigenvalues not converged
     c_bands:  1 eigenvalues not converged
     c_bands:  1 eigenvalues not converged
     c_bands:  1 eigenvalues not converged
     c_bands:  1 eigenvalues not converged
     c_bands:  1 eigenvalues not converged
     c_bands:  1 eigenvalues not converged
     c_bands:  1 eigenvalues not converged
     c_bands:  1 eigenvalues not converged
     c_bands:  1 eigenvalues not converged
     c_bands:  1 eigenvalues not converged
     c_bands:  1 eigenvalues not converged
     ethr =  1.00E-02,  avg # of iterations =  8.5

     total cpu time spent up to now is     2302.9 secs

     total energy              =   -2121.60854538 Ry
     Harris-Foulkes estimate   =   -2346.80569269 Ry
     estimated scf accuracy    <     314.51678361 Ry

     iteration #  3     ecut=    40.00 Ry     beta=0.70
     CG style diagonalization
     c_bands:  1 eigenvalues not converged
     c_bands:  1 eigenvalues not converged
     c_bands:  1 eigenvalues not converged
     c_bands:  1 eigenvalues not converged
     c_bands:  1 eigenvalues not converged
     c_bands:  1 eigenvalues not converged
     c_bands:  1 eigenvalues not converged
     c_bands:  1 eigenvalues not converged
     c_bands:  1 eigenvalues not converged
     c_bands:  1 eigenvalues not converged
     c_bands:  1 eigenvalues not converged
     c_bands:  1 eigenvalues not converged
     c_bands:  1 eigenvalues not converged
     c_bands:  1 eigenvalues not converged
     c_bands:  1 eigenvalues not converged
     c_bands:  1 eigenvalues not converged
     c_bands:  1 eigenvalues not converged
     c_bands:  1 eigenvalues not converged
     c_bands:  1 eigenvalues not converged
     c_bands:  1 eigenvalues not converged
     c_bands:  1 eigenvalues not converged
     ethr =  1.00E-02,  avg # of iterations =  9.5

     total cpu time spent up to now is     3030.3 secs

     total energy              =   -2228.47104429 Ry
     Harris-Foulkes estimate   =   -2413.92958601 Ry
     estimated scf accuracy    <     465.09226367 Ry

     iteration #  4     ecut=    40.00 Ry     beta=0.70
     CG style diagonalization
     ethr =  1.00E-02,  avg # of iterations =  7.0

     total cpu time spent up to now is     3679.6 secs

     total energy              =   -2287.52329659 Ry
     Harris-Foulkes estimate   =   -2291.41473923 Ry
     estimated scf accuracy    <       6.39962689 Ry

     iteration #  5     ecut=    40.00 Ry     beta=0.70
     CG style diagonalization
     ethr =  4.57E-03,  avg # of iterations =  3.8

     total cpu time spent up to now is     4034.1 secs

     total energy              =   -2288.73207295 Ry
     Harris-Foulkes estimate   =   -2290.28102554 Ry
     estimated scf accuracy    <       3.33760411 Ry

     iteration #  6     ecut=    40.00 Ry     beta=0.70
     CG style diagonalization
     ethr =  2.38E-03,  avg # of iterations =  3.5

     total cpu time spent up to now is     4357.2 secs

     total energy              =   -2289.43312674 Ry
     Harris-Foulkes estimate   =   -2289.50609112 Ry
     estimated scf accuracy    <       0.14804556 Ry

     iteration #  7     ecut=    40.00 Ry     beta=0.70
     CG style diagonalization
     c_bands:  1 eigenvalues not converged
     c_bands:  1 eigenvalues not converged
     c_bands:  1 eigenvalues not converged
     c_bands:  1 eigenvalues not converged
     c_bands:  1 eigenvalues not converged
     c_bands:  1 eigenvalues not converged
     c_bands:  1 eigenvalues not converged
     c_bands:  1 eigenvalues not converged
     c_bands:  1 eigenvalues not converged
     c_bands:  2 eigenvalues not converged
     ethr =  1.06E-04,  avg # of iterations =  4.0

     total cpu time spent up to now is     4728.3 secs

     total energy              =   -2289.46791880 Ry
     Harris-Foulkes estimate   =   -2289.47476137 Ry
     estimated scf accuracy    <       0.01223480 Ry

     iteration #  8     ecut=    40.00 Ry     beta=0.70
     CG style diagonalization
     c_bands:  1 eigenvalues not converged
     c_bands:  1 eigenvalues not converged
     c_bands:  1 eigenvalues not converged
     c_bands:  1 eigenvalues not converged
     c_bands:  1 eigenvalues not converged
     c_bands:  1 eigenvalues not converged
     c_bands:  1 eigenvalues not converged
     c_bands:  1 eigenvalues not converged
     c_bands:  1 eigenvalues not converged
     c_bands:  1 eigenvalues not converged
     c_bands:  1 eigenvalues not converged
     c_bands:  1 eigenvalues not converged
     c_bands:  1 eigenvalues not converged
     c_bands:  1 eigenvalues not converged
     c_bands:  2 eigenvalues not converged
     c_bands:  1 eigenvalues not converged
     c_bands:  1 eigenvalues not converged
     c_bands:  1 eigenvalues not converged
     c_bands:  1 eigenvalues not converged
     c_bands:  1 eigenvalues not converged
     c_bands:  1 eigenvalues not converged
     c_bands:  1 eigenvalues not converged
     c_bands:  1 eigenvalues not converged
     c_bands:  1 eigenvalues not converged
     c_bands:  1 eigenvalues not converged
     c_bands:  1 eigenvalues not converged
     c_bands:  1 eigenvalues not converged
     c_bands:  1 eigenvalues not converged
     c_bands:  1 eigenvalues not converged
     c_bands:  1 eigenvalues not converged
     c_bands:  1 eigenvalues not converged
     c_bands:  2 eigenvalues not converged
     ethr =  8.74E-06,  avg # of iterations =  4.6

     total cpu time spent up to now is     5154.0 secs

     total energy              =   -2289.47159823 Ry
     Harris-Foulkes estimate   =   -2289.47451781 Ry
     estimated scf accuracy    <       0.00538915 Ry

     iteration #  9     ecut=    40.00 Ry     beta=0.70
     CG style diagonalization
     c_bands:  1 eigenvalues not converged
     c_bands:  1 eigenvalues not converged
     c_bands:  1 eigenvalues not converged
     c_bands:  1 eigenvalues not converged
     c_bands:  1 eigenvalues not converged
     c_bands:  1 eigenvalues not converged
     c_bands:  1 eigenvalues not converged
     c_bands:  1 eigenvalues not converged
     ethr =  3.85E-06,  avg # of iterations =  3.7

     total cpu time spent up to now is     5500.3 secs

     total energy              =   -2289.47267892 Ry
     Harris-Foulkes estimate   =   -2289.47328636 Ry
     estimated scf accuracy    <       0.00114661 Ry

     iteration # 10     ecut=    40.00 Ry     beta=0.70
     CG style diagonalization
     c_bands:  1 eigenvalues not converged
     c_bands:  1 eigenvalues not converged
     c_bands:  1 eigenvalues not converged
     c_bands:  1 eigenvalues not converged
     ethr =  8.19E-07,  avg # of iterations =  3.7

     total cpu time spent up to now is     5814.9 secs

     total energy              =   -2289.47291613 Ry
     Harris-Foulkes estimate   =   -2289.47311969 Ry
     estimated scf accuracy    <       0.00044158 Ry

     iteration # 11     ecut=    40.00 Ry     beta=0.70
     CG style diagonalization
     ethr =  3.15E-07,  avg # of iterations =  3.2

     total cpu time spent up to now is     6042.4 secs

     End of self-consistent calculation

     Number of k-points >= 100: set verbosity='high' to print the bands.

     the Fermi energy is    16.0369 ev

!    total energy              =   -2289.47298842 Ry
     Harris-Foulkes estimate   =   -2289.47300815 Ry
     estimated scf accuracy    <       0.00002185 Ry

     The total energy is the sum of the following terms:

     one-electron contribution =   -1180.83707892 Ry
     hartree contribution      =     588.80864732 Ry
     xc contribution           =    -180.88047235 Ry
     ewald contribution        =   -1516.31037345 Ry
     smearing contrib. (-TS)   =      -0.25371102 Ry

     convergence has been achieved in  11 iterations

     Forces acting on atoms (Ry/au):

     atom    1 type  1   force =     0.01026385    0.00895401    0.00079269
     atom    2 type  1   force =    -0.01026385   -0.00895401   -0.00079269
     atom    3 type  2   force =     0.00953418    0.00984668    0.00001872
     atom    4 type  2   force =    -0.00953418   -0.00984668   -0.00001872
     atom    5 type  2   force =     0.00621361    0.00600653    0.00018304
     atom    6 type  2   force =    -0.00621361   -0.00600653   -0.00018304

     Total force =     0.029958     Total SCF correction =     0.000000


     entering subroutine stress ...

          total   stress  (Ry/bohr**3)                   (kbar)     P= -572.56
  -0.00392670   0.00007506  -0.00013747       -577.64     11.04    -20.22
   0.00007506  -0.00392404   0.00013314         11.04   -577.25     19.59
  -0.00013747   0.00013314  -0.00382575        -20.22     19.59   -562.79


     BFGS Geometry Optimization

     number of scf cycles    =   1
     number of bfgs steps    =   0

     enthalpy new            =   -2289.4729884193 Ry

     new trust radius        =       0.5000000000 bohr
     new conv_thr            =       0.0001000000 Ry

     new unit-cell volume =   1131.26104 a.u.^3 (   167.63559 Ang^3 )

CELL_PARAMETERS (alat= 12.85322937)
   0.933004313   0.001280711  -0.002345415
  -0.032843385   0.932378602   0.002355849
  -0.251444759  -0.658311818   0.611419378

ATOMIC_POSITIONS (crystal)
K        0.201443182   0.951383181   0.750064242
K        0.798556818   0.048616819   0.249935758
Hg       0.391632811   0.337514248   0.554118517
Hg       0.608367189   0.662485752   0.445881483
Hg       0.783219936   0.337319631   0.945897834
Hg       0.216780064   0.662680369   0.054102166



     Writing output data file Prototype-La-oI12-KHg2.save
     NEW-OLD atomic charge density approx. for the potential
     NEW k-points: (use verbosity='high' to print them)

     total cpu time spent up to now is     6083.9 secs

     Self-consistent Calculation

     iteration #  1     ecut=    40.00 Ry     beta=0.70
     CG style diagonalization
     c_bands:  1 eigenvalues not converged
     c_bands:  1 eigenvalues not converged
     c_bands:  1 eigenvalues not converged
     c_bands:  1 eigenvalues not converged
     c_bands:  1 eigenvalues not converged
     c_bands:  1 eigenvalues not converged
     c_bands:  2 eigenvalues not converged
     c_bands:  1 eigenvalues not converged
     c_bands:  1 eigenvalues not converged
     c_bands:  1 eigenvalues not converged
     c_bands:  1 eigenvalues not converged
     c_bands:  1 eigenvalues not converged
     c_bands:  1 eigenvalues not converged
     c_bands:  1 eigenvalues not converged
     c_bands:  1 eigenvalues not converged
     c_bands:  1 eigenvalues not converged
     c_bands:  1 eigenvalues not converged
     c_bands:  1 eigenvalues not converged
     c_bands:  1 eigenvalues not converged
     c_bands:  1 eigenvalues not converged
     c_bands:  1 eigenvalues not converged
     c_bands:  1 eigenvalues not converged
     c_bands:  1 eigenvalues not converged
     c_bands:  1 eigenvalues not converged
     c_bands:  1 eigenvalues not converged
     c_bands:  1 eigenvalues not converged
     c_bands:  1 eigenvalues not converged
     c_bands:  1 eigenvalues not converged
     c_bands:  1 eigenvalues not converged
     c_bands:  1 eigenvalues not converged
     ethr =  1.00E-06,  avg # of iterations = 24.3

     total cpu time spent up to now is     7692.1 secs

     total energy              =   -2279.70550318 Ry
     Harris-Foulkes estimate   =   -2302.22750235 Ry
     estimated scf accuracy    <      27.45595135 Ry

     iteration #  2     ecut=    40.00 Ry     beta=0.70
     CG style diagonalization
     ethr =  1.00E-02,  avg # of iterations =  4.6

     total cpu time spent up to now is     8013.0 secs

     total energy              =   -2289.08992473 Ry
     Harris-Foulkes estimate   =   -2292.44513223 Ry
     estimated scf accuracy    <       4.97305055 Ry

     iteration #  3     ecut=    40.00 Ry     beta=0.70
     CG style diagonalization
     ethr =  3.55E-03,  avg # of iterations =  3.6

     total cpu time spent up to now is     8270.3 secs

     total energy              =   -2290.05878101 Ry
     Harris-Foulkes estimate   =   -2290.14406448 Ry
     estimated scf accuracy    <       0.13482026 Ry

     iteration #  4     ecut=    40.00 Ry     beta=0.70
     CG style diagonalization
     c_bands:  1 eigenvalues not converged
     ethr =  9.63E-05,  avg # of iterations =  4.3

     total cpu time spent up to now is     8565.9 secs

     total energy              =   -2290.11956780 Ry
     Harris-Foulkes estimate   =   -2290.14936741 Ry
     estimated scf accuracy    <       0.06273373 Ry

     iteration #  5     ecut=    40.00 Ry     beta=0.70
     CG style diagonalization
     c_bands:  1 eigenvalues not converged
     c_bands:  1 eigenvalues not converged
     c_bands:  1 eigenvalues not converged
     ethr =  4.48E-05,  avg # of iterations =  3.6

     total cpu time spent up to now is     8822.6 secs

     total energy              =   -2290.13115307 Ry
     Harris-Foulkes estimate   =   -2290.13493106 Ry
     estimated scf accuracy    <       0.00816325 Ry

     iteration #  6     ecut=    40.00 Ry     beta=0.70
     CG style diagonalization
     c_bands:  1 eigenvalues not converged
     c_bands:  3 eigenvalues not converged
     c_bands:  1 eigenvalues not converged
     c_bands:  1 eigenvalues not converged
     c_bands:  1 eigenvalues not converged
     c_bands:  1 eigenvalues not converged
     c_bands:  1 eigenvalues not converged
     c_bands:  1 eigenvalues not converged
     c_bands:  1 eigenvalues not converged
     c_bands:  1 eigenvalues not converged
     c_bands:  1 eigenvalues not converged
     ethr =  5.83E-06,  avg # of iterations =  3.7

     total cpu time spent up to now is     9084.7 secs

     total energy              =   -2290.13218375 Ry
     Harris-Foulkes estimate   =   -2290.13270435 Ry
     estimated scf accuracy    <       0.00083172 Ry

     iteration #  7     ecut=    40.00 Ry     beta=0.70
     CG style diagonalization
     c_bands:  1 eigenvalues not converged
     c_bands:  1 eigenvalues not converged
     c_bands:  1 eigenvalues not converged
     ethr =  5.94E-07,  avg # of iterations =  4.1

     total cpu time spent up to now is     9372.0 secs

     End of self-consistent calculation

     Number of k-points >= 100: set verbosity='high' to print the bands.

     the Fermi energy is    20.8605 ev

!    total energy              =   -2290.13244110 Ry
     Harris-Foulkes estimate   =   -2290.13249297 Ry
     estimated scf accuracy    <       0.00005870 Ry

     The total energy is the sum of the following terms:

     one-electron contribution =   -1010.11843751 Ry
     hartree contribution      =     526.77073659 Ry
     xc contribution           =    -182.18359049 Ry
     ewald contribution        =   -1624.38556755 Ry
     smearing contrib. (-TS)   =      -0.21558214 Ry

     convergence has been achieved in   7 iterations

     Forces acting on atoms (Ry/au):

     atom    1 type  1   force =     0.03076548   -0.01057378    0.01915753
     atom    2 type  1   force =    -0.03076548    0.01057378   -0.01915753
     atom    3 type  2   force =     0.00808923    0.07309701   -0.02888037
     atom    4 type  2   force =    -0.00808923   -0.07309701    0.02888037
     atom    5 type  2   force =     0.02566442   -0.02260140    0.02195377
     atom    6 type  2   force =    -0.02566442    0.02260140   -0.02195377

     Total force =     0.136524     Total SCF correction =     0.000000


     entering subroutine stress ...

          total   stress  (Ry/bohr**3)                   (kbar)     P= -122.43
  -0.00088817   0.00014791  -0.00024420       -130.65     21.76    -35.92
   0.00014791  -0.00088535   0.00023881         21.76   -130.24     35.13
  -0.00024420   0.00023881  -0.00072335        -35.92     35.13   -106.41


     number of scf cycles    =   2
     number of bfgs steps    =   1

     enthalpy old            =   -2289.4729884193 Ry
     enthalpy new            =   -2290.1324411047 Ry

     CASE: enthalpy_new < enthalpy_old

     small trust_radius: resetting bfgs history

     new trust radius        =       0.1568909884 bohr
     new conv_thr            =       0.0000730970 Ry

     new unit-cell volume =   1062.00274 a.u.^3 (   157.37257 Ang^3 )

CELL_PARAMETERS (alat= 12.85322937)
   0.912306813   0.004688446  -0.007991284
  -0.028680738   0.911634159   0.008080380
  -0.252028640  -0.641020302   0.597967376

ATOMIC_POSITIONS (crystal)
K        0.204697722   0.952224102   0.752511230
K        0.795302278   0.047775898   0.247488770
Hg       0.391436156   0.341009268   0.550429348
Hg       0.608563844   0.658990732   0.449570652
Hg       0.786118982   0.337409712   0.948702166
Hg       0.213881018   0.662590288   0.051297834



     Writing output data file Prototype-La-oI12-KHg2.save
     NEW-OLD atomic charge density approx. for the potential
     NEW k-points: (use verbosity='high' to print them)

     total cpu time spent up to now is     9415.2 secs

     Self-consistent Calculation

     iteration #  1     ecut=    40.00 Ry     beta=0.70
     CG style diagonalization
     c_bands:  1 eigenvalues not converged
     c_bands:  1 eigenvalues not converged
     c_bands:  1 eigenvalues not converged
     c_bands:  1 eigenvalues not converged
     c_bands:  1 eigenvalues not converged
     c_bands:  1 eigenvalues not converged
     c_bands:  1 eigenvalues not converged
     c_bands:  1 eigenvalues not converged
     c_bands:  1 eigenvalues not converged
     c_bands:  1 eigenvalues not converged
     c_bands:  1 eigenvalues not converged
     c_bands:  1 eigenvalues not converged
     c_bands:  1 eigenvalues not converged
     c_bands:  1 eigenvalues not converged
     c_bands:  1 eigenvalues not converged
     c_bands:  1 eigenvalues not converged
     c_bands:  1 eigenvalues not converged
     c_bands:  1 eigenvalues not converged
     c_bands:  1 eigenvalues not converged
     c_bands:  1 eigenvalues not converged
     c_bands:  1 eigenvalues not converged
     c_bands:  1 eigenvalues not converged
     c_bands:  1 eigenvalues not converged
     c_bands:  1 eigenvalues not converged
     c_bands:  1 eigenvalues not converged
     c_bands:  2 eigenvalues not converged
     c_bands:  1 eigenvalues not converged
     c_bands:  1 eigenvalues not converged
     c_bands:  1 eigenvalues not converged
     c_bands:  1 eigenvalues not converged
     c_bands:  1 eigenvalues not converged
     c_bands:  1 eigenvalues not converged
     c_bands:  1 eigenvalues not converged
     c_bands:  1 eigenvalues not converged
     c_bands:  1 eigenvalues not converged
     c_bands:  1 eigenvalues not converged
     c_bands:  1 eigenvalues not converged
     c_bands:  1 eigenvalues not converged
     c_bands:  1 eigenvalues not converged
     c_bands:  1 eigenvalues not converged
     c_bands:  1 eigenvalues not converged
     c_bands:  1 eigenvalues not converged
     c_bands:  1 eigenvalues not converged
     c_bands:  1 eigenvalues not converged
     c_bands:  1 eigenvalues not converged
     c_bands:  1 eigenvalues not converged
