
     Program PWSCF v.5.0.2 starts on 22Mar2018 at 17:38:27 

     This program is part of the open-source Quantum ESPRESSO suite
     for quantum simulation of materials; please cite
         "P. Giannozzi et al., J. Phys.:Condens. Matter 21 395502 (2009);
          URL http://www.quantum-espresso.org", 
     in publications or presentations arising from this work. More details at
     http://www.quantum-espresso.org/quote.php

     Parallel version (MPI), running on     4 processors
     R & G space division:  proc/nbgrp/npool/nimage =       4

     Current dimensions of program PWSCF are:
     Max number of different atomic species (ntypx) = 10
     Max number of k-points (npk) =  40000
     Max angular momentum in pseudopotentials (lmaxx) =  3
     Waiting for input...
     Reading input from standard input

     Subspace diagonalization in iterative solution of the eigenvalue problem:
     a serial algorithm will be used

 
     Parallelization info
     --------------------
     sticks:   dense  smooth     PW     G-vecs:    dense   smooth      PW
     Min         256     256     78                 5240     5240     876
     Max         257     257     79                 5243     5243     879
     Sum        1027    1027    313                20965    20965    3509
 


     bravais-lattice index     =            0
     lattice parameter (alat)  =       9.6483  a.u.
     unit-cell volume          =     613.3683 (a.u.)^3
     number of atoms/cell      =            6
     number of atomic types    =            2
     number of electrons       =        99.00
     number of Kohn-Sham states=           60
     kinetic-energy cutoff     =      40.0000  Ry
     charge density cutoff     =     160.0000  Ry
     convergence threshold     =      1.0E-04
     mixing beta               =       0.7000
     number of iterations used =            8  plain     mixing
     Exchange-correlation      = SLA-PZ-NOGX-NOGC ( 1 1 0 0 0)
     EXX-fraction              =        0.00
     nstep                     =           50


     celldm(1)=   9.648295  celldm(2)=   0.000000  celldm(3)=   0.000000
     celldm(4)=   0.000000  celldm(5)=   0.000000  celldm(6)=   0.000000

     crystal axes: (cart. coord. in units of alat)
               a(1) = (   1.000000   0.000000   0.000000 )  
               a(2) = (  -0.500000   0.866025   0.000000 )  
               a(3) = (   0.000000   0.000000   0.788568 )  

     reciprocal axes: (cart. coord. in units 2 pi/alat)
               b(1) = (  1.000000  0.577350  0.000000 )  
               b(2) = (  0.000000  1.154701  0.000000 )  
               b(3) = (  0.000000  0.000000  1.268122 )  


     PseudoPot. # 1 for Tb read from file:
     /home/cwx6513/pp.La/Tb.UPF
     MD5 check sum: 3d6088a3f0cf7fd2e110c43f7f8e95c2
     Pseudo is Norm-conserving, Zval = 19.0
     Generated in analytical, separable form
     Using radial grid of 1263 points,  6 beta functions with: 
                l(1) =   0
                l(2) =   0
                l(3) =   1
                l(4) =   1
                l(5) =   2
                l(6) =   3

     PseudoPot. # 2 for Sm read from file:
     /home/cwx6513/pp.La/Sm.UPF
     MD5 check sum: 5079e8b144a06bfcdbc14fb02b96ab09
     Pseudo is Norm-conserving, Zval = 16.0
     Generated in analytical, separable form
     Using radial grid of 1259 points,  6 beta functions with: 
                l(1) =   0
                l(2) =   0
                l(3) =   1
                l(4) =   1
                l(5) =   2
                l(6) =   3

     atomic species   valence    mass     pseudopotential
        Ca            19.00    40.07800     Tb( 1.00)
        Cu            16.00    63.54600     Sm( 1.00)

     24 Sym. Ops., with inversion, found



   Cartesian axes

     site n.     atom                  positions (alat units)
         1           Ca  tau(   1) = (   0.0000000   0.0000000   0.0000000  )
         2           Cu  tau(   2) = (  -0.0000005   0.5773506   0.0000000  )
         3           Cu  tau(   3) = (   0.5000005   0.2886748   0.0000000  )
         4           Cu  tau(   4) = (   0.5000000   0.0000000   0.3942838  )
         5           Cu  tau(   5) = (   0.2500000   0.4330127   0.3942838  )
         6           Cu  tau(   6) = (  -0.2500000   0.4330127   0.3942838  )

     number of k points=   110  gaussian smearing, width (Ry)=  0.1000

     Number of k-points >= 100: set verbosity='high' to print them.

     Dense  grid:    20965 G-vectors     FFT dimensions: (  40,  40,  32)

     Largest allocated arrays     est. size (Mb)     dimensions
        Kohn-Sham Wavefunctions         0.61 Mb     (    670,   60)
        NL pseudopotentials             1.23 Mb     (    670,  120)
        Each V/rho on FFT grid          0.20 Mb     (  12800)
        Each G-vector array             0.04 Mb     (   5243)
        G-vector shells                 0.04 Mb     (   5243)
     Largest temporary arrays     est. size (Mb)     dimensions
        Each subspace H/S matrix        0.05 Mb     (  60,  60)
        Each <psi_i|beta_j> matrix      0.11 Mb     (    120,   60)
        Arrays for rho mixing           1.56 Mb     (  12800,   8)

     Initial potential from superposition of free atoms

     Starting from uniform charge
     Starting wfc are    0 randomized atomic wfcs

     total cpu time spent up to now is        5.3 secs

     Self-consistent Calculation

     iteration #  1     ecut=    40.00 Ry     beta=0.70
     CG style diagonalization
     c_bands:  5 eigenvalues not converged
     c_bands:  5 eigenvalues not converged
     c_bands:  5 eigenvalues not converged
     c_bands:  4 eigenvalues not converged
     c_bands:  4 eigenvalues not converged
     c_bands:  5 eigenvalues not converged
     c_bands:  4 eigenvalues not converged
     c_bands:  4 eigenvalues not converged
     c_bands:  4 eigenvalues not converged
     c_bands:  5 eigenvalues not converged
     c_bands:  5 eigenvalues not converged
     c_bands:  5 eigenvalues not converged
     c_bands:  4 eigenvalues not converged
     c_bands:  5 eigenvalues not converged
     c_bands:  5 eigenvalues not converged
     c_bands:  3 eigenvalues not converged
     c_bands:  5 eigenvalues not converged
     ethr =  1.00E-02,  avg # of iterations = 18.1

     total cpu time spent up to now is      111.4 secs

     total energy              =    -934.13608132 Ry
     Harris-Foulkes estimate   =   -1130.81158700 Ry
     estimated scf accuracy    <     256.16533038 Ry

     iteration #  2     ecut=    40.00 Ry     beta=0.70
     CG style diagonalization
     c_bands:  1 eigenvalues not converged
     ethr =  1.00E-02,  avg # of iterations =  8.0

     total cpu time spent up to now is      159.5 secs

     total energy              =    -978.38286041 Ry
     Harris-Foulkes estimate   =    -992.21740104 Ry
     estimated scf accuracy    <      19.31056189 Ry

     iteration #  3     ecut=    40.00 Ry     beta=0.70
     CG style diagonalization
     ethr =  1.00E-02,  avg # of iterations =  4.8

     total cpu time spent up to now is      187.6 secs

     total energy              =    -982.35447507 Ry
     Harris-Foulkes estimate   =    -990.11713547 Ry
     estimated scf accuracy    <      17.40538303 Ry

     iteration #  4     ecut=    40.00 Ry     beta=0.70
     CG style diagonalization
     ethr =  1.00E-02,  avg # of iterations =  3.6

     total cpu time spent up to now is      208.1 secs

     total energy              =    -985.39210514 Ry
     Harris-Foulkes estimate   =    -985.59446437 Ry
     estimated scf accuracy    <       0.34938935 Ry

     iteration #  5     ecut=    40.00 Ry     beta=0.70
     CG style diagonalization
     c_bands:  1 eigenvalues not converged
     c_bands:  1 eigenvalues not converged
     c_bands:  1 eigenvalues not converged
     c_bands:  1 eigenvalues not converged
     c_bands:  1 eigenvalues not converged
     c_bands:  1 eigenvalues not converged
     c_bands:  1 eigenvalues not converged
     c_bands:  1 eigenvalues not converged
     ethr =  3.53E-04,  avg # of iterations =  4.5

     total cpu time spent up to now is      234.7 secs

     total energy              =    -985.53559491 Ry
     Harris-Foulkes estimate   =    -985.60610979 Ry
     estimated scf accuracy    <       0.12163884 Ry

     iteration #  6     ecut=    40.00 Ry     beta=0.70
     CG style diagonalization
     c_bands:  1 eigenvalues not converged
     c_bands:  1 eigenvalues not converged
     ethr =  1.23E-04,  avg # of iterations =  3.7

     total cpu time spent up to now is      256.0 secs

     total energy              =    -985.57129590 Ry
     Harris-Foulkes estimate   =    -985.58911310 Ry
     estimated scf accuracy    <       0.04336235 Ry

     iteration #  7     ecut=    40.00 Ry     beta=0.70
     CG style diagonalization
     ethr =  4.38E-05,  avg # of iterations =  3.4

     total cpu time spent up to now is      275.9 secs

     total energy              =    -985.57973511 Ry
     Harris-Foulkes estimate   =    -985.58006408 Ry
     estimated scf accuracy    <       0.00066790 Ry

     iteration #  8     ecut=    40.00 Ry     beta=0.70
     CG style diagonalization
     c_bands:  1 eigenvalues not converged
     c_bands:  1 eigenvalues not converged
     c_bands:  1 eigenvalues not converged
     c_bands:  1 eigenvalues not converged
     c_bands:  1 eigenvalues not converged
     ethr =  6.75E-07,  avg # of iterations =  5.1

     total cpu time spent up to now is      303.6 secs

     total energy              =    -985.58039767 Ry
     Harris-Foulkes estimate   =    -985.58044974 Ry
     estimated scf accuracy    <       0.00012688 Ry

     iteration #  9     ecut=    40.00 Ry     beta=0.70
     CG style diagonalization
     ethr =  1.28E-07,  avg # of iterations =  3.5

     total cpu time spent up to now is      321.5 secs

     End of self-consistent calculation

     Number of k-points >= 100: set verbosity='high' to print the bands.

     the Fermi energy is    32.8628 ev

!    total energy              =    -985.58042464 Ry
     Harris-Foulkes estimate   =    -985.58042841 Ry
     estimated scf accuracy    <       0.00000569 Ry

     The total energy is the sum of the following terms:

     one-electron contribution =       7.51720655 Ry
     hartree contribution      =     101.77945657 Ry
     xc contribution           =    -107.55145877 Ry
     ewald contribution        =    -987.02445881 Ry
     smearing contrib. (-TS)   =      -0.30117018 Ry

     convergence has been achieved in   9 iterations

     Forces acting on atoms (Ry/au):

     atom    1 type  1   force =     0.00000000    0.00000000    0.00000000
     atom    2 type  2   force =     0.00000000    0.00000000    0.00000000
     atom    3 type  2   force =     0.00000000    0.00000000    0.00000000
     atom    4 type  2   force =     0.00000000    0.00000000    0.00000000
     atom    5 type  2   force =     0.00000000    0.00000000    0.00000000
     atom    6 type  2   force =     0.00000000    0.00000000    0.00000000

     Total force =     0.000000     Total SCF correction =     0.000000


     entering subroutine stress ...

          total   stress  (Ry/bohr**3)                   (kbar)     P= 1779.56
   0.01022282   0.00000000   0.00000000       1503.83      0.00      0.00
   0.00000000   0.01022282   0.00000000          0.00   1503.83      0.00
   0.00000000   0.00000000   0.01584601          0.00      0.00   2331.03


     BFGS Geometry Optimization

     number of scf cycles    =   1
     number of bfgs steps    =   0

     enthalpy new            =    -985.5804246435 Ry

     new trust radius        =       0.5000000000 bohr
     new conv_thr            =       0.0001000000 Ry

     new unit-cell volume =    766.09998 a.u.^3 (   113.52430 Ang^3 )

CELL_PARAMETERS (alat=  9.64829493)
   1.065122381   0.000000000   0.000000000
  -0.532561191   0.922423040   0.000000000
   0.000000000   0.000000000   0.868168629

ATOMIC_POSITIONS (crystal)
Ca       0.000000000   0.000000000   0.000000000
Cu       0.333333000   0.666667000   0.000000000
Cu       0.666667000   0.333333000   0.000000000
Cu       0.500000000   0.000000000   0.500000000
Cu       0.500000000   0.500000000   0.500000000
Cu       0.000000000   0.500000000   0.500000000



     Writing output data file Prototype-La-hP6-CaCu5.save
     NEW-OLD atomic charge density approx. for the potential
     NEW k-points: (use verbosity='high' to print them)

     total cpu time spent up to now is      327.1 secs

     Self-consistent Calculation

     iteration #  1     ecut=    40.00 Ry     beta=0.70
     CG style diagonalization
     c_bands:  3 eigenvalues not converged
     c_bands:  2 eigenvalues not converged
     c_bands:  4 eigenvalues not converged
     c_bands:  3 eigenvalues not converged
     c_bands:  3 eigenvalues not converged
     c_bands:  5 eigenvalues not converged
     c_bands:  1 eigenvalues not converged
     c_bands:  5 eigenvalues not converged
     c_bands:  4 eigenvalues not converged
     c_bands:  2 eigenvalues not converged
     c_bands:  1 eigenvalues not converged
     c_bands:  2 eigenvalues not converged
     ethr =  1.00E-06,  avg # of iterations = 20.0

     total cpu time spent up to now is      434.0 secs

     total energy              =    -982.64185546 Ry
     Harris-Foulkes estimate   =    -991.40258360 Ry
     estimated scf accuracy    <      11.43457051 Ry

     iteration #  2     ecut=    40.00 Ry     beta=0.70
     CG style diagonalization
     ethr =  1.00E-02,  avg # of iterations =  3.9

     total cpu time spent up to now is      455.5 secs

     total energy              =    -985.73686624 Ry
     Harris-Foulkes estimate   =    -987.30323608 Ry
     estimated scf accuracy    <       2.50576295 Ry

     iteration #  3     ecut=    40.00 Ry     beta=0.70
     CG style diagonalization
     ethr =  2.53E-03,  avg # of iterations =  3.6

     total cpu time spent up to now is      473.3 secs

     total energy              =    -986.33493610 Ry
     Harris-Foulkes estimate   =    -986.69713425 Ry
     estimated scf accuracy    <       0.88653213 Ry

     iteration #  4     ecut=    40.00 Ry     beta=0.70
     CG style diagonalization
     ethr =  8.95E-04,  avg # of iterations =  3.2

     total cpu time spent up to now is      489.7 secs

     total energy              =    -986.44758396 Ry
     Harris-Foulkes estimate   =    -986.51855730 Ry
     estimated scf accuracy    <       0.16535691 Ry

     iteration #  5     ecut=    40.00 Ry     beta=0.70
     CG style diagonalization
     ethr =  1.67E-04,  avg # of iterations =  3.4

     total cpu time spent up to now is      506.7 secs

     total energy              =    -986.48324733 Ry
     Harris-Foulkes estimate   =    -986.50165848 Ry
     estimated scf accuracy    <       0.05782591 Ry

     iteration #  6     ecut=    40.00 Ry     beta=0.70
     CG style diagonalization
     ethr =  5.84E-05,  avg # of iterations =  3.1

     total cpu time spent up to now is      523.4 secs

     total energy              =    -986.49234245 Ry
     Harris-Foulkes estimate   =    -986.49295053 Ry
     estimated scf accuracy    <       0.00114594 Ry

     iteration #  7     ecut=    40.00 Ry     beta=0.70
     CG style diagonalization
     c_bands:  1 eigenvalues not converged
     c_bands:  1 eigenvalues not converged
     ethr =  1.16E-06,  avg # of iterations =  4.1

     total cpu time spent up to now is      545.8 secs

     total energy              =    -986.49284022 Ry
     Harris-Foulkes estimate   =    -986.49293490 Ry
     estimated scf accuracy    <       0.00022684 Ry

     iteration #  8     ecut=    40.00 Ry     beta=0.70
     CG style diagonalization
     ethr =  2.29E-07,  avg # of iterations =  3.4

     total cpu time spent up to now is      562.6 secs

     End of self-consistent calculation

     Number of k-points >= 100: set verbosity='high' to print the bands.

     the Fermi energy is    25.2052 ev

!    total energy              =    -986.49288643 Ry
     Harris-Foulkes estimate   =    -986.49288766 Ry
     estimated scf accuracy    <       0.00000164 Ry

     The total energy is the sum of the following terms:

     one-electron contribution =     -87.49154791 Ry
     hartree contribution      =     123.83027556 Ry
     xc contribution           =    -104.92517914 Ry
     ewald contribution        =    -917.51460270 Ry
     smearing contrib. (-TS)   =      -0.39183225 Ry

     convergence has been achieved in   8 iterations

     Forces acting on atoms (Ry/au):

     atom    1 type  1   force =     0.00000000    0.00000000    0.00000000
     atom    2 type  2   force =     0.00000000    0.00000000    0.00000000
     atom    3 type  2   force =     0.00000000    0.00000000    0.00000000
     atom    4 type  2   force =     0.00000000    0.00000000    0.00000000
     atom    5 type  2   force =     0.00000000    0.00000000    0.00000000
     atom    6 type  2   force =     0.00000000    0.00000000    0.00000000

     Total force =     0.000000     Total SCF correction =     0.000000


     entering subroutine stress ...

          total   stress  (Ry/bohr**3)                   (kbar)     P=  123.35
   0.00028331   0.00000000   0.00000000         41.68      0.00      0.00
   0.00000000   0.00028331   0.00000000          0.00     41.68      0.00
   0.00000000   0.00000000   0.00194889          0.00      0.00    286.69


     number of scf cycles    =   2
     number of bfgs steps    =   1

     enthalpy old            =    -985.5804246435 Ry
     enthalpy new            =    -986.4928864292 Ry

     CASE: enthalpy_new < enthalpy_old

     small trust_radius: resetting bfgs history

     new trust radius        =       0.2697121246 bohr
     new conv_thr            =       0.0000010000 Ry

     new unit-cell volume =    814.84738 a.u.^3 (   120.74792 Ang^3 )

CELL_PARAMETERS (alat=  9.64829493)
   1.072666384   0.000000000   0.000000000
  -0.536333192   0.928956338   0.000000000
   0.000000000   0.000000000   0.910467798

ATOMIC_POSITIONS (crystal)
Ca       0.000000000   0.000000000   0.000000000
Cu       0.333333000   0.666667000   0.000000000
Cu       0.666667000   0.333333000   0.000000000
Cu       0.500000000   0.000000000   0.500000000
Cu       0.500000000   0.500000000   0.500000000
Cu       0.000000000   0.500000000   0.500000000



     Writing output data file Prototype-La-hP6-CaCu5.save
     NEW-OLD atomic charge density approx. for the potential
     NEW k-points: (use verbosity='high' to print them)

     total cpu time spent up to now is      568.3 secs

     Self-consistent Calculation

     iteration #  1     ecut=    40.00 Ry     beta=0.70
     CG style diagonalization
     c_bands:  1 eigenvalues not converged
     c_bands:  4 eigenvalues not converged
     c_bands:  4 eigenvalues not converged
     c_bands:  1 eigenvalues not converged
     c_bands:  1 eigenvalues not converged
     c_bands:  4 eigenvalues not converged
     c_bands:  4 eigenvalues not converged
     c_bands:  1 eigenvalues not converged
     c_bands:  4 eigenvalues not converged
     c_bands:  5 eigenvalues not converged
     c_bands:  1 eigenvalues not converged
     c_bands:  1 eigenvalues not converged
     c_bands:  4 eigenvalues not converged
     c_bands:  1 eigenvalues not converged
     c_bands:  2 eigenvalues not converged
     c_bands:  5 eigenvalues not converged
     c_bands:  2 eigenvalues not converged
     c_bands:  5 eigenvalues not converged
     c_bands:  4 eigenvalues not converged
     c_bands:  2 eigenvalues not converged
     c_bands:  2 eigenvalues not converged
     c_bands:  5 eigenvalues not converged
     c_bands:  4 eigenvalues not converged
     c_bands:  2 eigenvalues not converged
     c_bands:  4 eigenvalues not converged
     c_bands:  2 eigenvalues not converged
     c_bands:  4 eigenvalues not converged
     c_bands:  2 eigenvalues not converged
     c_bands:  4 eigenvalues not converged
     c_bands:  5 eigenvalues not converged
     c_bands:  2 eigenvalues not converged
     c_bands:  3 eigenvalues not converged
     c_bands:  2 eigenvalues not converged
     c_bands:  1 eigenvalues not converged
     c_bands:  2 eigenvalues not converged
     c_bands:  4 eigenvalues not converged
     c_bands:  2 eigenvalues not converged
     c_bands:  2 eigenvalues not converged
     c_bands:  2 eigenvalues not converged
     c_bands:  2 eigenvalues not converged
     c_bands:  2 eigenvalues not converged
     c_bands:  1 eigenvalues not converged
     c_bands:  3 eigenvalues not converged
     c_bands:  1 eigenvalues not converged
     c_bands:  2 eigenvalues not converged
     c_bands:  1 eigenvalues not converged
     c_bands:  2 eigenvalues not converged
     c_bands:  5 eigenvalues not converged
     c_bands:  2 eigenvalues not converged
     c_bands:  4 eigenvalues not converged
     c_bands:  1 eigenvalues not converged
     ethr =  1.00E-06,  avg # of iterations = 14.5

     total cpu time spent up to now is      645.3 secs

     total energy              =    -986.07905402 Ry
     Harris-Foulkes estimate   =    -987.02015252 Ry
     estimated scf accuracy    <       1.23662643 Ry

     iteration #  2     ecut=    40.00 Ry     beta=0.70
     CG style diagonalization
     ethr =  1.25E-03,  avg # of iterations =  3.8

     total cpu time spent up to now is      664.1 secs

     total energy              =    -986.21788896 Ry
     Harris-Foulkes estimate   =    -986.64770014 Ry
     estimated scf accuracy    <       0.71889865 Ry

     iteration #  3     ecut=    40.00 Ry     beta=0.70
     CG style diagonalization
     ethr =  7.26E-04,  avg # of iterations =  3.6

     total cpu time spent up to now is      681.7 secs

     total energy              =    -986.34204554 Ry
     Harris-Foulkes estimate   =    -986.66893619 Ry
     estimated scf accuracy    <       1.11611837 Ry

     iteration #  4     ecut=    40.00 Ry     beta=0.70
     CG style diagonalization
     ethr =  7.26E-04,  avg # of iterations =  3.1

     total cpu time spent up to now is      697.5 secs

     total energy              =    -986.47732093 Ry
     Harris-Foulkes estimate   =    -986.52095554 Ry
     estimated scf accuracy    <       0.13561566 Ry

     iteration #  5     ecut=    40.00 Ry     beta=0.70
     CG style diagonalization
     ethr =  1.37E-04,  avg # of iterations =  3.1

     total cpu time spent up to now is      712.7 secs

     total energy              =    -986.49509837 Ry
     Harris-Foulkes estimate   =    -986.49633268 Ry
     estimated scf accuracy    <       0.00296007 Ry

     iteration #  6     ecut=    40.00 Ry     beta=0.70
     CG style diagonalization
     ethr =  2.99E-06,  avg # of iterations =  4.3

     total cpu time spent up to now is      734.5 secs

     total energy              =    -986.49707495 Ry
     Harris-Foulkes estimate   =    -986.49715850 Ry
     estimated scf accuracy    <       0.00021370 Ry

     iteration #  7     ecut=    40.00 Ry     beta=0.70
     CG style diagonalization
     ethr =  2.16E-07,  avg # of iterations =  3.5

     total cpu time spent up to now is      751.4 secs

     total energy              =    -986.49708303 Ry
     Harris-Foulkes estimate   =    -986.49711214 Ry
     estimated scf accuracy    <       0.00005902 Ry

     iteration #  8     ecut=    40.00 Ry     beta=0.70
     CG style diagonalization
     ethr =  5.96E-08,  avg # of iterations =  3.5

     total cpu time spent up to now is      768.6 secs

     total energy              =    -986.49709923 Ry
     Harris-Foulkes estimate   =    -986.49710056 Ry
     estimated scf accuracy    <       0.00000439 Ry

     iteration #  9     ecut=    40.00 Ry     beta=0.70
     CG style diagonalization
     ethr =  4.43E-09,  avg # of iterations =  3.5

     total cpu time spent up to now is      787.3 secs

     End of self-consistent calculation

     Number of k-points >= 100: set verbosity='high' to print the bands.

     the Fermi energy is    23.3287 ev

!    total energy              =    -986.49709973 Ry
     Harris-Foulkes estimate   =    -986.49710006 Ry
     estimated scf accuracy    <       0.00000036 Ry

     The total energy is the sum of the following terms:

     one-electron contribution =    -111.76880707 Ry
     hartree contribution      =     129.72547822 Ry
     xc contribution           =    -104.27462337 Ry
     ewald contribution        =    -899.76111577 Ry
     smearing contrib. (-TS)   =      -0.41803174 Ry

     convergence has been achieved in   9 iterations

     Forces acting on atoms (Ry/au):

     atom    1 type  1   force =     0.00000000    0.00000000    0.00000000
     atom    2 type  2   force =     0.00000000    0.00000000    0.00000000
     atom    3 type  2   force =     0.00000000    0.00000000    0.00000000
     atom    4 type  2   force =     0.00000000    0.00000000    0.00000000
     atom    5 type  2   force =     0.00000000    0.00000000    0.00000000
     atom    6 type  2   force =     0.00000000    0.00000000    0.00000000

     Total force =     0.000000     Total SCF correction =     0.000000


     entering subroutine stress ...

          total   stress  (Ry/bohr**3)                   (kbar)     P= -184.50
  -0.00124189   0.00000000   0.00000000       -182.69      0.00      0.00
   0.00000000  -0.00124189   0.00000000          0.00   -182.69      0.00
   0.00000000   0.00000000  -0.00127882          0.00      0.00   -188.12


     number of scf cycles    =   3
     number of bfgs steps    =   2

     enthalpy old            =    -986.4928864292 Ry
     enthalpy new            =    -986.4970997273 Ry

     CASE: enthalpy_new < enthalpy_old

     Message from routine bfgs:
     history already reset at previous step: stopping
     small trust_radius: resetting bfgs history

     new trust radius        =       0.1825229516 bohr
     new conv_thr            =       0.0000010000 Ry

     new unit-cell volume =    740.57686 a.u.^3 (   109.74217 Ang^3 )

CELL_PARAMETERS (alat=  9.64829493)
   1.039363128   0.000000000   0.000000000
  -0.519681564   0.900114873   0.000000000
   0.000000000   0.000000000   0.881359692

ATOMIC_POSITIONS (crystal)
Ca       0.000000000   0.000000000   0.000000000
Cu       0.333333000   0.666667000   0.000000000
Cu       0.666667000   0.333333000   0.000000000
Cu       0.500000000   0.000000000   0.500000000
Cu       0.500000000   0.500000000   0.500000000
Cu       0.000000000   0.500000000   0.500000000



     Writing output data file Prototype-La-hP6-CaCu5.save
     NEW-OLD atomic charge density approx. for the potential
     NEW k-points: (use verbosity='high' to print them)

     total cpu time spent up to now is      791.9 secs

     Self-consistent Calculation

     iteration #  1     ecut=    40.00 Ry     beta=0.70
     CG style diagonalization
     c_bands:  2 eigenvalues not converged
     c_bands:  1 eigenvalues not converged
     c_bands:  3 eigenvalues not converged
     c_bands:  1 eigenvalues not converged
     c_bands:  1 eigenvalues not converged
     c_bands:  3 eigenvalues not converged
     c_bands:  3 eigenvalues not converged
     c_bands:  3 eigenvalues not converged
     c_bands:  1 eigenvalues not converged
     c_bands:  3 eigenvalues not converged
     c_bands:  2 eigenvalues not converged
     c_bands:  3 eigenvalues not converged
     c_bands:  1 eigenvalues not converged
     c_bands:  1 eigenvalues not converged
     c_bands:  1 eigenvalues not converged
     c_bands:  1 eigenvalues not converged
     c_bands:  1 eigenvalues not converged
     c_bands:  4 eigenvalues not converged
     c_bands:  1 eigenvalues not converged
     c_bands:  4 eigenvalues not converged
     c_bands:  3 eigenvalues not converged
     c_bands:  2 eigenvalues not converged
     c_bands:  2 eigenvalues not converged
     c_bands:  2 eigenvalues not converged
     c_bands:  5 eigenvalues not converged
     c_bands:  1 eigenvalues not converged
     c_bands:  4 eigenvalues not converged
     c_bands:  2 eigenvalues not converged
     c_bands:  3 eigenvalues not converged
     c_bands:  4 eigenvalues not converged
     c_bands:  3 eigenvalues not converged
     c_bands:  2 eigenvalues not converged
     c_bands:  1 eigenvalues not converged
     c_bands:  1 eigenvalues not converged
     c_bands:  4 eigenvalues not converged
     c_bands:  3 eigenvalues not converged
     c_bands:  1 eigenvalues not converged
     c_bands:  3 eigenvalues not converged
     c_bands:  4 eigenvalues not converged
     c_bands:  1 eigenvalues not converged
     c_bands:  3 eigenvalues not converged
     c_bands:  3 eigenvalues not converged
     c_bands:  4 eigenvalues not converged
     c_bands:  5 eigenvalues not converged
     c_bands:  4 eigenvalues not converged
     c_bands:  1 eigenvalues not converged
     c_bands:  1 eigenvalues not converged
     c_bands:  5 eigenvalues not converged
     c_bands:  4 eigenvalues not converged
     c_bands:  4 eigenvalues not converged
     c_bands:  3 eigenvalues not converged
     c_bands:  3 eigenvalues not converged
     c_bands:  2 eigenvalues not converged
     ethr =  1.00E-06,  avg # of iterations = 12.8

     total cpu time spent up to now is      853.0 secs

     total energy              =    -985.71155048 Ry
     Harris-Foulkes estimate   =    -987.44079384 Ry
     estimated scf accuracy    <       2.22044466 Ry

     iteration #  2     ecut=    40.00 Ry     beta=0.70
     CG style diagonalization
     ethr =  2.24E-03,  avg # of iterations =  3.9

     total cpu time spent up to now is      872.2 secs

     total energy              =    -986.29026236 Ry
     Harris-Foulkes estimate   =    -986.70475163 Ry
     estimated scf accuracy    <       0.65205713 Ry

     iteration #  3     ecut=    40.00 Ry     beta=0.70
     CG style diagonalization
     ethr =  6.59E-04,  avg # of iterations =  3.5

     total cpu time spent up to now is      889.4 secs

     total energy              =    -986.39642257 Ry
     Harris-Foulkes estimate   =    -986.53483164 Ry
     estimated scf accuracy    <       0.33884944 Ry

     iteration #  4     ecut=    40.00 Ry     beta=0.70
     CG style diagonalization
     ethr =  3.42E-04,  avg # of iterations =  3.2

     total cpu time spent up to now is      905.1 secs

     total energy              =    -986.46562680 Ry
     Harris-Foulkes estimate   =    -986.49363064 Ry
     estimated scf accuracy    <       0.08780746 Ry

     iteration #  5     ecut=    40.00 Ry     beta=0.70
     CG style diagonalization
     ethr =  8.87E-05,  avg # of iterations =  3.1

     total cpu time spent up to now is      920.7 secs

     total energy              =    -986.47844020 Ry
     Harris-Foulkes estimate   =    -986.48384953 Ry
     estimated scf accuracy    <       0.01352875 Ry

     iteration #  6     ecut=    40.00 Ry     beta=0.70
     CG style diagonalization
     ethr =  1.37E-05,  avg # of iterations =  3.2

     total cpu time spent up to now is      938.8 secs

     total energy              =    -986.48054906 Ry
     Harris-Foulkes estimate   =    -986.48077684 Ry
     estimated scf accuracy    <       0.00045426 Ry

     iteration #  7     ecut=    40.00 Ry     beta=0.70
     CG style diagonalization
     ethr =  4.59E-07,  avg # of iterations =  4.0

     total cpu time spent up to now is      960.7 secs

     total energy              =    -986.48073675 Ry
     Harris-Foulkes estimate   =    -986.48077358 Ry
     estimated scf accuracy    <       0.00006785 Ry

     iteration #  8     ecut=    40.00 Ry     beta=0.70
     CG style diagonalization
     ethr =  6.85E-08,  avg # of iterations =  3.5

     total cpu time spent up to now is      979.3 secs

     total energy              =    -986.48075523 Ry
     Harris-Foulkes estimate   =    -986.48075695 Ry
     estimated scf accuracy    <       0.00000438 Ry

     iteration #  9     ecut=    40.00 Ry     beta=0.70
     CG style diagonalization
     ethr =  4.43E-09,  avg # of iterations =  3.6

     total cpu time spent up to now is      999.6 secs

     End of self-consistent calculation

     Number of k-points >= 100: set verbosity='high' to print the bands.

     the Fermi energy is    26.2576 ev

!    total energy              =    -986.48075623 Ry
     Harris-Foulkes estimate   =    -986.48075631 Ry
     estimated scf accuracy    <       0.00000009 Ry

     The total energy is the sum of the following terms:

     one-electron contribution =     -71.27453446 Ry
     hartree contribution      =     119.26554636 Ry
     xc contribution           =    -105.22542068 Ry
     ewald contribution        =    -928.86795597 Ry
     smearing contrib. (-TS)   =      -0.37839149 Ry

     convergence has been achieved in   9 iterations

     Forces acting on atoms (Ry/au):

     atom    1 type  1   force =     0.00000000    0.00000000    0.00000000
     atom    2 type  2   force =     0.00000000    0.00000000    0.00000000
     atom    3 type  2   force =     0.00000000    0.00000000    0.00000000
     atom    4 type  2   force =     0.00000000    0.00000000    0.00000000
     atom    5 type  2   force =     0.00000000    0.00000000    0.00000000
     atom    6 type  2   force =     0.00000000    0.00000000    0.00000000

     Total force =     0.000000     Total SCF correction =     0.000000


     entering subroutine stress ...

          total   stress  (Ry/bohr**3)                   (kbar)     P=  279.95
   0.00172656   0.00000000   0.00000000        253.99      0.00      0.00
   0.00000000   0.00172656   0.00000000          0.00    253.99      0.00
   0.00000000   0.00000000   0.00225605          0.00      0.00    331.88


     The maximum number of steps has been reached.

     End of BFGS Geometry Optimization
Begin final coordinates
     new unit-cell volume =    740.57686 a.u.^3 (   109.74217 Ang^3 )

CELL_PARAMETERS (alat=  9.64829493)
   1.039363128   0.000000000   0.000000000
  -0.519681564   0.900114873   0.000000000
   0.000000000   0.000000000   0.881359692

ATOMIC_POSITIONS (crystal)
Ca       0.000000000   0.000000000   0.000000000
Cu       0.333333000   0.666667000   0.000000000
Cu       0.666667000   0.333333000   0.000000000
Cu       0.500000000   0.000000000   0.500000000
Cu       0.500000000   0.500000000   0.500000000
Cu       0.000000000   0.500000000   0.500000000
End final coordinates



     A final scf calculation at the relaxed structure.
     The G-vectors are recalculated for the final unit cell
     Results may differ from those at the preceding step.
 
     Parallelization info
     --------------------
     sticks:   dense  smooth     PW     G-vecs:    dense   smooth      PW
     Min         277     277     83                 6329     6329    1036
     Max         278     278     85                 6332     6332    1037
     Sum        1111    1111    337                25325    25325    4147
 


     bravais-lattice index     =            0
     lattice parameter (alat)  =       9.6483  a.u.
     unit-cell volume          =     740.5769 (a.u.)^3
     number of atoms/cell      =            6
     number of atomic types    =            2
     number of electrons       =        99.00
     number of Kohn-Sham states=           60
     kinetic-energy cutoff     =      40.0000  Ry
     charge density cutoff     =     160.0000  Ry
     convergence threshold     =      1.0E-06
     mixing beta               =       0.7000
     number of iterations used =            8  plain     mixing
     Exchange-correlation      = SLA-PZ-NOGX-NOGC ( 1 1 0 0 0)
     EXX-fraction              =        0.00

     celldm(1)=   9.648295  celldm(2)=   0.000000  celldm(3)=   0.000000
     celldm(4)=   0.000000  celldm(5)=   0.000000  celldm(6)=   0.000000

     crystal axes: (cart. coord. in units of alat)
               a(1) = (   1.039363   0.000000   0.000000 )  
               a(2) = (  -0.519682   0.900115   0.000000 )  
               a(3) = (   0.000000   0.000000   0.881360 )  

     reciprocal axes: (cart. coord. in units 2 pi/alat)
               b(1) = (  0.962128  0.555485  0.000000 )  
               b(2) = (  0.000000  1.110969  0.000000 )  
               b(3) = (  0.000000  0.000000  1.134611 )  


     PseudoPot. # 1 for Tb read from file:
     /home/cwx6513/pp.La/Tb.UPF
     MD5 check sum: 3d6088a3f0cf7fd2e110c43f7f8e95c2
     Pseudo is Norm-conserving, Zval = 19.0
     Generated in analytical, separable form
     Using radial grid of 1263 points,  6 beta functions with: 
                l(1) =   0
                l(2) =   0
                l(3) =   1
                l(4) =   1
                l(5) =   2
                l(6) =   3

     PseudoPot. # 2 for Sm read from file:
     /home/cwx6513/pp.La/Sm.UPF
     MD5 check sum: 5079e8b144a06bfcdbc14fb02b96ab09
     Pseudo is Norm-conserving, Zval = 16.0
     Generated in analytical, separable form
     Using radial grid of 1259 points,  6 beta functions with: 
                l(1) =   0
                l(2) =   0
                l(3) =   1
                l(4) =   1
                l(5) =   2
                l(6) =   3

     atomic species   valence    mass     pseudopotential
        Ca            19.00    40.07800     Tb( 1.00)
        Cu            16.00    63.54600     Sm( 1.00)

     24 Sym. Ops., with inversion, found



   Cartesian axes

     site n.     atom                  positions (alat units)
         1           Ca  tau(   1) = (   0.0000000   0.0000000   0.0000000  )
         2           Cu  tau(   2) = (  -0.0000005   0.6000769   0.0000000  )
         3           Cu  tau(   3) = (   0.5196821   0.3000380   0.0000000  )
         4           Cu  tau(   4) = (   0.5196816   0.0000000   0.4406798  )
         5           Cu  tau(   5) = (   0.2598408   0.4500574   0.4406798  )
         6           Cu  tau(   6) = (  -0.2598408   0.4500574   0.4406798  )

     number of k points=   110  gaussian smearing, width (Ry)=  0.1000

     Number of k-points >= 100: set verbosity='high' to print them.

     Dense  grid:    25325 G-vectors     FFT dimensions: (  45,  45,  36)

     Largest allocated arrays     est. size (Mb)     dimensions
        Kohn-Sham Wavefunctions         0.75 Mb     (    814,   60)
        NL pseudopotentials             1.49 Mb     (    814,  120)
        Each V/rho on FFT grid          0.28 Mb     (  18225)
        Each G-vector array             0.05 Mb     (   6332)
        G-vector shells                 0.01 Mb     (   1108)
     Largest temporary arrays     est. size (Mb)     dimensions
        Each subspace H/S matrix        0.05 Mb     (  60,  60)
        Each <psi_i|beta_j> matrix      0.11 Mb     (    120,   60)
        Arrays for rho mixing           2.22 Mb     (  18225,   8)

     Initial potential from superposition of free atoms

     Starting from uniform charge
     Starting wfc are    0 randomized atomic wfcs

     Writing output data file Prototype-La-hP6-CaCu5.save

     total cpu time spent up to now is     1011.5 secs

     Self-consistent Calculation

     iteration #  1     ecut=    40.00 Ry     beta=0.70
     CG style diagonalization
     c_bands:  4 eigenvalues not converged
     c_bands:  5 eigenvalues not converged
     c_bands:  5 eigenvalues not converged
     c_bands:  5 eigenvalues not converged
     c_bands:  5 eigenvalues not converged
     c_bands:  5 eigenvalues not converged
     c_bands:  5 eigenvalues not converged
     c_bands:  5 eigenvalues not converged
     c_bands:  5 eigenvalues not converged
     c_bands:  5 eigenvalues not converged
     c_bands:  5 eigenvalues not converged
     c_bands:  5 eigenvalues not converged
     c_bands:  5 eigenvalues not converged
     c_bands:  5 eigenvalues not converged
     c_bands:  5 eigenvalues not converged
     c_bands:  5 eigenvalues not converged
     c_bands:  5 eigenvalues not converged
     c_bands:  5 eigenvalues not converged
     c_bands:  5 eigenvalues not converged
     c_bands:  5 eigenvalues not converged
     c_bands:  5 eigenvalues not converged
     c_bands:  5 eigenvalues not converged
     c_bands:  5 eigenvalues not converged
     c_bands:  5 eigenvalues not converged
     c_bands:  5 eigenvalues not converged
     c_bands:  4 eigenvalues not converged
     c_bands:  5 eigenvalues not converged
     c_bands:  5 eigenvalues not converged
     c_bands:  5 eigenvalues not converged
     c_bands:  5 eigenvalues not converged
     c_bands:  4 eigenvalues not converged
     c_bands:  5 eigenvalues not converged
     c_bands:  5 eigenvalues not converged
     c_bands:  5 eigenvalues not converged
     c_bands:  5 eigenvalues not converged
     c_bands:  3 eigenvalues not converged
     c_bands:  5 eigenvalues not converged
     c_bands:  2 eigenvalues not converged
     c_bands:  4 eigenvalues not converged
     c_bands:  5 eigenvalues not converged
     c_bands:  5 eigenvalues not converged
     c_bands:  5 eigenvalues not converged
     c_bands:  4 eigenvalues not converged
     c_bands:  5 eigenvalues not converged
     c_bands:  5 eigenvalues not converged
     c_bands:  5 eigenvalues not converged
     c_bands:  5 eigenvalues not converged
     c_bands:  5 eigenvalues not converged
     c_bands:  5 eigenvalues not converged
     c_bands:  5 eigenvalues not converged
     c_bands:  5 eigenvalues not converged
     c_bands:  5 eigenvalues not converged
     c_bands:  5 eigenvalues not converged
     c_bands:  5 eigenvalues not converged
     c_bands:  5 eigenvalues not converged
     c_bands:  5 eigenvalues not converged
     c_bands:  5 eigenvalues not converged
     c_bands:  5 eigenvalues not converged
     c_bands:  5 eigenvalues not converged
     c_bands:  5 eigenvalues not converged
     c_bands:  5 eigenvalues not converged
     c_bands:  3 eigenvalues not converged
     c_bands:  4 eigenvalues not converged
     c_bands:  3 eigenvalues not converged
     c_bands:  5 eigenvalues not converged
     c_bands:  4 eigenvalues not converged
     c_bands:  3 eigenvalues not converged
     c_bands:  4 eigenvalues not converged
     c_bands:  2 eigenvalues not converged
     c_bands:  5 eigenvalues not converged
     c_bands:  3 eigenvalues not converged
     c_bands:  5 eigenvalues not converged
     c_bands:  2 eigenvalues not converged
     c_bands:  5 eigenvalues not converged
     c_bands:  5 eigenvalues not converged
     c_bands:  4 eigenvalues not converged
     c_bands:  5 eigenvalues not converged
     c_bands:  5 eigenvalues not converged
     c_bands:  5 eigenvalues not converged
     c_bands:  5 eigenvalues not converged
     c_bands:  5 eigenvalues not converged
     c_bands:  5 eigenvalues not converged
     c_bands:  5 eigenvalues not converged
     c_bands:  5 eigenvalues not converged
     c_bands:  5 eigenvalues not converged
     c_bands:  5 eigenvalues not converged
     c_bands:  5 eigenvalues not converged
     c_bands:  5 eigenvalues not converged
     c_bands:  5 eigenvalues not converged
     c_bands:  5 eigenvalues not converged
     c_bands:  5 eigenvalues not converged
     c_bands:  5 eigenvalues not converged
     c_bands:  5 eigenvalues not converged
     c_bands:  5 eigenvalues not converged
     c_bands:  3 eigenvalues not converged
     c_bands:  4 eigenvalues not converged
     c_bands:  2 eigenvalues not converged
     c_bands:  5 eigenvalues not converged
     c_bands:  4 eigenvalues not converged
     c_bands:  5 eigenvalues not converged
     c_bands:  3 eigenvalues not converged
     c_bands:  4 eigenvalues not converged
     c_bands:  5 eigenvalues not converged
     c_bands:  5 eigenvalues not converged
     c_bands:  5 eigenvalues not converged
     c_bands:  5 eigenvalues not converged
     c_bands:  2 eigenvalues not converged
     c_bands:  4 eigenvalues not converged
     c_bands:  5 eigenvalues not converged
     c_bands:  5 eigenvalues not converged
     ethr =  1.00E-06,  avg # of iterations = 49.3

     total cpu time spent up to now is     1331.6 secs

     total energy              =    -928.19138987 Ry
     Harris-Foulkes estimate   =   -1157.85822457 Ry
     estimated scf accuracy    <     299.86233983 Ry

     iteration #  2     ecut=    40.00 Ry     beta=0.70
     CG style diagonalization
     c_bands:  1 eigenvalues not converged
     ethr =  1.00E-02,  avg # of iterations =  7.6

     total cpu time spent up to now is     1384.0 secs

     total energy              =    -979.07807038 Ry
     Harris-Foulkes estimate   =    -994.35316484 Ry
     estimated scf accuracy    <      21.34939596 Ry

     iteration #  3     ecut=    40.00 Ry     beta=0.70
     CG style diagonalization
     ethr =  1.00E-02,  avg # of iterations =  4.9

     total cpu time spent up to now is     1417.4 secs

     total energy              =    -982.28308813 Ry
     Harris-Foulkes estimate   =    -993.89201631 Ry
     estimated scf accuracy    <      28.66849689 Ry

     iteration #  4     ecut=    40.00 Ry     beta=0.70
     CG style diagonalization
     ethr =  1.00E-02,  avg # of iterations =  3.7

     total cpu time spent up to now is     1443.3 secs

     total energy              =    -986.54706263 Ry
     Harris-Foulkes estimate   =    -986.88814243 Ry
     estimated scf accuracy    <       0.55214609 Ry

     iteration #  5     ecut=    40.00 Ry     beta=0.70
     CG style diagonalization
     c_bands:  1 eigenvalues not converged
     c_bands:  1 eigenvalues not converged
     c_bands:  1 eigenvalues not converged
     ethr =  5.58E-04,  avg # of iterations =  4.4

     total cpu time spent up to now is     1473.1 secs

     total energy              =    -986.77020108 Ry
     Harris-Foulkes estimate   =    -986.97218214 Ry
     estimated scf accuracy    <       0.39862288 Ry

     iteration #  6     ecut=    40.00 Ry     beta=0.70
     CG style diagonalization
     ethr =  4.03E-04,  avg # of iterations =  3.5

     total cpu time spent up to now is     1497.2 secs

     total energy              =    -986.86192474 Ry
     Harris-Foulkes estimate   =    -986.87967088 Ry
     estimated scf accuracy    <       0.04800995 Ry

     iteration #  7     ecut=    40.00 Ry     beta=0.70
     CG style diagonalization
     c_bands:  1 eigenvalues not converged
     c_bands:  1 eigenvalues not converged
     ethr =  4.85E-05,  avg # of iterations =  3.5

     total cpu time spent up to now is     1521.0 secs

     total energy              =    -986.87155778 Ry
     Harris-Foulkes estimate   =    -986.87192191 Ry
     estimated scf accuracy    <       0.00064725 Ry

     iteration #  8     ecut=    40.00 Ry     beta=0.70
     CG style diagonalization
     c_bands:  1 eigenvalues not converged
     c_bands:  1 eigenvalues not converged
     c_bands:  1 eigenvalues not converged
     c_bands:  1 eigenvalues not converged
     c_bands:  1 eigenvalues not converged
     c_bands:  1 eigenvalues not converged
     c_bands:  1 eigenvalues not converged
     c_bands:  1 eigenvalues not converged
     c_bands:  1 eigenvalues not converged
     c_bands:  1 eigenvalues not converged
     c_bands:  1 eigenvalues not converged
     ethr =  6.54E-07,  avg # of iterations =  5.3

     total cpu time spent up to now is     1556.3 secs

     total energy              =    -986.87249734 Ry
     Harris-Foulkes estimate   =    -986.87254540 Ry
     estimated scf accuracy    <       0.00010092 Ry

     iteration #  9     ecut=    40.00 Ry     beta=0.70
     CG style diagonalization
     ethr =  1.02E-07,  avg # of iterations =  3.6

     total cpu time spent up to now is     1580.4 secs

     total energy              =    -986.87251290 Ry
     Harris-Foulkes estimate   =    -986.87253621 Ry
     estimated scf accuracy    <       0.00006267 Ry

     iteration # 10     ecut=    40.00 Ry     beta=0.70
     CG style diagonalization
     ethr =  6.33E-08,  avg # of iterations =  3.3

     total cpu time spent up to now is     1602.6 secs

     total energy              =    -986.87252624 Ry
     Harris-Foulkes estimate   =    -986.87252956 Ry
     estimated scf accuracy    <       0.00001164 Ry

     iteration # 11     ecut=    40.00 Ry     beta=0.70
     CG style diagonalization
     ethr =  1.18E-08,  avg # of iterations =  3.0

     total cpu time spent up to now is     1623.1 secs

     End of self-consistent calculation

     Number of k-points >= 100: set verbosity='high' to print the bands.

     the Fermi energy is    26.2443 ev

!    total energy              =    -986.87252799 Ry
     Harris-Foulkes estimate   =    -986.87252801 Ry
     estimated scf accuracy    <       0.00000003 Ry

     The total energy is the sum of the following terms:

     one-electron contribution =     -71.81678752 Ry
     hartree contribution      =     119.45998693 Ry
     xc contribution           =    -105.26882585 Ry
     ewald contribution        =    -928.86795554 Ry
     smearing contrib. (-TS)   =      -0.37894600 Ry

     convergence has been achieved in  11 iterations

     Forces acting on atoms (Ry/au):

     atom    1 type  1   force =     0.00000000    0.00000000    0.00000000
     atom    2 type  2   force =     0.00000000    0.00000000    0.00000000
     atom    3 type  2   force =     0.00000000    0.00000000    0.00000000
     atom    4 type  2   force =     0.00000000    0.00000000    0.00000000
     atom    5 type  2   force =     0.00000000    0.00000000    0.00000000
     atom    6 type  2   force =     0.00000000    0.00000000    0.00000000

     Total force =     0.000000     Total SCF correction =     0.000000


     entering subroutine stress ...

          total   stress  (Ry/bohr**3)                   (kbar)     P=  484.58
   0.00281929   0.00000000   0.00000000        414.73      0.00      0.00
   0.00000000   0.00281929   0.00000000          0.00    414.73      0.00
   0.00000000   0.00000000   0.00424379          0.00      0.00    624.28


     Writing output data file Prototype-La-hP6-CaCu5.save
 
     init_run     :      9.25s CPU     11.79s WALL (       2 calls)
     electrons    :   1309.44s CPU   1590.01s WALL (       5 calls)
     update_pot   :      1.37s CPU      1.39s WALL (       3 calls)
     forces       :      5.25s CPU      5.61s WALL (       5 calls)
     stress       :     14.16s CPU     14.53s WALL (       5 calls)

     Called by init_run:
     wfcinit      :      8.72s CPU     11.23s WALL (       2 calls)
     potinit      :      0.27s CPU      0.28s WALL (       2 calls)

     Called by electrons:
     c_bands      :   1251.48s CPU   1509.00s WALL (      46 calls)
     sum_band     :     57.50s CPU     77.71s WALL (      46 calls)
     v_of_rho     :      0.06s CPU      0.07s WALL (      51 calls)
     mix_rho      :      0.04s CPU      0.05s WALL (      46 calls)

     Called by c_bands:
     init_us_2    :      3.57s CPU      4.62s WALL (   11440 calls)
     ccgdiagg     :   1083.79s CPU   1280.10s WALL (    5607 calls)
     wfcrot       :    172.60s CPU    231.44s WALL (    5717 calls)

     Called by *cgdiagg:
     h_psi        :    923.28s CPU   1145.33s WALL ( 1477389 calls)
     cdiaghg      :      6.99s CPU      7.31s WALL (    5717 calls)

     Called by h_psi:
     add_vuspsi   :     68.52s CPU     86.84s WALL ( 1477389 calls)

     General routines
     calbec       :    251.47s CPU    263.00s WALL ( 2950161 calls)
     fft          :      0.10s CPU      0.12s WALL (     227 calls)
     fftw         :    719.63s CPU    896.20s WALL ( 3932984 calls)
     davcio       :      2.62s CPU      7.17s WALL (   16500 calls)
 
     Parallel routines
     fft_scatter  :    327.87s CPU    402.78s WALL ( 3933211 calls)
 
     PWSCF        : 22m20.47s CPU    27m 7.66s WALL

 
   This run was terminated on:  18: 5:35  22Mar2018            

=------------------------------------------------------------------------------=
   JOB DONE.
=------------------------------------------------------------------------------=
