
     Program PWSCF v.5.0.2 starts on 22Mar2018 at 17:38:28 

     This program is part of the open-source Quantum ESPRESSO suite
     for quantum simulation of materials; please cite
         "P. Giannozzi et al., J. Phys.:Condens. Matter 21 395502 (2009);
          URL http://www.quantum-espresso.org", 
     in publications or presentations arising from this work. More details at
     http://www.quantum-espresso.org/quote.php

     Parallel version (MPI), running on     4 processors
     R & G space division:  proc/nbgrp/npool/nimage =       4

     Current dimensions of program PWSCF are:
     Max number of different atomic species (ntypx) = 10
     Max number of k-points (npk) =  40000
     Max angular momentum in pseudopotentials (lmaxx) =  3
     Waiting for input...
     Reading input from standard input

     Subspace diagonalization in iterative solution of the eigenvalue problem:
     a serial algorithm will be used

 
     Parallelization info
     --------------------
     sticks:   dense  smooth     PW     G-vecs:    dense   smooth      PW
     Min         521     521    161                11869    11869    2028
     Max         522     522    162                11872    11872    2030
     Sum        2087    2087    647                47485    47485    8117
 


     bravais-lattice index     =            0
     lattice parameter (alat)  =      12.8532  a.u.
     unit-cell volume          =    1390.2597 (a.u.)^3
     number of atoms/cell      =            6
     number of atomic types    =            2
     number of electrons       =       102.00
     number of Kohn-Sham states=           61
     kinetic-energy cutoff     =      40.0000  Ry
     charge density cutoff     =     160.0000  Ry
     convergence threshold     =      1.0E-04
     mixing beta               =       0.7000
     number of iterations used =            8  plain     mixing
     Exchange-correlation      = SLA-PZ-NOGX-NOGC ( 1 1 0 0 0)
     EXX-fraction              =        0.00
     nstep                     =           50


     celldm(1)=  12.853229  celldm(2)=   0.000000  celldm(3)=   0.000000
     celldm(4)=   0.000000  celldm(5)=   0.000000  celldm(6)=   0.000000

     crystal axes: (cart. coord. in units of alat)
               a(1) = (   1.000000   0.000000   0.000000 )  
               a(2) = (  -0.036574   0.999331   0.000000 )  
               a(3) = (  -0.266883  -0.706777   0.655164 )  

     reciprocal axes: (cart. coord. in units 2 pi/alat)
               b(1) = (  1.000000  0.036598  0.446834 )  
               b(2) = (  0.000000  1.000669  1.079502 )  
               b(3) = (  0.000000  0.000000  1.526336 )  


     PseudoPot. # 1 for Tb read from file:
     /home/jld5415/pp.La/Tb.UPF
     MD5 check sum: 3d6088a3f0cf7fd2e110c43f7f8e95c2
     Pseudo is Norm-conserving, Zval = 19.0
     Generated in analytical, separable form
     Using radial grid of 1263 points,  6 beta functions with: 
                l(1) =   0
                l(2) =   0
                l(3) =   1
                l(4) =   1
                l(5) =   2
                l(6) =   3

     PseudoPot. # 2 for Sm read from file:
     /home/jld5415/pp.La/Sm.UPF
     MD5 check sum: 5079e8b144a06bfcdbc14fb02b96ab09
     Pseudo is Norm-conserving, Zval = 16.0
     Generated in analytical, separable form
     Using radial grid of 1259 points,  6 beta functions with: 
                l(1) =   0
                l(2) =   0
                l(3) =   1
                l(4) =   1
                l(5) =   2
                l(6) =   3

     atomic species   valence    mass     pseudopotential
        K             19.00    39.09830     Tb( 1.00)
        Hg            16.00   200.59000     Sm( 1.00)

      2 Sym. Ops., with inversion, found



   Cartesian axes

     site n.     atom                  positions (alat units)
         1           K   tau(   1) = (  -0.0340766   0.4201429   0.4913727  )
         2           K   tau(   2) = (   0.7306201  -0.1275892   0.1637909  )
         3           Hg  tau(   3) = (   0.2308977  -0.0548727   0.3630373  )
         4           Hg  tau(   4) = (   0.4656458   0.3474265   0.2921263  )
         5           Hg  tau(   5) = (   0.5181090  -0.3317640   0.6197082  )
         6           Hg  tau(   6) = (   0.1784345   0.6243178   0.0354555  )

     number of k points=   253  gaussian smearing, width (Ry)=  0.1000

     Number of k-points >= 100: set verbosity='high' to print them.

     Dense  grid:    47485 G-vectors     FFT dimensions: (  54,  54,  54)

     Largest allocated arrays     est. size (Mb)     dimensions
        Kohn-Sham Wavefunctions         1.40 Mb     (   1500,   61)
        NL pseudopotentials             2.75 Mb     (   1500,  120)
        Each V/rho on FFT grid          0.62 Mb     (  40824)
        Each G-vector array             0.09 Mb     (  11872)
        G-vector shells                 0.09 Mb     (  11872)
     Largest temporary arrays     est. size (Mb)     dimensions
        Each subspace H/S matrix        0.06 Mb     (  61,  61)
        Each <psi_i|beta_j> matrix      0.11 Mb     (    120,   61)
        Arrays for rho mixing           4.98 Mb     (  40824,   8)

     Initial potential from superposition of free atoms

     Starting from uniform charge
     Starting wfc are    0 randomized atomic wfcs

     total cpu time spent up to now is       35.2 secs

     Self-consistent Calculation

     iteration #  1     ecut=    40.00 Ry     beta=0.70
     CG style diagonalization
     c_bands:  1 eigenvalues not converged
     c_bands:  5 eigenvalues not converged
     c_bands:  1 eigenvalues not converged
     c_bands:  1 eigenvalues not converged
     c_bands:  1 eigenvalues not converged
     c_bands:  5 eigenvalues not converged
     c_bands:  1 eigenvalues not converged
     c_bands:  4 eigenvalues not converged
     c_bands:  1 eigenvalues not converged
     c_bands:  1 eigenvalues not converged
     c_bands:  1 eigenvalues not converged
     c_bands:  1 eigenvalues not converged
     c_bands:  1 eigenvalues not converged
     c_bands:  1 eigenvalues not converged
     c_bands:  5 eigenvalues not converged
     c_bands:  1 eigenvalues not converged
     c_bands:  1 eigenvalues not converged
     c_bands:  1 eigenvalues not converged
     c_bands:  1 eigenvalues not converged
     c_bands:  1 eigenvalues not converged
     c_bands:  1 eigenvalues not converged
     c_bands:  1 eigenvalues not converged
     c_bands:  1 eigenvalues not converged
     c_bands:  1 eigenvalues not converged
     c_bands:  5 eigenvalues not converged
     c_bands:  1 eigenvalues not converged
     c_bands:  1 eigenvalues not converged
     c_bands:  1 eigenvalues not converged
     c_bands:  1 eigenvalues not converged
     c_bands:  5 eigenvalues not converged
     c_bands:  5 eigenvalues not converged
     c_bands:  1 eigenvalues not converged
     c_bands:  1 eigenvalues not converged
     c_bands:  1 eigenvalues not converged
     c_bands:  1 eigenvalues not converged
     c_bands:  1 eigenvalues not converged
     c_bands:  1 eigenvalues not converged
     c_bands:  1 eigenvalues not converged
     c_bands:  1 eigenvalues not converged
     c_bands:  1 eigenvalues not converged
     c_bands:  5 eigenvalues not converged
     c_bands:  1 eigenvalues not converged
     c_bands:  1 eigenvalues not converged
     c_bands:  5 eigenvalues not converged
     c_bands:  1 eigenvalues not converged
     c_bands:  5 eigenvalues not converged
     c_bands:  1 eigenvalues not converged
     c_bands:  5 eigenvalues not converged
     c_bands:  1 eigenvalues not converged
     c_bands:  1 eigenvalues not converged
     c_bands:  4 eigenvalues not converged
     c_bands:  1 eigenvalues not converged
     c_bands:  1 eigenvalues not converged
     c_bands:  4 eigenvalues not converged
     c_bands:  1 eigenvalues not converged
     c_bands:  5 eigenvalues not converged
     ethr =  1.00E-02,  avg # of iterations = 14.6

     total cpu time spent up to now is      585.5 secs

     total energy              =    -880.22422916 Ry
     Harris-Foulkes estimate   =   -1375.94165876 Ry
     estimated scf accuracy    <     628.29547506 Ry

     iteration #  2     ecut=    40.00 Ry     beta=0.70
     CG style diagonalization
     c_bands:  1 eigenvalues not converged
     c_bands:  1 eigenvalues not converged
     c_bands:  1 eigenvalues not converged
     c_bands:  1 eigenvalues not converged
     c_bands:  1 eigenvalues not converged
     c_bands:  1 eigenvalues not converged
     ethr =  1.00E-02,  avg # of iterations =  8.1

     total cpu time spent up to now is      906.7 secs

     total energy              =    -920.21055033 Ry
     Harris-Foulkes estimate   =   -1199.40516882 Ry
     estimated scf accuracy    <     472.19208736 Ry

     iteration #  3     ecut=    40.00 Ry     beta=0.70
     CG style diagonalization
     c_bands:  1 eigenvalues not converged
     c_bands:  1 eigenvalues not converged
     c_bands:  1 eigenvalues not converged
     c_bands:  1 eigenvalues not converged
     c_bands:  1 eigenvalues not converged
     c_bands:  2 eigenvalues not converged
     c_bands:  1 eigenvalues not converged
     c_bands:  1 eigenvalues not converged
     c_bands:  1 eigenvalues not converged
     c_bands:  1 eigenvalues not converged
     c_bands:  1 eigenvalues not converged
     c_bands:  1 eigenvalues not converged
     c_bands:  1 eigenvalues not converged
     c_bands:  1 eigenvalues not converged
     ethr =  1.00E-02,  avg # of iterations =  9.1

     total cpu time spent up to now is     1264.2 secs

     total energy              =   -1023.33046161 Ry
     Harris-Foulkes estimate   =   -1108.04240523 Ry
     estimated scf accuracy    <     213.84121462 Ry

     iteration #  4     ecut=    40.00 Ry     beta=0.70
     CG style diagonalization
     c_bands:  1 eigenvalues not converged
     c_bands:  1 eigenvalues not converged
     ethr =  1.00E-02,  avg # of iterations =  6.0

     total cpu time spent up to now is     1501.5 secs

     total energy              =   -1063.51553153 Ry
     Harris-Foulkes estimate   =   -1066.43200515 Ry
     estimated scf accuracy    <       6.35830761 Ry

     iteration #  5     ecut=    40.00 Ry     beta=0.70
     CG style diagonalization
     ethr =  6.23E-03,  avg # of iterations =  3.0

     total cpu time spent up to now is     1619.6 secs

     total energy              =   -1064.49277435 Ry
     Harris-Foulkes estimate   =   -1065.04682705 Ry
     estimated scf accuracy    <       1.00560506 Ry

     iteration #  6     ecut=    40.00 Ry     beta=0.70
     CG style diagonalization
     ethr =  9.86E-04,  avg # of iterations =  3.1

     total cpu time spent up to now is     1741.3 secs

     total energy              =   -1064.48735408 Ry
     Harris-Foulkes estimate   =   -1064.90390031 Ry
     estimated scf accuracy    <       0.93662071 Ry

     iteration #  7     ecut=    40.00 Ry     beta=0.70
     CG style diagonalization
     ethr =  9.18E-04,  avg # of iterations =  3.0

     total cpu time spent up to now is     1858.8 secs

     total energy              =   -1064.44592600 Ry
     Harris-Foulkes estimate   =   -1065.13593488 Ry
     estimated scf accuracy    <       4.35966019 Ry

     iteration #  8     ecut=    40.00 Ry     beta=0.70
     CG style diagonalization
     ethr =  9.18E-04,  avg # of iterations =  3.0

     total cpu time spent up to now is     1973.4 secs

     total energy              =   -1064.76196354 Ry
     Harris-Foulkes estimate   =   -1064.77584422 Ry
     estimated scf accuracy    <       0.03251499 Ry

     iteration #  9     ecut=    40.00 Ry     beta=0.70
     CG style diagonalization
     ethr =  3.19E-05,  avg # of iterations =  3.0

     total cpu time spent up to now is     2089.3 secs

     total energy              =   -1064.76637305 Ry
     Harris-Foulkes estimate   =   -1064.76798338 Ry
     estimated scf accuracy    <       0.00366696 Ry

     iteration # 10     ecut=    40.00 Ry     beta=0.70
     CG style diagonalization
     ethr =  3.60E-06,  avg # of iterations =  3.0

     total cpu time spent up to now is     2204.5 secs

     End of self-consistent calculation

     Number of k-points >= 100: set verbosity='high' to print the bands.

     the Fermi energy is    11.2706 ev

!    total energy              =   -1064.76699474 Ry
     Harris-Foulkes estimate   =   -1064.76703825 Ry
     estimated scf accuracy    <       0.00006142 Ry

     The total energy is the sum of the following terms:

     one-electron contribution =    -360.69358576 Ry
     hartree contribution      =     213.97600318 Ry
     xc contribution           =    -106.95840668 Ry
     ewald contribution        =    -810.51282189 Ry
     smearing contrib. (-TS)   =      -0.57818360 Ry

     convergence has been achieved in  10 iterations

     Forces acting on atoms (Ry/au):

     atom    1 type  1   force =     0.00926654    0.00713824    0.00113202
     atom    2 type  1   force =    -0.00926654   -0.00713824   -0.00113202
     atom    3 type  2   force =     0.01267944   -0.01773681    0.01380762
     atom    4 type  2   force =    -0.01267944    0.01773681   -0.01380762
     atom    5 type  2   force =    -0.01696835    0.01440834   -0.01429026
     atom    6 type  2   force =     0.01696835   -0.01440834    0.01429026

     Total force =     0.054843     Total SCF correction =     0.000000


     entering subroutine stress ...

          total   stress  (Ry/bohr**3)                   (kbar)     P= -400.19
  -0.00271863  -0.00003843   0.00003499       -399.92     -5.65      5.15
  -0.00003843  -0.00271758  -0.00003568         -5.65   -399.77     -5.25
   0.00003499  -0.00003568  -0.00272501          5.15     -5.25   -400.86


     number of scf cycles    =   2
     number of bfgs steps    =   1

     enthalpy old            =   -1064.7669722609 Ry
     enthalpy new            =   -1064.7669947450 Ry

     CASE: enthalpy_new < enthalpy_old


     WARNING: unexpected behaviour in update_inverse_hessian
              resetting bfgs history

     small trust_radius: resetting bfgs history

     new trust radius        =       0.5081115760 bohr
     new conv_thr            =       0.0000010000 Ry

     new unit-cell volume =   1125.45536 a.u.^3 (   166.77528 Ang^3 )

CELL_PARAMETERS (alat= 12.85322937)
   0.932034359  -0.000960802   0.000874803
  -0.035047924   0.931472117  -0.000923404
  -0.247491875  -0.659087176   0.610927450

ATOMIC_POSITIONS (crystal)
K        0.201642630   0.951512812   0.750134429
K        0.798357370   0.048487188   0.249865571
Hg       0.392522988   0.336768784   0.555756671
Hg       0.607477012   0.663231216   0.444243329
Hg       0.781098072   0.336911547   0.944186015
Hg       0.218901928   0.663088453   0.055813985



     Writing output data file Prototype-La-oI12-KHg2.save
     NEW-OLD atomic charge density approx. for the potential
     NEW k-points: (use verbosity='high' to print them)

     total cpu time spent up to now is     2228.1 secs

     Self-consistent Calculation

     iteration #  1     ecut=    40.00 Ry     beta=0.70
     CG style diagonalization
     c_bands:  1 eigenvalues not converged
     c_bands:  1 eigenvalues not converged
     c_bands:  2 eigenvalues not converged
     c_bands:  1 eigenvalues not converged
     c_bands:  1 eigenvalues not converged
     c_bands:  1 eigenvalues not converged
     c_bands:  1 eigenvalues not converged
     c_bands:  1 eigenvalues not converged
     c_bands:  1 eigenvalues not converged
     c_bands:  1 eigenvalues not converged
     c_bands:  1 eigenvalues not converged
     c_bands:  1 eigenvalues not converged
     c_bands:  1 eigenvalues not converged
     c_bands:  2 eigenvalues not converged
     c_bands:  1 eigenvalues not converged
     ethr =  1.00E-06,  avg # of iterations = 21.6

     total cpu time spent up to now is     3000.2 secs

     total energy              =   -1056.55815369 Ry
     Harris-Foulkes estimate   =   -1072.54936533 Ry
     estimated scf accuracy    <      19.91194142 Ry

     iteration #  2     ecut=    40.00 Ry     beta=0.70
     CG style diagonalization
     ethr =  1.00E-02,  avg # of iterations =  4.0

     total cpu time spent up to now is     3147.6 secs

     total energy              =   -1061.83410503 Ry
     Harris-Foulkes estimate   =   -1070.41545069 Ry
     estimated scf accuracy    <      15.13913050 Ry

     iteration #  3     ecut=    40.00 Ry     beta=0.70
     CG style diagonalization
     ethr =  1.00E-02,  avg # of iterations =  3.2

     total cpu time spent up to now is     3270.2 secs

     total energy              =   -1064.57605740 Ry
     Harris-Foulkes estimate   =   -1066.21279278 Ry
     estimated scf accuracy    <       3.87452855 Ry

     iteration #  4     ecut=    40.00 Ry     beta=0.70
     CG style diagonalization
     ethr =  3.80E-03,  avg # of iterations =  3.2
