
     Program PWSCF v.5.0.2 starts on 22Mar2018 at 17:38:29 

     This program is part of the open-source Quantum ESPRESSO suite
     for quantum simulation of materials; please cite
         "P. Giannozzi et al., J. Phys.:Condens. Matter 21 395502 (2009);
          URL http://www.quantum-espresso.org", 
     in publications or presentations arising from this work. More details at
     http://www.quantum-espresso.org/quote.php

     Parallel version (MPI), running on     4 processors
     R & G space division:  proc/nbgrp/npool/nimage =       4

     Current dimensions of program PWSCF are:
     Max number of different atomic species (ntypx) = 10
     Max number of k-points (npk) =  40000
     Max angular momentum in pseudopotentials (lmaxx) =  3
     Waiting for input...
     Reading input from standard input

     Subspace diagonalization in iterative solution of the eigenvalue problem:
     a serial algorithm will be used

 
     Parallelization info
     --------------------
     sticks:   dense  smooth     PW     G-vecs:    dense   smooth      PW
     Min         269     269     78                 9541     9541    1486
     Max         270     270     79                 9544     9544    1487
     Sum        1077    1077    315                38169    38169    5947
 


     bravais-lattice index     =            0
     lattice parameter (alat)  =       8.8008  a.u.
     unit-cell volume          =    1116.9454 (a.u.)^3
     number of atoms/cell      =           16
     number of atomic types    =            2
     number of electrons       =       292.00
     number of Kohn-Sham states=          175
     kinetic-energy cutoff     =      40.0000  Ry
     charge density cutoff     =     160.0000  Ry
     convergence threshold     =      1.0E-04
     mixing beta               =       0.7000
     number of iterations used =            8  plain     mixing
     Exchange-correlation      = SLA-PZ-NOGX-NOGC ( 1 1 0 0 0)
     EXX-fraction              =        0.00
     nstep                     =           50


     celldm(1)=   8.800765  celldm(2)=   0.000000  celldm(3)=   0.000000
     celldm(4)=   0.000000  celldm(5)=   0.000000  celldm(6)=   0.000000

     crystal axes: (cart. coord. in units of alat)
               a(1) = (   1.000000   0.000000   0.000000 )  
               a(2) = (   0.000000   1.083771   0.000000 )  
               a(3) = (   0.000000   0.000000   1.511935 )  

     reciprocal axes: (cart. coord. in units 2 pi/alat)
               b(1) = (  1.000000  0.000000  0.000000 )  
               b(2) = (  0.000000  0.922704  0.000000 )  
               b(3) = (  0.000000  0.000000  0.661404 )  


     PseudoPot. # 1 for Tb read from file:
     /home/jld5415/pp.La/Tb.UPF
     MD5 check sum: 3d6088a3f0cf7fd2e110c43f7f8e95c2
     Pseudo is Norm-conserving, Zval = 19.0
     Generated in analytical, separable form
     Using radial grid of 1263 points,  6 beta functions with: 
                l(1) =   0
                l(2) =   0
                l(3) =   1
                l(4) =   1
                l(5) =   2
                l(6) =   3

     PseudoPot. # 2 for Sm read from file:
     /home/jld5415/pp.La/Sm.UPF
     MD5 check sum: 5079e8b144a06bfcdbc14fb02b96ab09
     Pseudo is Norm-conserving, Zval = 16.0
     Generated in analytical, separable form
     Using radial grid of 1259 points,  6 beta functions with: 
                l(1) =   0
                l(2) =   0
                l(3) =   1
                l(4) =   1
                l(5) =   2
                l(6) =   3

     atomic species   valence    mass     pseudopotential
        Fe            19.00    55.84500     Tb( 1.00)
        C             16.00    12.01070     Sm( 1.00)

      8 Sym. Ops., with inversion, found ( 6 have fractional translation)



   Cartesian axes

     site n.     atom                  positions (alat units)
         1           Fe  tau(   1) = (   0.3472940   0.1827628   1.3947267  )
         2           Fe  tau(   2) = (   0.1527060   0.7246484   0.8731757  )
         3           Fe  tau(   3) = (   0.8472940   0.3591227   0.6387592  )
         4           Fe  tau(   4) = (   0.3396640   0.4879235   0.3779837  )
         5           Fe  tau(   5) = (   0.1527060   0.7246484   1.3947267  )
         6           Fe  tau(   6) = (   0.3472940   0.1827628   0.8731757  )
         7           Fe  tau(   7) = (   0.1603360   1.0298091   0.3779837  )
         8           Fe  tau(   8) = (   0.6527060   0.9010083   0.6387592  )
         9           Fe  tau(   9) = (   0.8472940   0.3591227   0.1172082  )
        10           Fe  tau(  10) = (   0.6603360   0.5958476   1.1339512  )
        11           Fe  tau(  11) = (   0.6527060   0.9010083   0.1172082  )
        12           Fe  tau(  12) = (   0.8396640   0.0539620   1.1339512  )
        13           C   tau(  13) = (   0.0000000   0.0000000   0.0000000  )
        14           C   tau(  14) = (   0.5000000   0.5418856   0.0000000  )
        15           C   tau(  15) = (   0.5000000   0.5418856   0.7559674  )
        16           C   tau(  16) = (   0.0000000   0.0000000   0.7559674  )

     number of k points=    12  gaussian smearing, width (Ry)=  0.1000
                       cart. coord. in units 2pi/alat
        k(    1) = (   0.0000000   0.0000000   0.0000000), wk =   0.0833333
        k(    2) = (   0.0000000   0.0000000   0.1653510), wk =   0.1666667
        k(    3) = (   0.0000000   0.0000000  -0.3307021), wk =   0.0833333
        k(    4) = (   0.0000000   0.3075680   0.0000000), wk =   0.1666667
        k(    5) = (   0.0000000   0.3075680   0.1653510), wk =   0.3333333
        k(    6) = (   0.0000000   0.3075680  -0.3307021), wk =   0.1666667
        k(    7) = (  -0.5000000   0.0000000   0.0000000), wk =   0.0833333
        k(    8) = (  -0.5000000   0.0000000   0.1653510), wk =   0.1666667
        k(    9) = (  -0.5000000   0.0000000  -0.3307021), wk =   0.0833333
        k(   10) = (  -0.5000000   0.3075680   0.0000000), wk =   0.1666667
        k(   11) = (  -0.5000000   0.3075680   0.1653510), wk =   0.3333333
        k(   12) = (  -0.5000000   0.3075680  -0.3307021), wk =   0.1666667

     Dense  grid:    38169 G-vectors     FFT dimensions: (  36,  40,  54)

     Largest allocated arrays     est. size (Mb)     dimensions
        Kohn-Sham Wavefunctions         3.23 Mb     (   1211,  175)
        NL pseudopotentials             5.91 Mb     (   1211,  320)
        Each V/rho on FFT grid          0.31 Mb     (  20160)
        Each G-vector array             0.07 Mb     (   9543)
        G-vector shells                 0.07 Mb     (   9543)
     Largest temporary arrays     est. size (Mb)     dimensions
        Each subspace H/S matrix        0.47 Mb     ( 175, 175)
        Each <psi_i|beta_j> matrix      0.85 Mb     (    320,  175)
        Arrays for rho mixing           2.46 Mb     (  20160,   8)

     Initial potential from superposition of free atoms

     Starting from uniform charge
     Starting wfc are    0 randomized atomic wfcs

     total cpu time spent up to now is        5.1 secs

     Self-consistent Calculation

     iteration #  1     ecut=    40.00 Ry     beta=0.70
     CG style diagonalization
     ethr =  1.00E-02,  avg # of iterations = 19.1

     total cpu time spent up to now is      183.9 secs

     total energy              =   -3115.68545423 Ry
     Harris-Foulkes estimate   =   -3837.82102757 Ry
     estimated scf accuracy    <     909.36298423 Ry

     iteration #  2     ecut=    40.00 Ry     beta=0.70
     CG style diagonalization
     c_bands:  1 eigenvalues not converged
     c_bands:  1 eigenvalues not converged
     ethr =  1.00E-02,  avg # of iterations =  8.0

     total cpu time spent up to now is      255.5 secs

     total energy              =   -3236.79582445 Ry
     Harris-Foulkes estimate   =   -3395.38782815 Ry
     estimated scf accuracy    <     231.22269055 Ry

     iteration #  3     ecut=    40.00 Ry     beta=0.70
     CG style diagonalization
     ethr =  1.00E-02,  avg # of iterations =  6.2

     total cpu time spent up to now is      308.7 secs

     total energy              =   -3303.97776960 Ry
     Harris-Foulkes estimate   =   -3342.21556318 Ry
     estimated scf accuracy    <      78.26942168 Ry

     iteration #  4     ecut=    40.00 Ry     beta=0.70
     CG style diagonalization
     ethr =  1.00E-02,  avg # of iterations =  3.5

     total cpu time spent up to now is      335.0 secs

     total energy              =   -3319.80898721 Ry
     Harris-Foulkes estimate   =   -3320.47781364 Ry
     estimated scf accuracy    <       0.93712422 Ry

     iteration #  5     ecut=    40.00 Ry     beta=0.70
     CG style diagonalization
     c_bands:  1 eigenvalues not converged
     c_bands:  2 eigenvalues not converged
     c_bands:  1 eigenvalues not converged
     ethr =  3.21E-04,  avg # of iterations =  4.7

     total cpu time spent up to now is      374.2 secs

     total energy              =   -3320.44547612 Ry
     Harris-Foulkes estimate   =   -3320.75828708 Ry
     estimated scf accuracy    <       0.60547090 Ry

     iteration #  6     ecut=    40.00 Ry     beta=0.70
     CG style diagonalization
     ethr =  2.07E-04,  avg # of iterations =  3.2

     total cpu time spent up to now is      398.2 secs

     total energy              =   -3320.56544138 Ry
     Harris-Foulkes estimate   =   -3320.59741254 Ry
     estimated scf accuracy    <       0.06817133 Ry

     iteration #  7     ecut=    40.00 Ry     beta=0.70
     CG style diagonalization
     c_bands:  1 eigenvalues not converged
     c_bands:  1 eigenvalues not converged
     ethr =  2.33E-05,  avg # of iterations =  3.3

     total cpu time spent up to now is      423.7 secs

     total energy              =   -3320.57787700 Ry
     Harris-Foulkes estimate   =   -3320.58050328 Ry
     estimated scf accuracy    <       0.00507212 Ry

     iteration #  8     ecut=    40.00 Ry     beta=0.70
     CG style diagonalization
     ethr =  1.74E-06,  avg # of iterations =  3.8

     total cpu time spent up to now is      453.9 secs

     total energy              =   -3320.58057543 Ry
     Harris-Foulkes estimate   =   -3320.58072527 Ry
     estimated scf accuracy    <       0.00025621 Ry

     iteration #  9     ecut=    40.00 Ry     beta=0.70
     CG style diagonalization
     ethr =  8.77E-08,  avg # of iterations =  4.1

     total cpu time spent up to now is      488.2 secs

     End of self-consistent calculation

          k = 0.0000 0.0000 0.0000 (  4785 PWs)   bands (ev):

   -29.8547 -29.5260 -29.1005 -29.0862 -28.9777 -28.9337 -28.9278 -28.8093
   -28.6814 -28.6544 -28.5613 -28.5436 -15.1524 -14.3391 -13.0510 -12.1205
    -3.0508  -2.8468  -2.7543  -2.7210  -2.0853  -1.8549   0.2457   0.3583
     0.5903   0.7457   1.0966   1.3488   1.5523   1.6829   1.7053   1.7175
     1.7479   1.8043   2.1223   2.1967   2.8293   3.0730   3.1877   3.1973
     3.3005   3.3473   3.5351   3.5441   3.5630   3.8722   3.9604   3.9625
     4.0700   4.0926   4.1324   5.0354  11.8306  11.8634  12.0360  12.4357
    12.6533  12.7828  15.8211  15.9653  16.2057  16.5277  16.6531  16.7611
    30.5633  31.1399  31.6915  31.7890  31.9546  32.0969  32.1242  32.2751
    33.0049  33.6702  34.1286  35.1285  35.1533  35.1536  35.6856  35.9929
    36.0892  36.1393  36.1619  36.1890  36.5221  37.0067  37.3000  37.3036
    37.6891  37.7794  38.0194  38.0358  38.1401  38.3632  38.3860  38.6818
    38.7284  39.5022  39.7463  39.8660  40.0194  40.0582  40.2898  40.6582
    40.8070  40.9978  41.4114  41.5776  41.6067  41.9384  42.4297  42.8723
    42.9806  43.1119  43.3794  43.4293  43.7076  43.8895  44.0451  44.8094
    44.8145  44.8574  45.2795  45.4423  45.5565  45.6666  45.8785  46.1597
    46.4827  46.5363  47.1087  47.9769  48.4126  48.8699  48.9627  49.4035
    49.9177  50.0272  50.5970  50.8354  50.9870  51.0188  51.8512  52.4244
    52.7660  52.9330  53.6489  54.2272  55.2820  55.3619  55.5311  55.5355
    55.7152  55.7998  55.9740  56.3872  56.4625  56.7925  56.9355  57.0928
    57.1641  57.2827  57.3215  57.7666  57.7951  57.9786  58.1418  58.1815
    58.2758  58.5826  58.8917  59.6516  59.8145  59.9522  60.1317

          k = 0.0000 0.0000 0.1654 (  4759 PWs)   bands (ev):

   -29.8143 -29.5868 -29.0785 -29.0626 -29.0093 -28.9481 -28.8937 -28.8140
   -28.6482 -28.6425 -28.5716 -28.5548 -15.0415 -14.4675 -12.9284 -12.2768
    -3.0181  -2.8688  -2.7299  -2.6711  -1.7379  -1.5561   0.1293   0.2678
     0.3480   0.5008   0.8879   1.2919   1.3342   1.5628   1.6357   1.8901
     1.9360   2.0373   2.2393   2.3004   2.7321   2.7786   3.0811   3.1742
     3.3707   3.5072   3.5966   3.6172   3.6592   3.9346   3.9491   3.9955
     4.0345   4.1302   4.1703   4.7857  11.8742  12.0537  12.2821  12.4501
    12.9640  13.1757  15.3410  15.6868  16.1953  16.2609  16.6318  16.7336
    30.6685  31.1082  31.7748  31.8552  31.8636  32.0953  32.3384  32.5308
    33.1238  33.6902  34.2462  34.4112  35.1002  35.5615  35.7701  35.7853
    36.1176  36.2495  36.3555  36.5519  36.7402  36.8947  36.9234  37.0696
    37.2848  37.7213  37.8790  38.1981  38.4322  38.4461  38.4746  38.8416
    38.9622  39.1739  39.4439  39.6795  39.6820  39.7946  40.4194  40.7524
    40.9148  41.1391  41.4503  41.7609  41.8243  41.9710  42.5178  42.6264
    42.8446  42.9655  43.0135  43.1264  43.6496  43.9010  43.9498  44.2176
    44.4567  44.6562  44.9567  45.6529  45.7081  45.8365  45.9927  46.5716
    46.9667  47.3331  47.6760  47.8579  48.3448  49.4516  49.7595  49.7624
    49.9821  50.2327  50.4716  51.0055  51.2267  51.3019  51.7083  51.7399
    52.8524  52.8719  53.1902  53.8381  53.9930  54.6795  54.8176  54.8371
    55.2549  55.8026  55.9468  56.5804  56.6647  56.8714  57.0019  57.1813
    57.2490  57.3847  57.4762  57.7605  58.0123  58.0877  58.1127  58.2520
    58.3699  59.2926  59.3755  59.4707  60.1429  60.3675  60.6540

          k = 0.0000 0.0000-0.3307 (  4758 PWs)   bands (ev):

   -29.7126 -29.7126 -29.0494 -29.0494 -29.0010 -29.0010 -28.8468 -28.8468
   -28.6065 -28.6065 -28.5970 -28.5970 -14.7632 -14.7632 -12.6198 -12.6198
    -2.9368  -2.9368  -2.6826  -2.6826  -0.7687  -0.7687  -0.7496  -0.7496
     0.3150   0.3150   1.1174   1.1174   1.5602   1.5602   1.5965   1.5965
     2.1911   2.1911   2.2491   2.2491   2.6105   2.6105   3.1019   3.1019
     3.4638   3.4638   3.6547   3.6547   3.8785   3.8785   3.9476   3.9476
     4.1810   4.1810   4.3268   4.3268  11.9728  11.9728  12.4666  12.4666
    14.0908  14.0908  14.4719  14.4719  16.1821  16.1821  16.6664  16.6664
    30.9286  30.9286  31.8083  31.8083  31.9432  31.9432  32.5441  32.5441
    33.9161  33.9161  34.3292  34.3292  35.0711  35.0711  35.5370  35.5370
    36.1978  36.1978  36.3096  36.3096  37.1285  37.1285  37.1758  37.1758
    37.3639  37.3639  37.6139  37.6139  38.7314  38.7314  38.7482  38.7482
    39.0020  39.0020  39.2646  39.2646  39.8517  39.8517  40.6737  40.6737
    41.1431  41.1431  41.3060  41.3060  42.2746  42.2746  42.4285  42.4285
    42.6328  42.6328  42.8134  42.8134  43.7190  43.7190  43.8849  43.8849
    44.4206  44.4206  45.0751  45.0751  46.3243  46.3243  46.4487  46.4487
    46.8937  46.8937  48.5772  48.5772  48.9261  48.9261  49.9395  49.9395
    50.8065  50.8065  51.2566  51.2566  51.6353  51.6353  51.6498  51.6498
    52.3234  52.3234  53.1146  53.1146  53.6899  53.6899  53.8893  53.8893
    54.8093  54.8093  56.1712  56.1712  56.3148  56.3149  57.4559  57.4560
    57.5247  57.5248  57.8130  57.8130  58.1859  58.1860  58.4658  58.4658
    58.9333  58.9333  60.0576  60.0579  60.3181  60.3184  60.9138

          k = 0.0000 0.3076 0.0000 (  4761 PWs)   bands (ev):

   -29.6963 -29.3893 -29.3390 -29.1000 -29.0645 -28.9925 -28.8902 -28.8270
   -28.6498 -28.5948 -28.5745 -28.5400 -14.6785 -13.8543 -13.6407 -12.7641
    -2.4882  -2.3193  -2.2332  -1.9179  -1.7374  -1.6136  -1.0189  -0.7675
    -0.1052   0.0605   1.4439   1.5396   1.6222   1.7298   1.7827   1.7968
     2.0084   2.1142   2.1210   2.3726   2.5382   2.6240   3.1731   3.2524
     3.3342   3.4022   3.4655   3.6448   3.7856   3.7932   3.8383   3.8636
     3.9344   3.9437   4.2668   4.5352  12.1432  12.4266  12.9487  13.2383
    13.5249  13.6755  15.2395  15.3124  15.4065  15.5206  16.0674  16.2622
    31.5746  31.8740  31.9231  32.3900  32.4196  32.6631  32.6837  32.7073
    33.2823  33.3343  33.4777  34.1349  35.1825  35.2475  35.3000  35.4794
    35.6713  36.1228  36.2888  36.4856  36.7469  36.9322  37.0570  37.4181
    37.4960  37.6507  37.7461  37.8398  37.8741  38.4180  38.4622  38.4939
    38.7275  38.9768  39.3870  39.4487  39.6618  40.6203  40.6681  40.8380
    41.1945  41.2334  41.2468  41.8008  42.0464  42.1186  42.4581  42.4639
    42.9719  43.0180  43.3024  43.4749  43.7819  43.8027  44.3735  44.4816
    44.7164  44.7703  44.8845  45.3113  45.3620  45.6417  46.1726  46.6820
    47.1662  47.2035  48.0827  48.2846  48.8058  49.1297  49.1312  49.2669
    49.7123  49.7568  49.9806  50.1011  50.5452  50.7976  51.3567  51.5860
    51.8612  52.5137  52.6809  52.9662  54.1493  54.3223  54.4377  54.6067
    54.8782  55.5757  55.6708  56.0122  56.1155  56.3728  56.7385  56.9941
    57.2584  57.5491  57.5603  57.8641  58.1090  58.5274  58.9653  58.9883
    59.1054  59.5534  59.6530  60.0571  60.3612  60.5337  61.0297

          k = 0.0000 0.3076 0.1654 (  4779 PWs)   bands (ev):

   -29.6669 -29.4540 -29.3140 -29.1584 -29.0336 -28.9553 -28.9144 -28.8448
   -28.6283 -28.5873 -28.5759 -28.5523 -14.5679 -13.9866 -13.5263 -12.9093
    -2.4662  -2.3131  -2.0753  -1.7572  -1.6576  -1.3829  -0.9871  -0.8067
    -0.3495   0.1900   0.6859   1.2350   1.6256   1.6481   1.8904   1.9428
     1.9773   2.2307   2.3354   2.3399   2.4850   2.6549   2.8384   3.0244
     3.4629   3.5296   3.5893   3.6508   3.7321   3.8487   3.8910   3.9357
     3.9408   3.9477   4.2123   4.3929  12.7063  12.9557  13.0081  13.2152
    13.5361  13.6790  15.2109  15.3047  15.3756  15.4785  15.5933  15.7432
    31.6231  32.0917  32.1800  32.2166  32.4597  32.5850  32.8160  32.9993
    33.2628  33.5123  33.5336  33.8677  34.9941  35.0798  35.1922  35.5781
    35.7471  36.0717  36.4922  36.5551  36.7168  36.8464  37.2013  37.3800
    37.3815  37.5152  37.6174  37.6243  37.8777  38.3570  38.4205  38.7556
    38.9628  39.0327  39.1833  39.4805  39.8703  40.4535  40.6854  40.8624
    41.0729  41.2605  41.4388  41.6597  41.7584  42.1652  42.1913  42.4838
    43.0412  43.0969  43.2044  43.3596  43.6208  43.8510  44.1090  44.2993
    44.5182  44.7793  45.0787  45.1161  45.1313  45.2750  45.8381  47.0832
    47.2342  48.1381  48.4437  48.6494  48.8186  49.0022  49.4877  49.5343
    49.6415  50.3095  50.3850  50.4333  50.8802  51.1093  51.3824  51.5134
    51.5182  52.2802  52.6420  52.7343  53.1082  53.9186  54.2024  54.3670
    54.5994  55.3568  55.5449  55.8209  56.1322  56.2433  56.5397  56.9488
    57.3784  57.4374  57.8969  58.0816  58.3830  58.8859  59.0590  59.1265
    59.5429  59.8441  59.9455  60.3351  60.4701  60.4733  60.6523

          k = 0.0000 0.3076-0.3307 (  4780 PWs)   bands (ev):

   -29.5704 -29.5704 -29.2489 -29.2489 -28.9697 -28.9697 -28.8943 -28.8943
   -28.5810 -28.5810 -28.5786 -28.5786 -14.2877 -14.2877 -13.2321 -13.2321
    -2.3800  -2.3800  -1.8753  -1.8753  -0.9775  -0.9775  -0.9087  -0.9087
    -0.4705  -0.4705   0.5954   0.5954   1.7846   1.7846   1.8683   1.8683
     2.1695   2.1695   2.2666   2.2666   2.6146   2.6146   2.8094   2.8094
     3.5411   3.5411   3.6379   3.6379   3.8002   3.8002   3.9258   3.9258
     4.0992   4.0992   4.1308   4.1308  13.0757  13.0757  13.4701  13.4701
    14.2410  14.2410  14.3508  14.3508  15.3860  15.3860  15.4086  15.4086
    31.8779  31.8779  32.3581  32.3581  32.5701  32.5701  32.7385  32.7385
    33.7525  33.7525  33.8717  33.8717  34.9995  34.9995  35.0448  35.0448
    35.9264  35.9264  36.3416  36.3416  36.9408  36.9408  37.0243  37.0243
    37.4345  37.4345  37.8787  37.8787  38.0243  38.0243  38.5159  38.5159
    38.8883  38.8883  39.7204  39.7204  40.2631  40.2631  40.7269  40.7269
    41.0210  41.0210  41.0764  41.0764  42.1541  42.1541  42.6842  42.6842
    42.8541  42.8541  43.1359  43.1359  43.4782  43.4782  44.1555  44.1555
    44.7087  44.7087  44.8598  44.8598  45.1282  45.1282  46.3363  46.3363
    48.4056  48.4056  48.5840  48.5840  49.3477  49.3477  49.6740  49.6740
    50.1954  50.1954  50.6015  50.6015  50.7325  50.7325  51.5386  51.5386
    51.9445  51.9445  52.7939  52.7939  53.2803  53.2803  53.8038  53.8038
    54.7597  54.7597  55.1474  55.1474  56.2520  56.2520  56.9310  56.9310
    57.2843  57.2844  58.2052  58.2052  58.7808  58.7809  59.5025  59.5025
    59.6469  59.6471  60.1693  60.1694  60.1946  60.1948  61.0433

          k =-0.5000 0.0000 0.0000 (  4798 PWs)   bands (ev):

   -29.5058 -29.5058 -29.2554 -29.2554 -29.0237 -29.0237 -28.8554 -28.8554
   -28.6527 -28.6527 -28.5646 -28.5646 -14.2122 -14.2122 -13.3371 -13.3371
    -2.0788  -2.0788  -1.7023  -1.7023  -1.4716  -1.4716  -0.8489  -0.8489
    -0.7126  -0.7126   1.2413   1.2413   1.6312   1.6312   1.9469   1.9469
     2.1237   2.1237   2.2601   2.2601   2.4486   2.4486   3.0714   3.0714
     3.2750   3.2750   3.4516   3.4516   3.8887   3.8887   4.0182   4.0182
     4.0483   4.0483   4.1109   4.1109  12.2188  12.2188  14.1325  14.1325
    14.3241  14.3241  14.3565  14.3565  14.6706  14.6706  16.1398  16.1398
    31.5545  31.5545  31.8158  31.8158  32.2775  32.2775  32.4994  32.4994
    33.9726  33.9726  34.1376  34.1376  34.6966  34.6966  35.0394  35.0394
    35.6794  35.6794  35.7595  35.7595  36.7235  36.7235  36.7432  36.7432
    37.5278  37.5278  38.2020  38.2020  38.6650  38.6650  39.0254  39.0254
    39.1551  39.1551  39.3661  39.3661  40.6638  40.6638  40.9633  40.9633
    41.3387  41.3387  41.5826  41.5826  41.9095  41.9095  43.2330  43.2330
    43.4712  43.4712  43.6611  43.6611  44.1084  44.1084  44.4161  44.4161
    44.8417  44.8417  45.0296  45.0296  45.8761  45.8761  46.3309  46.3309
    47.0440  47.0440  47.4374  47.4374  48.8693  48.8693  49.4532  49.4532
    49.9239  49.9239  50.8515  50.8515  51.0418  51.0418  51.5138  51.5138
    51.6497  51.6497  52.6910  52.6910  53.2462  53.2462  54.8629  54.8629
    55.3445  55.3445  56.0077  56.0077  56.7268  56.7269  56.8853  56.8853
    57.6448  57.6448  58.1608  58.1608  58.2845  58.2846  59.0807  59.0809
    59.4220  59.4220  60.3664  60.3668  60.4104  60.4108  60.5324

          k =-0.5000 0.0000 0.1654 (  4784 PWs)   bands (ev):

   -29.4836 -29.4836 -29.2888 -29.2888 -29.0180 -29.0180 -28.8556 -28.8556
   -28.6403 -28.6403 -28.5642 -28.5642 -14.0950 -14.0950 -13.4792 -13.4792
    -1.7911  -1.7911  -1.6781  -1.6782  -1.4926  -1.4926  -0.9319  -0.9319
    -0.5656  -0.5656   0.8874   0.8874   1.6165   1.6165   1.7966   1.7966
     2.0876   2.0876   2.2919   2.2919   2.5751   2.5751   2.9495   2.9495
     3.2060   3.2060   3.6279   3.6279   3.8641   3.8641   4.0053   4.0053
     4.0890   4.0890   4.1212   4.1212  12.8187  12.8187  14.1555  14.1555
    14.3047  14.3047  14.3997  14.3997  14.6130  14.6130  15.5878  15.5878
    31.8207  31.8207  31.9313  31.9313  32.1928  32.1928  32.7151  32.7151
    33.6799  33.6799  33.9983  33.9983  34.8570  34.8570  35.2612  35.2612
    35.4470  35.4470  35.8651  35.8651  36.3411  36.3411  37.2601  37.2601
    37.3849  37.3849  37.6471  37.6471  38.7698  38.7698  39.0898  39.0898
    39.4199  39.4199  39.7580  39.7580  40.6485  40.6485  40.7739  40.7739
    40.9578  40.9578  41.7259  41.7259  42.0451  42.0451  42.8385  42.8385
    43.2516  43.2516  43.6073  43.6073  44.1427  44.1427  44.2637  44.2637
    44.7359  44.7359  45.1561  45.1561  45.2766  45.2766  45.9593  45.9593
    47.8769  47.8769  48.1142  48.1142  49.1454  49.1454  50.0656  50.0656
    50.2387  50.2387  50.7532  50.7532  51.1325  51.1325  51.4164  51.4164
    52.3348  52.3348  52.6616  52.6616  53.1781  53.1781  53.9786  53.9786
    54.6587  54.6587  55.4752  55.4752  56.7321  56.7321  56.9664  56.9666
    57.2588  57.2589  58.2687  58.2687  58.4595  58.4597  59.0286  59.0287
    59.2926  59.2927  59.9380  59.9383  60.0528  60.0531  60.5567

          k =-0.5000 0.0000-0.3307 (  4788 PWs)   bands (ev):

   -29.4459 -29.4459 -29.3369 -29.3369 -29.0156 -29.0156 -28.8612 -28.8612
   -28.6286 -28.6286 -28.5671 -28.5671 -13.8042 -13.8042 -13.7954 -13.7954
    -1.6501  -1.6501  -1.5257  -1.5257  -1.3597  -1.3597  -1.1467  -1.1467
    -0.0380  -0.0380   0.0521   0.0521   1.6444   1.6444   1.7388   1.7388
     2.0621   2.0621   2.3373   2.3373   2.6266   2.6266   2.7998   2.7998
     3.2066   3.2066   3.7160   3.7160   3.8244   3.8244   4.0219   4.0219
     4.1043   4.1043   4.1499   4.1499  14.0469  14.0469  14.2043  14.2043
    14.2100  14.2100  14.2913  14.2913  14.5643  14.5643  14.5800  14.5800
    31.9188  31.9188  32.1395  32.1395  32.2184  32.2184  32.9623  32.9623
    33.5092  33.5092  33.8589  33.8589  34.6678  34.6678  35.5415  35.5415
    35.6189  35.6189  35.9006  35.9006  36.3978  36.3978  36.5153  36.5153
    37.1766  37.1766  37.8444  37.8444  38.9471  38.9471  38.9657  38.9657
    39.8833  39.8833  39.9529  39.9529  40.3910  40.3910  40.6617  40.6617
    41.1947  41.1947  41.9206  41.9206  42.1909  42.1909  42.4586  42.4586
    42.6489  42.6489  43.4992  43.4992  43.7296  43.7296  43.7779  43.7779
    44.6983  44.6983  45.0703  45.0703  45.7990  45.7990  45.8716  45.8716
    48.4429  48.4429  48.9039  48.9039  49.2724  49.2724  50.1855  50.1855
    50.6162  50.6162  51.1055  51.1055  51.2461  51.2461  51.9013  51.9013
    52.0260  52.0260  52.5587  52.5587  53.0375  53.0375  53.7020  53.7020
    53.7265  53.7265  55.1306  55.1306  56.6224  56.6224  56.8382  56.8383
    57.6781  57.6781  57.9529  57.9530  58.1965  58.1965  58.2774  58.2775
    58.8427  58.8428  59.4796  59.4799  60.7344  60.7348  60.7386

          k =-0.5000 0.3076 0.0000 (  4776 PWs)   bands (ev):

   -29.4100 -29.4100 -29.1532 -29.1532 -29.1523 -29.1523 -28.9559 -28.9559
   -28.6236 -28.6236 -28.5618 -28.5618 -14.1662 -14.1662 -13.2851 -13.2851
    -2.5317  -2.5317  -2.3701  -2.3701  -2.0565  -2.0565   0.2660   0.2660
     0.4363   0.4363   1.3472   1.3472   1.5218   1.5218   1.5977   1.5977
     2.0377   2.0377   2.4704   2.4704   2.5076   2.5076   3.2256   3.2256
     3.2740   3.2740   3.4864   3.4864   3.7949   3.7949   3.8495   3.8495
     4.0176   4.0176   4.0357   4.0357  12.1295  12.1295  12.6409  12.6409
    13.0766  13.0766  15.7595  15.7595  16.0356  16.0356  16.2416  16.2416
    30.5195  30.5195  31.4490  31.4490  32.1606  32.1606  32.5925  32.5925
    33.8109  33.8109  33.8339  33.8339  35.1534  35.1534  35.9202  35.9202
    36.4259  36.4259  36.6966  36.6966  36.7474  36.7474  37.3985  37.3985
    37.6889  37.6889  37.8307  37.8307  38.2336  38.2336  38.8464  38.8464
    39.4947  39.4947  39.7093  39.7093  40.7036  40.7036  40.7467  40.7467
    41.3932  41.3932  42.0285  42.0285  42.1117  42.1117  42.6660  42.6660
    43.0612  43.0612  43.1773  43.1773  43.7026  43.7026  44.3337  44.3337
    44.5933  44.5933  44.8877  44.8877  45.8303  45.8303  46.6946  46.6946
    46.7991  46.7991  47.4692  47.4692  48.0880  48.0880  49.0955  49.0955
    49.1728  49.1728  50.1164  50.1164  50.7649  50.7649  51.5477  51.5477
    52.0164  52.0164  53.5647  53.5647  53.8778  53.8778  54.6130  54.6130
    55.4207  55.4207  56.0160  56.0160  56.3130  56.3131  56.4269  56.4270
    57.4290  57.4291  58.3319  58.3319  58.5130  58.5131  58.8082  58.8082
    59.2122  59.2123  60.1789  60.1793  60.5185  60.5191  60.7226

          k =-0.5000 0.3076 0.1654 (  4784 PWs)   bands (ev):

   -29.3835 -29.3835 -29.1993 -29.1993 -29.1317 -29.1317 -28.9756 -28.9756
   -28.6106 -28.6106 -28.5610 -28.5610 -14.0496 -14.0496 -13.4287 -13.4287
    -2.5124  -2.5124  -2.3941  -2.3941  -1.7036  -1.7036  -0.0451  -0.0451
     0.5516   0.5516   1.1580   1.1580   1.4934   1.4934   1.6945   1.6945
     2.0326   2.0326   2.2463   2.2463   2.6173   2.6173   3.0443   3.0443
     3.2761   3.2761   3.5542   3.5542   3.7489   3.7489   3.8971   3.8971
     4.0380   4.0380   4.0883   4.0883  12.5870  12.5870  12.6870  12.6870
    13.1696  13.1696  15.5292  15.5292  15.9249  15.9249  16.0100  16.0100
    30.7987  30.7987  31.4516  31.4516  32.1683  32.1683  32.7410  32.7410
    33.4517  33.4517  33.8750  33.8750  35.2386  35.2386  35.7827  35.7827
    36.1469  36.1469  36.4106  36.4106  37.2369  37.2369  37.4903  37.4903
    37.8626  37.8626  38.1394  38.1394  38.6243  38.6243  38.7748  38.7748
    39.3109  39.3109  39.8417  39.8417  40.1662  40.1662  40.3231  40.3231
    41.3922  41.3922  41.8348  41.8348  42.2698  42.2698  42.5247  42.5247
    42.7914  42.7914  43.4041  43.4041  43.5277  43.5277  44.1693  44.1693
    44.5889  44.5889  45.0352  45.0352  45.4737  45.4737  46.7990  46.7990
    47.2830  47.2830  47.7712  47.7712  48.3251  48.3251  48.8724  48.8724
    49.8335  49.8335  50.4966  50.4966  50.9042  50.9042  51.4210  51.4210
    52.2345  52.2345  53.1970  53.1970  53.8090  53.8090  54.1480  54.1480
    54.9957  54.9957  55.6417  55.6417  56.3075  56.3076  56.7935  56.7936
    57.0322  57.0323  57.9666  57.9667  58.5625  58.5627  59.0453  59.0453
    59.6697  59.6699  60.0119  60.0120  60.2734  60.2738  60.6513

          k =-0.5000 0.3076-0.3307 (  4752 PWs)   bands (ev):

   -29.3422 -29.3422 -29.2422 -29.2422 -29.1128 -29.1128 -28.9957 -28.9957
   -28.5909 -28.5909 -28.5574 -28.5574 -13.7537 -13.7537 -13.7490 -13.7490
    -2.4517  -2.4517  -2.4465  -2.4465  -0.9466  -0.9466  -0.7308  -0.7308
     0.7522   0.7522   0.8628   0.8628   1.6270   1.6270   1.7049   1.7049
     1.9655   1.9655   2.1590   2.1590   2.7020   2.7020   2.8656   2.8656
     3.3045   3.3045   3.5433   3.5433   3.7762   3.7762   3.9200   3.9200
     4.0838   4.0838   4.1424   4.1424  12.7625  12.7625  12.7685  12.7685
    14.2082  14.2082  14.3330  14.3330  15.9323  15.9323  15.9414  15.9414
    31.2656  31.2656  31.2659  31.2659  32.1933  32.1933  32.8889  32.8889
    33.2479  33.2479  33.7984  33.7984  35.2165  35.2165  35.4124  35.4124
    36.1541  36.1541  37.0271  37.0271  37.1452  37.1452  37.7287  37.7287
    38.0184  38.0184  38.2048  38.2048  38.3984  38.3984  39.0177  39.0177
    39.0869  39.0869  39.4731  39.4731  40.0627  40.0627  40.2100  40.2100
    41.5475  41.5475  41.7877  41.7877  42.2428  42.2428  42.2933  42.2933
    42.9308  42.9308  43.3708  43.3708  43.5183  43.5183  43.6203  43.6203
    44.5799  44.5799  44.8105  44.8105  46.0288  46.0288  46.1141  46.1141
    48.0024  48.0024  48.1392  48.1392  48.7256  48.7256  49.2656  49.2656
    50.1565  50.1565  50.4629  50.4629  50.7012  50.7012  51.8127  51.8127
    52.3851  52.3851  52.4704  52.4704  53.3535  53.3535  54.4251  54.4251
    54.8301  54.8301  55.1546  55.1546  56.5114  56.5114  56.6451  56.6451
    57.7492  57.7494  58.0295  58.0297  58.0613  58.0614  58.9643  58.9644
    59.1429  59.1430  59.8507  59.8508  60.1170  60.1175  60.7115

     the Fermi energy is    52.5974 ev

!    total energy              =   -3320.58065920 Ry
     Harris-Foulkes estimate   =   -3320.58069255 Ry
     estimated scf accuracy    <       0.00003907 Ry

     The total energy is the sum of the following terms:

     one-electron contribution =     269.18956240 Ry
     hartree contribution      =     337.40196459 Ry
     xc contribution           =    -358.16147025 Ry
     ewald contribution        =   -3568.60775872 Ry
     smearing contrib. (-TS)   =      -0.40295722 Ry

     convergence has been achieved in   9 iterations

     Forces acting on atoms (Ry/au):

     atom    1 type  1   force =     1.02520891   -1.11057897   -1.42010720
     atom    2 type  1   force =    -1.02520891   -1.11057897    1.42010720
     atom    3 type  1   force =     1.02520891    1.11057897   -1.42010720
     atom    4 type  1   force =    -1.77266070   -0.66404119    0.00000000
     atom    5 type  1   force =    -1.02520891   -1.11057897   -1.42010720
     atom    6 type  1   force =     1.02520891   -1.11057897    1.42010720
     atom    7 type  1   force =     1.77266070   -0.66404119    0.00000000
     atom    8 type  1   force =    -1.02520891    1.11057897   -1.42010720
     atom    9 type  1   force =     1.02520891    1.11057897    1.42010720
     atom   10 type  1   force =     1.77266070    0.66404119    0.00000000
     atom   11 type  1   force =    -1.02520891    1.11057897    1.42010720
     atom   12 type  1   force =    -1.77266070    0.66404119    0.00000000
     atom   13 type  2   force =     0.00000000    0.00000000    0.00000000
     atom   14 type  2   force =     0.00000000    0.00000000    0.00000000
     atom   15 type  2   force =     0.00000000    0.00000000    0.00000000
     atom   16 type  2   force =     0.00000000    0.00000000    0.00000000

     Total force =     6.981565     Total SCF correction =     0.000000


     entering subroutine stress ...

          total   stress  (Ry/bohr**3)                   (kbar)     P=11814.29
   0.08064267   0.00000000   0.00000000      11862.94      0.00      0.00
   0.00000000   0.08099791   0.00000000          0.00  11915.20      0.00
   0.00000000   0.00000000   0.07929513          0.00      0.00  11664.71


     BFGS Geometry Optimization

     number of scf cycles    =   1
     number of bfgs steps    =   0

     enthalpy new            =   -3320.5806592031 Ry

     new trust radius        =       0.5000000000 bohr
     new conv_thr            =       0.0001000000 Ry

     new unit-cell volume =   1384.36664 a.u.^3 (   205.14197 Ang^3 )

CELL_PARAMETERS (alat=  8.80076499)
   1.074475796   0.000000000   0.000000000
   0.000000000   1.164841411   0.000000000
   0.000000000   0.000000000   1.622655837

ATOMIC_POSITIONS (crystal)
Fe       0.351597305   0.164334681   0.918535444
Fe       0.148402695   0.664334681   0.581464556
Fe       0.851597305   0.335665319   0.418535444
Fe       0.332223272   0.447637141   0.250000000
Fe       0.148402695   0.664334681   0.918535444
Fe       0.351597305   0.164334681   0.581464556
Fe       0.167776728   0.947637141   0.250000000
Fe       0.648402695   0.835665319   0.418535444
Fe       0.851597305   0.335665319   0.081464556
Fe       0.667776728   0.552362859   0.750000000
Fe       0.648402695   0.835665319   0.081464556
Fe       0.832223272   0.052362859   0.750000000
C        0.000000000   0.000000000   0.000000000
C        0.500000000   0.500000000   0.000000000
C        0.500000000   0.500000000   0.500000000
C        0.000000000   0.000000000   0.500000000



     Writing output data file Prototype-La-oP16-Fe3C.save
     NEW-OLD atomic charge density approx. for the potential
     NEW k-points:
        k(    1) = (   0.0000000   0.0000000   0.0000000), wk =   0.0833333
        k(    2) = (   0.0000000   0.0000000   0.1540684), wk =   0.1666667
        k(    3) = (   0.0000000   0.0000000  -0.3081368), wk =   0.0833333
        k(    4) = (   0.0000000   0.2861620   0.0000000), wk =   0.1666667
        k(    5) = (   0.0000000   0.2861620   0.1540684), wk =   0.3333333
        k(    6) = (   0.0000000   0.2861620  -0.3081368), wk =   0.1666667
        k(    7) = (  -0.4653432   0.0000000   0.0000000), wk =   0.0833333
        k(    8) = (  -0.4653432   0.0000000   0.1540684), wk =   0.1666667
        k(    9) = (  -0.4653432   0.0000000  -0.3081368), wk =   0.0833333
        k(   10) = (  -0.4653432   0.2861620   0.0000000), wk =   0.1666667
        k(   11) = (  -0.4653432   0.2861620   0.1540684), wk =   0.3333333
        k(   12) = (  -0.4653432   0.2861620  -0.3081368), wk =   0.1666667

     total cpu time spent up to now is      500.4 secs

     Self-consistent Calculation

     iteration #  1     ecut=    40.00 Ry     beta=0.70
     CG style diagonalization
     c_bands:  4 eigenvalues not converged
     c_bands:  4 eigenvalues not converged
     c_bands:  2 eigenvalues not converged
     c_bands:  1 eigenvalues not converged
     ethr =  1.00E-06,  avg # of iterations = 24.3

     total cpu time spent up to now is      709.7 secs

     total energy              =   -3319.90540114 Ry
     Harris-Foulkes estimate   =   -3355.41061000 Ry
     estimated scf accuracy    <      45.22020573 Ry

     iteration #  2     ecut=    40.00 Ry     beta=0.70
     CG style diagonalization
     ethr =  1.00E-02,  avg # of iterations =  3.4

     total cpu time spent up to now is      732.4 secs

     total energy              =   -3330.66629545 Ry
     Harris-Foulkes estimate   =   -3342.73782101 Ry
     estimated scf accuracy    <      19.47577723 Ry

     iteration #  3     ecut=    40.00 Ry     beta=0.70
     CG style diagonalization
     ethr =  6.67E-03,  avg # of iterations =  3.1

     total cpu time spent up to now is      752.1 secs

     total energy              =   -3335.83621096 Ry
     Harris-Foulkes estimate   =   -3337.30492271 Ry
     estimated scf accuracy    <       2.95844851 Ry

     iteration #  4     ecut=    40.00 Ry     beta=0.70
     CG style diagonalization
     ethr =  1.01E-03,  avg # of iterations =  3.1

     total cpu time spent up to now is      771.7 secs

     total energy              =   -3336.49276197 Ry
     Harris-Foulkes estimate   =   -3336.50658506 Ry
     estimated scf accuracy    <       0.02163453 Ry

     iteration #  5     ecut=    40.00 Ry     beta=0.70
     CG style diagonalization
     c_bands:  3 eigenvalues not converged
     c_bands:  2 eigenvalues not converged
     c_bands:  1 eigenvalues not converged
     c_bands:  2 eigenvalues not converged
     c_bands:  3 eigenvalues not converged
     c_bands:  1 eigenvalues not converged
     ethr =  7.41E-06,  avg # of iterations =  4.2

     total cpu time spent up to now is      800.8 secs

     total energy              =   -3336.50174882 Ry
     Harris-Foulkes estimate   =   -3336.50421275 Ry
     estimated scf accuracy    <       0.00432014 Ry

     iteration #  6     ecut=    40.00 Ry     beta=0.70
     CG style diagonalization
     ethr =  1.48E-06,  avg # of iterations =  3.1

     total cpu time spent up to now is      821.5 secs

     total energy              =   -3336.50274604 Ry
     Harris-Foulkes estimate   =   -3336.50302639 Ry
     estimated scf accuracy    <       0.00055039 Ry

     iteration #  7     ecut=    40.00 Ry     beta=0.70
     CG style diagonalization
     ethr =  1.88E-07,  avg # of iterations =  3.0

     total cpu time spent up to now is      839.8 secs

     End of self-consistent calculation

          k = 0.0000 0.0000 0.0000 (  4785 PWs)   bands (ev):

   -37.7030 -37.5774 -37.4903 -37.4901 -37.4633 -37.3813 -37.3785 -37.3732
   -37.1670 -37.1406 -37.1345 -37.1227 -21.1541 -20.8524 -20.4187 -20.0912
    -8.7378  -8.6045  -8.5264  -8.5162  -8.0695  -7.9699  -7.1061  -7.0392
    -6.8884  -6.7247  -6.5518  -6.4702  -6.3741  -6.2040  -6.1477  -6.1269
    -6.1021  -6.0010  -5.9023  -5.8431  -5.8322  -5.5100  -5.3866  -5.3481
    -5.3442  -5.2660  -5.2373  -5.1529  -5.1314  -5.1301  -5.1125  -5.0645
    -4.8667  -4.8389  -4.7313  -4.7088   3.8810   3.9705   3.9731   4.2374
     4.3320   4.4395   5.9533   5.9834   6.0750   6.2540   6.2564   6.3077
    24.3471  24.6859  25.2411  25.2692  25.4896  25.7167  25.8420  26.1825
    26.4414  26.7502  27.0519  27.4473  27.9573  28.0928  28.2000  28.2216
    28.2437  28.4943  28.6548  28.8142  29.0997  29.1441  29.2803  29.2905
    29.5582  29.6103  29.7834  29.8362  30.0174  30.1365  30.1378  30.3250
    30.3992  30.8695  31.0499  31.1757  31.5300  31.5696  31.5976  31.7804
    32.0182  32.3101  32.3586  32.4195  32.6522  32.6747  32.6807  33.0698
    33.0861  33.3695  33.4618  33.6101  33.6294  33.7600  34.2909  34.7262
    34.9418  35.0081  35.2145  35.2349  35.3523  35.5459  35.5498  35.9087
    35.9397  36.0501  36.1194  37.6893  38.1696  38.5182  38.5236  38.6168
    39.3733  39.5739  39.5809  39.7819  40.3233  40.8539  41.0942  41.3266
    41.6161  41.7341  42.8132  43.7179  43.8150  44.0776  44.1778  44.2489
    44.5941  44.8344  45.7135  45.8123  46.0031  46.0034  46.1047  46.1128
    46.3070  46.3865  46.6847  46.8187  47.1338  47.5131  47.5229  48.0200
    48.2496  48.6014  49.1548  49.5600  50.3578  50.4743  50.7834

          k = 0.0000 0.0000 0.1541 (  4759 PWs)   bands (ev):

   -37.6937 -37.5980 -37.4838 -37.4743 -37.4459 -37.3725 -37.3719 -37.3566
   -37.1440 -37.1381 -37.1351 -37.1151 -21.1100 -20.8981 -20.3648 -20.1408
    -8.7158  -8.6186  -8.5079  -8.4767  -7.9103  -7.8309  -7.0880  -7.0451
    -7.0450  -6.8538  -6.6498  -6.4470  -6.4111  -6.2346  -6.1603  -6.1094
    -6.0124  -5.9273  -5.8445  -5.8420  -5.7929  -5.5493  -5.4410  -5.4021
    -5.3758  -5.2726  -5.2019  -5.1159  -5.1059  -5.1043  -5.0386  -5.0375
    -4.8790  -4.8742  -4.7047  -4.6955   3.8996   3.9752   4.1493   4.2485
     4.5419   4.6053   5.7176   5.8659   6.0679   6.1033   6.2480   6.2998
    24.4135  24.6684  25.4036  25.4252  25.6119  25.7236  25.7620  26.1956
    26.4914  26.7732  27.1507  27.1770  27.6868  28.2338  28.2605  28.2646
    28.3988  28.5169  28.5830  28.7747  28.9642  29.0547  29.1345  29.1950
    29.3309  29.6215  29.7402  29.8353  30.0859  30.2759  30.3711  30.4867
    30.6967  30.8646  30.9295  31.1362  31.2669  31.4598  31.7799  31.9159
    31.9220  32.2644  32.4696  32.5694  32.6325  32.6482  32.8194  33.0573
    33.0921  33.1546  33.2283  33.3667  33.5127  33.8764  33.9333  34.0289
    34.5400  34.6469  34.6479  35.0520  35.2564  35.6312  35.8860  36.0838
    36.6615  37.0570  37.2661  37.3997  38.5409  38.7972  38.9545  38.9602
    39.2525  39.6653  39.8034  40.2489  40.4521  40.5888  40.9850  41.2376
    41.4991  41.7726  42.6515  42.7143  42.8257  43.3678  43.6433  44.1815
    44.3864  44.6654  45.1425  45.2734  45.7691  45.8313  46.1707  46.3373
    46.8040  46.9013  46.9594  47.5137  47.7976  47.9811  48.1106  48.1993
    48.5686  48.7589  49.0078  49.2854  49.3513  50.1101  50.3895

          k = 0.0000 0.0000-0.3081 (  4758 PWs)   bands (ev):

   -37.6613 -37.6613 -37.4804 -37.4804 -37.3966 -37.3966 -37.3606 -37.3606
   -37.1432 -37.1432 -37.1234 -37.1234 -21.0055 -21.0055 -20.2526 -20.2526
    -8.6620  -8.6620  -8.4802  -8.4802  -7.4669  -7.4669  -7.4524  -7.4524
    -7.0495  -7.0495  -6.5432  -6.5432  -6.2653  -6.2653  -6.2070  -6.2070
    -5.8688  -5.8688  -5.8357  -5.8357  -5.7589  -5.7589  -5.4157  -5.4157
    -5.3635  -5.3635  -5.1413  -5.1413  -5.0888  -5.0888  -4.9671  -4.9671
    -4.9269  -4.9269  -4.6943  -4.6943   3.9406   3.9406   4.2486   4.2486
     5.0870   5.0870   5.2542   5.2542   6.0644   6.0644   6.2673   6.2673
    24.5680  24.5680  25.5008  25.5008  25.5965  25.5965  26.1569  26.1569
    26.9676  26.9676  27.0793  27.0793  27.6101  27.6101  27.8424  27.8424
    28.6036  28.6036  28.7620  28.7620  29.1625  29.1625  29.1826  29.1826
    29.3355  29.3355  29.6433  29.6433  30.4655  30.4655  30.5957  30.5957
    30.8046  30.8046  30.8529  30.8529  31.4207  31.4207  32.0372  32.0372
    32.1128  32.1128  32.1280  32.1280  32.6817  32.6817  32.9580  32.9580
    32.9888  32.9888  33.1649  33.1649  33.6563  33.6563  33.7813  33.7813
    34.4533  34.4533  34.5532  34.5532  35.5802  35.5802  36.2399  36.2399
    36.8950  36.8950  38.1830  38.1830  38.3577  38.3577  39.4560  39.4560
    40.2090  40.2090  40.2246  40.2246  40.7566  40.7566  41.3516  41.3516
    41.4241  41.4241  41.4399  41.4399  42.4727  42.4727  42.9825  42.9825
    44.5514  44.5514  45.2064  45.2064  45.8766  45.8766  46.5400  46.5400
    46.8170  46.8170  47.1671  47.1671  48.0148  48.0148  48.5972  48.5973
    48.7724  48.7724  49.3148  49.3148  50.0549  50.0549  50.5507

          k = 0.0000 0.2862 0.0000 (  4761 PWs)   bands (ev):

   -37.6476 -37.5411 -37.5219 -37.4768 -37.4554 -37.4442 -37.3689 -37.3577
   -37.1511 -37.1396 -37.1250 -37.1123 -20.9773 -20.6714 -20.6088 -20.2921
    -8.4302  -8.3282  -8.2385  -8.0686  -8.0136  -7.8850  -7.6679  -7.5236
    -7.1798  -7.1621  -6.4141  -6.3676  -6.3189  -6.2551  -6.1372  -6.1272
    -5.9629  -5.9477  -5.8811  -5.8058  -5.7943  -5.7220  -5.3271  -5.3228
    -5.2564  -5.2511  -5.2375  -5.2018  -5.1157  -5.1050  -5.0583  -5.0422
    -4.8640  -4.8511  -4.8355  -4.8138   4.1116   4.2305   4.4602   4.5967
     4.7294   4.8210   5.6133   5.6154   5.6621   5.7296   6.0533   6.1497
    25.1516  25.2787  25.3767  25.6328  25.9742  25.9887  26.0547  26.2263
    26.5083  26.5112  26.6702  27.0442  27.5975  27.6891  27.8146  27.8151
    27.9404  28.4086  28.4833  28.9207  28.9821  29.1490  29.2311  29.3454
    29.4370  29.5356  29.5879  29.7820  29.8188  30.1363  30.2547  30.4079
    30.4833  30.7188  30.8421  31.1382  31.1714  31.6294  31.7849  31.8420
    32.0020  32.0095  32.3783  32.5711  32.6006  32.8959  32.9149  33.1629
    33.4187  33.4688  33.7055  33.7572  34.1105  34.3625  34.5358  34.5392
    34.6054  34.6827  34.7811  35.0336  35.1527  35.5270  36.0680  36.3460
    36.5316  36.7658  38.0065  38.2103  38.3258  38.3278  38.7781  39.0140
    39.0625  39.0676  39.1105  39.4991  40.1682  40.2256  40.5751  40.9634
    41.2681  41.3725  41.6789  42.0340  42.6890  42.8203  43.0468  43.8165
    44.2651  44.3094  44.3961  45.4179  45.4628  45.4885  46.2930  46.4179
    46.6194  46.6202  47.4689  47.6570  48.0353  48.1190  48.3839  48.6626
    49.0065  49.0578  49.5699  49.5818  49.8390  49.9923  50.3549

          k = 0.0000 0.2862 0.1541 (  4779 PWs)   bands (ev):

   -37.6473 -37.5689 -37.5350 -37.4927 -37.4562 -37.4273 -37.3764 -37.3685
   -37.1505 -37.1368 -37.1333 -37.1244 -20.9348 -20.7188 -20.5668 -20.3402
    -8.4278  -8.3284  -8.1882  -8.0564  -7.8885  -7.7937  -7.6518  -7.5492
    -7.2971  -7.0909  -6.7866  -6.4918  -6.3113  -6.2670  -6.1126  -6.0884
    -5.9909  -5.9293  -5.8976  -5.8018  -5.7390  -5.6706  -5.4965  -5.4224
    -5.3032  -5.2379  -5.1910  -5.1232  -5.0996  -5.0652  -5.0506  -5.0376
    -4.9012  -4.8749  -4.8384  -4.8065   4.3817   4.4716   4.4847   4.6039
     4.7299   4.8269   5.6133   5.6155   5.6548   5.7073   5.7907   5.8738
    25.1794  25.5220  25.5578  25.6360  26.0001  26.0385  26.0936  26.2207
    26.4869  26.6690  26.6736  26.9262  27.3802  27.6177  27.6633  27.8640
    28.0089  28.2429  28.6567  28.7254  28.8342  29.0091  29.0982  29.4638
    29.4757  29.4924  29.5552  29.7717  29.8051  30.0899  30.1690  30.5787
    30.6261  30.8589  30.9185  31.1076  31.4520  31.6053  31.7564  31.8551
    32.0428  32.2492  32.3288  32.4772  32.5044  32.8203  32.9564  33.1509
    33.3490  33.4348  33.5482  33.8496  33.9047  34.0414  34.3834  34.4758
    34.5687  34.5698  34.8264  34.8491  35.0446  35.0485  35.3748  36.3192
    37.0172  37.9027  38.3976  38.4018  38.4998  38.6911  38.8808  39.1623
    39.3553  39.5042  39.6619  39.8142  39.8739  40.4729  40.5522  40.9610
    41.1648  41.2040  41.7193  41.7281  42.0684  42.7718  42.9505  43.2174
    43.3427  43.7272  44.5225  44.5627  44.8621  45.7008  46.5786  46.6425
    47.0573  47.0946  47.5334  47.5462  47.8978  48.1802  48.3320  49.2149
    49.2899  49.4389  49.5116  49.6474  49.8182  50.3032  50.4511

          k = 0.0000 0.2862-0.3081 (  4780 PWs)   bands (ev):

   -37.6109 -37.6109 -37.5282 -37.5282 -37.4112 -37.4112 -37.3918 -37.3918
   -37.1365 -37.1365 -37.1309 -37.1309 -20.8287 -20.8287 -20.4552 -20.4552
    -8.3686  -8.3686  -8.0931  -8.0931  -7.6182  -7.6182  -7.5741  -7.5741
    -7.3409  -7.3409  -6.8542  -6.8542  -6.1911  -6.1911  -6.1723  -6.1723
    -5.9505  -5.9505  -5.8544  -5.8544  -5.6365  -5.6365  -5.5474  -5.5474
    -5.2844  -5.2844  -5.1349  -5.1349  -5.0535  -5.0535  -4.9906  -4.9906
    -4.9562  -4.9562  -4.8190  -4.8190   4.5168   4.5168   4.7217   4.7217
     5.1307   5.1307   5.2020   5.2020   5.6400   5.6400   5.6737   5.6737
    25.3500  25.3500  25.8296  25.8296  25.9639  25.9639  26.2024  26.2024
    26.8218  26.8218  26.9362  26.9362  27.3730  27.3730  27.4396  27.4396
    27.9697  27.9697  28.3941  28.3941  28.9981  28.9981  29.2556  29.2556
    29.4880  29.4880  29.8175  29.8175  30.1624  30.1624  30.3550  30.3550
    30.4834  30.4834  31.3018  31.3018  31.5621  31.5621  31.8265  31.8265
    32.1368  32.1368  32.2929  32.2929  32.9286  32.9286  33.1569  33.1569
    33.1644  33.1644  33.4532  33.4532  33.8562  33.8562  34.2911  34.2911
    34.2911  34.2911  34.8732  34.8732  34.9105  34.9105  35.7580  35.7580
    38.2428  38.2428  38.3087  38.3087  38.9340  38.9340  39.3302  39.3302
    39.5315  39.5315  40.0136  40.0136  40.3455  40.3455  40.7301  40.7301
    41.4271  41.4271  41.6784  41.6784  42.0637  42.0637  42.5262  42.5262
    43.1091  43.1091  43.7562  43.7562  45.8210  45.8211  46.3062  46.3062
    46.9397  46.9398  47.0734  47.0734  48.8482  48.8482  48.9747  48.9748
    49.6157  49.6157  50.0096  50.0097  50.1304  50.1304  50.4596

          k =-0.4653 0.0000 0.0000 (  4798 PWs)   bands (ev):

   -37.5924 -37.5924 -37.5019 -37.5019 -37.4825 -37.4825 -37.3618 -37.3618
   -37.1722 -37.1722 -37.1257 -37.1257 -20.8061 -20.8061 -20.4872 -20.4872
    -8.1016  -8.1016  -8.0100  -8.0100  -7.8553  -7.8553  -7.6290  -7.6290
    -7.6033  -7.6033  -6.4587  -6.4587  -6.2868  -6.2868  -6.2168  -6.2168
    -5.9426  -5.9426  -5.8910  -5.8910  -5.7205  -5.7205  -5.3801  -5.3801
    -5.3720  -5.3720  -5.2080  -5.2080  -5.1956  -5.1956  -5.0110  -5.0110
    -4.8682  -4.8682  -4.7415  -4.7415   4.1458   4.1458   5.0623   5.0623
     5.1137   5.1137   5.1718   5.1718   5.2464   5.2464   6.0928   6.0928
    25.0248  25.0248  25.4267  25.4267  25.8977  25.8977  25.9175  25.9175
    26.9139  26.9139  27.0911  27.0911  27.1487  27.1487  27.4617  27.4617
    27.8197  27.8197  28.3783  28.3783  28.8376  28.8376  29.0316  29.0316
    29.4077  29.4077  29.7797  29.7797  30.5475  30.5475  30.7784  30.7784
    31.0468  31.0468  31.1335  31.1335  31.8158  31.8158  31.9645  31.9645
    32.4092  32.4092  32.5089  32.5089  32.7576  32.7576  33.4794  33.4794
    33.5283  33.5283  33.7403  33.7403  34.0606  34.0606  34.2735  34.2735
    34.5312  34.5312  35.0924  35.0924  35.5088  35.5088  36.0146  36.0146
    37.1778  37.1778  37.6623  37.6623  38.5126  38.5126  38.6977  38.6977
    39.2044  39.2044  40.1471  40.1471  40.2159  40.2159  40.6269  40.6269
    41.0403  41.0403  41.7117  41.7117  41.8863  41.8863  43.2625  43.2625
    43.6399  43.6399  45.0007  45.0007  45.2240  45.2240  46.4430  46.4431
    47.7374  47.7375  47.8949  47.8949  48.5569  48.5569  48.6412  48.6412
    49.5266  49.5268  49.6601  49.6603  49.8552  49.8554  50.8298

          k =-0.4653 0.0000 0.1541 (  4784 PWs)   bands (ev):

   -37.5989 -37.5989 -37.5181 -37.5181 -37.4501 -37.4501 -37.3588 -37.3588
   -37.1600 -37.1600 -37.1287 -37.1287 -20.7594 -20.7594 -20.5339 -20.5339
    -7.9966  -7.9966  -7.9588  -7.9588  -7.8609  -7.8609  -7.6426  -7.6426
    -7.5313  -7.5313  -6.6553  -6.6553  -6.3460  -6.3460  -6.2256  -6.2256
    -5.9605  -5.9605  -5.8659  -5.8659  -5.6735  -5.6735  -5.4466  -5.4466
    -5.3528  -5.3528  -5.2032  -5.2032  -5.0784  -5.0784  -5.0192  -5.0192
    -4.8937  -4.8937  -4.7291  -4.7291   4.4375   4.4375   5.0885   5.0885
     5.1228   5.1228   5.1642   5.1642   5.2209   5.2209   5.8190   5.8190
    25.2847  25.2847  25.4833  25.4833  25.7652  25.7652  26.1223  26.1223
    26.8140  26.8140  26.9072  26.9072  27.1578  27.1578  27.6158  27.6158
    27.7814  27.7814  28.1925  28.1925  28.7123  28.7123  29.1944  29.1944
    29.4235  29.4235  29.4766  29.4766  30.5373  30.5373  30.8196  30.8196
    31.0062  31.0062  31.4140  31.4140  31.8861  31.8861  31.9700  31.9700
    32.1419  32.1419  32.5997  32.5997  32.8852  32.8852  33.1647  33.1647
    33.6961  33.6961  33.9887  33.9887  34.1560  34.1560  34.3615  34.3615
    34.4032  34.4032  34.7829  34.7829  35.0893  35.0893  35.4571  35.4571
    37.9420  37.9420  38.0690  38.0690  38.7147  38.7147  39.0906  39.0906
    39.3755  39.3755  40.2976  40.2976  40.5164  40.5164  40.7293  40.7293
    41.1094  41.1094  41.2160  41.2160  41.9850  41.9850  42.5178  42.5178
    43.2133  43.2133  44.2838  44.2838  45.3862  45.3862  46.5976  46.5976
    47.7116  47.7116  48.1374  48.1374  48.3628  48.3628  48.5276  48.5276
    49.4632  49.4633  49.6306  49.6307  50.0632  50.0636  50.4100

          k =-0.4653 0.0000-0.3081 (  4788 PWs)   bands (ev):

   -37.6024 -37.6024 -37.5345 -37.5345 -37.4367 -37.4367 -37.3612 -37.3612
   -37.1542 -37.1542 -37.1360 -37.1360 -20.6502 -20.6502 -20.6480 -20.6480
    -7.9936  -7.9936  -7.8701  -7.8701  -7.7841  -7.7841  -7.7304  -7.7304
    -7.1835  -7.1835  -7.1634  -7.1634  -6.3254  -6.3254  -6.2329  -6.2329
    -5.9716  -5.9716  -5.8259  -5.8259  -5.6503  -5.6503  -5.5395  -5.5395
    -5.3553  -5.3553  -5.1348  -5.1348  -5.0766  -5.0766  -4.9702  -4.9702
    -4.9675  -4.9675  -4.7164  -4.7164   5.0535   5.0535   5.0919   5.0919
     5.1343   5.1343   5.1419   5.1419   5.2143   5.2143   5.2230   5.2230
    25.4328  25.4328  25.6930  25.6930  25.7397  25.7397  26.3388  26.3388
    26.6117  26.6117  26.8547  26.8547  27.1275  27.1275  27.6670  27.6670
    27.7457  27.7457  27.9403  27.9403  28.6000  28.6000  29.0532  29.0532
    29.3062  29.3062  29.6438  29.6438  30.5703  30.5703  30.7409  30.7409
    31.2055  31.2055  31.3509  31.3509  31.7371  31.7371  32.1754  32.1754
    32.5606  32.5606  32.7315  32.7315  32.8060  32.8060  33.2236  33.2236
    33.2318  33.2318  33.8751  33.8751  33.9704  33.9704  34.1074  34.1074
    34.4872  34.4872  34.7540  34.7540  35.1843  35.1843  35.1975  35.1975
    37.9508  37.9508  38.6024  38.6024  39.3235  39.3235  39.6049  39.6049
    39.9683  39.9683  40.2417  40.2417  40.4031  40.4031  40.6477  40.6477
    40.8628  40.8628  41.3816  41.3816  41.5356  41.5356  42.3274  42.3274
    42.5712  42.5712  43.8168  43.8168  45.3640  45.3640  46.6364  46.6364
    47.7110  47.7110  47.9960  47.9961  48.2218  48.2218  48.6757  48.6758
    48.7926  48.7926  49.9111  49.9112  50.1191  50.1191  50.8249

          k =-0.4653 0.2862 0.0000 (  4776 PWs)   bands (ev):

   -37.5694 -37.5694 -37.5066 -37.5066 -37.4623 -37.4623 -37.3810 -37.3810
   -37.1478 -37.1478 -37.1305 -37.1305 -20.7976 -20.7976 -20.4794 -20.4794
    -8.4278  -8.4278  -8.3191  -8.3191  -8.0877  -8.0877  -7.0277  -7.0277
    -6.9808  -6.9808  -6.4946  -6.4946  -6.3110  -6.3110  -6.2038  -6.2038
    -5.9843  -5.9843  -5.9395  -5.9395  -5.7220  -5.7220  -5.3814  -5.3814
    -5.2951  -5.2951  -5.2598  -5.2598  -5.1474  -5.1474  -5.0227  -5.0227
    -4.8633  -4.8633  -4.8436  -4.8436   4.0841   4.0841   4.2926   4.2926
     4.5099   4.5099   5.8634   5.8634   5.9763   5.9763   6.1303   6.1303
    24.3300  24.3300  25.1573  25.1573  25.8352  25.8352  25.8503  25.8503
    26.6401  26.6401  26.8328  26.8328  27.7033  27.7033  28.1149  28.1149
    28.3797  28.3797  28.9702  28.9702  29.0403  29.0403  29.4071  29.4071
    29.6408  29.6408  29.8783  29.8783  30.0190  30.0190  30.5627  30.5627
    31.2052  31.2052  31.3707  31.3707  31.7163  31.7163  31.9359  31.9359
    32.3624  32.3624  32.8265  32.8265  32.8692  32.8692  33.2658  33.2658
    33.4665  33.4665  33.6060  33.6060  33.7778  33.7778  34.1489  34.1489
    34.5507  34.5507  34.6207  34.6207  35.4168  35.4168  36.3848  36.3848
    37.0020  37.0020  37.2283  37.2283  37.8367  37.8367  38.6520  38.6520
    38.9020  38.9020  39.3375  39.3375  40.5108  40.5108  40.7370  40.7370
    40.9237  40.9237  42.0374  42.0374  42.3601  42.3601  43.1565  43.1565
    43.9087  43.9087  45.1098  45.1098  45.3648  45.3648  46.6273  46.6273
    47.6111  47.6111  47.6318  47.6318  48.6751  48.6751  48.8291  48.8292
    49.0215  49.0216  49.6127  49.6128  50.1942  50.1943  50.6715

          k =-0.4653 0.2862 0.1541 (  4784 PWs)   bands (ev):

   -37.5672 -37.5672 -37.5186 -37.5186 -37.4539 -37.4539 -37.3884 -37.3884
   -37.1485 -37.1485 -37.1339 -37.1339 -20.7534 -20.7534 -20.5287 -20.5287
    -8.4125  -8.4125  -8.3390  -8.3390  -7.9101  -7.9101  -7.1406  -7.1406
    -6.9277  -6.9277  -6.5490  -6.5490  -6.3706  -6.3706  -6.2819  -6.2819
    -6.0465  -6.0465  -5.9319  -5.9319  -5.6647  -5.6647  -5.4374  -5.4374
    -5.2897  -5.2897  -5.2142  -5.2142  -5.1292  -5.1292  -5.0171  -5.0171
    -4.9092  -4.9092  -4.8201  -4.8201   4.2799   4.2799   4.3105   4.3105
     4.5844   4.5844   5.7827   5.7827   5.9394   5.9394   5.9654   5.9654
    24.5500  24.5500  25.1498  25.1498  25.7659  25.7659  25.9951  25.9951
    26.5060  26.5060  26.7449  26.7449  27.7220  27.7220  28.0532  28.0532
    28.2906  28.2906  28.6033  28.6033  29.3717  29.3717  29.5960  29.5960
    29.7374  29.7374  29.9599  29.9599  30.3031  30.3031  30.4920  30.4920
    30.9441  30.9441  31.3702  31.3702  31.5726  31.5726  31.7852  31.7852
    32.3035  32.3035  32.6029  32.6029  32.8079  32.8079  33.1292  33.1292
    33.3745  33.3745  33.6555  33.6555  33.8074  33.8074  34.4193  34.4193
    34.5678  34.5678  34.9026  34.9026  35.0132  35.0132  36.2874  36.2874
    37.3755  37.3755  37.5141  37.5141  37.8968  37.8968  38.4831  38.4831
    39.1643  39.1643  39.9176  39.9176  40.3533  40.3533  40.5919  40.5919
    41.0535  41.0535  41.9666  41.9666  42.3487  42.3487  42.6630  42.6630
    43.9161  43.9161  44.3061  44.3061  45.7479  45.7479  46.8668  46.8669
    47.3066  47.3066  47.7850  47.7851  48.2686  48.2686  48.8706  48.8706
    49.1600  49.1601  49.3717  49.3718  50.0655  50.0658  50.5696

          k =-0.4653 0.2862-0.3081 (  4752 PWs)   bands (ev):

   -37.5526 -37.5526 -37.5177 -37.5177 -37.4236 -37.4236 -37.3976 -37.3976
   -37.1380 -37.1380 -37.1226 -37.1226 -20.6409 -20.6409 -20.6402 -20.6402
    -8.3726  -8.3726  -8.3664  -8.3664  -7.5350  -7.5350  -7.4065  -7.4065
    -6.7977  -6.7977  -6.7611  -6.7611  -6.3763  -6.3763  -6.2701  -6.2701
    -6.0527  -6.0527  -5.9221  -5.9221  -5.6111  -5.6111  -5.5242  -5.5242
    -5.2072  -5.2072  -5.1724  -5.1724  -5.1399  -5.1399  -4.9935  -4.9935
    -4.9109  -4.9109  -4.7921  -4.7921   4.3477   4.3477   4.3519   4.3519
     5.1463   5.1463   5.1709   5.1709   5.9324   5.9324   5.9406   5.9406
    24.9440  24.9440  24.9803  24.9803  25.7134  25.7134  26.1529  26.1529
    26.3794  26.3794  26.6997  26.6997  27.5790  27.5790  27.8186  27.8186
    28.3050  28.3050  29.0384  29.0384  29.1146  29.1146  29.6271  29.6271
    29.8451  29.8451  30.1952  30.1952  30.3037  30.3037  30.7071  30.7071
    30.7568  30.7568  30.9769  30.9769  31.5892  31.5892  31.6994  31.6994
    32.2688  32.2688  32.5150  32.5150  32.9320  32.9320  32.9827  32.9827
    33.3734  33.3734  33.6686  33.6686  33.7036  33.7036  34.1339  34.1339
    34.8017  34.8017  34.8041  34.8041  35.4925  35.4925  35.6930  35.6930
    37.8681  37.8681  38.0228  38.0228  38.1911  38.1911  38.5063  38.5063
    39.4618  39.4618  39.4790  39.4790  40.2004  40.2004  40.5245  40.5245
    41.5826  41.5826  41.6378  41.6378  42.1487  42.1487  42.9017  42.9017
    43.2308  43.2308  44.2023  44.2023  46.3926  46.3926  46.8451  46.8451
    47.1196  47.1196  47.7472  47.7473  47.7836  47.7836  48.5069  48.5070
    49.0532  49.0532  49.1488  49.1488  50.2461  50.2463  50.3659

     the Fermi energy is    41.5825 ev

!    total energy              =   -3336.50283987 Ry
     Harris-Foulkes estimate   =   -3336.50288959 Ry
     estimated scf accuracy    <       0.00005582 Ry

     The total energy is the sum of the following terms:

     one-electron contribution =     -45.80507938 Ry
     hartree contribution      =     395.87329339 Ry
     xc contribution           =    -347.50819620 Ry
     ewald contribution        =   -3338.55507356 Ry
     smearing contrib. (-TS)   =      -0.50778413 Ry

     convergence has been achieved in   7 iterations

     Forces acting on atoms (Ry/au):

     atom    1 type  1   force =     0.60809701   -0.63340423   -0.80141904
     atom    2 type  1   force =    -0.60809701   -0.63340423    0.80141904
     atom    3 type  1   force =     0.60809701    0.63340423   -0.80141904
     atom    4 type  1   force =    -1.04233244   -0.38407411    0.00000000
     atom    5 type  1   force =    -0.60809701   -0.63340423   -0.80141904
     atom    6 type  1   force =     0.60809701   -0.63340423    0.80141904
     atom    7 type  1   force =     1.04233244   -0.38407411    0.00000000
     atom    8 type  1   force =    -0.60809701    0.63340423   -0.80141904
     atom    9 type  1   force =     0.60809701    0.63340423    0.80141904
     atom   10 type  1   force =     1.04233244    0.38407411    0.00000000
     atom   11 type  1   force =    -0.60809701    0.63340423    0.80141904
     atom   12 type  1   force =    -1.04233244    0.38407411    0.00000000
     atom   13 type  2   force =     0.00000000    0.00000000    0.00000000
     atom   14 type  2   force =     0.00000000    0.00000000    0.00000000
     atom   15 type  2   force =     0.00000000    0.00000000    0.00000000
     atom   16 type  2   force =     0.00000000    0.00000000    0.00000000

     Total force =     4.030127     Total SCF correction =     0.000000


     entering subroutine stress ...

          total   stress  (Ry/bohr**3)                   (kbar)     P= 4967.99
   0.03417554   0.00000000   0.00000000       5027.40      0.00      0.00
   0.00000000   0.03332468   0.00000000          0.00   4902.23      0.00
   0.00000000   0.00000000   0.03381497          0.00      0.00   4974.35


     The maximum number of steps has been reached.

     End of BFGS Geometry Optimization
Begin final coordinates
     new unit-cell volume =   1384.36664 a.u.^3 (   205.14197 Ang^3 )

CELL_PARAMETERS (alat=  8.80076499)
   1.074475796   0.000000000   0.000000000
   0.000000000   1.164841411   0.000000000
   0.000000000   0.000000000   1.622655837

ATOMIC_POSITIONS (crystal)
Fe       0.351597305   0.164334681   0.918535444
Fe       0.148402695   0.664334681   0.581464556
Fe       0.851597305   0.335665319   0.418535444
Fe       0.332223272   0.447637141   0.250000000
Fe       0.148402695   0.664334681   0.918535444
Fe       0.351597305   0.164334681   0.581464556
Fe       0.167776728   0.947637141   0.250000000
Fe       0.648402695   0.835665319   0.418535444
Fe       0.851597305   0.335665319   0.081464556
Fe       0.667776728   0.552362859   0.750000000
Fe       0.648402695   0.835665319   0.081464556
Fe       0.832223272   0.052362859   0.750000000
C        0.000000000   0.000000000   0.000000000
C        0.500000000   0.500000000   0.000000000
C        0.500000000   0.500000000   0.500000000
C        0.000000000   0.000000000   0.500000000
End final coordinates



     A final scf calculation at the relaxed structure.
     The G-vectors are recalculated for the final unit cell
     Results may differ from those at the preceding step.
 
     Parallelization info
     --------------------
     sticks:   dense  smooth     PW     G-vecs:    dense   smooth      PW
     Min         308     308     88                11822    11822    1813
     Max         309     309     89                11823    11823    1814
     Sum        1235    1235    355                47291    47291    7253
 


     bravais-lattice index     =            0
     lattice parameter (alat)  =       8.8008  a.u.
     unit-cell volume          =    1384.3666 (a.u.)^3
     number of atoms/cell      =           16
     number of atomic types    =            2
     number of electrons       =       292.00
     number of Kohn-Sham states=          175
     kinetic-energy cutoff     =      40.0000  Ry
     charge density cutoff     =     160.0000  Ry
     convergence threshold     =      1.0E-04
     mixing beta               =       0.7000
     number of iterations used =            8  plain     mixing
     Exchange-correlation      = SLA-PZ-NOGX-NOGC ( 1 1 0 0 0)
     EXX-fraction              =        0.00

     celldm(1)=   8.800765  celldm(2)=   0.000000  celldm(3)=   0.000000
     celldm(4)=   0.000000  celldm(5)=   0.000000  celldm(6)=   0.000000

     crystal axes: (cart. coord. in units of alat)
               a(1) = (   1.074476   0.000000   0.000000 )  
               a(2) = (   0.000000   1.164841   0.000000 )  
               a(3) = (   0.000000   0.000000   1.622656 )  

     reciprocal axes: (cart. coord. in units 2 pi/alat)
               b(1) = (  0.930686  0.000000  0.000000 )  
               b(2) = (  0.000000  0.858486  0.000000 )  
               b(3) = (  0.000000  0.000000  0.616274 )  


     PseudoPot. # 1 for Tb read from file:
     /home/jld5415/pp.La/Tb.UPF
     MD5 check sum: 3d6088a3f0cf7fd2e110c43f7f8e95c2
     Pseudo is Norm-conserving, Zval = 19.0
     Generated in analytical, separable form
     Using radial grid of 1263 points,  6 beta functions with: 
                l(1) =   0
                l(2) =   0
                l(3) =   1
                l(4) =   1
                l(5) =   2
                l(6) =   3

     PseudoPot. # 2 for Sm read from file:
     /home/jld5415/pp.La/Sm.UPF
     MD5 check sum: 5079e8b144a06bfcdbc14fb02b96ab09
     Pseudo is Norm-conserving, Zval = 16.0
     Generated in analytical, separable form
     Using radial grid of 1259 points,  6 beta functions with: 
                l(1) =   0
                l(2) =   0
                l(3) =   1
                l(4) =   1
                l(5) =   2
                l(6) =   3

     atomic species   valence    mass     pseudopotential
        Fe            19.00    55.84500     Tb( 1.00)
        C             16.00    12.01070     Sm( 1.00)

      8 Sym. Ops., with inversion, found ( 6 have fractional translation)



   Cartesian axes

     site n.     atom                  positions (alat units)
         1           Fe  tau(   1) = (   0.3777828   0.1914238   1.4904669  )
         2           Fe  tau(   2) = (   0.1594551   0.7738445   0.9435169  )
         3           Fe  tau(   3) = (   0.9150207   0.3909969   0.6791390  )
         4           Fe  tau(   4) = (   0.3569659   0.5214263   0.4056640  )
         5           Fe  tau(   5) = (   0.1594551   0.7738445   1.4904669  )
         6           Fe  tau(   6) = (   0.3777828   0.1914238   0.9435169  )
         7           Fe  tau(   7) = (   0.1802720   1.1038470   0.4056640  )
         8           Fe  tau(   8) = (   0.6966930   0.9734176   0.6791390  )
         9           Fe  tau(   9) = (   0.9150207   0.3909969   0.1321889  )
        10           Fe  tau(  10) = (   0.7175099   0.6434151   1.2169919  )
        11           Fe  tau(  11) = (   0.6966930   0.9734176   0.1321889  )
        12           Fe  tau(  12) = (   0.8942038   0.0609944   1.2169919  )
        13           C   tau(  13) = (   0.0000000   0.0000000   0.0000000  )
        14           C   tau(  14) = (   0.5372379   0.5824207   0.0000000  )
        15           C   tau(  15) = (   0.5372379   0.5824207   0.8113279  )
        16           C   tau(  16) = (   0.0000000   0.0000000   0.8113279  )

     number of k points=    12  gaussian smearing, width (Ry)=  0.1000
                       cart. coord. in units 2pi/alat
        k(    1) = (   0.0000000   0.0000000   0.0000000), wk =   0.0833333
        k(    2) = (   0.0000000   0.0000000   0.1540684), wk =   0.1666667
        k(    3) = (   0.0000000   0.0000000  -0.3081368), wk =   0.0833333
        k(    4) = (   0.0000000   0.2861620   0.0000000), wk =   0.1666667
        k(    5) = (   0.0000000   0.2861620   0.1540684), wk =   0.3333333
        k(    6) = (   0.0000000   0.2861620  -0.3081368), wk =   0.1666667
        k(    7) = (  -0.4653432   0.0000000   0.0000000), wk =   0.0833333
        k(    8) = (  -0.4653432   0.0000000   0.1540684), wk =   0.1666667
        k(    9) = (  -0.4653432   0.0000000  -0.3081368), wk =   0.0833333
        k(   10) = (  -0.4653432   0.2861620   0.0000000), wk =   0.1666667
        k(   11) = (  -0.4653432   0.2861620   0.1540684), wk =   0.3333333
        k(   12) = (  -0.4653432   0.2861620  -0.3081368), wk =   0.1666667

     Dense  grid:    47291 G-vectors     FFT dimensions: (  40,  45,  60)

     Largest allocated arrays     est. size (Mb)     dimensions
        Kohn-Sham Wavefunctions         3.94 Mb     (   1477,  175)
        NL pseudopotentials             7.21 Mb     (   1477,  320)
        Each V/rho on FFT grid          0.41 Mb     (  27000)
        Each G-vector array             0.09 Mb     (  11822)
        G-vector shells                 0.04 Mb     (   4641)
     Largest temporary arrays     est. size (Mb)     dimensions
        Each subspace H/S matrix        0.47 Mb     ( 175, 175)
        Each <psi_i|beta_j> matrix      0.85 Mb     (    320,  175)
        Arrays for rho mixing           3.30 Mb     (  27000,   8)

     Initial potential from superposition of free atoms

     Starting from uniform charge
     Starting wfc are    0 randomized atomic wfcs

     Writing output data file Prototype-La-oP16-Fe3C.save

     total cpu time spent up to now is      853.6 secs

     Self-consistent Calculation

     iteration #  1     ecut=    40.00 Ry     beta=0.70
     CG style diagonalization
     c_bands:  3 eigenvalues not converged
     c_bands:  4 eigenvalues not converged
     c_bands:  3 eigenvalues not converged
     c_bands:  5 eigenvalues not converged
     c_bands:  5 eigenvalues not converged
     c_bands:  3 eigenvalues not converged
     c_bands:  3 eigenvalues not converged
     c_bands:  3 eigenvalues not converged
     c_bands:  1 eigenvalues not converged
     c_bands:  2 eigenvalues not converged
     c_bands:  2 eigenvalues not converged
     c_bands:  3 eigenvalues not converged
     ethr =  1.00E-06,  avg # of iterations = 54.5

     total cpu time spent up to now is     1329.0 secs

     total energy              =   -3122.58979182 Ry
     Harris-Foulkes estimate   =   -3929.77308711 Ry
     estimated scf accuracy    <    1023.93317466 Ry

     iteration #  2     ecut=    40.00 Ry     beta=0.70
     CG style diagonalization
     c_bands:  2 eigenvalues not converged
     c_bands:  1 eigenvalues not converged
     ethr =  1.00E-02,  avg # of iterations =  8.8

     total cpu time spent up to now is     1400.8 secs

     total energy              =   -3274.14016755 Ry
     Harris-Foulkes estimate   =   -3387.74630834 Ry
     estimated scf accuracy    <     159.80226958 Ry

     iteration #  3     ecut=    40.00 Ry     beta=0.70
     CG style diagonalization
     ethr =  1.00E-02,  avg # of iterations =  6.6

     total cpu time spent up to now is     1453.8 secs

     total energy              =   -3321.06100932 Ry
     Harris-Foulkes estimate   =   -3365.53774285 Ry
     estimated scf accuracy    <      96.16430711 Ry

     iteration #  4     ecut=    40.00 Ry     beta=0.70
     CG style diagonalization
     ethr =  1.00E-02,  avg # of iterations =  3.9

     total cpu time spent up to now is     1482.6 secs

     total energy              =   -3338.13792666 Ry
     Harris-Foulkes estimate   =   -3339.12425164 Ry
     estimated scf accuracy    <       1.48844228 Ry

     iteration #  5     ecut=    40.00 Ry     beta=0.70
     CG style diagonalization
     c_bands:  3 eigenvalues not converged
     c_bands:  1 eigenvalues not converged
     ethr =  5.10E-04,  avg # of iterations =  5.1

     total cpu time spent up to now is     1523.8 secs

     total energy              =   -3339.14976635 Ry
     Harris-Foulkes estimate   =   -3339.36881034 Ry
     estimated scf accuracy    <       0.41888669 Ry

     iteration #  6     ecut=    40.00 Ry     beta=0.70
     CG style diagonalization
     ethr =  1.43E-04,  avg # of iterations =  3.7

     total cpu time spent up to now is     1552.0 secs

     total energy              =   -3339.20942093 Ry
     Harris-Foulkes estimate   =   -3339.24531290 Ry
     estimated scf accuracy    <       0.08752092 Ry

     iteration #  7     ecut=    40.00 Ry     beta=0.70
     CG style diagonalization
     c_bands:  1 eigenvalues not converged
     ethr =  3.00E-05,  avg # of iterations =  3.7

     total cpu time spent up to now is     1581.0 secs

     total energy              =   -3339.21963416 Ry
     Harris-Foulkes estimate   =   -3339.22832115 Ry
     estimated scf accuracy    <       0.01718344 Ry

     iteration #  8     ecut=    40.00 Ry     beta=0.70
     CG style diagonalization
     c_bands:  1 eigenvalues not converged
     c_bands:  1 eigenvalues not converged
     ethr =  5.88E-06,  avg # of iterations =  4.0

     total cpu time spent up to now is     1614.4 secs

     total energy              =   -3339.22527399 Ry
     Harris-Foulkes estimate   =   -3339.22569360 Ry
     estimated scf accuracy    <       0.00085732 Ry

     iteration #  9     ecut=    40.00 Ry     beta=0.70
     CG style diagonalization
     c_bands:  1 eigenvalues not converged
     c_bands:  1 eigenvalues not converged
     ethr =  2.94E-07,  avg # of iterations =  4.5

     total cpu time spent up to now is     1649.5 secs

     total energy              =   -3339.22581377 Ry
     Harris-Foulkes estimate   =   -3339.22591545 Ry
     estimated scf accuracy    <       0.00023135 Ry

     iteration # 10     ecut=    40.00 Ry     beta=0.70
     CG style diagonalization
     c_bands:  1 eigenvalues not converged
     ethr =  7.92E-08,  avg # of iterations =  3.5

     total cpu time spent up to now is     1676.5 secs

     End of self-consistent calculation

          k = 0.0000 0.0000 0.0000 (  5911 PWs)   bands (ev):

   -37.8166 -37.6780 -37.5900 -37.5777 -37.5723 -37.4814 -37.4804 -37.4681
   -37.2502 -37.2254 -37.2096 -37.1960 -21.1336 -20.8348 -20.3889 -20.0672
    -8.9274  -8.7999  -8.7354  -8.7064  -8.2703  -8.1606  -7.3862  -7.2945
    -7.1316  -6.9506  -6.7826  -6.6725  -6.5856  -6.4369  -6.3775  -6.3448
    -6.3291  -6.2036  -6.1455  -6.1026  -6.0596  -5.7975  -5.6247  -5.5986
    -5.5682  -5.5101  -5.4921  -5.4048  -5.3802  -5.3534  -5.3417  -5.2816
    -5.0922  -5.0904  -5.0025  -5.0014   3.8406   3.9206   3.9256   4.1873
     4.2911   4.3860   5.9108   5.9141   6.0248   6.1837   6.1888   6.2578
    24.3513  24.6900  25.2435  25.2701  25.4972  25.7248  25.8449  26.1813
    26.4351  26.7403  27.0511  27.4482  27.9357  28.0608  28.1927  28.1949
    28.2091  28.4782  28.6347  28.7789  29.0956  29.1263  29.2571  29.2816
    29.5395  29.6043  29.7615  29.8145  29.9976  30.1063  30.1185  30.3056
    30.3849  30.8530  31.0441  31.1813  31.5328  31.5599  31.5857  31.7747
    32.0142  32.2995  32.3544  32.4079  32.6478  32.6569  32.6838  33.0522
    33.0837  33.3755  33.4623  33.6045  33.6406  33.7645  34.2855  34.7286
    34.8992  35.0059  35.1878  35.2103  35.3481  35.5265  35.5533  35.8388
    35.8812  36.0468  36.0722  37.6466  38.1364  38.4787  38.4829  38.5810
    39.2992  39.5306  39.5329  39.7000  40.2815  40.8159  41.0409  41.2872
    41.5631  41.6442  42.6677  43.6893  43.7531  44.0115  44.0749  44.1779
    44.4771  44.7366  45.4523  45.7445  45.8671  45.9455  45.9779  46.0548
    46.0964  46.2032  46.4460  46.6844  47.0522  47.2215  47.2571  47.7494
    47.9110  48.2996  48.8334  49.2155  49.8828  49.9048  50.1223

          k = 0.0000 0.0000 0.1541 (  5925 PWs)   bands (ev):

   -37.8052 -37.7113 -37.5747 -37.5714 -37.5661 -37.4926 -37.4833 -37.4732
   -37.2428 -37.2286 -37.2106 -37.2014 -21.0921 -20.8805 -20.3446 -20.1163
    -8.9135  -8.8145  -8.7212  -8.6838  -8.1164  -8.0204  -7.3711  -7.3120
    -7.2964  -7.0515  -6.9011  -6.6928  -6.6453  -6.4773  -6.4039  -6.3924
    -6.2356  -6.1582  -6.1071  -6.0733  -6.0396  -5.7872  -5.7549  -5.6995
    -5.6028  -5.4834  -5.4826  -5.3814  -5.3593  -5.3423  -5.2834  -5.2672
    -5.1230  -5.1097  -4.9978  -4.9968   3.8590   3.9249   4.1000   4.1932
     4.4865   4.5465   5.6635   5.8019   6.0165   6.0311   6.1772   6.2406
    24.4176  24.6719  25.3999  25.4267  25.6165  25.7281  25.7645  26.1929
    26.4855  26.7629  27.1445  27.1734  27.6802  28.2209  28.2271  28.2445
    28.3738  28.5005  28.5457  28.7479  28.9378  29.0462  29.1166  29.1803
    29.3136  29.6024  29.7143  29.8132  30.0646  30.2524  30.3512  30.4675
    30.6806  30.8530  30.9240  31.1202  31.2575  31.4501  31.7757  31.9099
    31.9129  32.2491  32.4655  32.5447  32.6319  32.6436  32.8101  33.0545
    33.0882  33.1532  33.2064  33.3565  33.5132  33.8828  33.9280  34.0244
    34.5415  34.6259  34.6551  35.0536  35.2548  35.6023  35.8783  36.0290
    36.6177  37.0162  37.2208  37.3467  38.4856  38.7309  38.9020  38.9173
    39.2097  39.6111  39.7343  40.1845  40.4129  40.5117  40.9338  41.1986
    41.4271  41.6761  42.5825  42.6572  42.7192  43.2821  43.5478  44.0697
    44.2887  44.5770  45.0804  45.1510  45.6426  45.7313  45.9225  46.1217
    46.5865  46.7224  46.7520  47.3095  47.5539  47.7013  47.8944  47.9139
    48.3295  48.4476  48.7998  49.0044  49.0644  49.7674  50.0633

          k = 0.0000 0.0000-0.3081 (  5916 PWs)   bands (ev):

   -37.7683 -37.7683 -37.5701 -37.5701 -37.5257 -37.5257 -37.4736 -37.4736
   -37.2351 -37.2351 -37.2033 -37.2033 -20.9883 -20.9883 -20.2322 -20.2322
    -8.8627  -8.8627  -8.6877  -8.6877  -7.6612  -7.6612  -7.6496  -7.6496
    -7.3301  -7.3301  -6.7738  -6.7738  -6.5497  -6.5497  -6.4514  -6.4514
    -6.0892  -6.0892  -6.0760  -6.0760  -5.9860  -5.9860  -5.7245  -5.7245
    -5.5833  -5.5833  -5.4164  -5.4164  -5.3382  -5.3382  -5.2096  -5.2096
    -5.1624  -5.1624  -5.0015  -5.0015   3.8945   3.8945   4.1996   4.1996
     5.0353   5.0353   5.1979   5.1979   6.0021   6.0021   6.2053   6.2053
    24.5722  24.5722  25.4988  25.4988  25.5989  25.5989  26.1542  26.1542
    26.9576  26.9576  27.0732  27.0732  27.6002  27.6002  27.8373  27.8373
    28.5821  28.5821  28.7345  28.7345  29.1452  29.1452  29.1456  29.1456
    29.3133  29.3133  29.6312  29.6312  30.4416  30.4416  30.5804  30.5804
    30.7959  30.7959  30.8276  30.8276  31.4008  31.4008  32.0327  32.0327
    32.1029  32.1029  32.1176  32.1176  32.6769  32.6769  32.9483  32.9483
    32.9835  32.9835  33.1651  33.1651  33.6552  33.6552  33.7883  33.7883
    34.4610  34.4610  34.5472  34.5472  35.5816  35.5816  36.1949  36.1949
    36.8519  36.8519  38.1244  38.1244  38.3130  38.3130  39.3891  39.3891
    40.1641  40.1641  40.1735  40.1735  40.6855  40.6855  41.2817  41.2817
    41.3646  41.3646  41.3997  41.3997  42.3600  42.3600  42.8764  42.8764
    44.4232  44.4233  45.1376  45.1376  45.7615  45.7615  46.3009  46.3009
    46.5953  46.5953  46.9939  46.9939  47.7599  47.7600  48.3312  48.3313
    48.5150  48.5151  48.9872  48.9876  49.8256  49.8258  50.1603

          k = 0.0000 0.2862 0.0000 (  5934 PWs)   bands (ev):

   -37.7724 -37.6609 -37.6351 -37.5805 -37.5609 -37.5419 -37.4773 -37.4605
   -37.2353 -37.2214 -37.2176 -37.2109 -20.9574 -20.6537 -20.5860 -20.2704
    -8.6375  -8.5199  -8.4263  -8.2898  -8.2047  -8.1071  -7.9089  -7.7705
    -7.4428  -7.3912  -6.6416  -6.6347  -6.5552  -6.4990  -6.3877  -6.3766
    -6.2059  -6.2055  -6.1219  -6.0809  -6.0456  -5.9989  -5.5986  -5.5773
    -5.5442  -5.5060  -5.5014  -5.4181  -5.3804  -5.3367  -5.3059  -5.2966
    -5.1098  -5.1053  -5.1037  -5.0913   4.0626   4.1763   4.4087   4.5423
     4.6672   4.7573   5.5486   5.5510   5.6046   5.6743   5.9955   6.0864
    25.1490  25.2779  25.3732  25.6252  25.9734  25.9867  26.0505  26.2202
    26.5034  26.5047  26.6555  27.0372  27.5892  27.6766  27.7974  27.8074
    27.9253  28.3936  28.4691  28.9070  28.9707  29.1398  29.2175  29.3128
    29.4146  29.5222  29.5653  29.7728  29.7986  30.1161  30.2400  30.3919
    30.4850  30.6968  30.8237  31.1233  31.1505  31.6187  31.7737  31.8323
    31.9947  31.9994  32.3661  32.5614  32.5942  32.9005  32.9072  33.1378
    33.4122  33.4730  33.6962  33.7509  34.1082  34.3500  34.4927  34.5521
    34.6091  34.6933  34.7856  35.0281  35.1590  35.5296  36.0042  36.2893
    36.4745  36.7160  37.9501  38.1439  38.2661  38.2802  38.7145  38.9510
    39.0009  39.0021  39.0730  39.4239  40.0916  40.1753  40.4687  40.8975
    41.2198  41.3278  41.5944  41.9641  42.5886  42.7580  42.9613  43.6784
    44.1849  44.1953  44.3025  45.2409  45.3273  45.3408  46.0994  46.2243
    46.4097  46.4741  47.2000  47.5308  47.7926  47.8705  48.1355  48.3880
    48.7537  48.8063  49.2807  49.3211  49.5520  49.8117  49.9782

          k = 0.0000 0.2862 0.1541 (  5917 PWs)   bands (ev):

   -37.7590 -37.6700 -37.6489 -37.5855 -37.5487 -37.5135 -37.4873 -37.4686
   -37.2318 -37.2244 -37.2132 -37.2093 -20.9144 -20.7000 -20.5417 -20.3192
    -8.6154  -8.5246  -8.3746  -8.2699  -8.0756  -8.0116  -7.8852  -7.7793
    -7.5295  -7.3089  -6.9761  -6.7190  -6.5639  -6.5034  -6.3836  -6.3697
    -6.2353  -6.1718  -6.1445  -6.0451  -5.9900  -5.9335  -5.7314  -5.6968
    -5.5156  -5.4590  -5.4426  -5.3624  -5.3417  -5.3055  -5.2996  -5.2692
    -5.1505  -5.1124  -5.0964  -5.0825   4.3346   4.4223   4.4307   4.5612
     4.6760   4.7671   5.5554   5.5591   5.5949   5.6568   5.7386   5.8162
    25.1754  25.5181  25.5492  25.6303  25.9956  26.0352  26.0913  26.2176
    26.4806  26.6573  26.6677  26.9190  27.3787  27.6075  27.6510  27.8561
    27.9965  28.2326  28.6449  28.7176  28.8196  28.9929  29.0746  29.4479
    29.4623  29.4790  29.5404  29.7620  29.7829  30.0677  30.1547  30.5631
    30.6149  30.8471  30.8955  31.0891  31.4378  31.5976  31.7472  31.8461
    32.0391  32.2428  32.3238  32.4702  32.4956  32.8082  32.9472  33.1258
    33.3436  33.4392  33.5442  33.8552  33.9058  34.0160  34.3772  34.4726
    34.5664  34.5702  34.8286  34.8413  35.0463  35.0553  35.3617  36.2714
    36.9544  37.8368  38.3233  38.3490  38.4370  38.6407  38.8209  39.0912
    39.3026  39.4559  39.6021  39.7380  39.8205  40.4236  40.4897  40.8950
    41.0816  41.1476  41.6484  41.6518  41.9860  42.6771  42.8607  43.1159
    43.2380  43.6296  44.4246  44.4514  44.7371  45.5752  46.4241  46.4402
    46.9125  46.9216  47.2729  47.3161  47.6163  47.9536  48.0777  49.0590
    49.0773  49.1806  49.2098  49.4037  49.5143  49.9734  50.1397

          k = 0.0000 0.2862-0.3081 (  5920 PWs)   bands (ev):

   -37.7188 -37.7188 -37.6238 -37.6238 -37.5141 -37.5141 -37.4882 -37.4882
   -37.2266 -37.2266 -37.2116 -37.2116 -20.8091 -20.8091 -20.4324 -20.4324
    -8.5676  -8.5676  -8.3084  -8.3084  -7.8450  -7.8450  -7.7791  -7.7791
    -7.5367  -7.5367  -7.0797  -7.0797  -6.4612  -6.4612  -6.4305  -6.4305
    -6.2088  -6.2088  -6.1060  -6.1060  -5.8855  -5.8855  -5.8118  -5.8118
    -5.4969  -5.4969  -5.3835  -5.3835  -5.3012  -5.3012  -5.2244  -5.2244
    -5.1698  -5.1698  -5.0825  -5.0825   4.4654   4.4654   4.6711   4.6711
     5.0825   5.0825   5.1473   5.1473   5.5822   5.5822   5.6191   5.6191
    25.3427  25.3427  25.8228  25.8228  25.9558  25.9558  26.1991  26.1991
    26.8124  26.8124  26.9210  26.9210  27.3752  27.3752  27.4350  27.4350
    27.9649  27.9649  28.3818  28.3818  28.9783  28.9783  29.2420  29.2420
    29.4732  29.4732  29.8060  29.8060  30.1502  30.1502  30.3338  30.3338
    30.4528  30.4528  31.2904  31.2904  31.5549  31.5549  31.8180  31.8180
    32.1272  32.1272  32.2821  32.2821  32.9223  32.9223  33.1426  33.1426
    33.1577  33.1577  33.4387  33.4387  33.8547  33.8547  34.2890  34.2890
    34.2907  34.2907  34.8869  34.8869  34.9127  34.9127  35.7242  35.7242
    38.1598  38.1598  38.2511  38.2511  38.8634  38.8634  39.2721  39.2721
    39.4682  39.4682  39.9600  39.9600  40.2826  40.2826  40.6789  40.6789
    41.3731  41.3731  41.5960  41.5960  41.9643  41.9643  42.4268  42.4268
    43.0152  43.0152  43.6481  43.6481  45.7066  45.7067  46.1625  46.1626
    46.7411  46.7412  46.8381  46.8382  48.5789  48.5789  48.7588  48.7591
    49.3175  49.3177  49.7397  49.7401  49.7852  49.7855  50.1618

          k =-0.4653 0.0000 0.0000 (  5896 PWs)   bands (ev):

   -37.7090 -37.7090 -37.5933 -37.5933 -37.5580 -37.5580 -37.4610 -37.4610
   -37.2475 -37.2475 -37.1998 -37.1998 -20.7828 -20.7828 -20.4661 -20.4661
    -8.2751  -8.2751  -8.2136  -8.2136  -8.0612  -8.0612  -7.8311  -7.8311
    -7.8143  -7.8143  -6.6661  -6.6661  -6.5431  -6.5431  -6.4556  -6.4556
    -6.1947  -6.1947  -6.1448  -6.1448  -5.9485  -5.9485  -5.6035  -5.6035
    -5.5974  -5.5974  -5.4148  -5.4148  -5.4134  -5.4134  -5.2666  -5.2666
    -5.0989  -5.0989  -5.0129  -5.0129   4.1064   4.1064   5.0186   5.0186
     5.0692   5.0693   5.1359   5.1359   5.1958   5.1958   6.0441   6.0441
    25.0248  25.0248  25.4212  25.4212  25.8866  25.8866  25.9129  25.9129
    26.9107  26.9107  27.0803  27.0803  27.1409  27.1409  27.4567  27.4567
    27.8173  27.8173  28.3680  28.3680  28.8301  28.8301  29.0087  29.0087
    29.3855  29.3855  29.7648  29.7648  30.5397  30.5397  30.7660  30.7660
    31.0401  31.0401  31.1114  31.1114  31.8078  31.8078  31.9490  31.9490
    32.4007  32.4007  32.5107  32.5107  32.7350  32.7350  33.4819  33.4819
    33.5154  33.5154  33.7488  33.7488  34.0565  34.0565  34.2863  34.2863
    34.5411  34.5411  35.0989  35.0989  35.5200  35.5200  35.9414  35.9414
    37.1114  37.1114  37.6029  37.6029  38.4472  38.4472  38.6423  38.6423
    39.1511  39.1511  40.0693  40.0693  40.1041  40.1041  40.5797  40.5797
    41.0005  41.0005  41.6657  41.6657  41.7852  41.7852  43.1972  43.1972
    43.5617  43.5617  44.8802  44.8802  45.1155  45.1156  46.2785  46.2786
    47.5493  47.5494  47.6470  47.6470  48.2939  48.2939  48.4433  48.4433
    49.1970  49.1971  49.3672  49.3674  49.6145  49.6148  50.2619

          k =-0.4653 0.0000 0.1541 (  5916 PWs)   bands (ev):

   -37.7026 -37.7026 -37.6112 -37.6112 -37.5513 -37.5513 -37.4647 -37.4647
   -37.2468 -37.2468 -37.2024 -37.2024 -20.7385 -20.7385 -20.5145 -20.5145
    -8.2074  -8.2074  -8.1511  -8.1511  -8.0799  -8.0799  -7.8571  -7.8571
    -7.7406  -7.7406  -6.8565  -6.8565  -6.5946  -6.5946  -6.4844  -6.4844
    -6.2299  -6.2299  -6.1277  -6.1277  -5.9060  -5.9060  -5.6757  -5.6757
    -5.5917  -5.5917  -5.4256  -5.4256  -5.3126  -5.3126  -5.2673  -5.2673
    -5.1259  -5.1259  -5.0108  -5.0108   4.3938   4.3938   5.0383   5.0383
     5.0741   5.0741   5.1219   5.1219   5.1685   5.1685   5.7655   5.7655
    25.2793  25.2793  25.4763  25.4763  25.7577  25.7577  26.1133  26.1133
    26.8039  26.8039  26.9021  26.9021  27.1528  27.1528  27.6079  27.6079
    27.7756  27.7756  28.1814  28.1814  28.7045  28.7045  29.1753  29.1753
    29.4040  29.4040  29.4627  29.4627  30.5161  30.5161  30.8094  30.8094
    30.9978  30.9978  31.4054  31.4054  31.8763  31.8763  31.9572  31.9572
    32.1360  32.1360  32.5837  32.5837  32.8702  32.8702  33.1624  33.1624
    33.7005  33.7005  33.9887  33.9887  34.1535  34.1535  34.3529  34.3529
    34.4077  34.4077  34.7766  34.7766  35.0770  35.0770  35.4296  35.4296
    37.8622  37.8622  38.0104  38.0104  38.6480  38.6480  39.0333  39.0333
    39.3026  39.3026  40.2083  40.2083  40.4436  40.4436  40.6427  40.6427
    41.0658  41.0658  41.1686  41.1686  41.9069  41.9069  42.4372  42.4372
    43.1309  43.1309  44.1614  44.1615  45.2505  45.2505  46.4448  46.4448
    47.4385  47.4385  47.9183  47.9183  48.1298  48.1300  48.2827  48.2828
    49.1909  49.1909  49.2895  49.2898  49.7317  49.7319  50.0606

          k =-0.4653 0.0000-0.3081 (  5908 PWs)   bands (ev):

   -37.6911 -37.6911 -37.6261 -37.6261 -37.5423 -37.5423 -37.4704 -37.4704
   -37.2425 -37.2425 -37.2016 -37.2016 -20.6304 -20.6304 -20.6264 -20.6264
    -8.1814  -8.1814  -8.0994  -8.0994  -7.9963  -7.9963  -7.9245  -7.9245
    -7.3808  -7.3808  -7.3683  -7.3683  -6.5903  -6.5903  -6.4974  -6.4974
    -6.2450  -6.2450  -6.1055  -6.1055  -5.8810  -5.8810  -5.7385  -5.7385
    -5.5779  -5.5779  -5.3544  -5.3544  -5.3210  -5.3210  -5.1893  -5.1893
    -5.1770  -5.1770  -5.0138  -5.0138   5.0133   5.0133   5.0466   5.0466
     5.0932   5.0932   5.0969   5.0969   5.1615   5.1615   5.1655   5.1655
    25.4223  25.4223  25.6823  25.6823  25.7329  25.7329  26.3301  26.3301
    26.5993  26.5993  26.8495  26.8495  27.1267  27.1267  27.6630  27.6630
    27.7397  27.7397  27.9386  27.9386  28.5852  28.5852  29.0469  29.0469
    29.2956  29.2956  29.6211  29.6211  30.5500  30.5500  30.7304  30.7304
    31.2001  31.2001  31.3378  31.3378  31.7289  31.7289  32.1734  32.1734
    32.5492  32.5492  32.7034  32.7034  32.8074  32.8074  33.2058  33.2058
    33.2323  33.2323  33.8802  33.8802  33.9664  33.9664  34.1044  34.1044
    34.4665  34.4665  34.7418  34.7418  35.1754  35.1754  35.2022  35.2022
    37.8689  37.8689  38.5324  38.5324  39.2639  39.2639  39.5317  39.5317
    39.9056  39.9056  40.1431  40.1431  40.3599  40.3599  40.5899  40.5899
    40.8026  40.8026  41.2835  41.2835  41.4955  41.4955  42.2509  42.2509
    42.4947  42.4947  43.7070  43.7070  45.2224  45.2224  46.4837  46.4838
    47.4127  47.4127  47.7580  47.7581  47.9597  47.9598  48.4078  48.4079
    48.5427  48.5427  49.6460  49.6462  49.7616  49.7617  50.4464

          k =-0.4653 0.2862 0.0000 (  5888 PWs)   bands (ev):

   -37.6726 -37.6726 -37.5958 -37.5958 -37.5650 -37.5650 -37.4883 -37.4883
   -37.2333 -37.2333 -37.2114 -37.2114 -20.7769 -20.7769 -20.4598 -20.4598
    -8.6297  -8.6297  -8.5217  -8.5217  -8.2627  -8.2627  -7.2754  -7.2754
    -7.2074  -7.2074  -6.7263  -6.7263  -6.5411  -6.5411  -6.4507  -6.4507
    -6.2415  -6.2415  -6.1882  -6.1882  -5.9509  -5.9509  -5.5972  -5.5972
    -5.5273  -5.5273  -5.4928  -5.4927  -5.3700  -5.3700  -5.2739  -5.2739
    -5.1117  -5.1117  -5.0982  -5.0982   4.0456   4.0456   4.2487   4.2487
     4.4498   4.4499   5.8015   5.8015   5.9317   5.9318   6.0728   6.0728
    24.3324  24.3324  25.1557  25.1557  25.8344  25.8344  25.8502  25.8502
    26.6325  26.6325  26.8315  26.8315  27.6905  27.6905  28.1042  28.1042
    28.3762  28.3763  28.9607  28.9607  29.0093  29.0093  29.3830  29.3830
    29.6307  29.6307  29.8689  29.8689  30.0034  30.0034  30.5490  30.5490
    31.1945  31.1945  31.3476  31.3476  31.7028  31.7028  31.9252  31.9252
    32.3516  32.3516  32.8287  32.8287  32.8667  32.8667  33.2598  33.2598
    33.4586  33.4586  33.5926  33.5926  33.7765  33.7765  34.1239  34.1239
    34.5509  34.5509  34.6163  34.6163  35.4191  35.4191  36.3439  36.3439
    36.9632  36.9632  37.1679  37.1679  37.7901  37.7901  38.5858  38.5858
    38.8502  38.8502  39.2644  39.2644  40.4605  40.4605  40.6825  40.6825
    40.8555  40.8555  41.9773  41.9773  42.2816  42.2816  43.0850  43.0850
    43.7874  43.7874  45.0321  45.0322  45.1957  45.1958  46.3941  46.3941
    47.3336  47.3336  47.4249  47.4250  48.3979  48.3979  48.5516  48.5517
    48.7703  48.7703  49.3516  49.3517  49.8710  49.8716  50.4132

          k =-0.4653 0.2862 0.1541 (  5888 PWs)   bands (ev):

   -37.6646 -37.6646 -37.6054 -37.6054 -37.5605 -37.5605 -37.4940 -37.4940
   -37.2304 -37.2304 -37.2116 -37.2116 -20.7324 -20.7324 -20.5081 -20.5081
    -8.6133  -8.6133  -8.5391  -8.5391  -8.0961  -8.0961  -7.3732  -7.3732
    -7.1507  -7.1507  -6.7579  -6.7579  -6.6064  -6.6064  -6.5293  -6.5293
    -6.2892  -6.2892  -6.2075  -6.2075  -5.8870  -5.8870  -5.6829  -5.6829
    -5.5017  -5.5017  -5.4435  -5.4435  -5.3427  -5.3427  -5.2511  -5.2511
    -5.1477  -5.1477  -5.0742  -5.0742   4.2364   4.2364   4.2640   4.2640
     4.5288   4.5288   5.7290   5.7290   5.8832   5.8832   5.9158   5.9158
    24.5498  24.5498  25.1466  25.1466  25.7644  25.7644  25.9947  25.9947
    26.5015  26.5015  26.7398  26.7398  27.7145  27.7145  28.0473  28.0473
    28.2778  28.2778  28.5903  28.5903  29.3625  29.3625  29.5784  29.5784
    29.7174  29.7175  29.9473  29.9473  30.2841  30.2841  30.4753  30.4753
    30.9275  30.9275  31.3570  31.3570  31.5614  31.5614  31.7764  31.7764
    32.2944  32.2944  32.6000  32.6000  32.8057  32.8057  33.1259  33.1259
    33.3708  33.3708  33.6520  33.6520  33.7993  33.7993  34.4072  34.4072
    34.5622  34.5623  34.9070  34.9070  35.0004  35.0004  36.2419  36.2419
    37.3207  37.3207  37.4539  37.4539  37.8525  37.8525  38.4339  38.4339
    39.1155  39.1155  39.8537  39.8537  40.2870  40.2870  40.5421  40.5421
    40.9988  40.9988  41.8833  41.8833  42.2865  42.2865  42.5758  42.5758
    43.8016  43.8016  44.2059  44.2059  45.5849  45.5849  46.6369  46.6370
    47.0680  47.0681  47.5716  47.5717  48.0116  48.0118  48.6377  48.6378
    48.8865  48.8866  49.1002  49.1003  49.7700  49.7703  50.2244

          k =-0.4653 0.2862-0.3081 (  5892 PWs)   bands (ev):

   -37.6604 -37.6604 -37.6171 -37.6171 -37.5524 -37.5524 -37.4989 -37.4989
   -37.2311 -37.2311 -37.2093 -37.2093 -20.6233 -20.6233 -20.6212 -20.6212
    -8.5813  -8.5813  -8.5753  -8.5753  -7.7495  -7.7495  -7.6384  -7.6384
    -7.0201  -7.0201  -6.9855  -6.9855  -6.6264  -6.6264  -6.5419  -6.5419
    -6.3138  -6.3138  -6.1957  -6.1957  -5.8525  -5.8525  -5.7690  -5.7690
    -5.4376  -5.4376  -5.4022  -5.4022  -5.3775  -5.3775  -5.2371  -5.2371
    -5.1590  -5.1590  -5.0746  -5.0746   4.2938   4.2938   4.2954   4.2954
     5.0956   5.0956   5.1195   5.1195   5.8757   5.8757   5.8792   5.8792
    24.9384  24.9384  24.9758  24.9758  25.7111  25.7111  26.1515  26.1515
    26.3742  26.3742  26.6928  26.6928  27.5769  27.5769  27.8105  27.8105
    28.2903  28.2903  29.0280  29.0280  29.1023  29.1023  29.6098  29.6098
    29.8349  29.8349  30.1775  30.1775  30.2831  30.2831  30.6815  30.6815
    30.7350  30.7350  30.9636  30.9636  31.5820  31.5820  31.6835  31.6835
    32.2646  32.2646  32.5121  32.5121  32.9289  32.9289  32.9843  32.9843
    33.3725  33.3725  33.6581  33.6581  33.6947  33.6947  34.1306  34.1306
    34.8048  34.8048  34.8118  34.8118  35.4470  35.4470  35.6487  35.6487
    37.8075  37.8075  37.9663  37.9663  38.1415  38.1415  38.4456  38.4456
    39.4073  39.4073  39.4191  39.4191  40.1421  40.1421  40.4603  40.4603
    41.5349  41.5349  41.5638  41.5638  42.0503  42.0503  42.8062  42.8062
    43.1451  43.1451  44.0626  44.0627  46.2437  46.2437  46.6402  46.6403
    46.8983  46.8984  47.4835  47.4836  47.5713  47.5714  48.2859  48.2860
    48.7260  48.7261  48.8481  48.8481  49.9156  49.9157  50.1009

     the Fermi energy is    41.5129 ev

!    total energy              =   -3339.22580091 Ry
     Harris-Foulkes estimate   =   -3339.22585551 Ry
     estimated scf accuracy    <       0.00006138 Ry

     The total energy is the sum of the following terms:

     one-electron contribution =     -49.35495740 Ry
     hartree contribution      =     396.95310521 Ry
     xc contribution           =    -347.75614902 Ry
     ewald contribution        =   -3338.55507349 Ry
     smearing contrib. (-TS)   =      -0.51272621 Ry

     convergence has been achieved in  10 iterations

     Forces acting on atoms (Ry/au):

     atom    1 type  1   force =     0.58754082   -0.62542097   -0.77623992
     atom    2 type  1   force =    -0.58754082   -0.62542097    0.77623992
     atom    3 type  1   force =     0.58754082    0.62542097   -0.77623992
     atom    4 type  1   force =    -1.01194464   -0.38375922    0.00000000
     atom    5 type  1   force =    -0.58754082   -0.62542097   -0.77623992
     atom    6 type  1   force =     0.58754082   -0.62542097    0.77623992
     atom    7 type  1   force =     1.01194464   -0.38375922    0.00000000
     atom    8 type  1   force =    -0.58754082    0.62542097   -0.77623992
     atom    9 type  1   force =     0.58754082    0.62542097    0.77623992
     atom   10 type  1   force =     1.01194464    0.38375922    0.00000000
     atom   11 type  1   force =    -0.58754082    0.62542097    0.77623992
     atom   12 type  1   force =    -1.01194464    0.38375922    0.00000000
     atom   13 type  2   force =     0.00000000    0.00000000    0.00000000
     atom   14 type  2   force =     0.00000000    0.00000000    0.00000000
     atom   15 type  2   force =     0.00000000    0.00000000    0.00000000
     atom   16 type  2   force =     0.00000000    0.00000000    0.00000000

     Total force =     3.923830     Total SCF correction =     0.000000


     entering subroutine stress ...

          total   stress  (Ry/bohr**3)                   (kbar)     P= 5401.24
   0.03707285   0.00000000   0.00000000       5453.60      0.00      0.00
   0.00000000   0.03626618   0.00000000          0.00   5334.94      0.00
   0.00000000   0.00000000   0.03681158          0.00      0.00   5415.17


     Writing output data file Prototype-La-oP16-Fe3C.save
 
     init_run     :      6.91s CPU      8.25s WALL (       2 calls)
     electrons    :   1500.70s CPU   1645.32s WALL (       3 calls)
     update_pot   :      0.91s CPU      0.92s WALL (       1 calls)
     forces       :      4.63s CPU      4.85s WALL (       3 calls)
     stress       :     25.16s CPU     25.50s WALL (       3 calls)

     Called by init_run:
     wfcinit      :      5.97s CPU      7.28s WALL (       2 calls)
     potinit      :      0.48s CPU      0.48s WALL (       2 calls)

     Called by electrons:
     c_bands      :   1482.91s CPU   1618.09s WALL (      26 calls)
     sum_band     :     17.54s CPU     24.07s WALL (      26 calls)
     v_of_rho     :      0.05s CPU      0.06s WALL (      29 calls)
     mix_rho      :      0.05s CPU      0.07s WALL (      26 calls)

     Called by c_bands:
     init_us_2    :      1.27s CPU      1.47s WALL (     720 calls)
     ccgdiagg     :   1404.28s CPU   1520.72s WALL (     371 calls)
     wfcrot       :     83.01s CPU    101.79s WALL (     383 calls)

     Called by *cgdiagg:
     h_psi        :    862.98s CPU    993.76s WALL (  349026 calls)
     cdiaghg      :      5.58s CPU      6.21s WALL (     383 calls)

     Called by h_psi:
     add_vuspsi   :    260.22s CPU    262.78s WALL (  349026 calls)

     General routines
     calbec       :    547.59s CPU    587.43s WALL (  697741 calls)
     fft          :      0.43s CPU      0.45s WALL (     129 calls)
     fftw         :    295.00s CPU    377.49s WALL (  885936 calls)
     davcio       :      0.96s CPU      2.48s WALL (    1032 calls)
 
     Parallel routines
     fft_scatter  :    133.71s CPU    175.27s WALL (  886065 calls)
 
     PWSCF        : 25m38.58s CPU    28m 7.72s WALL

 
   This run was terminated on:  18: 6:36  22Mar2018            

=------------------------------------------------------------------------------=
   JOB DONE.
=------------------------------------------------------------------------------=
