
     Program PWSCF v.5.0.2 starts on 23Mar2018 at  2:16:50 

     This program is part of the open-source Quantum ESPRESSO suite
     for quantum simulation of materials; please cite
         "P. Giannozzi et al., J. Phys.:Condens. Matter 21 395502 (2009);
          URL http://www.quantum-espresso.org", 
     in publications or presentations arising from this work. More details at
     http://www.quantum-espresso.org/quote.php

     Parallel version (MPI), running on     4 processors
     R & G space division:  proc/nbgrp/npool/nimage =       4

     Current dimensions of program PWSCF are:
     Max number of different atomic species (ntypx) = 10
     Max number of k-points (npk) =  40000
     Max angular momentum in pseudopotentials (lmaxx) =  3
     Waiting for input...
     Reading input from standard input

     Subspace diagonalization in iterative solution of the eigenvalue problem:
     a serial algorithm will be used

 
     Parallelization info
     --------------------
     sticks:   dense  smooth     PW     G-vecs:    dense   smooth      PW
     Min         207     207     61                 7381     7381    1191
     Max         208     208     62                 7386     7386    1192
     Sum         829     829    247                29529    29529    4767
 


     bravais-lattice index     =            0
     lattice parameter (alat)  =       7.0151  a.u.
     unit-cell volume          =     862.2778 (a.u.)^3
     number of atoms/cell      =           12
     number of atomic types    =            2
     number of electrons       =       228.00
     number of Kohn-Sham states=          137
     kinetic-energy cutoff     =      40.0000  Ry
     charge density cutoff     =     160.0000  Ry
     convergence threshold     =      1.0E-04
     mixing beta               =       0.7000
     number of iterations used =            8  plain     mixing
     Exchange-correlation      = SLA-PZ-NOGX-NOGC ( 1 1 0 0 0)
     EXX-fraction              =        0.00
     nstep                     =           50


     celldm(1)=   7.015105  celldm(2)=   0.000000  celldm(3)=   0.000000
     celldm(4)=   0.000000  celldm(5)=   0.000000  celldm(6)=   0.000000

     crystal axes: (cart. coord. in units of alat)
               a(1) = (   1.000000   0.000000   0.000000 )  
               a(2) = (   0.000000   1.315963   0.000000 )  
               a(3) = (   0.000000   0.000000   1.898020 )  

     reciprocal axes: (cart. coord. in units 2 pi/alat)
               b(1) = (  1.000000  0.000000  0.000000 )  
               b(2) = (  0.000000  0.759900  0.000000 )  
               b(3) = (  0.000000  0.000000  0.526865 )  


     PseudoPot. # 1 for Dy read from file:
     /home/cwx6513/pp.La/Dy.UPF
     MD5 check sum: 9597327bec62616a94a14d07f3fd9936
     Pseudo is Norm-conserving, Zval = 20.0
     Generated in analytical, separable form
     Using radial grid of 1265 points,  6 beta functions with: 
                l(1) =   0
                l(2) =   0
                l(3) =   1
                l(4) =   1
                l(5) =   2
                l(6) =   3

     PseudoPot. # 2 for Eu read from file:
     /home/cwx6513/pp.La/Eu.UPF
     MD5 check sum: 5efdbbfc50c6a10138933a6429836ad2
     Pseudo is Norm-conserving, Zval = 17.0
     Generated in analytical, separable form
     Using radial grid of 1261 points,  6 beta functions with: 
                l(1) =   0
                l(2) =   0
                l(3) =   1
                l(4) =   1
                l(5) =   2
                l(6) =   3

     atomic species   valence    mass     pseudopotential
        Co            20.00    58.93320     Dy( 1.00)
        Si            17.00    28.08550     Eu( 1.00)

      8 Sym. Ops., with inversion, found ( 6 have fractional translation)



   Cartesian axes

     site n.     atom                  positions (alat units)
         1           Co  tau(   1) = (   0.7500000   1.0875135   0.8270358  )
         2           Co  tau(   2) = (   0.2500000   0.2284499   1.0709846  )
         3           Co  tau(   3) = (   0.7500000   0.4295318   0.1219744  )
         4           Co  tau(   4) = (   0.2500000   0.8864316   1.7760460  )
         5           Co  tau(   5) = (   0.2500000   0.7067855   0.5358966  )
         6           Co  tau(   6) = (   0.7500000   0.6091779   1.3621238  )
         7           Co  tau(   7) = (   0.2500000   0.0488038   0.4131136  )
         8           Co  tau(   8) = (   0.7500000   1.2671596   1.4849068  )
         9           Si  tau(   9) = (   0.2500000   0.2669484   1.6960710  )
        10           Si  tau(  10) = (   0.7500000   1.0490149   0.2019494  )
        11           Si  tau(  11) = (   0.2500000   0.9249301   1.1509596  )
        12           Si  tau(  12) = (   0.7500000   0.3910333   0.7470608  )

     number of k points=    12  gaussian smearing, width (Ry)=  0.1000
                       cart. coord. in units 2pi/alat
        k(    1) = (   0.0000000   0.0000000   0.0000000), wk =   0.0833333
        k(    2) = (   0.0000000   0.0000000   0.1317162), wk =   0.1666667
        k(    3) = (   0.0000000   0.0000000  -0.2634324), wk =   0.0833333
        k(    4) = (   0.0000000   0.2532999   0.0000000), wk =   0.1666667
        k(    5) = (   0.0000000   0.2532999   0.1317162), wk =   0.3333333
        k(    6) = (   0.0000000   0.2532999  -0.2634324), wk =   0.1666667
        k(    7) = (  -0.5000000   0.0000000   0.0000000), wk =   0.0833333
        k(    8) = (  -0.5000000   0.0000000   0.1317162), wk =   0.1666667
        k(    9) = (  -0.5000000   0.0000000  -0.2634324), wk =   0.0833333
        k(   10) = (  -0.5000000   0.2532999   0.0000000), wk =   0.1666667
        k(   11) = (  -0.5000000   0.2532999   0.1317162), wk =   0.3333333
        k(   12) = (  -0.5000000   0.2532999  -0.2634324), wk =   0.1666667

     Dense  grid:    29529 G-vectors     FFT dimensions: (  30,  40,  54)

     Largest allocated arrays     est. size (Mb)     dimensions
        Kohn-Sham Wavefunctions         1.93 Mb     (    922,  137)
        NL pseudopotentials             3.38 Mb     (    922,  240)
        Each V/rho on FFT grid          0.26 Mb     (  16800)
        Each G-vector array             0.06 Mb     (   7386)
        G-vector shells                 0.06 Mb     (   7386)
     Largest temporary arrays     est. size (Mb)     dimensions
        Each subspace H/S matrix        0.29 Mb     ( 137, 137)
        Each <psi_i|beta_j> matrix      0.50 Mb     (    240,  137)
        Arrays for rho mixing           2.05 Mb     (  16800,   8)

     Initial potential from superposition of free atoms

     Starting from uniform charge
     Starting wfc are    0 randomized atomic wfcs

     total cpu time spent up to now is        2.6 secs

     Self-consistent Calculation

     iteration #  1     ecut=    40.00 Ry     beta=0.70
     CG style diagonalization
     c_bands:  3 eigenvalues not converged
     c_bands:  4 eigenvalues not converged
     c_bands:  2 eigenvalues not converged
     c_bands:  3 eigenvalues not converged
     c_bands:  5 eigenvalues not converged
     c_bands:  2 eigenvalues not converged
     c_bands:  2 eigenvalues not converged
     c_bands:  1 eigenvalues not converged
     ethr =  1.00E-02,  avg # of iterations = 12.2

     total cpu time spent up to now is       39.1 secs

     total energy              =   -2538.27651727 Ry
     Harris-Foulkes estimate   =   -3054.99077325 Ry
     estimated scf accuracy    <     669.79070726 Ry

     iteration #  2     ecut=    40.00 Ry     beta=0.70
     CG style diagonalization
     ethr =  1.00E-02,  avg # of iterations =  9.6

     total cpu time spent up to now is       67.0 secs

     total energy              =   -2657.95978301 Ry
     Harris-Foulkes estimate   =   -2852.73004224 Ry
     estimated scf accuracy    <     306.64028088 Ry

     iteration #  3     ecut=    40.00 Ry     beta=0.70
     CG style diagonalization
     ethr =  1.00E-02,  avg # of iterations =  7.8

     total cpu time spent up to now is       90.0 secs

     total energy              =   -2753.60638527 Ry
     Harris-Foulkes estimate   =   -2792.02842947 Ry
     estimated scf accuracy    <      80.04279564 Ry

     iteration #  4     ecut=    40.00 Ry     beta=0.70
     CG style diagonalization
     ethr =  1.00E-02,  avg # of iterations =  4.1

     total cpu time spent up to now is      101.3 secs

     total energy              =   -2770.08352179 Ry
     Harris-Foulkes estimate   =   -2772.52117671 Ry
     estimated scf accuracy    <       5.14480444 Ry

     iteration #  5     ecut=    40.00 Ry     beta=0.70
     CG style diagonalization
     ethr =  2.26E-03,  avg # of iterations =  3.8

     total cpu time spent up to now is      111.6 secs

     total energy              =   -2771.17879385 Ry
     Harris-Foulkes estimate   =   -2771.35321581 Ry
     estimated scf accuracy    <       0.31211076 Ry

     iteration #  6     ecut=    40.00 Ry     beta=0.70
     CG style diagonalization
     c_bands:  1 eigenvalues not converged
     c_bands:  1 eigenvalues not converged
     c_bands:  2 eigenvalues not converged
     c_bands:  1 eigenvalues not converged
     c_bands:  1 eigenvalues not converged
     c_bands:  1 eigenvalues not converged
     c_bands:  1 eigenvalues not converged
     c_bands:  2 eigenvalues not converged
     ethr =  1.37E-04,  avg # of iterations =  4.6

     total cpu time spent up to now is      124.6 secs

     total energy              =   -2771.26252066 Ry
     Harris-Foulkes estimate   =   -2771.29512340 Ry
     estimated scf accuracy    <       0.05911722 Ry

     iteration #  7     ecut=    40.00 Ry     beta=0.70
     CG style diagonalization
     c_bands:  2 eigenvalues not converged
     c_bands:  1 eigenvalues not converged
     c_bands:  1 eigenvalues not converged
     ethr =  2.59E-05,  avg # of iterations =  4.0

     total cpu time spent up to now is      135.5 secs

     total energy              =   -2771.27485511 Ry
     Harris-Foulkes estimate   =   -2771.28027861 Ry
     estimated scf accuracy    <       0.01055293 Ry

     iteration #  8     ecut=    40.00 Ry     beta=0.70
     CG style diagonalization
     c_bands:  2 eigenvalues not converged
     ethr =  4.63E-06,  avg # of iterations =  4.0

     total cpu time spent up to now is      146.2 secs

     total energy              =   -2771.27634999 Ry
     Harris-Foulkes estimate   =   -2771.27697725 Ry
     estimated scf accuracy    <       0.00096482 Ry

     iteration #  9     ecut=    40.00 Ry     beta=0.70
     CG style diagonalization
     c_bands:  1 eigenvalues not converged
     ethr =  4.23E-07,  avg # of iterations =  4.2

     total cpu time spent up to now is      158.2 secs

     total energy              =   -2771.27673586 Ry
     Harris-Foulkes estimate   =   -2771.27684344 Ry
     estimated scf accuracy    <       0.00021313 Ry

     iteration # 10     ecut=    40.00 Ry     beta=0.70
     CG style diagonalization
     ethr =  9.35E-08,  avg # of iterations =  3.5

     total cpu time spent up to now is      168.1 secs

     End of self-consistent calculation

          k = 0.0000 0.0000 0.0000 (  3675 PWs)   bands (ev):

   -35.0857 -34.9184 -34.8487 -34.7775 -34.7407 -34.6658 -34.6573 -34.6382
   -14.2169 -14.2149 -14.1407 -14.1072  -3.3652  -3.2551  -3.0946  -2.9912
    -2.9275  -2.7175  -2.6043  -2.5008  -2.4664  -2.4619  -2.2212  -2.1662
    -2.0943  -2.0685  -2.0600  -2.0539  -1.8748  -1.8209  -1.7746  -1.7162
    -1.6343  -1.5363  -1.3661  -1.2607  11.8266  11.9968  12.0369  12.0792
    12.1160  12.2563  12.2971  12.3639  12.4367  12.5462  12.6926  12.8390
    32.0925  32.3643  32.5983  32.8563  32.8695  32.8872  33.1292  33.5738
    33.6855  34.3154  34.5766  35.0797  35.2896  35.4126  35.6643  35.7736
    36.1952  36.3072  36.5158  37.0935  37.2902  37.5893  37.6375  37.9555
    38.0590  38.1387  38.3116  38.6353  38.9449  39.2125  39.2769  39.3215
    39.3837  39.8061  39.9920  40.0089  40.7302  41.0136  41.2255  41.9462
    42.1816  42.7898  42.8230  43.0916  43.9973  44.4098  44.6686  45.1396
    45.2026  45.5288  46.0198  46.4104  47.0138  47.4007  47.4956  47.5996
    48.6163  48.7033  49.0644  49.1692  49.2094  49.9134  49.9428  50.2985
    50.7209  53.4277  53.5561  54.4028  54.5830  54.8476  55.5529  55.6886
    56.3128  57.0244  57.3301  57.4553  57.5930  58.2761  58.4413  58.5672
    58.7807  58.8553  59.1628  59.3040  59.4767  59.7722  59.9525  60.3726
    60.9299

          k = 0.0000 0.0000 0.1317 (  3675 PWs)   bands (ev):

   -35.0716 -34.9620 -34.8132 -34.7830 -34.7350 -34.6838 -34.6451 -34.6410
   -14.2101 -14.1944 -14.1535 -14.1214  -3.3410  -3.2062  -3.1450  -3.0029
    -2.8931  -2.8458  -2.7174  -2.4880  -2.4471  -2.4072  -2.2472  -2.1854
    -2.0926  -2.0495  -2.0450  -2.0045  -1.9023  -1.7644  -1.7266  -1.7127
    -1.6577  -1.5042  -1.3523  -1.2824  11.8589  11.9983  12.0158  12.0610
    12.1335  12.2625  12.2768  12.3568  12.4420  12.5183  12.7135  12.8117
    32.1579  32.2192  32.5599  32.5967  32.6709  32.9793  33.4200  33.6335
    34.1109  34.2886  35.0424  35.3612  35.4087  35.7295  35.8205  35.8670
    36.0790  36.0804  36.5983  37.1145  37.2350  37.3986  37.4929  37.4958
    37.7664  37.8994  38.3046  38.3682  38.5643  38.6996  38.9102  39.1784
    39.7673  40.0135  40.2969  40.4736  40.9002  41.3737  41.5698  41.6489
    41.7522  41.9392  42.9157  43.4156  43.9999  44.1680  44.6561  45.0358
    45.1560  46.0584  46.1166  46.7915  46.8156  47.2746  47.4989  47.6476
    48.3463  48.4331  48.5239  48.8991  49.2473  49.9186  50.2927  50.6763
    52.9038  53.0620  53.7979  54.1651  54.6169  55.9337  55.9510  55.9867
    56.0263  56.7708  56.8425  57.4311  57.5996  57.6250  58.0349  58.3823
    58.4726  58.7330  58.7388  59.2167  59.3480  59.4619  59.5977  59.8870
    59.9857

          k = 0.0000 0.0000-0.2634 (  3690 PWs)   bands (ev):

   -35.0332 -35.0332 -34.7835 -34.7835 -34.7200 -34.7200 -34.6435 -34.6435
   -14.1839 -14.1839 -14.1566 -14.1566  -3.2654  -3.2654  -3.0758  -3.0758
    -2.9119  -2.9119  -2.6891  -2.6891  -2.3031  -2.3031  -2.2739  -2.2739
    -2.0736  -2.0736  -1.9904  -1.9904  -1.8500  -1.8500  -1.7518  -1.7518
    -1.5379  -1.5379  -1.3230  -1.3230  11.9281  11.9281  12.0424  12.0424
    12.1762  12.1762  12.3230  12.3230  12.4671  12.4671  12.7571  12.7571
    32.1907  32.1907  32.2817  32.2817  32.8897  32.8897  34.1832  34.1832
    34.3622  34.3622  34.7960  34.7960  35.9462  35.9462  35.9798  35.9798
    36.1595  36.1595  36.6871  36.6871  37.1194  37.1194  37.2943  37.2943
    37.4979  37.4979  38.4513  38.4513  38.6746  38.6746  39.0665  39.0665
    39.5104  39.5104  40.3712  40.3712  40.9629  40.9629  41.7364  41.7364
    42.4731  42.4731  42.6810  42.6810  43.7560  43.7560  44.7699  44.7699
    46.4972  46.4972  46.5956  46.5956  46.7086  46.7086  47.6048  47.6048
    47.7269  47.7269  48.4447  48.4447  49.6517  49.6517  51.6767  51.6767
    53.0617  53.0617  54.5257  54.5258  55.0411  55.0412  56.1910  56.1910
    56.2694  56.2694  56.8338  56.8339  57.8352  57.8352  57.8916  57.8917
    58.1408  58.1408  58.6702  58.6703  59.0662  59.0663  59.6340  59.6341
    60.7116

          k = 0.0000 0.2533 0.0000 (  3664 PWs)   bands (ev):

   -35.0195 -34.8893 -34.8540 -34.8087 -34.7528 -34.7069 -34.6488 -34.6335
   -14.2479 -14.2467 -14.1218 -14.1084  -3.0855  -3.0780  -2.8631  -2.8135
    -2.7993  -2.7127  -2.6589  -2.6579  -2.5148  -2.4096  -2.3940  -2.2589
    -2.1710  -2.0671  -1.9374  -1.9133  -1.8330  -1.8000  -1.7568  -1.7566
    -1.6321  -1.5961  -1.5877  -1.4820  11.8855  11.9738  11.9897  12.0613
    12.0782  12.0943  12.1786  12.3466  12.3560  12.3719  12.6200  12.7082
    32.8792  32.8853  33.1315  33.2900  33.3226  33.4397  33.9520  34.0669
    34.0921  34.2740  34.7610  35.1680  35.1934  35.3047  35.4473  36.0143
    36.1437  36.3722  36.6021  36.7749  36.7922  37.5752  37.6237  37.9512
    37.9787  38.3332  38.4615  38.5199  38.6115  39.0709  39.1730  39.5064
    39.7813  39.9130  40.2541  40.3891  40.7756  40.8846  41.1392  42.1069
    42.2466  42.4472  42.7326  43.0880  43.5677  44.1382  44.3700  44.5370
    44.7609  45.3687  45.7638  46.3885  46.3918  46.6406  46.9625  47.2691
    47.4313  47.5137  47.7653  48.3332  48.4709  48.6623  49.8698  49.9856
    50.1574  50.6983  54.9410  55.1925  55.3955  56.2002  56.5560  56.6793
    56.9167  57.0538  57.3117  57.9727  57.9888  58.4060  58.6346  58.7647
    58.8862  59.0729  59.2178  59.5686  59.6804  59.9160  60.2345  60.3451
    60.4443

          k = 0.0000 0.2533 0.1317 (  3669 PWs)   bands (ev):

   -35.0076 -34.9233 -34.8545 -34.8075 -34.7383 -34.6886 -34.6632 -34.6437
   -14.2415 -14.2365 -14.1298 -14.1184  -3.1034  -3.0489  -2.9786  -2.8287
    -2.8159  -2.7003  -2.6583  -2.6011  -2.5115  -2.4673  -2.3794  -2.2310
    -2.1540  -2.0299  -1.9330  -1.9324  -1.9041  -1.8311  -1.7507  -1.6704
    -1.6627  -1.5740  -1.5453  -1.4907  11.9089  11.9837  11.9916  12.0427
    12.0441  12.0849  12.2138  12.3227  12.3380  12.3420  12.6393  12.7048
    32.7404  32.7766  32.9003  33.2243  33.3799  33.7783  33.9030  34.0849
    34.4986  34.5241  35.0425  35.0597  35.0699  35.4885  35.5146  36.0233
    36.3501  36.4084  36.5968  36.9035  37.0924  37.2748  37.5348  37.6317
    37.7096  38.1277  38.4799  38.5753  38.6028  38.9298  39.4255  39.4277
    39.6317  39.8930  39.9304  40.5089  40.8482  40.8795  41.0157  41.6645
    42.1993  42.2403  42.5575  42.8836  43.4086  44.0359  44.6355  45.0250
    45.1199  45.3798  45.5155  46.1127  46.2380  46.7193  46.8933  47.3133
    47.5378  47.6674  47.9119  48.0566  48.4198  48.8147  49.3828  50.0725
    50.9983  51.8543  54.9698  55.2445  55.4508  55.9420  56.5455  56.6552
    56.8078  56.9348  57.3746  57.8582  57.9670  58.4388  58.8208  58.8417
    58.9261  58.9737  59.3080  59.3879  59.6448  59.7662  60.1278  60.2338
    60.3343

          k = 0.0000 0.2533-0.2634 (  3666 PWs)   bands (ev):

   -34.9712 -34.9712 -34.8362 -34.8362 -34.6945 -34.6945 -34.6594 -34.6594
   -14.2283 -14.2283 -14.1344 -14.1344  -3.0827  -3.0827  -2.9455  -2.9455
    -2.7648  -2.7648  -2.5638  -2.5638  -2.5501  -2.5501  -2.2902  -2.2902
    -2.0213  -2.0213  -1.9645  -1.9645  -1.9001  -1.9001  -1.7167  -1.7167
    -1.5830  -1.5830  -1.5047  -1.5047  11.9717  11.9717  12.0036  12.0036
    12.0462  12.0462  12.2795  12.2795  12.3108  12.3108  12.6791  12.6791
    32.6167  32.6167  32.9078  32.9078  33.7960  33.7960  34.3231  34.3231
    34.4337  34.4337  35.2486  35.2486  35.3182  35.3182  35.9265  35.9265
    36.4231  36.4231  36.6389  36.6389  37.0104  37.0104  37.5982  37.5982
    37.7649  37.7649  38.4283  38.4283  39.0351  39.0351  39.0941  39.0941
    39.7218  39.7218  40.3606  40.3606  40.7174  40.7174  41.2792  41.2792
    41.9840  41.9840  42.4574  42.4574  43.7349  43.7349  44.8258  44.8258
    45.4703  45.4703  46.0660  46.0660  46.1243  46.1243  46.9527  46.9527
    47.8195  47.8195  48.4263  48.4263  48.4380  48.4380  49.3371  49.3371
    52.9159  52.9159  54.4374  54.4374  55.9773  55.9773  56.2211  56.2211
    56.6683  56.6684  57.7922  57.7922  58.0646  58.0647  58.8599  58.8601
    59.2800  59.2801  59.4149  59.4152  59.8151  59.8154  60.1815  60.1818
    60.3513

          k =-0.5000 0.0000 0.0000 (  3722 PWs)   bands (ev):

   -34.9347 -34.9347 -34.8162 -34.8162 -34.7836 -34.7836 -34.6644 -34.6644
   -14.2609 -14.2609 -14.1959 -14.1959  -3.5252  -3.5252  -3.0130  -3.0130
    -2.9761  -2.9761  -2.7845  -2.7845  -2.4791  -2.4791  -2.1356  -2.1356
    -2.0743  -2.0743  -2.0095  -2.0095  -1.6542  -1.6542  -1.5855  -1.5855
    -1.4947  -1.4947  -1.3537  -1.3537  11.9217  11.9217  12.1699  12.1699
    12.3751  12.3751  12.4744  12.4744  12.6221  12.6221  12.6291  12.6291
    32.9243  32.9243  33.2710  33.2710  34.0822  34.0822  34.1944  34.1944
    34.7652  34.7652  34.8210  34.8210  35.2767  35.2767  35.6428  35.6428
    35.7259  35.7259  35.9369  35.9369  36.4870  36.4870  36.6414  36.6414
    37.2061  37.2061  37.9255  37.9255  38.5701  38.5701  38.9650  38.9650
    39.0034  39.0034  40.6452  40.6452  41.9471  41.9471  42.1121  42.1121
    42.3863  42.3863  43.6986  43.6986  43.9263  43.9263  44.9512  44.9512
    44.9768  44.9768  45.7469  45.7469  46.1779  46.1779  47.9199  47.9199
    47.9291  47.9291  48.3435  48.3435  49.3564  49.3564  49.7878  49.7878
    50.2289  50.2289  50.6801  50.6801  54.3840  54.3840  55.5081  55.5081
    55.9919  55.9920  56.5973  56.5973  57.8623  57.8623  58.4868  58.4870
    58.9719  58.9719  59.8279  59.8280  60.3829  60.3831  60.5470  60.5472
    61.1325

          k =-0.5000 0.0000 0.1317 (  3710 PWs)   bands (ev):

   -34.9325 -34.9325 -34.8124 -34.8124 -34.7783 -34.7783 -34.6641 -34.6641
   -14.2611 -14.2611 -14.1938 -14.1938  -3.4945  -3.4945  -3.2143  -3.2143
    -2.8920  -2.8920  -2.6974  -2.6974  -2.3678  -2.3678  -2.2404  -2.2404
    -2.1538  -2.1538  -1.9315  -1.9315  -1.6469  -1.6469  -1.5621  -1.5621
    -1.4891  -1.4891  -1.3560  -1.3560  11.9253  11.9253  12.1996  12.1996
    12.3680  12.3680  12.4417  12.4417  12.6215  12.6215  12.6268  12.6268
    33.0419  33.0419  33.1839  33.1839  34.0083  34.0083  34.2018  34.2018
    34.8331  34.8331  35.0318  35.0318  35.1921  35.1921  35.5158  35.5158
    35.8958  35.8958  36.1754  36.1754  36.4849  36.4849  36.7549  36.7549
    37.1974  37.1974  37.6016  37.6016  38.5148  38.5148  38.7976  38.7976
    39.4443  39.4443  40.6315  40.6315  41.1689  41.1689  41.9908  41.9908
    42.0311  42.0311  43.2887  43.2887  44.6864  44.6864  45.0271  45.0271
    45.2011  45.2011  45.7803  45.7803  46.3519  46.3519  47.3797  47.3797
    48.1946  48.1946  48.8802  48.8802  49.2309  49.2309  49.4204  49.4204
    50.1223  50.1223  51.5717  51.5717  53.9079  53.9079  54.7796  54.7796
    56.4724  56.4725  56.9191  56.9191  58.1698  58.1699  58.3127  58.3128
    58.9193  58.9193  59.3951  59.3953  60.0611  60.0614  60.9907  60.9910
    61.4264

          k =-0.5000 0.0000-0.2634 (  3680 PWs)   bands (ev):

   -34.9184 -34.9184 -34.8113 -34.8113 -34.7687 -34.7687 -34.6633 -34.6633
   -14.2601 -14.2601 -14.1918 -14.1918  -3.4658  -3.4658  -3.2889  -3.2889
    -2.9420  -2.9420  -2.5368  -2.5368  -2.3835  -2.3835  -2.2005  -2.2005
    -2.1893  -2.1893  -1.9718  -1.9718  -1.6310  -1.6310  -1.5044  -1.5044
    -1.4961  -1.4961  -1.3478  -1.3478  11.9321  11.9321  12.2368  12.2368
    12.3710  12.3710  12.3963  12.3963  12.6224  12.6224  12.6252  12.6252
    32.8775  32.8775  33.6584  33.6584  33.7696  33.7696  34.1544  34.1544
    34.7017  34.7017  35.1539  35.1539  35.3128  35.3128  35.8118  35.8118
    35.9150  35.9150  36.1538  36.1538  36.4543  36.4543  36.5185  36.5185
    37.5860  37.5860  37.8699  37.8699  38.1328  38.1328  38.4059  38.4059
    39.9200  39.9200  40.4354  40.4354  40.9028  40.9028  41.3300  41.3300
    42.0947  42.0947  43.1041  43.1041  44.5347  44.5347  45.2020  45.2020
    45.4141  45.4141  46.4038  46.4038  46.4828  46.4828  46.7669  46.7669
    48.6075  48.6075  48.8054  48.8054  49.2048  49.2048  49.5478  49.5478
    50.4943  50.4943  52.2678  52.2678  52.3279  52.3279  55.2937  55.2937
    56.5991  56.5991  56.6248  56.6248  57.6088  57.6089  58.5859  58.5859
    59.5113  59.5114  59.9779  59.9781  60.3120  60.3121  60.5464  60.5465
    61.7649

          k =-0.5000 0.2533 0.0000 (  3686 PWs)   bands (ev):

   -34.8791 -34.8791 -34.8251 -34.8251 -34.7627 -34.7627 -34.7046 -34.7046
   -14.2587 -14.2587 -14.2257 -14.2257  -3.2249  -3.2249  -2.9445  -2.9445
    -2.8986  -2.8986  -2.5693  -2.5693  -2.4531  -2.4531  -2.2775  -2.2775
    -2.1896  -2.1896  -2.0014  -2.0014  -1.6994  -1.6994  -1.6270  -1.6270
    -1.5382  -1.5382  -1.4904  -1.4904  11.9604  11.9604  12.0746  12.0746
    12.3389  12.3389  12.3846  12.3846  12.5254  12.5254  12.5393  12.5393
    33.5960  33.5960  33.7695  33.7695  34.3616  34.3616  34.3989  34.3989
    34.8353  34.8353  34.8759  34.8759  35.6621  35.6621  35.8374  35.8374
    36.4228  36.4228  36.5067  36.5067  36.5750  36.5750  36.8813  36.8813
    37.3647  37.3647  37.4979  37.4979  38.3636  38.3636  38.9362  38.9362
    39.4883  39.4883  40.1324  40.1324  40.8161  40.8161  41.6397  41.6397
    41.7891  41.7891  43.4079  43.4079  43.9512  43.9512  44.2304  44.2304
    45.3232  45.3232  45.5064  45.5064  45.9909  45.9909  46.9343  46.9343
    47.4809  47.4809  47.4972  47.4972  47.9337  47.9337  49.2481  49.2481
    51.8534  51.8534  51.9750  51.9750  53.2337  53.2337  54.5214  54.5214
    56.1937  56.1938  56.7722  56.7722  57.9901  57.9902  58.2466  58.2468
    59.4062  59.4063  59.4805  59.4806  60.6056  60.6057  61.1635  61.1636
    61.3704

          k =-0.5000 0.2533 0.1317 (  3692 PWs)   bands (ev):

   -34.8845 -34.8845 -34.8262 -34.8262 -34.7619 -34.7619 -34.7040 -34.7040
   -14.2581 -14.2581 -14.2258 -14.2258  -3.2420  -3.2420  -3.0078  -3.0078
    -2.8271  -2.8271  -2.6723  -2.6723  -2.4270  -2.4270  -2.3041  -2.3041
    -2.0982  -2.0982  -1.9102  -1.9102  -1.7257  -1.7257  -1.6446  -1.6446
    -1.5738  -1.5738  -1.4904  -1.4904  11.9671  11.9671  12.0969  12.0969
    12.3261  12.3261  12.3599  12.3599  12.5116  12.5116  12.5365  12.5365
    33.4824  33.4824  33.8394  33.8394  34.2099  34.2099  34.7246  34.7246
    34.7731  34.7731  35.1267  35.1267  35.6094  35.6094  35.9417  35.9417
    36.1412  36.1412  36.4377  36.4377  36.7161  36.7161  37.0539  37.0539
    37.2008  37.2008  37.7716  37.7716  38.4344  38.4344  38.8029  38.8029
    39.6493  39.6493  39.9208  39.9208  40.6879  40.6879  41.3365  41.3365
    41.8472  41.8472  42.6898  42.6898  44.2263  44.2263  44.4978  44.4978
    45.0891  45.0891  45.3640  45.3640  45.8554  45.8554  46.7663  46.7663
    47.3781  47.3781  47.8330  47.8330  48.1983  48.1983  49.6300  49.6300
    51.5254  51.5254  52.5631  52.5631  53.1050  53.1050  54.8258  54.8258
    56.1450  56.1450  57.2754  57.2755  57.9836  57.9837  58.5219  58.5219
    59.2233  59.2234  59.5812  59.5813  60.3577  60.3578  60.9627  60.9630
    61.4590

          k =-0.5000 0.2533-0.2634 (  3704 PWs)   bands (ev):

   -34.8843 -34.8843 -34.8288 -34.8288 -34.7677 -34.7677 -34.7068 -34.7068
   -14.2582 -14.2582 -14.2257 -14.2257  -3.2732  -3.2732  -2.9650  -2.9650
    -2.8833  -2.8833  -2.7269  -2.7269  -2.4458  -2.4458  -2.2884  -2.2884
    -1.9991  -1.9991  -1.8251  -1.8251  -1.7499  -1.7499  -1.7334  -1.7334
    -1.5354  -1.5354  -1.5230  -1.5230  11.9697  11.9697  12.1234  12.1234
    12.3127  12.3127  12.3310  12.3310  12.5007  12.5007  12.5288  12.5288
    33.3011  33.3011  34.0411  34.0411  34.2653  34.2653  34.7548  34.7548
    34.9342  34.9342  35.2140  35.2140  35.3799  35.3799  36.0296  36.0296
    36.2313  36.2313  36.4322  36.4322  36.4835  36.4835  37.1910  37.1910
    37.4277  37.4277  38.0669  38.0669  38.2213  38.2213  38.7187  38.7187
    39.1849  39.1849  40.4304  40.4304  40.5619  40.5619  41.2154  41.2154
    41.6602  41.6602  42.2781  42.2781  44.0596  44.0596  44.5703  44.5703
    45.0653  45.0653  45.0677  45.0677  45.9827  45.9827  46.4482  46.4482
    47.3933  47.3933  48.0169  48.0169  49.2393  49.2393  49.3823  49.3823
    51.5951  51.5951  52.2434  52.2434  53.3441  53.3441  55.7438  55.7438
    55.8065  55.8065  57.3748  57.3750  58.4804  58.4805  58.6278  58.6279
    58.8420  58.8421  59.7726  59.7728  60.1004  60.1005  60.9679  60.9962
    60.9965

     the Fermi energy is    52.1879 ev

!    total energy              =   -2771.27677253 Ry
     Harris-Foulkes estimate   =   -2771.27679382 Ry
     estimated scf accuracy    <       0.00002380 Ry

     The total energy is the sum of the following terms:

     one-electron contribution =     318.88215718 Ry
     hartree contribution      =     204.01743666 Ry
     xc contribution           =    -280.56078909 Ry
     ewald contribution        =   -3013.45320662 Ry
     smearing contrib. (-TS)   =      -0.16237067 Ry

     convergence has been achieved in  10 iterations

     Forces acting on atoms (Ry/au):

     atom    1 type  1   force =     0.00000000   -0.06010391   -0.05380990
     atom    2 type  1   force =     0.00000000    0.06010391    0.05380990
     atom    3 type  1   force =     0.00000000   -0.06010391    0.05380990
     atom    4 type  1   force =     0.00000000    0.06010391   -0.05380990
     atom    5 type  1   force =     0.00000000    0.15744902   -0.23133956
     atom    6 type  1   force =     0.00000000   -0.15744902    0.23133956
     atom    7 type  1   force =     0.00000000    0.15744902    0.23133956
     atom    8 type  1   force =     0.00000000   -0.15744902   -0.23133956
     atom    9 type  2   force =     0.00000000   -0.20583141    0.04231663
     atom   10 type  2   force =     0.00000000    0.20583141   -0.04231663
     atom   11 type  2   force =     0.00000000   -0.20583141   -0.04231663
     atom   12 type  2   force =     0.00000000    0.20583141    0.04231663

     Total force =     0.718257     Total SCF correction =     0.000000


     entering subroutine stress ...

          total   stress  (Ry/bohr**3)                   (kbar)     P= 7204.04
   0.05324677   0.00000000   0.00000000       7832.87      0.00      0.00
   0.00000000   0.04533436   0.00000000          0.00   6668.91      0.00
   0.00000000   0.00000000   0.04833501          0.00      0.00   7110.32


     BFGS Geometry Optimization

     number of scf cycles    =   1
     number of bfgs steps    =   0

     enthalpy new            =   -2771.2767725312 Ry

     new trust radius        =       0.5000000000 bohr
     new conv_thr            =       0.0001000000 Ry

     new unit-cell volume =   1081.06776 a.u.^3 (   160.19771 Ang^3 )

CELL_PARAMETERS (alat=  7.01510508)
   1.085136619   0.000000000   0.000000000
   0.000000000   1.411351535   0.000000000
   0.000000000   0.000000000   2.044705450

ATOMIC_POSITIONS (crystal)
Co       0.750000000   0.825984603   0.435477530
Co       0.250000000   0.174015397   0.564522470
Co       0.750000000   0.325984603   0.064522470
Co       0.250000000   0.674015397   0.935477530
Co       0.250000000   0.538176800   0.281233785
Co       0.750000000   0.461823200   0.718766215
Co       0.250000000   0.038176800   0.218766215
Co       0.750000000   0.961823200   0.781233785
Si       0.250000000   0.201428009   0.893803263
Si       0.750000000   0.798571991   0.106196737
Si       0.250000000   0.701428009   0.606196737
Si       0.750000000   0.298571991   0.393803263



     Writing output data file Prototype-La-oP12-Co2Si.save
     NEW-OLD atomic charge density approx. for the potential
     NEW k-points:
        k(    1) = (   0.0000000   0.0000000   0.0000000), wk =   0.0833333
        k(    2) = (   0.0000000   0.0000000   0.1222670), wk =   0.1666667
        k(    3) = (   0.0000000   0.0000000  -0.2445340), wk =   0.0833333
        k(    4) = (   0.0000000   0.2361802   0.0000000), wk =   0.1666667
        k(    5) = (   0.0000000   0.2361802   0.1222670), wk =   0.3333333
        k(    6) = (   0.0000000   0.2361802  -0.2445340), wk =   0.1666667
        k(    7) = (  -0.4607715   0.0000000   0.0000000), wk =   0.0833333
        k(    8) = (  -0.4607715   0.0000000   0.1222670), wk =   0.1666667
        k(    9) = (  -0.4607715   0.0000000  -0.2445340), wk =   0.0833333
        k(   10) = (  -0.4607715   0.2361802   0.0000000), wk =   0.1666667
        k(   11) = (  -0.4607715   0.2361802   0.1222670), wk =   0.3333333
        k(   12) = (  -0.4607715   0.2361802  -0.2445340), wk =   0.1666667

     total cpu time spent up to now is      172.8 secs

     Self-consistent Calculation

     iteration #  1     ecut=    40.00 Ry     beta=0.70
     CG style diagonalization
     c_bands:  3 eigenvalues not converged
     c_bands:  5 eigenvalues not converged
     c_bands:  2 eigenvalues not converged
     c_bands:  1 eigenvalues not converged
     c_bands:  2 eigenvalues not converged
     c_bands:  1 eigenvalues not converged
     c_bands:  4 eigenvalues not converged
     c_bands:  1 eigenvalues not converged
     c_bands:  3 eigenvalues not converged
     c_bands:  1 eigenvalues not converged
     c_bands:  3 eigenvalues not converged
     ethr =  1.00E-06,  avg # of iterations = 22.4

     total cpu time spent up to now is      238.7 secs

     total energy              =   -2768.05107310 Ry
     Harris-Foulkes estimate   =   -2791.66280730 Ry
     estimated scf accuracy    <      30.51435890 Ry

     iteration #  2     ecut=    40.00 Ry     beta=0.70
     CG style diagonalization
     ethr =  1.00E-02,  avg # of iterations =  3.8

     total cpu time spent up to now is      249.9 secs

     total energy              =   -2777.01298085 Ry
     Harris-Foulkes estimate   =   -2779.10802741 Ry
     estimated scf accuracy    <       3.17508429 Ry

     iteration #  3     ecut=    40.00 Ry     beta=0.70
     CG style diagonalization
     ethr =  1.39E-03,  avg # of iterations =  3.6

     total cpu time spent up to now is      260.4 secs

     total energy              =   -2777.71942433 Ry
     Harris-Foulkes estimate   =   -2777.75367151 Ry
     estimated scf accuracy    <       0.05247592 Ry

     iteration #  4     ecut=    40.00 Ry     beta=0.70
     CG style diagonalization
     c_bands:  5 eigenvalues not converged
     c_bands:  2 eigenvalues not converged
     c_bands:  1 eigenvalues not converged
     c_bands:  1 eigenvalues not converged
     ethr =  2.30E-05,  avg # of iterations =  4.5

     total cpu time spent up to now is      273.1 secs

     total energy              =   -2777.74214778 Ry
     Harris-Foulkes estimate   =   -2777.74637770 Ry
     estimated scf accuracy    <       0.00753116 Ry

     iteration #  5     ecut=    40.00 Ry     beta=0.70
     CG style diagonalization
     c_bands:  3 eigenvalues not converged
     c_bands:  2 eigenvalues not converged
     c_bands:  1 eigenvalues not converged
     c_bands:  1 eigenvalues not converged
     ethr =  3.30E-06,  avg # of iterations =  4.0

     total cpu time spent up to now is      284.5 secs

     total energy              =   -2777.74380580 Ry
     Harris-Foulkes estimate   =   -2777.74435145 Ry
     estimated scf accuracy    <       0.00095354 Ry

     iteration #  6     ecut=    40.00 Ry     beta=0.70
     CG style diagonalization
     ethr =  4.18E-07,  avg # of iterations =  3.6

     total cpu time spent up to now is      294.2 secs

     total energy              =   -2777.74404954 Ry
     Harris-Foulkes estimate   =   -2777.74411854 Ry
     estimated scf accuracy    <       0.00012751 Ry

     iteration #  7     ecut=    40.00 Ry     beta=0.70
     CG style diagonalization
     ethr =  5.59E-08,  avg # of iterations =  3.6

     total cpu time spent up to now is      303.9 secs

     End of self-consistent calculation

          k = 0.0000 0.0000 0.0000 (  3675 PWs)   bands (ev):

   -44.3673 -44.3625 -44.2789 -44.2447 -44.2265 -44.2159 -44.2077 -44.1862
   -23.8243 -23.8205 -23.8111 -23.8059 -12.1420 -12.0264 -11.9456 -11.8702
   -11.8114 -11.7231 -11.6357 -11.6114 -11.5651 -11.5556 -11.5450 -11.4547
   -11.4300 -11.3982 -11.3645 -11.3642 -11.3389 -11.3226 -11.2386 -11.2181
   -11.2140 -11.1481 -11.1415 -11.0683   2.8704   2.9304   2.9540   2.9687
     3.0009   3.0284   3.0331   3.0440   3.1373   3.2453   3.2484   3.3784
    24.7617  25.1290  25.2285  25.3248  25.3465  25.3889  25.4639  25.7830
    25.9259  26.1450  26.3748  26.5882  26.9790  26.9801  27.2934  27.4407
    27.4906  27.8718  27.9627  28.1670  28.3648  28.6401  28.6547  28.7238
    28.7576  28.9778  29.2144  29.4414  29.4922  29.6437  29.6988  29.7055
    29.7853  30.0620  30.1037  30.2227  30.9730  30.9912  31.3471  31.6749
    32.0047  32.0813  32.1629  32.5201  33.8583  34.1247  34.5689  35.0387
    35.1090  35.1627  35.2787  36.2330  36.4427  36.5933  36.6959  36.8714
    37.2503  37.4151  38.0325  38.1673  38.2097  38.2303  38.3998  38.6280
    38.6554  41.5282  41.6293  42.0340  42.2135  43.1932  43.8032  45.6021
    45.8321  46.5664  46.5695  46.6558  46.9958  47.3230  47.3955  47.9509
    47.9653  47.9844  48.2522  48.3086  48.3800  48.4170  48.8055  49.4509
    49.5538

          k = 0.0000 0.0000 0.1223 (  3675 PWs)   bands (ev):

   -44.3806 -44.3636 -44.2845 -44.2267 -44.2234 -44.2164 -44.2026 -44.1941
   -23.8219 -23.8170 -23.8135 -23.8097 -12.1360 -12.0384 -11.9202 -11.8773
   -11.7879 -11.7780 -11.7370 -11.6120 -11.5626 -11.5341 -11.5007 -11.4417
   -11.4314 -11.3825 -11.3769 -11.3753 -11.3401 -11.2644 -11.2420 -11.2122
   -11.2054 -11.1590 -11.1303 -11.0869   2.8928   2.9341   2.9369   2.9694
     2.9829   3.0210   3.0411   3.0576   3.1489   3.2009   3.2896   3.3580
    24.8778  24.9701  25.1101  25.1741  25.2363  25.3307  25.7668  25.8514
    26.2237  26.2747  26.5963  26.7622  27.0826  27.1429  27.3382  27.4978
    27.5121  27.5135  28.0282  28.2156  28.4000  28.4351  28.4601  28.5225
    28.6419  28.8934  29.0078  29.2454  29.2566  29.3229  29.4019  29.7178
    30.0663  30.1001  30.4895  30.7477  30.8997  31.1782  31.4157  31.4854
    31.6128  31.7540  32.2124  32.8869  33.6909  33.7551  34.7797  35.1231
    35.1577  35.2523  35.5968  36.2406  36.4067  36.4782  36.6728  36.7427
    36.9946  37.1573  37.4769  37.9476  38.2123  38.3607  38.7565  39.0220
    40.6536  41.0556  41.7695  42.1413  42.2500  43.6232  43.8842  44.7636
    45.3839  46.1512  46.4321  46.4420  46.6463  46.8701  47.3709  47.4981
    47.5065  48.1915  48.3208  48.4249  48.5232  48.6905  48.7586  49.0035
    49.0664

          k = 0.0000 0.0000-0.2445 (  3690 PWs)   bands (ev):

   -44.3784 -44.3784 -44.2852 -44.2852 -44.2249 -44.2249 -44.1882 -44.1882
   -23.8181 -23.8181 -23.8170 -23.8170 -12.1092 -12.1092 -11.8597 -11.8597
   -11.8199 -11.8199 -11.7068 -11.7068 -11.5037 -11.5037 -11.4739 -11.4739
   -11.4137 -11.4137 -11.3767 -11.3767 -11.3252 -11.3252 -11.2096 -11.2096
   -11.2070 -11.2070 -11.1179 -11.1179   2.9305   2.9305   2.9317   2.9317
     2.9887   2.9887   3.0576   3.0576   3.1633   3.1633   3.3182   3.3182
    24.9278  24.9278  24.9696  24.9696  25.2943  25.2943  26.2039  26.2039
    26.3579  26.3579  26.7513  26.7513  27.0767  27.0767  27.4152  27.4152
    27.6702  27.6702  27.8828  27.8828  28.3209  28.3209  28.3628  28.3628
    28.4855  28.4855  29.2701  29.2701  29.3559  29.3559  29.4602  29.4602
    29.9573  29.9573  30.6877  30.6877  30.9525  30.9525  31.4127  31.4127
    32.0533  32.0533  32.3603  32.3603  33.3857  33.3857  35.1455  35.1455
    35.7248  35.7248  35.8174  35.8174  36.0501  36.0501  36.6475  36.6475
    36.8929  36.8929  37.5807  37.5807  38.2650  38.2650  39.9321  39.9321
    40.9873  40.9873  42.1548  42.1548  42.8070  42.8070  43.8011  43.8011
    45.6997  45.6997  46.5611  46.5611  46.5710  46.5711  46.8379  46.8379
    47.8145  47.8145  48.1186  48.1186  48.3965  48.3966  49.4108  49.4133
    49.5189

          k = 0.0000 0.2362 0.0000 (  3664 PWs)   bands (ev):

   -44.3472 -44.3155 -44.2786 -44.2665 -44.2208 -44.2174 -44.2008 -44.1888
   -23.8309 -23.8295 -23.8062 -23.7979 -11.9653 -11.8638 -11.8468 -11.7998
   -11.7660 -11.7160 -11.6976 -11.6947 -11.6120 -11.5971 -11.5562 -11.5281
   -11.4648 -11.3885 -11.3454 -11.3158 -11.2975 -11.2845 -11.2774 -11.2312
   -11.2266 -11.1808 -11.1778 -11.1591   2.8995   2.9193   2.9231   2.9523
     2.9603   2.9763   3.0374   3.0718   3.1172   3.1376   3.2858   3.3207
    25.3563  25.4841  25.5688  25.6515  25.6710  25.7797  26.1100  26.1170
    26.2188  26.4479  26.6024  26.7908  26.9655  27.0483  27.0679  27.4354
    27.5333  27.5958  27.7339  27.8653  28.2006  28.4097  28.5726  28.7941
    28.9377  29.0088  29.1128  29.1754  29.3024  29.7372  29.8116  29.8564
    29.9914  30.0393  30.4610  30.5269  30.8527  30.9465  31.0067  31.7597
    31.9819  32.0722  32.2463  32.2512  33.3702  33.9045  34.0281  34.3137
    34.7673  34.9405  35.5006  35.5309  35.7269  36.1535  36.4199  36.6176
    36.7391  36.8012  37.1889  37.3182  37.4269  37.5466  38.3253  38.4684
    38.6828  39.1214  42.4371  43.4082  43.7651  44.5108  45.2783  45.6336
    45.9692  46.2142  46.4220  47.0342  47.0595  47.0626  47.3073  47.8741
    47.8836  48.1087  48.3095  48.3187  48.5122  48.6403  48.8395  49.2986
    49.5901

          k = 0.0000 0.2362 0.1223 (  3669 PWs)   bands (ev):

   -44.3465 -44.3310 -44.2813 -44.2598 -44.2244 -44.2159 -44.2075 -44.1975
   -23.8327 -23.8298 -23.8057 -23.8015 -11.9781 -11.9026 -11.8484 -11.7969
   -11.7550 -11.7428 -11.7179 -11.6443 -11.6383 -11.5974 -11.5376 -11.5049
   -11.4806 -11.3677 -11.3597 -11.3539 -11.3054 -11.2992 -11.2523 -11.2235
   -11.2065 -11.1791 -11.1789 -11.1664   2.9073   2.9101   2.9251   2.9512
     2.9526   2.9712   3.0396   3.0727   3.1139   3.1266   3.2863   3.3174
    25.2611  25.3270  25.3969  25.6472  25.6579  26.0287  26.1094  26.1629
    26.4886  26.6098  26.7443  26.8604  26.9756  27.0377  27.0905  27.4379
    27.6426  27.6730  27.9065  28.0883  28.1459  28.3399  28.4379  28.6280
    28.7312  28.8122  29.1091  29.2132  29.2746  29.5561  29.7664  29.9084
    30.0431  30.1321  30.2873  30.5418  30.8577  30.8653  30.9413  31.3779
    31.9173  31.9220  32.1793  32.1913  33.1747  33.8184  34.5684  34.5779
    34.8422  35.0605  35.2542  35.3037  35.5854  35.9617  36.2962  36.6132
    36.9173  36.9333  37.2394  37.2810  37.5251  37.7702  37.9799  38.4992
    39.3804  40.0800  42.8624  43.2440  43.6758  44.4213  44.7601  45.2966
    45.4318  45.9211  46.2054  46.3538  46.9483  47.2193  47.6737  47.9076
    48.0097  48.1341  48.2044  48.3953  48.6549  48.8022  48.9785  49.1552
    49.5769

          k = 0.0000 0.2362-0.2445 (  3666 PWs)   bands (ev):

   -44.3352 -44.3352 -44.2716 -44.2716 -44.2217 -44.2217 -44.1980 -44.1980
   -23.8317 -23.8317 -23.8027 -23.8027 -11.9558 -11.9558 -11.8020 -11.8020
   -11.7698 -11.7698 -11.6681 -11.6681 -11.6200 -11.6200 -11.5115 -11.5115
   -11.4135 -11.4135 -11.3455 -11.3455 -11.3286 -11.3286 -11.2260 -11.2260
   -11.2053 -11.2053 -11.1601 -11.1601   2.9194   2.9194   2.9316   2.9316
     2.9596   2.9596   3.0537   3.0537   3.1207   3.1207   3.3020   3.3020
    25.1577  25.1577  25.4391  25.4391  25.9357  25.9357  26.4146  26.4146
    26.4634  26.4634  26.9297  26.9297  27.0987  27.0987  27.3297  27.3297
    27.7908  27.7908  28.0534  28.0534  28.1014  28.1014  28.5329  28.5329
    28.5496  28.5496  29.1236  29.1236  29.5265  29.5265  29.6521  29.6521
    29.9719  29.9719  30.4750  30.4750  30.8214  30.8214  31.1206  31.1206
    31.7491  31.7491  32.0119  32.0119  33.4694  33.4694  34.8894  34.8894
    35.0200  35.0200  35.3524  35.3524  35.3634  35.3634  36.3950  36.3950
    37.0976  37.0976  37.4567  37.4567  37.5587  37.5587  38.0924  38.0924
    41.0145  41.0145  42.4959  42.4959  44.0029  44.0030  44.6903  44.6903
    45.2537  45.2537  46.6706  46.6707  46.7771  46.7772  47.3632  47.3633
    48.3331  48.3332  48.6411  48.6412  48.9349  48.9351  49.0316  49.0317
    49.4372

          k =-0.4608 0.0000 0.0000 (  3722 PWs)   bands (ev):

   -44.3713 -44.3713 -44.2802 -44.2802 -44.2607 -44.2607 -44.2466 -44.2466
   -23.8445 -23.8445 -23.8250 -23.8250 -12.1799 -12.1799 -11.9045 -11.9045
   -11.8332 -11.8332 -11.7336 -11.7336 -11.6013 -11.6013 -11.4667 -11.4667
   -11.4220 -11.4220 -11.3764 -11.3764 -11.2421 -11.2421 -11.2005 -11.2005
   -11.1540 -11.1540 -11.1307 -11.1307   2.8751   2.8751   2.9648   2.9648
     3.0241   3.0241   3.0862   3.0862   3.2277   3.2277   3.2702   3.2702
    25.3072  25.3072  25.4533  25.4533  26.1597  26.1597  26.1892  26.1892
    26.5613  26.5613  26.7446  26.7446  27.2284  27.2284  27.2625  27.2625
    27.4881  27.4881  27.5716  27.5716  27.8416  27.8416  27.9927  27.9927
    28.3953  28.3953  28.8815  28.8815  29.2792  29.2792  29.6569  29.6569
    29.6737  29.6737  30.7802  30.7802  31.2936  31.2936  31.8807  31.8807
    31.9320  31.9320  33.5546  33.5546  33.7574  33.7574  34.6222  34.6222
    35.0911  35.0911  35.6156  35.6156  35.8064  35.8064  36.6284  36.6284
    36.9402  36.9402  37.2038  37.2038  38.0337  38.0337  38.5126  38.5126
    38.7153  38.7153  39.0603  39.0603  43.0585  43.0585  44.0854  44.0854
    45.1650  45.1650  45.6462  45.6462  46.3187  46.3187  47.5554  47.5554
    47.8031  47.8031  48.5685  48.5687  48.7689  48.7689  49.5524  49.5530
    49.8995

          k =-0.4608 0.0000 0.1223 (  3710 PWs)   bands (ev):

   -44.3650 -44.3650 -44.2705 -44.2705 -44.2563 -44.2563 -44.2371 -44.2371
   -23.8429 -23.8429 -23.8220 -23.8220 -12.1713 -12.1713 -11.9536 -11.9536
   -11.7819 -11.7819 -11.7159 -11.7159 -11.5615 -11.5615 -11.4932 -11.4932
   -11.4548 -11.4548 -11.3607 -11.3607 -11.2216 -11.2216 -11.1945 -11.1945
   -11.1538 -11.1538 -11.1343 -11.1343   2.8762   2.8762   2.9882   2.9882
     3.0293   3.0293   3.0780   3.0780   3.2281   3.2281   3.2662   3.2662
    25.3213  25.3213  25.4881  25.4881  26.0231  26.0231  26.2775  26.2775
    26.6028  26.6028  26.8628  26.8628  27.0446  27.0446  27.2731  27.2731
    27.5443  27.5443  27.7505  27.7505  27.8605  27.8605  28.1248  28.1248
    28.3995  28.3995  28.7423  28.7423  29.3793  29.3793  29.4603  29.4603
    29.8506  29.8506  30.7370  30.7370  30.9469  30.9469  31.6353  31.6353
    31.8495  31.8495  32.8852  32.8852  34.2253  34.2253  35.1223  35.1223
    35.4583  35.4583  35.5299  35.5299  35.6880  35.6880  36.2848  36.2848
    37.0066  37.0066  37.6479  37.6479  38.0447  38.0447  38.1369  38.1369
    38.6931  38.6931  39.8173  39.8173  42.0135  42.0135  44.3044  44.3044
    45.8014  45.8014  45.9829  45.9829  46.5525  46.5525  47.1348  47.1349
    47.5642  47.5642  48.0520  48.0520  49.0183  49.0184  49.1738  49.1739
    49.8062

          k =-0.4608 0.0000-0.2445 (  3680 PWs)   bands (ev):

   -44.3299 -44.3299 -44.2688 -44.2688 -44.2340 -44.2340 -44.2278 -44.2278
   -23.8361 -23.8361 -23.8192 -23.8192 -12.1719 -12.1719 -11.9619 -11.9619
   -11.7860 -11.7860 -11.6103 -11.6103 -11.5669 -11.5669 -11.4918 -11.4918
   -11.4720 -11.4720 -11.3761 -11.3761 -11.2157 -11.2157 -11.1626 -11.1626
   -11.1452 -11.1452 -11.1192 -11.1192   2.8843   2.8843   3.0135   3.0135
     3.0388   3.0388   3.0728   3.0728   3.2356   3.2356   3.2649   3.2649
    25.2200  25.2200  25.8554  25.8554  25.9618  25.9618  25.9811  25.9811
    26.7585  26.7585  26.7935  26.7935  27.0726  27.0726  27.5060  27.5060
    27.6009  27.6009  27.7638  27.7638  27.8527  27.8527  27.9885  27.9885
    28.7012  28.7012  28.8698  28.8698  28.9512  28.9512  29.2922  29.2922
    30.2791  30.2791  30.5989  30.5989  30.7263  30.7263  31.2489  31.2489
    31.7998  31.7998  32.6192  32.6192  34.6146  34.6146  35.0458  35.0458
    35.3922  35.3922  35.7979  35.7979  35.8630  35.8630  35.9219  35.9219
    37.4328  37.4328  37.7026  37.7026  37.7406  37.7406  38.3941  38.3941
    38.9486  38.9486  40.5532  40.5532  40.6942  40.6942  44.6914  44.6914
    45.9310  45.9311  46.1828  46.1828  46.6554  46.6555  46.9124  46.9124
    47.6312  47.6313  47.8801  47.8801  48.7894  48.7895  49.3732  49.3742
    49.4219

          k =-0.4608 0.2362 0.0000 (  3686 PWs)   bands (ev):

   -44.3258 -44.3258 -44.2923 -44.2923 -44.2344 -44.2344 -44.2333 -44.2333
   -23.8395 -23.8395 -23.8267 -23.8267 -11.9985 -11.9985 -11.8415 -11.8415
   -11.8410 -11.8410 -11.6487 -11.6487 -11.6062 -11.6062 -11.5027 -11.5027
   -11.4511 -11.4511 -11.3985 -11.3985 -11.2648 -11.2648 -11.2182 -11.2182
   -11.1716 -11.1716 -11.1484 -11.1484   2.8860   2.8860   2.9247   2.9247
     3.0457   3.0457   3.0659   3.0659   3.2216   3.2216   3.2272   3.2272
    25.8239  25.8239  25.8822  25.8822  26.2947  26.2947  26.4498  26.4498
    26.7329  26.7329  26.7983  26.7983  27.3725  27.3725  27.5171  27.5171
    27.7555  27.7555  27.9051  27.9051  27.9651  27.9651  28.1889  28.1889
    28.4654  28.4654  28.6006  28.6006  29.0610  29.0610  29.4800  29.4800
    29.9072  29.9072  30.4356  30.4356  30.8690  30.8690  31.4868  31.4868
    31.5758  31.5758  33.1436  33.1436  33.7880  33.7880  34.0669  34.0669
    35.0225  35.0225  35.1077  35.1077  35.8304  35.8304  36.1797  36.1797
    36.7841  36.7841  36.8443  36.8443  37.1361  37.1361  37.6294  37.6294
    39.8828  39.8828  40.1078  40.1078  41.5301  41.5301  42.2638  42.2638
    45.7517  45.7517  46.5307  46.5308  47.7645  47.7645  48.1146  48.1146
    48.4137  48.4137  49.1176  49.1177  49.1888  49.1888  49.8379  49.8384
    50.1824

          k =-0.4608 0.2362 0.1223 (  3692 PWs)   bands (ev):

   -44.3334 -44.3334 -44.2936 -44.2936 -44.2400 -44.2400 -44.2294 -44.2294
   -23.8366 -23.8366 -23.8308 -23.8308 -12.0073 -12.0073 -11.8560 -11.8560
   -11.8086 -11.8086 -11.6938 -11.6938 -11.6045 -11.6045 -11.5153 -11.5153
   -11.4215 -11.4215 -11.3522 -11.3522 -11.2823 -11.2823 -11.2208 -11.2208
   -11.1948 -11.1948 -11.1538 -11.1538   2.8882   2.8882   2.9341   2.9341
     3.0392   3.0392   3.0538   3.0538   3.2125   3.2125   3.2305   3.2305
    25.6968  25.6968  25.9876  25.9876  26.2697  26.2697  26.6384  26.6384
    26.7321  26.7321  26.9220  26.9220  27.1940  27.1940  27.4935  27.4935
    27.6625  27.6625  27.8846  27.8846  28.1023  28.1023  28.3483  28.3483
    28.3840  28.3840  28.7405  28.7405  29.1980  29.1980  29.3521  29.3521
    29.9558  29.9558  30.2841  30.2841  30.7606  30.7606  31.2845  31.2845
    31.6415  31.6415  32.4221  32.4221  33.9693  33.9693  34.5365  34.5365
    34.9297  34.9297  35.1011  35.1011  35.6321  35.6321  36.2556  36.2556
    36.6211  36.6211  37.0121  37.0121  37.1771  37.1771  37.9036  37.9036
    39.7629  39.7629  40.5377  40.5377  41.0411  41.0411  43.0744  43.0744
    45.8356  45.8356  46.3434  46.3434  47.5910  47.5910  47.8279  47.8279
    48.2549  48.2549  48.7925  48.7926  49.5375  49.5376  49.9092  49.9097
    50.1849

          k =-0.4608 0.2362-0.2445 (  3704 PWs)   bands (ev):

   -44.3412 -44.3412 -44.2962 -44.2962 -44.2493 -44.2493 -44.2365 -44.2365
   -23.8367 -23.8367 -23.8342 -23.8342 -12.0159 -12.0159 -11.8592 -11.8592
   -11.7968 -11.7968 -11.7219 -11.7219 -11.6391 -11.6391 -11.5251 -11.5251
   -11.3748 -11.3748 -11.3146 -11.3146 -11.2927 -11.2927 -11.2736 -11.2736
   -11.1721 -11.1721 -11.1694 -11.1694   2.8823   2.8823   2.9431   2.9431
     3.0350   3.0350   3.0402   3.0402   3.2105   3.2105   3.2225   3.2225
    25.5710  25.5710  26.1994  26.1994  26.3066  26.3066  26.5955  26.5955
    26.7601  26.7601  26.9869  26.9869  27.1090  27.1090  27.6319  27.6319
    27.6417  27.6417  27.8470  27.8470  27.8881  27.8881  28.4778  28.4778
    28.6184  28.6184  28.9225  28.9225  29.0391  29.0391  29.3794  29.3794
    29.7029  29.7029  30.5475  30.5475  30.5520  30.5520  31.0896  31.0896
    31.6656  31.6656  31.9990  31.9990  33.9880  33.9880  34.5641  34.5641
    34.9580  34.9580  35.1077  35.1077  35.8545  35.8545  35.8825  35.8825
    36.5575  36.5575  37.0875  37.0875  37.8032  37.8032  37.8100  37.8100
    39.9015  39.9015  40.2217  40.2217  41.1344  41.1344  44.2482  44.2482
    45.1074  45.1074  46.5917  46.5917  47.2159  47.2159  47.5296  47.5296
    47.7716  47.7716  49.0644  49.0646  49.7743  49.7746  49.9229  49.9231
    50.0271

     the Fermi energy is    40.3303 ev

!    total energy              =   -2777.74407588 Ry
     Harris-Foulkes estimate   =   -2777.74408238 Ry
     estimated scf accuracy    <       0.00000792 Ry

     The total energy is the sum of the following terms:

     one-electron contribution =      22.44545527 Ry
     hartree contribution      =     268.35567478 Ry
     xc contribution           =    -273.22487184 Ry
     ewald contribution        =   -2795.13040167 Ry
     smearing contrib. (-TS)   =      -0.18993242 Ry

     convergence has been achieved in   7 iterations

     Forces acting on atoms (Ry/au):

     atom    1 type  1   force =     0.00000000   -0.04660977   -0.02391647
     atom    2 type  1   force =     0.00000000    0.04660977    0.02391647
     atom    3 type  1   force =     0.00000000   -0.04660977    0.02391647
     atom    4 type  1   force =     0.00000000    0.04660977   -0.02391647
     atom    5 type  1   force =     0.00000000    0.09393812   -0.14155781
     atom    6 type  1   force =     0.00000000   -0.09393812    0.14155781
     atom    7 type  1   force =     0.00000000    0.09393812    0.14155781
     atom    8 type  1   force =     0.00000000   -0.09393812   -0.14155781
     atom    9 type  2   force =     0.00000000   -0.12678385    0.02726780
     atom   10 type  2   force =     0.00000000    0.12678385   -0.02726780
     atom   11 type  2   force =     0.00000000   -0.12678385   -0.02726780
     atom   12 type  2   force =     0.00000000    0.12678385    0.02726780

     Total force =     0.440114     Total SCF correction =     0.000000


     entering subroutine stress ...

          total   stress  (Ry/bohr**3)                   (kbar)     P= 2149.29
   0.01608806   0.00000000   0.00000000       2366.64      0.00      0.00
   0.00000000   0.01323665   0.00000000          0.00   1947.18      0.00
   0.00000000   0.00000000   0.01450698          0.00      0.00   2134.05


     number of scf cycles    =   2
     number of bfgs steps    =   1

     enthalpy old            =   -2771.2767725312 Ry
     enthalpy new            =   -2777.7440758754 Ry

     CASE: enthalpy_new < enthalpy_old

     small trust_radius: resetting bfgs history

     new trust radius        =       2.6448452317 bohr
     new conv_thr            =       0.0001000000 Ry

     new unit-cell volume =   2749.19945 a.u.^3 (   407.38932 Ang^3 )

CELL_PARAMETERS (alat=  7.01510508)
   1.521580325   0.000000000   0.000000000
   0.000000000   1.878390837   0.000000000
   0.000000000   0.000000000   2.786267833

ATOMIC_POSITIONS (crystal)
Co       0.750000000   0.821276916   0.433810159
Co       0.250000000   0.178723084   0.566189841
Co       0.750000000   0.321276916   0.066189841
Co       0.250000000   0.678723084   0.933810159
Co       0.250000000   0.547664752   0.271364882
Co       0.750000000   0.452335248   0.728635118
Co       0.250000000   0.047664752   0.228635118
Co       0.750000000   0.952335248   0.771364882
Si       0.250000000   0.188622568   0.895704277
Si       0.750000000   0.811377432   0.104295723
Si       0.250000000   0.688622568   0.604295723
Si       0.750000000   0.311377432   0.395704277



     Writing output data file Prototype-La-oP12-Co2Si.save
     NEW-OLD atomic charge density approx. for the potential
     NEW k-points:
        k(    1) = (   0.0000000   0.0000000   0.0000000), wk =   0.0833333
        k(    2) = (   0.0000000   0.0000000   0.0897258), wk =   0.1666667
        k(    3) = (   0.0000000   0.0000000  -0.1794515), wk =   0.0833333
        k(    4) = (   0.0000000   0.1774569   0.0000000), wk =   0.1666667
        k(    5) = (   0.0000000   0.1774569   0.0897258), wk =   0.3333333
        k(    6) = (   0.0000000   0.1774569  -0.1794515), wk =   0.1666667
        k(    7) = (  -0.3286057   0.0000000   0.0000000), wk =   0.0833333
        k(    8) = (  -0.3286057   0.0000000   0.0897258), wk =   0.1666667
        k(    9) = (  -0.3286057   0.0000000  -0.1794515), wk =   0.0833333
        k(   10) = (  -0.3286057   0.1774569   0.0000000), wk =   0.1666667
        k(   11) = (  -0.3286057   0.1774569   0.0897258), wk =   0.3333333
        k(   12) = (  -0.3286057   0.1774569  -0.1794515), wk =   0.1666667

     total cpu time spent up to now is      308.4 secs

     Self-consistent Calculation

     iteration #  1     ecut=    40.00 Ry     beta=0.70
     CG style diagonalization
     c_bands:  5 eigenvalues not converged
     c_bands:  5 eigenvalues not converged
     c_bands:  5 eigenvalues not converged
     c_bands:  3 eigenvalues not converged
     c_bands:  1 eigenvalues not converged
     c_bands:  1 eigenvalues not converged
     c_bands:  3 eigenvalues not converged
     c_bands:  1 eigenvalues not converged
     c_bands:  3 eigenvalues not converged
     c_bands:  4 eigenvalues not converged
     ethr =  1.00E-06,  avg # of iterations = 29.7

     total cpu time spent up to now is      392.8 secs

     total energy              =   -2651.80844850 Ry
     Harris-Foulkes estimate   =   -2998.40805451 Ry
     estimated scf accuracy    <     444.12460396 Ry

     iteration #  2     ecut=    40.00 Ry     beta=0.70
     CG style diagonalization
     ethr =  1.00E-02,  avg # of iterations =  5.6

     total cpu time spent up to now is      408.9 secs

     total energy              =   -2728.60947206 Ry
     Harris-Foulkes estimate   =   -2787.34628063 Ry
     estimated scf accuracy    <      85.81034147 Ry

     iteration #  3     ecut=    40.00 Ry     beta=0.70
     CG style diagonalization
     ethr =  1.00E-02,  avg # of iterations =  5.1

     total cpu time spent up to now is      424.1 secs

     total energy              =   -2758.91423906 Ry
     Harris-Foulkes estimate   =   -2781.40535298 Ry
     estimated scf accuracy    <      52.97045868 Ry

     iteration #  4     ecut=    40.00 Ry     beta=0.70
     CG style diagonalization
     ethr =  1.00E-02,  avg # of iterations =  3.5

     total cpu time spent up to now is      433.8 secs

     total energy              =   -2764.28191988 Ry
     Harris-Foulkes estimate   =   -2765.59109678 Ry
     estimated scf accuracy    <       6.44967323 Ry

     iteration #  5     ecut=    40.00 Ry     beta=0.70
     CG style diagonalization
     ethr =  2.83E-03,  avg # of iterations =  3.0

     total cpu time spent up to now is      442.3 secs

     total energy              =   -2764.00765394 Ry
     Harris-Foulkes estimate   =   -2764.56983367 Ry
     estimated scf accuracy    <       2.55704944 Ry

     iteration #  6     ecut=    40.00 Ry     beta=0.70
     CG style diagonalization
     ethr =  1.12E-03,  avg # of iterations =  3.1

     total cpu time spent up to now is      450.9 secs

     total energy              =   -2764.00461263 Ry
     Harris-Foulkes estimate   =   -2764.14127557 Ry
     estimated scf accuracy    <       0.59930858 Ry

     iteration #  7     ecut=    40.00 Ry     beta=0.70
     CG style diagonalization
     ethr =  2.63E-04,  avg # of iterations =  3.3

     total cpu time spent up to now is      460.3 secs

     total energy              =   -2764.00144246 Ry
     Harris-Foulkes estimate   =   -2764.05226466 Ry
     estimated scf accuracy    <       0.13906993 Ry

     iteration #  8     ecut=    40.00 Ry     beta=0.70
     CG style diagonalization
     c_bands:  1 eigenvalues not converged
     ethr =  6.10E-05,  avg # of iterations =  3.4

     total cpu time spent up to now is      469.8 secs

     total energy              =   -2764.03411982 Ry
     Harris-Foulkes estimate   =   -2764.03620778 Ry
     estimated scf accuracy    <       0.01159415 Ry

     iteration #  9     ecut=    40.00 Ry     beta=0.70
     CG style diagonalization
     c_bands:  2 eigenvalues not converged
     c_bands:  2 eigenvalues not converged
     c_bands:  1 eigenvalues not converged
     c_bands:  1 eigenvalues not converged
     ethr =  5.09E-06,  avg # of iterations =  3.4

     total cpu time spent up to now is      479.3 secs

     total energy              =   -2764.03227370 Ry
     Harris-Foulkes estimate   =   -2764.03488023 Ry
     estimated scf accuracy    <       0.00631251 Ry

     iteration # 10     ecut=    40.00 Ry     beta=0.70
     CG style diagonalization
     ethr =  2.77E-06,  avg # of iterations =  3.3

     total cpu time spent up to now is      488.8 secs

     total energy              =   -2764.03330258 Ry
     Harris-Foulkes estimate   =   -2764.03333435 Ry
     estimated scf accuracy    <       0.00010128 Ry

     iteration # 11     ecut=    40.00 Ry     beta=0.70
     CG style diagonalization
     ethr =  4.44E-08,  avg # of iterations =  4.2

     total cpu time spent up to now is      500.9 secs

     total energy              =   -2764.03333210 Ry
     Harris-Foulkes estimate   =   -2764.03338272 Ry
     estimated scf accuracy    <       0.00016242 Ry

     iteration # 12     ecut=    40.00 Ry     beta=0.70
     CG style diagonalization
     ethr =  4.44E-08,  avg # of iterations =  3.3

     total cpu time spent up to now is      509.9 secs

     End of self-consistent calculation

          k = 0.0000 0.0000 0.0000 (  3675 PWs)   bands (ev):

   -65.1776 -65.1189 -65.0677 -64.9977 -64.9100 -64.8393 -64.8254 -64.7685
   -46.2630 -46.2506 -46.1856 -46.1577 -37.1035 -37.1026 -37.0690 -37.0689
   -37.0503 -37.0473 -37.0431 -37.0423 -37.0097 -37.0096 -37.0080 -37.0057
   -36.9496 -36.9493 -36.9481 -36.9476 -36.9337 -36.9329 -36.9327 -36.9320
   -36.9202 -36.9183 -36.9158 -36.9144 -20.8157 -20.8009 -20.7982 -20.7940
   -20.7917 -20.7899 -20.7888 -20.7876 -20.7852 -20.7839 -20.7829 -20.7828
     4.4609   4.5216   4.7293   4.7393   4.8261   4.8774   4.8931   4.9076
     4.9181   4.9455   5.0363   5.0939   5.0990   5.1112   5.1484   5.1704
     5.2179   5.2663   5.2732   5.2799   5.3004   5.3088   5.3123   5.3378
     5.3477   5.3484   5.3487   5.4231   5.4234   5.4523   5.5264   5.5882
     5.6096   5.6230   5.6345   5.6394   5.6488   5.6632   5.7023   5.7075
     6.8236   8.3900   8.4871   9.1730   9.9746  10.1852  10.2390  10.4883
    10.5832  10.6974  10.7300  10.8338  10.8585  10.8769  10.9225  10.9267
    11.1159  11.1820  11.2293  11.2787  11.3279  11.3331  11.4009  11.4044
    12.3268  12.4814  12.8330  13.1430  13.1441  13.6232  13.6250  14.5326
    14.9526  15.2518  15.3084  15.3363  15.4054  16.1926  16.7281  16.7709
    17.0858  17.1909  17.2142  17.4573  17.6665  17.7101  17.8234  17.8878
    18.6080

          k = 0.0000 0.0000 0.0897 (  3675 PWs)   bands (ev):

   -65.1827 -65.1605 -65.1095 -64.9238 -64.8961 -64.8666 -64.7937 -64.7718
   -46.2674 -46.2435 -46.1885 -46.1493 -37.1032 -37.1028 -37.0689 -37.0688
   -37.0496 -37.0485 -37.0428 -37.0425 -37.0100 -37.0096 -37.0058 -37.0053
   -36.9496 -36.9492 -36.9479 -36.9476 -36.9334 -36.9329 -36.9329 -36.9319
   -36.9195 -36.9175 -36.9156 -36.9140 -20.8176 -20.8025 -20.8001 -20.7956
   -20.7930 -20.7929 -20.7883 -20.7883 -20.7857 -20.7839 -20.7828 -20.7789
     4.4781   4.4909   4.6926   4.7538   4.8468   4.8566   4.8905   4.9173
     4.9887   5.0006   5.0618   5.0824   5.0905   5.1258   5.1458   5.1771
     5.1797   5.1821   5.2235   5.2426   5.2883   5.2988   5.3295   5.3295
     5.3657   5.3811   5.3951   5.4075   5.4498   5.4813   5.5036   5.5564
     5.5874   5.6295   5.6388   5.6459   5.6699   5.6716   5.7072   5.7545
     6.9344   7.7701   9.0832   9.2419   9.8092  10.0554  10.4136  10.5219
    10.5596  10.7243  10.7437  10.7474  10.7837  10.8625  10.9037  10.9767
    11.0412  11.1042  11.2374  11.2792  11.2947  11.3797  11.5457  11.6595
    12.3597  12.6717  12.8181  12.8229  13.1211  13.7174  13.8134  14.3003
    14.4800  14.5159  15.3215  16.1504  16.2945  16.4039  16.5496  16.7712
    16.8200  17.0457  17.0494  17.4491  17.5512  17.7352  17.8805  17.9054
    18.2346

          k = 0.0000 0.0000-0.1795 (  3690 PWs)   bands (ev):

   -65.2153 -65.2153 -65.0633 -65.0633 -64.9166 -64.9166 -64.7959 -64.7959
   -46.2897 -46.2897 -46.1847 -46.1847 -37.1028 -37.1028 -37.0687 -37.0687
   -37.0486 -37.0486 -37.0424 -37.0424 -37.0090 -37.0090 -37.0052 -37.0052
   -36.9491 -36.9491 -36.9475 -36.9475 -36.9330 -36.9330 -36.9322 -36.9322
   -36.9176 -36.9176 -36.9147 -36.9147 -20.8192 -20.8192 -20.8053 -20.8053
   -20.7967 -20.7967 -20.7889 -20.7889 -20.7885 -20.7885 -20.7838 -20.7838
     4.4900   4.4900   4.6909   4.6909   4.8513   4.8513   4.8958   4.8958
     5.0265   5.0265   5.0321   5.0321   5.0908   5.0908   5.1272   5.1272
     5.1908   5.1908   5.1992   5.1992   5.2858   5.2858   5.2963   5.2963
     5.3899   5.3899   5.4534   5.4534   5.4817   5.4817   5.5239   5.5239
     5.5784   5.5784   5.6507   5.6507   5.6644   5.6644   5.7188   5.7188
     7.2456   7.2456   9.3767   9.3767   9.7667   9.7667  10.5376  10.5376
    10.6293  10.6293  10.6660  10.6660  10.8861  10.8861  10.9474  10.9474
    10.9634  10.9634  11.2948  11.2948  11.3073  11.3073  12.0124  12.0124
    12.2217  12.2217  12.7951  12.7951  13.4053  13.4053  14.0390  14.0390
    14.3965  14.3965  15.8732  15.8732  16.1096  16.1096  16.8372  16.8372
    17.0570  17.0570  17.4659  17.4659  17.5443  17.5443  17.9273  17.9275
    18.0374

          k = 0.0000 0.1775 0.0000 (  3664 PWs)   bands (ev):

   -65.1472 -65.1025 -65.0780 -64.9733 -64.8696 -64.8250 -64.7706 -64.7312
   -46.2902 -46.2215 -46.1321 -46.1170 -37.0940 -37.0937 -37.0766 -37.0762
   -37.0485 -37.0466 -37.0453 -37.0441 -37.0090 -37.0075 -37.0072 -37.0056
   -36.9494 -36.9489 -36.9476 -36.9473 -36.9332 -36.9329 -36.9323 -36.9316
   -36.9195 -36.9179 -36.9143 -36.9129 -20.8044 -20.8037 -20.7975 -20.7947
   -20.7928 -20.7894 -20.7890 -20.7867 -20.7864 -20.7800 -20.7796 -20.7762
     4.6012   4.6598   4.8196   4.8989   4.9164   4.9289   4.9308   4.9425
     4.9754   4.9959   5.0167   5.0806   5.1051   5.1127   5.1344   5.1464
     5.1492   5.1763   5.2034   5.2070   5.2643   5.2764   5.2862   5.3258
     5.3365   5.4254   5.4378   5.4513   5.4541   5.4571   5.4955   5.5154
     5.5340   5.5588   5.6050   5.6639   5.6727   5.6943   5.7113   5.7329
     7.2373   8.3152   8.7061   8.9367   9.6790   9.8342  10.2507  10.4145
    10.4479  10.5040  10.5086  10.6528  10.7315  10.9359  10.9422  10.9664
    11.0376  11.1076  11.1309  11.1418  11.1639  11.2748  11.2843  11.3339
    11.7840  11.9428  13.3192  13.5944  13.9837  14.4620  14.7957  14.9246
    15.1088  15.3698  15.5182  15.5286  15.6899  15.7080  15.8175  16.2028
    16.4880  16.7470  16.8285  17.1329  17.3595  17.9154  18.8303  19.0170
    19.2071

          k = 0.0000 0.1775 0.0897 (  3669 PWs)   bands (ev):

   -65.1879 -65.1090 -65.0586 -64.9554 -64.8990 -64.8594 -64.7831 -64.7454
   -46.2773 -46.2127 -46.1800 -46.1335 -37.0938 -37.0938 -37.0766 -37.0764
   -37.0483 -37.0473 -37.0448 -37.0446 -37.0090 -37.0071 -37.0065 -37.0051
   -36.9495 -36.9492 -36.9476 -36.9471 -36.9333 -36.9328 -36.9322 -36.9321
   -36.9190 -36.9183 -36.9134 -36.9123 -20.8117 -20.8072 -20.7986 -20.7957
   -20.7951 -20.7924 -20.7894 -20.7875 -20.7849 -20.7811 -20.7805 -20.7748
     4.6150   4.6466   4.8421   4.8675   4.9115   4.9145   4.9162   4.9447
     4.9823   5.0131   5.0472   5.0481   5.0980   5.1075   5.1190   5.1481
     5.1684   5.1933   5.1937   5.2059   5.2526   5.2875   5.3028   5.3146
     5.3543   5.3976   5.4054   5.4334   5.4453   5.4546   5.4699   5.5145
     5.5470   5.5568   5.6230   5.6545   5.6628   5.6885   5.7080   5.7296
     7.3406   8.1434   8.4702   9.1796   9.4739  10.0237  10.2479  10.4047
    10.4445  10.5176  10.5308  10.6659  10.7070  10.8567  10.9360  11.0101
    11.0288  11.1110  11.1151  11.1302  11.2665  11.3321  11.3348  11.3602
    11.8426  12.3012  13.3195  13.5157  13.8633  14.2716  14.4680  14.7929
    14.8104  14.9316  15.2386  15.2410  15.5809  16.1020  16.2875  16.6287
    16.7369  17.0931  17.4042  17.4619  17.8041  17.8903  18.1560  18.6019
    18.8390

          k = 0.0000 0.1775-0.1795 (  3666 PWs)   bands (ev):

   -65.0957 -65.0957 -64.9811 -64.9811 -64.9119 -64.9119 -64.7796 -64.7796
   -46.2283 -46.2283 -46.1625 -46.1625 -37.0939 -37.0939 -37.0765 -37.0765
   -37.0480 -37.0480 -37.0450 -37.0450 -37.0088 -37.0088 -37.0054 -37.0054
   -36.9494 -36.9494 -36.9475 -36.9475 -36.9328 -36.9328 -36.9326 -36.9326
   -36.9188 -36.9188 -36.9133 -36.9133 -20.8055 -20.8055 -20.7975 -20.7975
   -20.7918 -20.7918 -20.7889 -20.7889 -20.7834 -20.7834 -20.7771 -20.7771
     4.6175   4.6175   4.8558   4.8558   4.9122   4.9122   4.9169   4.9169
     5.0386   5.0386   5.0602   5.0602   5.0833   5.0833   5.1202   5.1202
     5.1700   5.1700   5.2403   5.2403   5.2665   5.2665   5.2987   5.2987
     5.3570   5.3570   5.4333   5.4333   5.4479   5.4479   5.4991   5.4991
     5.5585   5.5585   5.6384   5.6384   5.6932   5.6932   5.7237   5.7237
     7.6553   7.6553   8.7497   8.7497   9.8505   9.8505  10.3159  10.3159
    10.5067  10.5067  10.6189  10.6189  10.7193  10.7193  10.9873  10.9873
    11.0625  11.0625  11.1402  11.1402  11.3392  11.3392  11.3818  11.3818
    12.4370  12.4370  13.1583  13.1583  14.0399  14.0399  14.1573  14.1573
    14.8543  14.8543  15.3983  15.3984  15.5856  15.5856  16.8040  16.8040
    17.3460  17.3460  17.6406  17.6406  18.0489  18.0489  18.3314  18.3316
    18.7996

          k =-0.3286 0.0000 0.0000 (  3722 PWs)   bands (ev):

   -65.1862 -65.1862 -65.1176 -65.1176 -65.0362 -65.0362 -64.9913 -64.9913
   -46.3287 -46.3287 -46.3099 -46.3099 -37.1032 -37.1032 -37.0687 -37.0687
   -37.0498 -37.0498 -37.0426 -37.0426 -37.0143 -37.0143 -37.0108 -37.0108
   -36.9487 -36.9487 -36.9487 -36.9487 -36.9332 -36.9332 -36.9329 -36.9329
   -36.9216 -36.9216 -36.9216 -36.9216 -20.8139 -20.8139 -20.8089 -20.8089
   -20.8039 -20.8039 -20.7966 -20.7966 -20.7933 -20.7933 -20.7897 -20.7897
     4.4760   4.4760   4.7520   4.7520   4.7550   4.7550   4.8881   4.8881
     5.0175   5.0175   5.0412   5.0412   5.0800   5.0800   5.1148   5.1148
     5.1629   5.1629   5.1960   5.1960   5.2300   5.2300   5.2856   5.2856
     5.2914   5.2914   5.3624   5.3624   5.3980   5.3980   5.4401   5.4401
     5.5179   5.5179   5.5523   5.5523   5.6529   5.6529   5.7001   5.7001
     8.2109   8.2109   9.4514   9.4514   9.4799   9.4799  10.4177  10.4177
    10.5886  10.5886  10.6886  10.6886  10.8673  10.8673  11.0214  11.0214
    11.0708  11.0708  11.1678  11.1678  11.2927  11.2927  11.4667  11.4667
    11.5149  11.5149  12.1764  12.1764  13.4867  13.4867  14.2985  14.2985
    14.6899  14.6899  14.7434  14.7434  14.7560  14.7560  15.9716  15.9716
    16.4396  16.4396  18.4004  18.4005  18.5511  18.5511  19.5551  19.5555
    19.8229

          k =-0.3286 0.0000 0.0897 (  3710 PWs)   bands (ev):

   -65.1402 -65.1402 -65.0995 -65.0995 -65.0405 -65.0405 -64.9280 -64.9280
   -46.2967 -46.2967 -46.2887 -46.2887 -37.1032 -37.1032 -37.0687 -37.0687
   -37.0491 -37.0491 -37.0426 -37.0426 -37.0131 -37.0131 -37.0110 -37.0110
   -36.9486 -36.9486 -36.9485 -36.9485 -36.9330 -36.9330 -36.9327 -36.9327
   -36.9216 -36.9216 -36.9205 -36.9205 -20.8128 -20.8128 -20.8048 -20.8048
   -20.8004 -20.8004 -20.7957 -20.7957 -20.7918 -20.7918 -20.7883 -20.7883
     4.4888   4.4888   4.7333   4.7333   4.7999   4.7999   4.9164   4.9164
     5.0055   5.0055   5.0541   5.0541   5.0917   5.0917   5.1573   5.1573
     5.1795   5.1795   5.2043   5.2043   5.2510   5.2510   5.2784   5.2784
     5.3163   5.3163   5.3443   5.3443   5.4116   5.4116   5.4547   5.4547
     5.5265   5.5265   5.5528   5.5528   5.6314   5.6314   5.7093   5.7093
     8.2950   8.2950   9.0263   9.0263   9.6896   9.6896  10.3908  10.3908
    10.6892  10.6892  10.7321  10.7321  10.9377  10.9377  10.9749  10.9749
    11.1282  11.1282  11.1315  11.1315  11.2853  11.2853  11.3675  11.3675
    11.7628  11.7628  12.3716  12.3716  13.3754  13.3754  13.9207  13.9207
    14.3659  14.3659  14.7808  14.7808  15.2079  15.2079  15.5563  15.5563
    17.3373  17.3373  17.7471  17.7472  18.2136  18.2137  20.1382  20.1414
    20.1800

          k =-0.3286 0.0000-0.1795 (  3680 PWs)   bands (ev):

   -65.0990 -65.0990 -64.9835 -64.9835 -64.9389 -64.9389 -64.8882 -64.8882
   -46.2494 -46.2494 -46.2095 -46.2095 -37.1032 -37.1032 -37.0686 -37.0686
   -37.0483 -37.0483 -37.0426 -37.0426 -37.0114 -37.0114 -37.0105 -37.0105
   -36.9485 -36.9485 -36.9481 -36.9481 -36.9327 -36.9327 -36.9325 -36.9325
   -36.9201 -36.9201 -36.9198 -36.9198 -20.8077 -20.8077 -20.8042 -20.8042
   -20.7904 -20.7904 -20.7897 -20.7897 -20.7891 -20.7891 -20.7757 -20.7757
     4.5109   4.5109   4.7390   4.7390   4.8140   4.8140   4.9221   4.9221
     5.0289   5.0289   5.0689   5.0689   5.0878   5.0878   5.1454   5.1454
     5.2203   5.2203   5.2640   5.2640   5.2840   5.2840   5.3213   5.3213
     5.3375   5.3375   5.3486   5.3486   5.4876   5.4876   5.4878   5.4878
     5.5608   5.5608   5.5897   5.5897   5.6275   5.6275   5.7162   5.7162
     8.4958   8.4958   8.6820   8.6820   9.7500   9.7500  10.3474  10.3474
    10.7289  10.7289  10.8300  10.8300  10.9582  10.9582  10.9665  10.9665
    11.0909  11.0909  11.1733  11.1733  11.3038  11.3038  11.3178  11.3178
    12.0810  12.0810  12.7063  12.7063  13.0166  13.0166  13.7876  13.7876
    13.9794  13.9794  14.4826  14.4826  15.8143  15.8143  16.0379  16.0379
    16.4311  16.4311  17.6990  17.6990  19.2253  19.2253  19.3310  19.3312
    20.5792

          k =-0.3286 0.1775 0.0000 (  3686 PWs)   bands (ev):

   -65.0671 -65.0671 -65.0607 -65.0607 -64.9563 -64.9563 -64.9124 -64.9124
   -46.2616 -46.2616 -46.2441 -46.2441 -37.0941 -37.0941 -37.0763 -37.0763
   -37.0481 -37.0481 -37.0450 -37.0450 -37.0124 -37.0124 -37.0122 -37.0122
   -36.9486 -36.9486 -36.9484 -36.9484 -36.9328 -36.9328 -36.9328 -36.9328
   -36.9218 -36.9218 -36.9209 -36.9209 -20.8011 -20.8011 -20.8008 -20.8008
   -20.7934 -20.7934 -20.7927 -20.7927 -20.7835 -20.7835 -20.7799 -20.7799
     4.6425   4.6425   4.8260   4.8260   4.9193   4.9193   4.9558   4.9558
     5.0342   5.0342   5.0740   5.0740   5.0827   5.0827   5.1202   5.1202
     5.1837   5.1837   5.2225   5.2225   5.2678   5.2678   5.2685   5.2685
     5.3090   5.3090   5.3655   5.3655   5.3762   5.3762   5.4055   5.4055
     5.4795   5.4795   5.5581   5.5581   5.6175   5.6175   5.6328   5.6328
     8.5501   8.5501   9.3581   9.3581   9.7350   9.7350   9.9670   9.9670
    10.5228  10.5228  10.5475  10.5475  10.8257  10.8257  10.9099  10.9099
    11.0719  11.0719  11.0724  11.0724  11.1681  11.1681  11.2867  11.2867
    11.8615  11.8615  11.8919  11.8919  12.7185  12.7185  12.9595  12.9595
    15.5553  15.5553  16.0501  16.0501  16.4683  16.4683  17.2321  17.2321
    17.2779  17.2779  17.6547  17.6547  17.6736  17.6736  19.0680  19.0681
    20.1616

          k =-0.3286 0.1775 0.0897 (  3692 PWs)   bands (ev):

   -65.0963 -65.0963 -65.0529 -65.0529 -64.9582 -64.9582 -64.9389 -64.9389
   -46.2962 -46.2962 -46.2263 -46.2263 -37.0941 -37.0941 -37.0763 -37.0763
   -37.0478 -37.0478 -37.0449 -37.0449 -37.0115 -37.0115 -37.0109 -37.0109
   -36.9485 -36.9485 -36.9483 -36.9483 -36.9328 -36.9328 -36.9326 -36.9326
   -36.9210 -36.9210 -36.9196 -36.9196 -20.8099 -20.8099 -20.8026 -20.8026
   -20.7953 -20.7953 -20.7921 -20.7921 -20.7853 -20.7853 -20.7794 -20.7794
     4.6425   4.6425   4.8370   4.8370   4.9003   4.9003   4.9439   4.9439
     5.0222   5.0222   5.0712   5.0712   5.1025   5.1025   5.1404   5.1404
     5.1626   5.1626   5.2054   5.2054   5.2341   5.2341   5.2888   5.2888
     5.3222   5.3222   5.3678   5.3678   5.3983   5.3983   5.4209   5.4209
     5.4856   5.4856   5.5522   5.5522   5.5982   5.5982   5.6352   5.6352
     8.6098   8.6098   9.2423   9.2423   9.6188   9.6188   9.9373   9.9373
    10.5693  10.5693  10.6639  10.6639  10.8090  10.8090  10.9484  10.9484
    11.0564  11.0564  11.0723  11.0723  11.1488  11.1488  11.2248  11.2248
    11.8655  11.8655  12.0867  12.0867  12.5824  12.5824  13.5262  13.5262
    14.9409  14.9409  15.5116  15.5116  16.0829  16.0829  16.8714  16.8714
    17.7282  17.7283  18.3576  18.3576  18.6604  18.6605  19.2212  19.2214
    19.8208

          k =-0.3286 0.1775-0.1795 (  3704 PWs)   bands (ev):

   -65.1131 -65.1131 -65.1010 -65.1010 -64.9979 -64.9979 -64.9493 -64.9493
   -46.3265 -46.3265 -46.2426 -46.2426 -37.0940 -37.0940 -37.0764 -37.0764
   -37.0472 -37.0472 -37.0448 -37.0448 -37.0118 -37.0118 -37.0115 -37.0115
   -36.9483 -36.9483 -36.9481 -36.9481 -36.9326 -36.9326 -36.9324 -36.9324
   -36.9209 -36.9209 -36.9204 -36.9204 -20.8166 -20.8166 -20.8065 -20.8065
   -20.7957 -20.7957 -20.7942 -20.7942 -20.7897 -20.7897 -20.7827 -20.7827
     4.6337   4.6337   4.8589   4.8589   4.8762   4.8762   4.9324   4.9324
     5.0208   5.0208   5.0455   5.0455   5.1077   5.1077   5.1198   5.1198
     5.1612   5.1612   5.2103   5.2103   5.2112   5.2112   5.2846   5.2846
     5.3016   5.3016   5.3576   5.3576   5.4049   5.4049   5.4666   5.4666
     5.4767   5.4767   5.5411   5.5411   5.5865   5.5865   5.6075   5.6075
     8.7258   8.7258   9.0351   9.0351   9.6601   9.6601   9.8150   9.8150
    10.6733  10.6733  10.6873  10.6873  10.8159  10.8159  10.9735  10.9735
    11.0308  11.0308  11.0615  11.0615  11.1592  11.1592  11.1602  11.1602
    11.9762  11.9762  11.9917  11.9917  12.9448  12.9448  13.9386  13.9386
    14.5635  14.5635  14.7508  14.7508  15.8481  15.8481  16.6549  16.6549
    18.5808  18.5808  18.7624  18.7624  19.2428  19.2429  19.3172  19.3172
    19.7007

     the Fermi energy is    12.5399 ev

!    total energy              =   -2764.03328816 Ry
     Harris-Foulkes estimate   =   -2764.03334032 Ry
     estimated scf accuracy    <       0.00005327 Ry

     The total energy is the sum of the following terms:

     one-electron contribution =   -1052.49269363 Ry
     hartree contribution      =     595.15487293 Ry
     xc contribution           =    -257.12201302 Ry
     ewald contribution        =   -2048.99157118 Ry
     smearing contrib. (-TS)   =      -0.58188326 Ry

     convergence has been achieved in  12 iterations

     Forces acting on atoms (Ry/au):

     atom    1 type  1   force =     0.00000000   -0.00815028   -0.00276114
     atom    2 type  1   force =     0.00000000    0.00815028    0.00276114
     atom    3 type  1   force =     0.00000000   -0.00815028    0.00276114
     atom    4 type  1   force =     0.00000000    0.00815028   -0.00276114
     atom    5 type  1   force =     0.00000000    0.00158638    0.00919112
     atom    6 type  1   force =     0.00000000   -0.00158638   -0.00919112
     atom    7 type  1   force =     0.00000000    0.00158638   -0.00919112
     atom    8 type  1   force =     0.00000000   -0.00158638    0.00919112
     atom    9 type  2   force =     0.00000000    0.00129144   -0.00381871
     atom   10 type  2   force =     0.00000000   -0.00129144    0.00381871
     atom   11 type  2   force =     0.00000000    0.00129144    0.00381871
     atom   12 type  2   force =     0.00000000   -0.00129144   -0.00381871

     Total force =     0.026630     Total SCF correction =     0.000000


     entering subroutine stress ...

          total   stress  (Ry/bohr**3)                   (kbar)     P=-2008.32
  -0.01499978   0.00000000   0.00000000      -2206.54      0.00      0.00
   0.00000000  -0.01253410   0.00000000          0.00  -1843.83      0.00
   0.00000000   0.00000000  -0.01342302          0.00      0.00  -1974.59


     number of scf cycles    =   3
     number of bfgs steps    =   2

     enthalpy old            =   -2777.7440758754 Ry
     enthalpy new            =   -2764.0332881560 Ry

     CASE: enthalpy_new > enthalpy_old

     new trust radius        =       0.8456397292 bohr

     trust_radius < trust_radius_min

     resetting bfgs history

     Message from routine bfgs:
     history already reset at previous step: stopping
     new conv_thr            =       0.0001000000 Ry

     new unit-cell volume =   1279.42131 a.u.^3 (   189.59068 Ang^3 )

CELL_PARAMETERS (alat=  7.01510508)
   1.157685677   0.000000000   0.000000000
   0.000000000   1.481293457   0.000000000
   0.000000000   0.000000000   2.161121944

ATOMIC_POSITIONS (crystal)
Co       0.750000000   0.825413200   0.435284474
Co       0.250000000   0.174586800   0.564715526
Co       0.750000000   0.325413200   0.064715526
Co       0.250000000   0.674586800   0.935284474
Co       0.250000000   0.539328414   0.280091116
Co       0.750000000   0.460671586   0.719908884
Co       0.250000000   0.039328414   0.219908884
Co       0.750000000   0.960671586   0.780091116
Si       0.250000000   0.199873730   0.894023372
Si       0.750000000   0.800126270   0.105976628
Si       0.250000000   0.699873730   0.605976628
Si       0.750000000   0.300126270   0.394023372



     Writing output data file Prototype-La-oP12-Co2Si.save
     NEW-OLD atomic charge density approx. for the potential
     NEW k-points:
        k(    1) = (   0.0000000   0.0000000   0.0000000), wk =   0.0833333
        k(    2) = (   0.0000000   0.0000000   0.1156807), wk =   0.1666667
        k(    3) = (   0.0000000   0.0000000  -0.2313613), wk =   0.0833333
        k(    4) = (   0.0000000   0.2250286   0.0000000), wk =   0.1666667
[...]
   -17.8188 -17.7878 -17.7497 -17.7404 -17.6760 -17.6658 -17.6573 -17.6564
   -17.6462 -17.5967 -17.5744 -17.5689 -17.5608 -17.5597 -17.5497 -17.5418
   -17.5076 -17.4973 -17.4917 -17.4802  -3.2943  -3.2754  -3.2612  -3.2584
    -3.2410  -3.2366  -3.2313  -3.2282  -3.1620  -3.1134  -3.0898  -3.0515
    20.0844  20.2653  20.4769  20.5363  20.6078  20.6198  20.6476  20.8013
    21.0220  21.0275  21.0288  21.5194  21.7151  21.8203  22.0030  22.0864
    22.2514  22.4537  22.5010  22.6402  22.7318  22.9330  22.9708  23.0275
    23.2016  23.2224  23.5321  23.5891  23.6529  23.7814  23.8304  23.8320
    23.9475  24.0390  24.0739  24.1803  24.7590  24.9071  25.2048  25.2733
    25.5681  25.5864  25.7695  25.9823  27.4859  28.0148  28.0723  28.4441
    28.5246  29.0191  29.1444  29.7687  29.8147  29.8696  30.0199  30.2035
    30.2776  30.4304  31.0976  31.1092  31.1896  31.3035  31.3226  31.3650
    31.4116  34.0386  34.2179  34.3552  34.5151  35.4000  36.0104  38.0683
    38.2442  38.5436  38.8290  39.1173  39.1512  39.2576  39.6759  40.1680
    40.2375  40.3087  40.6740  40.6950  40.9633  41.2245  41.3706  41.4204
    41.5862

          k = 0.0000 0.0000 0.1157 (  5485 PWs)   bands (ev):

   -50.7520 -50.7436 -50.6949 -50.6910 -50.5941 -50.5874 -50.5873 -50.5823
   -30.1619 -30.1614 -30.1562 -30.1525 -18.0884 -18.0637 -17.8590 -17.8562
   -17.8050 -17.8035 -17.7905 -17.7375 -17.6752 -17.6661 -17.6519 -17.6399
   -17.6377 -17.5954 -17.5866 -17.5762 -17.5714 -17.5548 -17.5511 -17.5302
   -17.5071 -17.5033 -17.4886 -17.4802  -3.2877  -3.2714  -3.2621  -3.2542
    -3.2513  -3.2353  -3.2352  -3.2330  -3.1575  -3.1184  -3.0829  -3.0540
    20.1700  20.2898  20.3450  20.4439  20.4477  20.4681  20.8976  20.9148
    21.1640  21.2066  21.2490  21.5558  21.8174  21.9178  21.9479  22.1510
    22.1674  22.2229  22.6311  22.6639  22.7595  22.7988  22.8907  22.8965
    22.9639  23.2655  23.3194  23.4831  23.5560  23.5955  23.6102  23.8092
    24.0492  24.0686  24.3179  24.6910  24.8140  24.9005  25.0884  25.1192
    25.3149  25.6098  25.6563  26.3887  27.3615  27.3854  28.4388  28.5641
    28.9609  29.0379  29.0829  29.6167  29.7517  29.8098  29.9777  29.9998
    30.0929  30.1737  30.7029  31.1389  31.2100  31.2867  31.6234  31.8278
    33.0662  33.6003  34.2545  34.4501  34.6467  35.6113  36.0186  36.8356
    37.5808  38.5112  38.6370  38.7260  39.5247  39.5468  39.6685  40.0328
    40.1540  40.3154  40.5858  40.6102  40.9530  41.1676  41.3777  41.5065
    41.7811

          k = 0.0000 0.0000-0.2314 (  5486 PWs)   bands (ev):

   -50.7492 -50.7492 -50.6930 -50.6930 -50.5887 -50.5887 -50.5860 -50.5860
   -30.1617 -30.1617 -30.1543 -30.1542 -18.0740 -18.0740 -17.8349 -17.8349
   -17.8317 -17.8317 -17.7745 -17.7745 -17.6690 -17.6690 -17.6316 -17.6316
   -17.6185 -17.6185 -17.5828 -17.5828 -17.5765 -17.5765 -17.5230 -17.5230
   -17.5135 -17.5135 -17.4825 -17.4825  -3.2720  -3.2720  -3.2665  -3.2665
    -3.2477  -3.2477  -3.2295  -3.2295  -3.1430  -3.1430  -3.0650  -3.0650
    20.2159  20.2159  20.3286  20.3286  20.4269  20.4269  21.1796  21.1796
    21.2994  21.2994  21.5823  21.5823  21.6653  21.6653  22.0394  22.0394
    22.2772  22.2772  22.4122  22.4122  22.7409  22.7409  22.7950  22.7950
    23.0326  23.0326  23.5538  23.5538  23.5691  23.5691  23.5828  23.5828
    23.9968  23.9968  24.6514  24.6514  24.7204  24.7204  25.0786  25.0786
    25.5174  25.5174  26.1424  26.1424  27.0628  27.0628  28.9816  28.9816
    29.0932  29.0932  29.1466  29.1466  29.4505  29.4505  29.9162  29.9162
    30.1017  30.1017  30.8591  30.8591  31.2219  31.2219  32.6555  32.6555
    33.4416  33.4416  34.4973  34.4973  34.9416  34.9416  35.8707  35.8707
    38.0274  38.0274  38.8324  38.8324  39.1953  39.1954  39.4353  39.4354
    40.3105  40.3105  40.7327  40.7327  40.9263  40.9265  41.3032  41.3033
    42.1352

          k = 0.0000 0.2250 0.0000 (  5461 PWs)   bands (ev):

   -50.7302 -50.7246 -50.7098 -50.7033 -50.5939 -50.5904 -50.5794 -50.5738
   -30.1654 -30.1637 -30.1545 -30.1499 -17.9783 -17.9310 -17.8297 -17.8199
   -17.8116 -17.7961 -17.7604 -17.7527 -17.7388 -17.7046 -17.6948 -17.6761
   -17.6192 -17.6110 -17.5858 -17.5788 -17.5646 -17.5557 -17.5546 -17.5311
   -17.5292 -17.5028 -17.4970 -17.4943  -3.2851  -3.2799  -3.2787  -3.2707
    -3.2551  -3.2492  -3.2200  -3.2178  -3.1665  -3.1561  -3.0838  -3.0667
    20.5398  20.6538  20.7318  20.7423  20.8833  20.9359  21.0816  21.1681
    21.2475  21.3626  21.4345  21.4905  21.8143  21.8332  21.9105  22.0441
    22.1135  22.1889  22.2309  22.4518  22.7341  22.7888  22.8108  23.2292
    23.2451  23.2531  23.2845  23.4463  23.5478  23.8399  23.8917  23.9794
    23.9923  24.0100  24.3710  24.4644  24.6892  24.7314  24.7932  25.4253
    25.4942  25.6317  25.7767  25.7911  27.0806  27.6335  27.6464  28.0406
    28.4583  28.5137  28.8263  29.0747  29.0775  29.5645  29.8148  30.0333
    30.0783  30.1736  30.5558  30.5709  30.5954  30.7642  31.1635  31.2792
    31.6652  32.0099  34.6153  35.6048  36.1076  36.8558  37.4485  37.9446
    38.1243  38.3916  38.6267  38.8502  39.0477  39.1534  39.4117  39.9081
    39.9420  40.1165  40.2611  40.6613  40.8683  41.1178  41.7838  41.8647
    41.8840

          k = 0.0000 0.2250 0.1157 (  5463 PWs)   bands (ev):

   -50.7330 -50.7290 -50.7076 -50.7016 -50.5935 -50.5878 -50.5825 -50.5727
   -30.1653 -30.1637 -30.1540 -30.1508 -17.9715 -17.9400 -17.8257 -17.8151
   -17.8137 -17.7843 -17.7759 -17.7598 -17.7352 -17.7136 -17.6802 -17.6721
   -17.6319 -17.6067 -17.5888 -17.5789 -17.5709 -17.5569 -17.5505 -17.5297
   -17.5195 -17.5036 -17.5028 -17.4965  -3.2827  -3.2802  -3.2796  -3.2711
    -3.2578  -3.2495  -3.2226  -3.2197  -3.1673  -3.1583  -3.0779  -3.0671
    20.4558  20.5011  20.6665  20.7859  20.8056  21.0713  21.1723  21.2043
    21.4108  21.4641  21.5607  21.5941  21.7423  21.8498  21.9193  22.0472
    22.1641  22.1878  22.5255  22.5293  22.6561  22.7739  22.8092  22.9813
    23.1487  23.1905  23.2677  23.4277  23.5277  23.7211  23.8156  23.9673
    24.0535  24.1079  24.3196  24.4490  24.6434  24.7059  24.7373  25.0445
    25.4795  25.5317  25.5998  25.9338  26.8428  27.5165  28.1787  28.2190
    28.5305  28.5515  28.6807  28.9322  29.0145  29.3001  29.7332  29.9891
    30.2442  30.2445  30.4979  30.6640  30.7915  30.9062  30.9415  31.3694
    32.1593  32.7721  35.0162  35.4769  35.9482  36.7224  36.9813  37.4878
    37.5205  38.0520  38.2283  38.3239  39.0408  39.2525  40.1705  40.1812
    40.3234  40.4002  40.5857  40.6952  40.9325  41.1941  41.5369  41.5437
    41.8881

          k = 0.0000 0.2250-0.2314 (  5460 PWs)   bands (ev):

   -50.7308 -50.7308 -50.7043 -50.7043 -50.5907 -50.5907 -50.5776 -50.5776
   -30.1640 -30.1640 -30.1529 -30.1529 -17.9584 -17.9584 -17.8241 -17.8241
   -17.8009 -17.8009 -17.7677 -17.7677 -17.7215 -17.7215 -17.6654 -17.6654
   -17.6211 -17.6211 -17.5850 -17.5850 -17.5705 -17.5704 -17.5367 -17.5367
   -17.5073 -17.5073 -17.4997 -17.4997  -3.2783  -3.2783  -3.2775  -3.2775
    -3.2580  -3.2580  -3.2190  -3.2190  -3.1643  -3.1643  -3.0703  -3.0703
    20.3839  20.3839  20.6689  20.6690  20.9872  20.9872  21.4051  21.4051
    21.4089  21.4089  21.6661  21.6661  21.8648  21.8648  21.9652  21.9652
    22.2816  22.2816  22.5766  22.5766  22.6935  22.6935  22.8872  22.8873
    22.9621  22.9621  23.3431  23.3431  23.6570  23.6570  23.8020  23.8020
    23.9805  23.9805  24.3689  24.3689  24.6463  24.6463  24.9204  24.9204
    25.4539  25.4539  25.5237  25.5237  27.1664  27.1664  28.5503  28.5503
    28.5825  28.5825  28.7676  28.7676  28.8353  28.8353  29.8318  29.8319
    30.3929  30.3929  30.5813  30.5813  30.8366  30.8366  31.1555  31.1555
    33.5448  33.5448  34.7895  34.7895  36.0970  36.0970  36.8409  36.8410
    37.5830  37.5831  38.6604  38.6605  38.6638  38.6638  40.0607  40.0607
    40.8581  40.8582  40.8625  40.8625  41.0595  41.0596  41.6631  41.6638
    41.8003

          k =-0.4319 0.0000 0.0000 (  5496 PWs)   bands (ev):

   -50.7453 -50.7453 -50.6986 -50.6986 -50.5947 -50.5947 -50.5918 -50.5918
   -30.1647 -30.1647 -30.1583 -30.1583 -18.0985 -18.0985 -17.8595 -17.8595
   -17.8195 -17.8195 -17.7609 -17.7609 -17.7160 -17.7160 -17.6503 -17.6503
   -17.6125 -17.6125 -17.5832 -17.5832 -17.5361 -17.5361 -17.5086 -17.5086
   -17.5031 -17.5031 -17.4952 -17.4952  -3.2921  -3.2921  -3.2633  -3.2633
    -3.2359  -3.2359  -3.2131  -3.2131  -3.1121  -3.1121  -3.0875  -3.0875
    20.4672  20.4672  20.5033  20.5033  21.1014  21.1014  21.1390  21.1390
    21.4189  21.4189  21.6488  21.6488  21.9375  21.9375  22.0565  22.0565
    22.1792  22.1792  22.3239  22.3239  22.3776  22.3776  22.6303  22.6303
    22.8285  22.8285  23.2394  23.2394  23.5544  23.5544  23.8128  23.8128
    23.8826  23.8826  24.6352  24.6352  24.8694  24.8694  25.4327  25.4327
    25.5023  25.5023  27.1060  27.1060  27.3155  27.3155  28.3109  28.3109
    28.7977  28.7977  29.2434  29.2434  29.5652  29.5652  29.6924  29.6924
    30.0377  30.0377  30.5316  30.5316  30.9744  30.9744  31.5021  31.5021
    31.6295  31.6295  31.8476  31.8476  35.3326  35.3326  36.6701  36.6702
    37.1919  37.1919  37.9460  37.9460  38.5963  38.5963  39.7256  39.7256
    40.8997  40.8997  41.1692  41.1693  41.4133  41.4134  41.6323  41.6324
    41.8872

          k =-0.4319 0.0000 0.1157 (  5472 PWs)   bands (ev):

   -50.7395 -50.7395 -50.6949 -50.6949 -50.5917 -50.5917 -50.5870 -50.5870
   -30.1642 -30.1642 -30.1574 -30.1574 -18.0926 -18.0926 -17.8783 -17.8783
   -17.7907 -17.7907 -17.7598 -17.7598 -17.7085 -17.7085 -17.6383 -17.6383
   -17.6216 -17.6216 -17.5903 -17.5903 -17.5183 -17.5183 -17.5070 -17.5070
   -17.5032 -17.5032 -17.4882 -17.4882  -3.2922  -3.2922  -3.2552  -3.2552
    -3.2323  -3.2323  -3.2118  -3.2118  -3.1098  -3.1098  -3.0859  -3.0859
    20.4302  20.4302  20.6019  20.6019  20.9494  20.9494  21.2547  21.2547
    21.4063  21.4063  21.7326  21.7326  21.8455  21.8455  22.0545  22.0545
    22.2050  22.2050  22.4258  22.4258  22.4730  22.4730  22.6529  22.6529
    22.8947  22.8947  23.1759  23.1759  23.5980  23.5980  23.6819  23.6819
    23.9308  23.9308  24.5956  24.5956  24.7499  24.7499  25.2272  25.2272
    25.4753  25.4753  26.3679  26.3679  27.8012  27.8012  28.8289  28.8289
    28.9729  28.9729  29.2705  29.2705  29.3310  29.3310  29.4951  29.4951
    30.1314  30.1314  30.6447  30.6447  31.1354  31.1354  31.1653  31.1653
    31.6159  31.6159  32.5207  32.5207  34.5090  34.5090  36.7835  36.7836
    37.7725  37.7726  38.2009  38.2010  38.3982  38.3982  39.3958  39.3959
    40.6421  40.6421  40.8629  40.8630  41.3309  41.3310  41.8601  41.8603
    42.1299

          k =-0.4319 0.0000-0.2314 (  5448 PWs)   bands (ev):

   -50.7365 -50.7365 -50.6890 -50.6890 -50.5881 -50.5881 -50.5827 -50.5827
   -30.1644 -30.1644 -30.1559 -30.1559 -18.0852 -18.0852 -17.8958 -17.8958
   -17.7786 -17.7786 -17.7324 -17.7324 -17.7211 -17.7211 -17.6242 -17.6242
   -17.6185 -17.6185 -17.5995 -17.5995 -17.5123 -17.5123 -17.5041 -17.5041
   -17.4978 -17.4978 -17.4781 -17.4781  -3.2984  -3.2984  -3.2452  -3.2452
    -3.2225  -3.2225  -3.2150  -3.2150  -3.1088  -3.1088  -3.0812  -3.0812
    20.3712  20.3712  20.8226  20.8226  20.9139  20.9139  21.0355  21.0355
    21.4719  21.4719  21.7242  21.7242  21.9017  21.9017  22.2215  22.2215
    22.3074  22.3074  22.3918  22.3918  22.4894  22.4894  22.5904  22.5904
    23.0779  23.0779  23.1665  23.1665  23.3173  23.3173  23.6013  23.6013
    24.2493  24.2493  24.5097  24.5097  24.5754  24.5754  24.9991  24.9991
    25.4311  25.4311  26.0746  26.0746  28.0389  28.0389  28.9285  28.9285
    29.1049  29.1049  29.1947  29.1947  29.3041  29.3041  29.3770  29.3770
    30.5346  30.5346  30.7087  30.7087  30.7697  30.7697  31.4260  31.4260
    31.7585  31.7585  33.2521  33.2521  33.4033  33.4033  36.9944  36.9945
    37.8229  37.8230  38.3486  38.3486  38.3731  38.3732  39.8208  39.8209
    39.9900  39.9901  40.6719  40.6720  40.9214  40.9214  41.9580  41.9581
    42.4281

          k =-0.4319 0.2250 0.0000 (  5474 PWs)   bands (ev):

   -50.7303 -50.7303 -50.7055 -50.7055 -50.5891 -50.5891 -50.5883 -50.5883
   -30.1636 -30.1636 -30.1597 -30.1597 -17.9779 -17.9779 -17.8369 -17.8369
   -17.8358 -17.8358 -17.7389 -17.7389 -17.7236 -17.7236 -17.6643 -17.6643
   -17.6248 -17.6248 -17.6218 -17.6218 -17.5606 -17.5606 -17.5197 -17.5197
   -17.5004 -17.5004 -17.4856 -17.4856  -3.2917  -3.2917  -3.2815  -3.2815
    -3.2301  -3.2301  -3.2180  -3.2180  -3.1144  -3.1144  -3.1077  -3.1077
    20.8717  20.8717  20.8758  20.8758  21.2263  21.2263  21.3991  21.3991
    21.5913  21.5913  21.6990  21.6990  22.0947  22.0947  22.2146  22.2146
    22.3240  22.3240  22.5069  22.5069  22.5375  22.5375  22.7169  22.7169
    22.9277  22.9277  23.0179  23.0179  23.2597  23.2597  23.6150  23.6150
    23.9774  23.9774  24.4000  24.4000  24.7137  24.7137  25.1255  25.1255
    25.3620  25.3620  26.7733  26.7733  27.3753  27.3753  27.7517  27.7517
    28.6056  28.6056  28.6290  28.6290  29.4723  29.4723  29.6074  29.6074
    30.0280  30.0280  30.1841  30.1841  30.4448  30.4448  30.6627  30.6627
    32.4802  32.4802  32.6171  32.6171  34.0014  34.0014  34.5021  34.5021
    38.4317  38.4317  39.2184  39.2185  40.1254  40.1254  40.8190  40.8191
    41.2123  41.2124  41.5249  41.5251  41.5507  41.5509  42.2809  42.2855
    42.2941

          k =-0.4319 0.2250 0.1157 (  5470 PWs)   bands (ev):

   -50.7284 -50.7284 -50.7059 -50.7059 -50.5920 -50.5920 -50.5847 -50.5847
   -30.1634 -30.1634 -30.1598 -30.1598 -17.9793 -17.9793 -17.8418 -17.8418
   -17.8230 -17.8230 -17.7563 -17.7563 -17.7266 -17.7266 -17.6669 -17.6669
   -17.6193 -17.6193 -17.5883 -17.5883 -17.5641 -17.5641 -17.5233 -17.5233
   -17.5082 -17.5082 -17.4870 -17.4870  -3.2937  -3.2937  -3.2754  -3.2754
    -3.2304  -3.2304  -3.2218  -3.2218  -3.1151  -3.1151  -3.1060  -3.1060
    20.7467  20.7467  20.9997  20.9997  21.2357  21.2357  21.5036  21.5036
    21.6255  21.6255  21.7644  21.7644  21.8951  21.8951  22.1650  22.1650
    22.3130  22.3130  22.4981  22.4981  22.6451  22.6451  22.8388  22.8388
    22.9048  22.9048  23.1023  23.1023  23.4012  23.4012  23.5180  23.5180
    23.9737  23.9737  24.2947  24.2947  24.6083  24.6083  25.0332  25.0332
    25.3950  25.3950  26.1374  26.1374  27.5197  27.5197  28.0959  28.0959
    28.5852  28.5852  28.7347  28.7347  29.2440  29.2440  29.7148  29.7148
    29.9550  29.9550  30.2884  30.2884  30.4041  30.4041  30.8166  30.8166
    32.4463  32.4463  32.9751  32.9751  33.5179  33.5179  35.3399  35.3400
    38.3539  38.3539  38.6573  38.6574  39.8537  39.8537  40.5440  40.5440
    40.6623  40.6623  41.6452  41.6453  41.9519  41.9520  42.5028  42.5035
    42.5957

          k =-0.4319 0.2250-0.2314 (  5492 PWs)   bands (ev):

   -50.7331 -50.7331 -50.7097 -50.7097 -50.5945 -50.5945 -50.5898 -50.5898
   -30.1639 -30.1639 -30.1606 -30.1606 -17.9830 -17.9830 -17.8445 -17.8445
   -17.8181 -17.8181 -17.7642 -17.7642 -17.7534 -17.7534 -17.6717 -17.6717
   -17.5926 -17.5926 -17.5849 -17.5849 -17.5694 -17.5694 -17.5435 -17.5435
   -17.5071 -17.5071 -17.4968 -17.4968  -3.3008  -3.3008  -3.2753  -3.2753
    -3.2307  -3.2307  -3.2288  -3.2288  -3.1166  -3.1166  -3.1071  -3.1071
    20.6586  20.6586  21.1929  21.1929  21.2724  21.2724  21.3937  21.3937
    21.6530  21.6530  21.8027  21.8027  21.8715  21.8715  22.2070  22.2070
    22.3259  22.3259  22.4511  22.4511  22.5128  22.5128  22.9792  22.9792
    23.0584  23.0584  23.2345  23.2345  23.2974  23.2974  23.5900  23.5900
    23.8171  23.8171  24.3935  24.3935  24.4145  24.4145  24.9023  24.9023
    25.4876  25.4876  25.7055  25.7055  27.5528  27.5528  28.1422  28.1422
    28.7116  28.7116  28.7535  28.7535  29.2739  29.2739  29.4811  29.4811
    29.9955  29.9955  30.3095  30.3095  30.7303  30.7303  30.8028  30.8028
    32.5948  32.5948  32.7805  32.7805  33.5708  33.5708  36.3776  36.3776
    37.4785  37.4785  38.4648  38.4648  39.5217  39.5218  40.0821  40.0821
    40.6221  40.6222  41.8419  41.8420  42.4670  42.4676  42.5768  42.5778
    42.7082

     the Fermi energy is    32.9610 ev

!    total energy              =   -2783.02839201 Ry
     Harris-Foulkes estimate   =   -2783.02841237 Ry
     estimated scf accuracy    <       0.00002581 Ry

     The total energy is the sum of the following terms:

     one-electron contribution =    -193.41798744 Ry
     hartree contribution      =     322.83683846 Ry
     xc contribution           =    -269.26226538 Ry
     ewald contribution        =   -2642.95337566 Ry
     smearing contrib. (-TS)   =      -0.23160199 Ry

     convergence has been achieved in  10 iterations

     Forces acting on atoms (Ry/au):

     atom    1 type  1   force =     0.00000000   -0.03719257   -0.00822424
     atom    2 type  1   force =     0.00000000    0.03719257    0.00822424
     atom    3 type  1   force =     0.00000000   -0.03719257    0.00822424
     atom    4 type  1   force =     0.00000000    0.03719257   -0.00822424
     atom    5 type  1   force =     0.00000000    0.05044677   -0.07745959
     atom    6 type  1   force =     0.00000000   -0.05044677    0.07745959
     atom    7 type  1   force =     0.00000000    0.05044677    0.07745959
     atom    8 type  1   force =     0.00000000   -0.05044677   -0.07745959
     atom    9 type  2   force =     0.00000000   -0.07811612    0.00942188
     atom   10 type  2   force =     0.00000000    0.07811612   -0.00942188
     atom   11 type  2   force =     0.00000000   -0.07811612   -0.00942188
     atom   12 type  2   force =     0.00000000    0.07811612    0.00942188

     Total force =     0.254454     Total SCF correction =     0.000000


     entering subroutine stress ...

          total   stress  (Ry/bohr**3)                   (kbar)     P=  956.36
   0.00711541   0.00000000   0.00000000       1046.71      0.00      0.00
   0.00000000   0.00593211   0.00000000          0.00    872.64      0.00
   0.00000000   0.00000000   0.00645616          0.00      0.00    949.73


     Writing output data file Prototype-La-oP12-Co2Si.save
 
     init_run     :      4.69s CPU      5.71s WALL (       2 calls)
     electrons    :   1461.27s CPU   1934.93s WALL (       5 calls)
     update_pot   :      1.90s CPU      1.93s WALL (       3 calls)
     forces       :      5.02s CPU      6.40s WALL (       5 calls)
     stress       :     14.74s CPU     17.42s WALL (       5 calls)

     Called by init_run:
     wfcinit      :      3.78s CPU      4.79s WALL (       2 calls)
     potinit      :      0.43s CPU      0.43s WALL (       2 calls)

     Called by electrons:
     c_bands      :   1423.05s CPU   1862.98s WALL (      47 calls)
     sum_band     :     37.32s CPU     58.84s WALL (      47 calls)
     v_of_rho     :      0.11s CPU      0.13s WALL (      52 calls)
     mix_rho      :      0.15s CPU      0.21s WALL (      47 calls)

     Called by c_bands:
     init_us_2    :      1.33s CPU      1.73s WALL (    1272 calls)
     ccgdiagg     :   1300.42s CPU   1686.27s WALL (     658 calls)
     wfcrot       :    124.98s CPU    178.56s WALL (     670 calls)

     Called by *cgdiagg:
     h_psi        :    861.67s CPU   1153.01s WALL (  475012 calls)
     cdiaghg      :      6.97s CPU      8.60s WALL (     670 calls)

     Called by h_psi:
     add_vuspsi   :    125.72s CPU    143.97s WALL (  475012 calls)

     General routines
     calbec       :    381.73s CPU    470.41s WALL (  949474 calls)
     fft          :      0.32s CPU      0.46s WALL (     231 calls)
     fftw         :    520.02s CPU    724.58s WALL ( 1209532 calls)
     davcio       :      0.75s CPU      2.45s WALL (    1836 calls)
 
     Parallel routines
     fft_scatter  :    317.20s CPU    468.68s WALL ( 1209763 calls)
 
     PWSCF        : 24m48.12s CPU    32m49.64s WALL

 
   This run was terminated on:   2:49:40  23Mar2018            

=------------------------------------------------------------------------------=
   JOB DONE.
=------------------------------------------------------------------------------=
