
     Program PWSCF v.5.0.2 starts on 22Mar2018 at 12: 4:22 

     This program is part of the open-source Quantum ESPRESSO suite
     for quantum simulation of materials; please cite
         "P. Giannozzi et al., J. Phys.:Condens. Matter 21 395502 (2009);
          URL http://www.quantum-espresso.org", 
     in publications or presentations arising from this work. More details at
     http://www.quantum-espresso.org/quote.php

     Parallel version (MPI), running on     4 processors
     R & G space division:  proc/nbgrp/npool/nimage =       4

     Current dimensions of program PWSCF are:
     Max number of different atomic species (ntypx) = 10
     Max number of k-points (npk) =  40000
     Max angular momentum in pseudopotentials (lmaxx) =  3
     Waiting for input...
     Reading input from standard input

     Subspace diagonalization in iterative solution of the eigenvalue problem:
     a serial algorithm will be used

 
     Parallelization info
     --------------------
     sticks:   dense  smooth     PW     G-vecs:    dense   smooth      PW
     Min         207     207     61                 7381     7381    1191
     Max         208     208     62                 7386     7386    1192
     Sum         829     829    247                29529    29529    4767
 


     bravais-lattice index     =            0
     lattice parameter (alat)  =       7.0151  a.u.
     unit-cell volume          =     862.2778 (a.u.)^3
     number of atoms/cell      =           12
     number of atomic types    =            2
     number of electrons       =       272.00
     number of Kohn-Sham states=          163
     kinetic-energy cutoff     =      40.0000  Ry
     charge density cutoff     =     160.0000  Ry
     convergence threshold     =      1.0E-04
     mixing beta               =       0.7000
     number of iterations used =            8  plain     mixing
     Exchange-correlation      = SLA-PZ-NOGX-NOGC ( 1 1 0 0 0)
     EXX-fraction              =        0.00
     nstep                     =           50


     celldm(1)=   7.015105  celldm(2)=   0.000000  celldm(3)=   0.000000
     celldm(4)=   0.000000  celldm(5)=   0.000000  celldm(6)=   0.000000

     crystal axes: (cart. coord. in units of alat)
               a(1) = (   1.000000   0.000000   0.000000 )  
               a(2) = (   0.000000   1.315963   0.000000 )  
               a(3) = (   0.000000   0.000000   1.898020 )  

     reciprocal axes: (cart. coord. in units 2 pi/alat)
               b(1) = (  1.000000  0.000000  0.000000 )  
               b(2) = (  0.000000  0.759900  0.000000 )  
               b(3) = (  0.000000  0.000000  0.526865 )  


     PseudoPot. # 1 for Yb read from file:
     /home/jld5415/pp.La/Yb.UPF
     MD5 check sum: 3e859b81cc28c53ec6aa3a2e888efcdf
     Pseudo is Norm-conserving, Zval = 24.0
     Generated in analytical, separable form
     Using radial grid of 1269 points,  6 beta functions with: 
                l(1) =   0
                l(2) =   0
                l(3) =   1
                l(4) =   1
                l(5) =   2
                l(6) =   3

     PseudoPot. # 2 for Dy read from file:
     /home/jld5415/pp.La/Dy.UPF
     MD5 check sum: 9597327bec62616a94a14d07f3fd9936
     Pseudo is Norm-conserving, Zval = 20.0
     Generated in analytical, separable form
     Using radial grid of 1265 points,  6 beta functions with: 
                l(1) =   0
                l(2) =   0
                l(3) =   1
                l(4) =   1
                l(5) =   2
                l(6) =   3

     atomic species   valence    mass     pseudopotential
        Co            24.00    58.93320     Yb( 1.00)
        Si            20.00    28.08550     Dy( 1.00)

      8 Sym. Ops., with inversion, found ( 6 have fractional translation)



   Cartesian axes

     site n.     atom                  positions (alat units)
         1           Co  tau(   1) = (   0.7500000   1.0875135   0.8270358  )
         2           Co  tau(   2) = (   0.2500000   0.2284499   1.0709846  )
         3           Co  tau(   3) = (   0.7500000   0.4295318   0.1219744  )
         4           Co  tau(   4) = (   0.2500000   0.8864316   1.7760460  )
         5           Co  tau(   5) = (   0.2500000   0.7067855   0.5358966  )
         6           Co  tau(   6) = (   0.7500000   0.6091779   1.3621238  )
         7           Co  tau(   7) = (   0.2500000   0.0488038   0.4131136  )
         8           Co  tau(   8) = (   0.7500000   1.2671596   1.4849068  )
         9           Si  tau(   9) = (   0.2500000   0.2669484   1.6960710  )
        10           Si  tau(  10) = (   0.7500000   1.0490149   0.2019494  )
        11           Si  tau(  11) = (   0.2500000   0.9249301   1.1509596  )
        12           Si  tau(  12) = (   0.7500000   0.3910333   0.7470608  )

     number of k points=    12  gaussian smearing, width (Ry)=  0.1000
                       cart. coord. in units 2pi/alat
        k(    1) = (   0.0000000   0.0000000   0.0000000), wk =   0.0833333
        k(    2) = (   0.0000000   0.0000000   0.1317162), wk =   0.1666667
        k(    3) = (   0.0000000   0.0000000  -0.2634324), wk =   0.0833333
        k(    4) = (   0.0000000   0.2532999   0.0000000), wk =   0.1666667
        k(    5) = (   0.0000000   0.2532999   0.1317162), wk =   0.3333333
        k(    6) = (   0.0000000   0.2532999  -0.2634324), wk =   0.1666667
        k(    7) = (  -0.5000000   0.0000000   0.0000000), wk =   0.0833333
        k(    8) = (  -0.5000000   0.0000000   0.1317162), wk =   0.1666667
        k(    9) = (  -0.5000000   0.0000000  -0.2634324), wk =   0.0833333
        k(   10) = (  -0.5000000   0.2532999   0.0000000), wk =   0.1666667
        k(   11) = (  -0.5000000   0.2532999   0.1317162), wk =   0.3333333
        k(   12) = (  -0.5000000   0.2532999  -0.2634324), wk =   0.1666667

     Dense  grid:    29529 G-vectors     FFT dimensions: (  30,  40,  54)

     Largest allocated arrays     est. size (Mb)     dimensions
        Kohn-Sham Wavefunctions         2.29 Mb     (    922,  163)
        NL pseudopotentials             3.38 Mb     (    922,  240)
        Each V/rho on FFT grid          0.26 Mb     (  16800)
        Each G-vector array             0.06 Mb     (   7386)
        G-vector shells                 0.06 Mb     (   7386)
     Largest temporary arrays     est. size (Mb)     dimensions
        Each subspace H/S matrix        0.41 Mb     ( 163, 163)
        Each <psi_i|beta_j> matrix      0.60 Mb     (    240,  163)
        Arrays for rho mixing           2.05 Mb     (  16800,   8)

     Initial potential from superposition of free atoms

     Starting from uniform charge
     Starting wfc are    0 randomized atomic wfcs

     total cpu time spent up to now is        3.2 secs

     Self-consistent Calculation

     iteration #  1     ecut=    40.00 Ry     beta=0.70
     CG style diagonalization
     ethr =  1.00E-02,  avg # of iterations = 19.9

     total cpu time spent up to now is       68.8 secs

     total energy              =   -3494.52172054 Ry
     Harris-Foulkes estimate   =   -4975.88436165 Ry
     estimated scf accuracy    <    1832.75456513 Ry

     iteration #  2     ecut=    40.00 Ry     beta=0.70
     CG style diagonalization
     c_bands:  5 eigenvalues not converged
     ethr =  1.00E-02,  avg # of iterations = 15.8

     total cpu time spent up to now is      119.1 secs

     total energy              =   -3801.56492012 Ry
     Harris-Foulkes estimate   =   -4834.98855843 Ry
     estimated scf accuracy    <    1900.70110898 Ry

     iteration #  3     ecut=    40.00 Ry     beta=0.70
     CG style diagonalization
     ethr =  1.00E-02,  avg # of iterations =  9.6

     total cpu time spent up to now is      152.9 secs

     total energy              =   -4251.55495309 Ry
     Harris-Foulkes estimate   =   -4348.51468201 Ry
     estimated scf accuracy    <     179.99661378 Ry

     iteration #  4     ecut=    40.00 Ry     beta=0.70
     CG style diagonalization
     ethr =  1.00E-02,  avg # of iterations =  4.9

     total cpu time spent up to now is      169.3 secs

     total energy              =   -4292.97316510 Ry
     Harris-Foulkes estimate   =   -4301.75889470 Ry
     estimated scf accuracy    <      19.64203700 Ry

     iteration #  5     ecut=    40.00 Ry     beta=0.70
     CG style diagonalization
     ethr =  7.22E-03,  avg # of iterations =  3.6

     total cpu time spent up to now is      180.7 secs

     total energy              =   -4296.80290308 Ry
     Harris-Foulkes estimate   =   -4297.37607466 Ry
     estimated scf accuracy    <       1.10404904 Ry

     iteration #  6     ecut=    40.00 Ry     beta=0.70
     CG style diagonalization
     c_bands:  1 eigenvalues not converged
     ethr =  4.06E-04,  avg # of iterations =  4.4

     total cpu time spent up to now is      194.7 secs

     total energy              =   -4297.11289937 Ry
     Harris-Foulkes estimate   =   -4297.22217622 Ry
     estimated scf accuracy    <       0.20874697 Ry

     iteration #  7     ecut=    40.00 Ry     beta=0.70
     CG style diagonalization
     c_bands:  1 eigenvalues not converged
     ethr =  7.67E-05,  avg # of iterations =  4.1

     total cpu time spent up to now is      208.4 secs

     total energy              =   -4297.16006190 Ry
     Harris-Foulkes estimate   =   -4297.18024803 Ry
     estimated scf accuracy    <       0.03172096 Ry

     iteration #  8     ecut=    40.00 Ry     beta=0.70
     CG style diagonalization
     c_bands:  1 eigenvalues not converged
     c_bands:  1 eigenvalues not converged
     c_bands:  1 eigenvalues not converged
     c_bands:  1 eigenvalues not converged
     ethr =  1.17E-05,  avg # of iterations =  4.0

     total cpu time spent up to now is      222.3 secs

     total energy              =   -4297.16742632 Ry
     Harris-Foulkes estimate   =   -4297.16832490 Ry
     estimated scf accuracy    <       0.00174973 Ry

     iteration #  9     ecut=    40.00 Ry     beta=0.70
     CG style diagonalization
     c_bands:  1 eigenvalues not converged
     c_bands:  2 eigenvalues not converged
     ethr =  6.43E-07,  avg # of iterations =  4.3

     total cpu time spent up to now is      236.2 secs

     total energy              =   -4297.16796109 Ry
     Harris-Foulkes estimate   =   -4297.16809727 Ry
     estimated scf accuracy    <       0.00026656 Ry

     iteration # 10     ecut=    40.00 Ry     beta=0.70
     CG style diagonalization
     c_bands:  1 eigenvalues not converged
     ethr =  9.80E-08,  avg # of iterations =  3.6

     total cpu time spent up to now is      247.8 secs

     End of self-consistent calculation

          k = 0.0000 0.0000 0.0000 (  3675 PWs)   bands (ev):

   -68.3646 -68.3603 -68.3474 -68.3086 -68.1067 -68.0549 -68.0109 -68.0043
   -30.5912 -30.5825 -30.5600 -30.5407 -27.5575 -27.5572 -27.5278 -27.4979
   -27.4838 -27.4560 -27.4450 -27.4345 -27.3881 -27.3789 -27.3356 -27.2858
   -27.2660 -27.2569 -27.1439 -27.1432 -27.1255 -27.1168 -27.0458 -27.0362
   -27.0288 -26.9709 -26.8543 -26.8388   1.6122   1.7017   1.7167   1.7232
     1.7409   1.7467   1.7707   1.7894   2.1037   2.1817   2.2147   2.3149
    26.7030  26.7548  26.7718  26.8180  26.8680  27.1717  27.1791  27.2504
    27.5948  27.6785  27.8132  27.9105  28.1188  28.4207  28.4585  28.8598
    28.9281  29.0334  29.0509  29.0592  29.2248  29.2826  29.3442  29.4345
    29.6665  29.7184  29.9724  30.0154  30.1483  30.1625  30.1996  30.3655
    30.5437  30.5972  31.1874  31.3911  31.4395  31.4773  31.6492  31.7352
    31.7469  35.5863  36.0289  36.0680  38.6194  39.3246  39.6488  39.7804
    39.9385  40.7686  41.3657  41.3844  41.6188  41.8311  41.9717  42.0827
    42.4126  42.8223  43.3705  43.5174  43.5804  43.6453  43.7736  44.0406
    44.7242  47.2511  47.6147  47.9150  48.0440  48.9778  49.6619  52.6271
    52.9963  53.7197  53.8490  54.2029  54.2865  54.3036  54.7095  55.3356
    55.8598  56.1434  56.5988  56.7812  56.7954  56.9803  57.1073  57.2355
    57.4184  57.5251  57.7101  57.9857  58.2454  58.7991  59.0936  59.1243
    59.1405  59.6526  60.0429  60.9283  61.4193  61.8721  61.9643  62.2163
    62.2176  62.7407  62.8508  63.2042  63.4682  63.4844  63.5848  65.0420
    65.0671  65.1793  65.6596

          k = 0.0000 0.0000 0.1317 (  3675 PWs)   bands (ev):

   -68.3858 -68.3524 -68.3263 -68.3205 -68.1137 -68.1000 -68.0182 -67.9495
   -30.5865 -30.5752 -30.5672 -30.5475 -27.5479 -27.5476 -27.5196 -27.5043
   -27.5020 -27.4773 -27.4307 -27.4294 -27.4015 -27.3844 -27.3269 -27.2943
   -27.2703 -27.2606 -27.1459 -27.1323 -27.1240 -27.1163 -27.0447 -27.0331
   -27.0063 -26.9779 -26.8548 -26.8429   1.6269   1.6847   1.7240   1.7269
     1.7379   1.7403   1.7802   1.7888   2.1112   2.1521   2.2435   2.2991
    26.5489  26.6885  26.7425  26.7921  27.0419  27.0696  27.1524  27.2979
    27.7947  27.8319  27.8740  28.1040  28.2516  28.4036  28.4564  28.7096
    28.8590  28.9688  29.0582  29.1504  29.1679  29.2653  29.3090  29.3770
    29.6384  29.6808  29.8081  29.8674  30.0788  30.1406  30.2628  30.3800
    30.5864  30.9052  31.1287  31.2897  31.4527  31.5943  31.6934  31.7793
    31.8212  34.1884  36.2937  37.0727  38.4573  38.4647  40.0004  40.1920
    40.3163  40.9108  41.1744  41.2289  41.3612  41.6462  41.8329  41.9528
    42.0755  42.3918  43.4365  43.4928  43.6864  43.9537  44.1940  44.4939
    46.3603  46.9122  47.5473  47.7485  48.1853  49.2781  49.6851  51.1053
    52.2951  53.2674  53.5287  53.7571  54.6598  54.7305  54.9095  55.6400
    55.7424  55.8420  56.1775  56.3536  56.6424  56.6708  57.5381  57.5448
    57.7148  57.9602  58.1237  58.2955  58.3389  58.6872  58.9341  59.0355
    59.4937  59.6021  60.3583  60.7613  61.1267  61.5168  61.5608  61.8878
    61.9639  62.2249  63.4502  63.6915  64.0804  64.1576  64.3723  64.7340
    64.7798  65.6089  65.6386

          k = 0.0000 0.0000-0.2634 (  3690 PWs)   bands (ev):

   -68.3869 -68.3869 -68.3432 -68.3432 -68.1053 -68.1053 -68.0040 -68.0040
   -30.5822 -30.5822 -30.5622 -30.5622 -27.5267 -27.5267 -27.5197 -27.5197
   -27.5122 -27.5122 -27.4203 -27.4203 -27.4001 -27.4001 -27.3239 -27.3239
   -27.2647 -27.2647 -27.1399 -27.1399 -27.1185 -27.1185 -27.0459 -27.0459
   -26.9932 -26.9932 -26.8523 -26.8523   1.6542   1.6542   1.7326   1.7326
     1.7355   1.7355   1.7769   1.7769   2.1193   2.1193   2.2697   2.2697
    26.5369  26.5369  26.7100  26.7100  27.0161  27.0161  27.5942  27.5942
    27.6322  27.6322  28.2642  28.2642  28.2643  28.2643  28.6254  28.6254
    28.8682  28.8682  29.0143  29.0143  29.1013  29.1013  29.3026  29.3026
    29.6951  29.6951  29.9382  29.9382  30.0231  30.0231  30.2063  30.2063
    30.9726  30.9726  31.0303  31.0303  31.5357  31.5357  31.7670  31.7670
    32.7272  32.7272  37.0657  37.0657  38.0775  38.0775  40.6241  40.6241
    40.6251  40.6251  41.0092  41.0092  41.2650  41.2650  41.7385  41.7385
    41.9914  41.9914  43.5414  43.5414  43.7220  43.7220  45.6196  45.6196
    46.5390  46.5390  47.8509  47.8509  48.7104  48.7104  49.5744  49.5744
    52.7407  52.7407  53.6891  53.6891  54.1557  54.1557  54.9444  54.9444
    55.8958  55.8958  55.9764  55.9764  56.9149  56.9149  57.5626  57.5626
    58.0585  58.0584  58.3867  58.3867  58.8625  58.8625  59.0434  59.0434
    60.0856  60.0856  60.1966  60.1966  60.6341  60.6342  61.3704  61.3704
    62.8821  62.8822  63.3446  63.3446  64.3222  64.3222  64.4129  64.4131
    65.5769  65.5774  65.7208

          k = 0.0000 0.2533 0.0000 (  3664 PWs)   bands (ev):

   -68.3616 -68.3318 -68.3310 -68.3176 -68.0781 -68.0403 -68.0080 -68.0018
   -30.5983 -30.5981 -30.5464 -30.5463 -27.5465 -27.5331 -27.5134 -27.4987
   -27.4828 -27.4653 -27.4367 -27.4065 -27.3946 -27.3930 -27.2968 -27.2888
   -27.2165 -27.1703 -27.1410 -27.1374 -27.1237 -27.1032 -27.0768 -27.0584
   -27.0056 -26.9731 -26.9258 -26.9091   1.6305   1.6584   1.7325   1.7380
     1.7418   1.7490   1.7528   1.7772   2.0941   2.1241   2.2438   2.2801
    26.8228  27.0083  27.0701  27.1203  27.3028  27.4043  27.4506  27.5028
    27.6141  27.8271  27.8650  28.0398  28.1215  28.2274  28.5996  28.6148
    28.6510  28.8078  28.8737  29.0940  29.2129  29.2424  29.4640  29.5057
    29.6802  29.7340  29.8603  29.8801  29.9800  30.0500  30.5054  30.5668
    30.6268  30.6306  31.0016  31.0829  31.1542  31.6254  31.6917  31.8432
    32.5576  35.0013  36.2318  36.2904  38.4160  38.9483  39.1537  39.5559
    39.9207  40.1481  40.3850  40.6739  40.8768  41.8449  41.9555  41.9568
    42.2093  42.5048  42.9818  43.0037  43.0157  43.3074  43.3165  43.6624
    44.8534  45.3319  48.3040  49.3187  49.8165  50.9065  51.8733  52.5702
    52.5993  52.8073  53.6547  53.9440  54.1047  54.3037  54.4697  55.2517
    55.4936  55.8008  56.2356  56.4990  56.6747  56.7032  57.6212  57.8234
    57.9016  58.3007  58.3628  58.9877  59.0627  59.5515  59.5565  59.6067
    60.3429  60.4230  60.4893  60.5085  60.8545  61.2934  61.7545  61.9240
    62.0999  62.3603  62.9809  63.1588  64.3872  64.6760  64.7075  64.7794
    64.7983  65.6252  66.0737

          k = 0.0000 0.2533 0.1317 (  3669 PWs)   bands (ev):

   -68.3730 -68.3562 -68.3213 -68.3096 -68.0817 -68.0723 -68.0072 -67.9992
   -30.6021 -30.5951 -30.5522 -30.5479 -27.5364 -27.5309 -27.5163 -27.5061
   -27.4996 -27.4743 -27.4253 -27.4046 -27.4007 -27.3954 -27.2970 -27.2878
   -27.2160 -27.1753 -27.1363 -27.1335 -27.1229 -27.1117 -27.0797 -27.0631
   -26.9949 -26.9761 -26.9218 -26.9126   1.6352   1.6602   1.7313   1.7332
     1.7430   1.7465   1.7540   1.7712   2.0959   2.1152   2.2440   2.2751
    26.8055  26.9235  26.9576  27.0610  27.3082  27.3125  27.5219  27.6176
    27.7283  28.0046  28.0140  28.0279  28.1707  28.2202  28.4679  28.5741
    28.8474  28.9104  29.0157  29.0479  29.2346  29.2824  29.3804  29.4283
    29.5407  29.7060  29.7276  29.9197  29.9408  30.0624  30.2610  30.4508
    30.6260  30.8033  31.0228  31.0318  31.2595  31.5834  31.7059  31.8228
    32.8355  34.8916  35.3353  36.7843  37.9926  38.7146  39.7346  39.7662
    39.9806  40.1294  40.1775  40.6544  40.7920  41.3713  41.8246  42.0857
    42.3067  42.5524  42.9223  42.9594  43.3300  43.3632  43.5607  43.8740
    45.2794  46.1184  48.7823  49.0371  49.6860  50.8419  51.3807  51.8768
    51.9826  52.5034  52.8907  53.1899  54.1028  54.3865  55.4624  55.7023
    55.7436  56.1551  56.2611  56.5211  56.5606  57.0078  57.3316  57.6687
    57.7601  58.4501  58.5486  59.0400  59.1004  59.4711  59.5867  59.8463
    60.1876  60.3757  60.4239  60.8357  60.8958  61.4546  61.7835  61.8242
    62.1263  62.3070  62.7467  63.2734  63.7543  64.5005  64.6386  65.0164
    65.1767  65.4094  65.7170

          k = 0.0000 0.2533-0.2634 (  3666 PWs)   bands (ev):

   -68.3635 -68.3635 -68.3086 -68.3086 -68.0662 -68.0662 -68.0122 -68.0122
   -30.5968 -30.5968 -30.5509 -30.5509 -27.5190 -27.5190 -27.5188 -27.5188
   -27.4961 -27.4961 -27.4132 -27.4132 -27.3990 -27.3990 -27.2855 -27.2855
   -27.2000 -27.2000 -27.1315 -27.1315 -27.1217 -27.1217 -27.0713 -27.0713
   -26.9807 -26.9807 -26.9161 -26.9161   1.6496   1.6496   1.7351   1.7351
     1.7394   1.7394   1.7648   1.7648   2.1052   2.1052   2.2606   2.2606
    26.8468  26.8468  26.8776  26.8776  27.4275  27.4275  27.5304  27.5304
    27.8743  27.8743  28.1649  28.1649  28.2901  28.2901  28.5599  28.5599
    28.9491  28.9491  29.0586  29.0586  29.1609  29.1609  29.3068  29.3068
    29.6714  29.6714  29.8211  29.8211  29.8290  29.8290  30.3077  30.3077
    30.8270  30.8270  30.9208  30.9208  31.4654  31.4654  31.7641  31.7641
    33.6662  33.6662  36.0162  36.0162  38.2638  38.2638  39.9902  39.9902
    40.1132  40.1132  40.3866  40.3866  40.7867  40.7867  41.9500  41.9500
    42.6039  42.6039  42.7721  42.7721  43.5560  43.5560  43.7709  43.7709
    46.8929  46.8929  48.3323  48.3323  50.1396  50.1396  50.9707  50.9707
    52.0768  52.0768  53.4758  53.4758  53.5268  53.5268  55.6104  55.6104
    56.1465  56.1465  56.5330  56.5330  57.0229  57.0229  57.5141  57.5141
    57.7301  57.7301  58.8434  58.8434  59.7039  59.7039  59.7764  59.7764
    60.5441  60.5441  60.5953  60.5954  61.3321  61.3321  61.6957  61.6957
    62.2697  62.2697  62.2984  62.2985  63.9365  63.9366  65.1836  65.1839
    65.6104  65.6108  65.8751

          k =-0.5000 0.0000 0.0000 (  3722 PWs)   bands (ev):

   -68.3973 -68.3973 -68.3831 -68.3831 -68.1167 -68.1167 -68.0697 -68.0697
   -30.6192 -30.6192 -30.5856 -30.5856 -27.5828 -27.5828 -27.5343 -27.5343
   -27.4995 -27.4995 -27.4363 -27.4363 -27.3840 -27.3840 -27.3247 -27.3247
   -27.2633 -27.2633 -27.1347 -27.1347 -27.0925 -27.0925 -27.0364 -27.0364
   -26.9923 -26.9923 -26.8577 -26.8577   1.6258   1.6258   1.6910   1.6910
     1.7760   1.7760   1.8068   1.8068   2.1765   2.1765   2.2221   2.2221
    27.0502  27.0502  27.1988  27.1988  27.4031  27.4031  27.7603  27.7603
    28.0154  28.0154  28.1529  28.1529  28.3019  28.3019  28.3487  28.3487
    28.5374  28.5374  28.8447  28.8447  28.8481  28.8481  29.0530  29.0530
    29.2458  29.2458  29.5158  29.5158  29.8755  29.8755  30.1225  30.1225
    30.1518  30.1518  30.9838  30.9838  31.6098  31.6098  31.7846  31.7846
    35.7178  35.7178  38.0806  38.0806  38.1177  38.1177  40.0915  40.0915
    40.4669  40.4669  40.8103  40.8103  41.3383  41.3383  41.8704  41.8704
    42.1099  42.1099  43.0900  43.0900  43.4721  43.4721  43.8770  43.8770
    44.1545  44.1545  44.6334  44.6334  49.2799  49.2799  50.9041  50.9041
    51.3327  51.3327  52.5793  52.5793  53.0952  53.0952  55.0281  55.0281
    56.5046  56.5046  57.3486  57.3486  57.4053  57.4053  57.7502  57.7502
    58.0270  58.0270  58.7504  58.7504  58.8573  58.8573  60.2121  60.2121
    61.0720  61.0720  61.6612  61.6613  62.2664  62.2666  62.5404  62.5405
    62.5479  62.5480  63.5333  63.5333  63.6175  63.6175  64.6220  64.6221
    64.7379  64.7380  65.0283

          k =-0.5000 0.0000 0.1317 (  3710 PWs)   bands (ev):

   -68.3966 -68.3966 -68.3582 -68.3582 -68.1108 -68.1108 -68.0531 -68.0531
   -30.6172 -30.6172 -30.5807 -30.5807 -27.5792 -27.5792 -27.5392 -27.5392
   -27.4855 -27.4855 -27.4500 -27.4500 -27.3684 -27.3684 -27.3341 -27.3341
   -27.2581 -27.2581 -27.1266 -27.1266 -27.0970 -27.0970 -27.0316 -27.0316
   -26.9884 -26.9884 -26.8584 -26.8584   1.6293   1.6293   1.6991   1.6991
     1.7800   1.7800   1.8059   1.8059   2.1787   2.1787   2.2208   2.2208
    27.0848  27.0848  27.2011  27.2011  27.3794  27.3794  27.7989  27.7989
    27.9536  27.9536  28.0778  28.0778  28.2894  28.2894  28.4605  28.4605
    28.5162  28.5162  28.8050  28.8050  28.8859  28.8859  29.1438  29.1438
    29.2578  29.2578  29.5530  29.5530  29.8768  29.8768  30.0162  30.0162
    30.3238  30.3238  30.9461  30.9461  31.4978  31.4978  31.7620  31.7620
    35.7195  35.7195  37.1806  37.1806  38.5779  38.5779  40.2114  40.2114
    40.7950  40.7950  40.8731  40.8731  41.3758  41.3758  41.6594  41.6594
    42.2069  42.2069  43.0243  43.0243  43.3941  43.3941  43.8349  43.8349
    44.2567  44.2567  45.3408  45.3408  48.2176  48.2176  51.0531  51.0531
    52.1205  52.1205  52.8137  52.8137  52.9064  52.9064  54.5645  54.5645
    56.1382  56.1382  56.6555  56.6555  57.3613  57.3613  58.0162  58.0162
    58.3056  58.3056  58.7740  58.7740  59.3992  59.3992  59.9810  59.9810
    61.2815  61.2816  61.3543  61.3543  61.7976  61.7977  62.4266  62.4267
    63.1361  63.1362  63.4987  63.4987  63.9366  63.9367  64.2654  64.2656
    64.7024  64.7025  65.1154

          k =-0.5000 0.0000-0.2634 (  3680 PWs)   bands (ev):

   -68.3575 -68.3575 -68.3426 -68.3426 -68.0587 -68.0587 -68.0485 -68.0485
   -30.6075 -30.6075 -30.5760 -30.5760 -27.5734 -27.5734 -27.5157 -27.5157
   -27.5089 -27.5089 -27.4380 -27.4380 -27.3484 -27.3484 -27.3477 -27.3477
   -27.2552 -27.2552 -27.1089 -27.1089 -27.1085 -27.1085 -27.0235 -27.0235
   -26.9769 -26.9769 -26.8531 -26.8531   1.6370   1.6370   1.7079   1.7079
     1.7855   1.7855   1.8133   1.8133   2.1850   2.1850   2.2211   2.2211
    27.0622  27.0622  27.2334  27.2334  27.4763  27.4763  27.7108  27.7108
    27.9464  27.9464  27.9506  27.9506  28.3841  28.3841  28.4506  28.4506
    28.5345  28.5345  28.8150  28.8150  28.8842  28.8842  29.2449  29.2449
    29.3521  29.3521  29.6228  29.6228  29.7611  29.7611  29.8463  29.8463
    30.5811  30.5811  30.9709  30.9709  31.2873  31.2873  31.7445  31.7445
    35.7644  35.7644  36.6500  36.6500  38.8421  38.8421  40.0480  40.0480
    40.9038  40.9038  41.1514  41.1514  41.3130  41.3130  41.4372  41.4372
    42.6001  42.6001  42.9473  42.9473  43.3710  43.3710  43.7279  43.7279
    44.5294  44.5294  46.3496  46.3496  46.8492  46.8492  51.3347  51.3347
    52.3298  52.3298  52.8802  52.8802  52.9069  52.9069  55.0218  55.0218
    55.3074  55.3074  56.0736  56.0736  56.9922  56.9922  58.2982  58.2982
    58.5659  58.5659  59.1183  59.1183  59.5612  59.5612  60.4437  60.4438
    60.5219  60.5219  61.5677  61.5677  61.7281  61.7282  62.2936  62.2936
    62.9172  62.9173  63.4476  63.4477  63.5680  63.5680  64.3540  64.3541
    64.5944  64.5945  65.3759

          k =-0.5000 0.2533 0.0000 (  3686 PWs)   bands (ev):

   -68.3629 -68.3629 -68.3544 -68.3544 -68.0676 -68.0676 -68.0560 -68.0560
   -30.6139 -30.6139 -30.5925 -30.5925 -27.5542 -27.5542 -27.5300 -27.5300
   -27.4641 -27.4641 -27.4317 -27.4317 -27.3437 -27.3437 -27.3223 -27.3223
   -27.2104 -27.2104 -27.1334 -27.1334 -27.1051 -27.1051 -27.0595 -27.0595
   -26.9741 -26.9741 -26.9221 -26.9221   1.6393   1.6393   1.6735   1.6735
     1.7896   1.7896   1.7986   1.7986   2.1798   2.1798   2.1998   2.1998
    27.2490  27.2490  27.3868  27.3868  27.6916  27.6916  27.7788  27.7788
    28.0202  28.0202  28.1258  28.1258  28.5544  28.5544  28.5906  28.5906
    28.6940  28.6940  28.8622  28.8622  28.9485  28.9485  29.1494  29.1494
    29.4214  29.4214  29.4510  29.4510  29.8061  29.8061  30.0783  30.0783
    30.3342  30.3342  30.5730  30.5730  31.1864  31.1864  31.4946  31.4946
    36.1861  36.1861  37.5441  37.5441  38.4612  38.4612  39.2075  39.2075
    40.2357  40.2357  40.2710  40.2710  41.4941  41.4941  41.6234  41.6234
    42.1577  42.1577  42.4436  42.4436  42.7000  42.7000  43.0909  43.0909
    45.5059  45.5059  45.5640  45.5640  47.7224  47.7224  48.2691  48.2691
    52.9295  52.9295  54.2935  54.2935  55.0554  55.0554  55.7851  55.7851
    56.6356  56.6356  57.2198  57.2198  57.7536  57.7536  58.2158  58.2158
    58.5630  58.5630  59.2642  59.2642  60.0101  60.0101  60.2981  60.2981
    60.7684  60.7684  61.0802  61.0802  61.7680  61.7681  61.8353  61.8354
    62.9104  62.9105  63.1920  63.1921  63.7635  63.7636  64.2255  64.2257
    65.4836  65.4838  65.9771

          k =-0.5000 0.2533 0.1317 (  3692 PWs)   bands (ev):

   -68.3681 -68.3681 -68.3596 -68.3596 -68.0786 -68.0786 -68.0554 -68.0554
   -30.6094 -30.6094 -30.5986 -30.5986 -27.5599 -27.5599 -27.5317 -27.5317
   -27.4555 -27.4555 -27.4353 -27.4353 -27.3448 -27.3448 -27.3309 -27.3309
   -27.2067 -27.2067 -27.1265 -27.1265 -27.1029 -27.1029 -27.0648 -27.0648
   -26.9780 -26.9780 -26.9250 -26.9250   1.6447   1.6447   1.6750   1.6750
     1.7854   1.7854   1.7951   1.7951   2.1729   2.1729   2.1993   2.1993
    27.2043  27.2043  27.4710  27.4710  27.6595  27.6595  27.8107  27.8107
    28.0205  28.0205  28.1285  28.1285  28.3488  28.3488  28.6161  28.6161
    28.8025  28.8025  28.8502  28.8502  28.9910  28.9910  29.2527  29.2527
    29.4189  29.4189  29.5602  29.5602  29.8262  29.8262  29.9604  29.9604
    30.3551  30.3551  30.5652  30.5652  31.1014  31.1014  31.4922  31.4922
    36.1656  36.1656  36.9779  36.9779  38.6189  38.6189  39.3579  39.3579
    40.3172  40.3172  40.5616  40.5616  41.1648  41.1648  41.9271  41.9271
    41.9852  41.9852  42.5065  42.5065  42.6226  42.6226  43.0560  43.0560
    45.4952  45.4952  46.0540  46.0540  47.0997  47.0997  49.2279  49.2279
    52.9381  52.9381  53.3581  53.3581  54.6002  54.6002  55.8521  55.8521
    56.2347  56.2347  57.6341  57.6341  57.9757  57.9757  58.5171  58.5171
    58.6995  58.6995  59.2017  59.2017  59.8185  59.8185  60.3637  60.3637
    60.8676  60.8676  61.1940  61.1940  61.4042  61.4042  61.9172  61.9172
    62.5185  62.5186  63.0993  63.0994  63.4405  63.4407  64.9265  64.9265
    65.4321  65.4324  65.6548

          k =-0.5000 0.2533-0.2634 (  3704 PWs)   bands (ev):

   -68.3839 -68.3839 -68.3673 -68.3673 -68.0920 -68.0920 -68.0649 -68.0649
   -30.6095 -30.6095 -30.6034 -30.6034 -27.5671 -27.5671 -27.5263 -27.5263
   -27.4623 -27.4623 -27.4353 -27.4353 -27.3511 -27.3511 -27.3405 -27.3405
   -27.2024 -27.2024 -27.1136 -27.1136 -27.1133 -27.1133 -27.0685 -27.0685
   -26.9777 -26.9777 -26.9278 -26.9278   1.6425   1.6425   1.6767   1.6767
     1.7805   1.7805   1.7927   1.7927   2.1705   2.1705   2.1922   2.1922
    27.1642  27.1642  27.5404  27.5404  27.6946  27.6946  27.8832  27.8832
    27.8842  27.8842  28.1724  28.1724  28.2246  28.2246  28.6384  28.6384
    28.8622  28.8622  28.8880  28.8880  28.9202  28.9202  29.4448  29.4448
    29.4911  29.4911  29.6139  29.6139  29.7356  29.7356  29.9019  29.9019
    30.2388  30.2388  30.7705  30.7705  30.9222  30.9222  31.4809  31.4809
    36.3074  36.3074  36.3977  36.3977  38.8117  38.8117  39.2577  39.2577
    40.5874  40.5874  40.6166  40.6166  41.1544  41.1544  41.6291  41.6291
    42.2880  42.2880  42.3552  42.3552  42.8081  42.8081  42.9728  42.9728
    45.7272  45.7272  45.9794  45.9794  46.9972  46.9972  50.3524  50.3524
    52.0015  52.0015  53.1364  53.1364  54.0526  54.0526  55.3984  55.3984
    56.5171  56.5171  57.8451  57.8451  58.4390  58.4390  58.7606  58.7606
    58.9161  58.9161  58.9793  58.9793  59.5395  59.5395  60.3821  60.3821
    60.7602  60.7603  61.2091  61.2092  61.6771  61.6772  61.7613  61.7613
    62.1172  62.1172  62.8016  62.8017  63.6144  63.6145  64.7144  64.7145
    65.3762  65.3765  65.6792

     the Fermi energy is    58.0843 ev

!    total energy              =   -4297.16798487 Ry
     Harris-Foulkes estimate   =   -4297.16802686 Ry
     estimated scf accuracy    <       0.00004791 Ry

     The total energy is the sum of the following terms:

     one-electron contribution =     -64.49279211 Ry
     hartree contribution      =     429.55399071 Ry
     xc contribution           =    -369.36347236 Ry
     ewald contribution        =   -4292.35547065 Ry
     smearing contrib. (-TS)   =      -0.51024046 Ry

     convergence has been achieved in  10 iterations

     Forces acting on atoms (Ry/au):

     atom    1 type  1   force =     0.00000000   -0.04490683   -0.09785505
     atom    2 type  1   force =     0.00000000    0.04490683    0.09785505
     atom    3 type  1   force =     0.00000000   -0.04490683    0.09785505
     atom    4 type  1   force =     0.00000000    0.04490683   -0.09785505
     atom    5 type  1   force =     0.00000000    0.07481654   -0.17129424
     atom    6 type  1   force =     0.00000000   -0.07481654    0.17129424
     atom    7 type  1   force =     0.00000000    0.07481654    0.17129424
     atom    8 type  1   force =     0.00000000   -0.07481654   -0.17129424
     atom    9 type  2   force =     0.00000000   -0.16986822    0.01704144
     atom   10 type  2   force =     0.00000000    0.16986822   -0.01704144
     atom   11 type  2   force =     0.00000000   -0.16986822   -0.01704144
     atom   12 type  2   force =     0.00000000    0.16986822    0.01704144

     Total force =     0.550189     Total SCF correction =     0.000000


     entering subroutine stress ...

          total   stress  (Ry/bohr**3)                   (kbar)     P= 7938.27
   0.05754107   0.00000000   0.00000000       8464.58      0.00      0.00
   0.00000000   0.05122164   0.00000000          0.00   7534.96      0.00
   0.00000000   0.00000000   0.05312703          0.00      0.00   7815.26


     BFGS Geometry Optimization

     number of scf cycles    =   1
     number of bfgs steps    =   0

     enthalpy new            =   -4297.1679848713 Ry

     new trust radius        =       0.5000000000 bohr
     new conv_thr            =       0.0001000000 Ry

     new unit-cell volume =   1085.72654 a.u.^3 (   160.88807 Ang^3 )

CELL_PARAMETERS (alat=  7.01510508)
   1.085136619   0.000000000   0.000000000
   0.000000000   1.415695669   0.000000000
   0.000000000   0.000000000   2.047215628

ATOMIC_POSITIONS (crystal)
Co       0.750000000   0.826113106   0.435301043
Co       0.250000000   0.173886894   0.564698957
Co       0.750000000   0.326113106   0.064698957
Co       0.250000000   0.673886894   0.935301043
Co       0.250000000   0.537565643   0.281583612
Co       0.750000000   0.462434357   0.718416388
Co       0.250000000   0.037565643   0.218416388
Co       0.750000000   0.962434357   0.781583612
Si       0.250000000   0.201764988   0.893675748
Si       0.750000000   0.798235012   0.106324252
Si       0.250000000   0.701764988   0.606324252
Si       0.750000000   0.298235012   0.393675748



     Writing output data file Prototype-La-oP12-Co2Si.save
     NEW-OLD atomic charge density approx. for the potential
     NEW k-points:
        k(    1) = (   0.0000000   0.0000000   0.0000000), wk =   0.0833333
        k(    2) = (   0.0000000   0.0000000   0.1221171), wk =   0.1666667
        k(    3) = (   0.0000000   0.0000000  -0.2442342), wk =   0.0833333
        k(    4) = (   0.0000000   0.2354555   0.0000000), wk =   0.1666667
        k(    5) = (   0.0000000   0.2354555   0.1221171), wk =   0.3333333
        k(    6) = (   0.0000000   0.2354555  -0.2442342), wk =   0.1666667
        k(    7) = (  -0.4607715   0.0000000   0.0000000), wk =   0.0833333
        k(    8) = (  -0.4607715   0.0000000   0.1221171), wk =   0.1666667
        k(    9) = (  -0.4607715   0.0000000  -0.2442342), wk =   0.0833333
        k(   10) = (  -0.4607715   0.2354555   0.0000000), wk =   0.1666667
        k(   11) = (  -0.4607715   0.2354555   0.1221171), wk =   0.3333333
        k(   12) = (  -0.4607715   0.2354555  -0.2442342), wk =   0.1666667

     total cpu time spent up to now is      252.4 secs

     Self-consistent Calculation

     iteration #  1     ecut=    40.00 Ry     beta=0.70
     CG style diagonalization
     c_bands:  1 eigenvalues not converged
     ethr =  1.00E-06,  avg # of iterations = 22.5

     total cpu time spent up to now is      325.7 secs

     total energy              =   -4290.76785595 Ry
     Harris-Foulkes estimate   =   -4327.14603289 Ry
     estimated scf accuracy    <      45.55499344 Ry

     iteration #  2     ecut=    40.00 Ry     beta=0.70
     CG style diagonalization
     ethr =  1.00E-02,  avg # of iterations =  4.0

     total cpu time spent up to now is      338.3 secs

     total energy              =   -4303.68682424 Ry
     Harris-Foulkes estimate   =   -4306.76964988 Ry
     estimated scf accuracy    <       4.41198204 Ry

     iteration #  3     ecut=    40.00 Ry     beta=0.70
     CG style diagonalization
     ethr =  1.62E-03,  avg # of iterations =  3.7

     total cpu time spent up to now is      349.4 secs

     total energy              =   -4304.87857481 Ry
     Harris-Foulkes estimate   =   -4305.09125030 Ry
     estimated scf accuracy    <       0.39024483 Ry

     iteration #  4     ecut=    40.00 Ry     beta=0.70
     CG style diagonalization
     ethr =  1.43E-04,  avg # of iterations =  3.5

     total cpu time spent up to now is      361.3 secs

     total energy              =   -4304.97456617 Ry
     Harris-Foulkes estimate   =   -4304.98510595 Ry
     estimated scf accuracy    <       0.01765956 Ry

     iteration #  5     ecut=    40.00 Ry     beta=0.70
     CG style diagonalization
     ethr =  6.49E-06,  avg # of iterations =  4.3

     total cpu time spent up to now is      375.5 secs

     total energy              =   -4304.98153502 Ry
     Harris-Foulkes estimate   =   -4304.98350654 Ry
     estimated scf accuracy    <       0.00388810 Ry

     iteration #  6     ecut=    40.00 Ry     beta=0.70
     CG style diagonalization
     ethr =  1.43E-06,  avg # of iterations =  3.7

     total cpu time spent up to now is      387.3 secs

     total energy              =   -4304.98233854 Ry
     Harris-Foulkes estimate   =   -4304.98246384 Ry
     estimated scf accuracy    <       0.00024210 Ry

     iteration #  7     ecut=    40.00 Ry     beta=0.70
     CG style diagonalization
     ethr =  8.90E-08,  avg # of iterations =  3.8

     total cpu time spent up to now is      399.1 secs

     End of self-consistent calculation

          k = 0.0000 0.0000 0.0000 (  3675 PWs)   bands (ev):

   -78.7137 -78.6994 -78.6557 -78.5911 -78.4348 -78.3463 -78.3434 -78.3253
   -40.1654 -40.1621 -40.1450 -40.1424 -38.6722 -38.6627 -38.6624 -38.6594
   -38.6515 -38.6503 -38.6259 -38.6141 -38.6016 -38.5894 -38.5551 -38.5524
   -38.4349 -38.4333 -38.3695 -38.3690 -38.3650 -38.3639 -38.3076 -38.3038
   -38.2977 -38.2835 -38.2447 -38.2379  -7.6463  -7.6203  -7.6069  -7.6019
    -7.5965  -7.5960  -7.5957  -7.5799  -7.3930  -7.3628  -7.3431  -7.2905
    17.3521  17.3864  17.4177  17.4186  17.4592  17.6036  17.6222  17.7054
    17.8402  17.8603  17.9450  18.0649  18.1584  18.3006  18.3174  18.4597
    18.5136  18.5944  18.6760  18.6848  18.7562  18.7659  18.8627  18.8729
    18.9413  19.0877  19.1488  19.2434  19.2556  19.2611  19.3024  19.4280
    19.4638  19.5341  19.8701  19.9432  20.0480  20.0538  20.0896  20.2306
    23.1130  26.3434  26.4075  27.2565  29.5804  29.6396  29.7757  30.4803
    30.5980  31.1994  31.2283  31.7038  31.7051  31.8902  31.9516  32.0444
    32.3055  32.8382  32.8796  33.1427  33.1902  33.4206  33.4294  33.7034
    34.1128  35.8095  36.1458  36.5018  36.8393  36.9966  37.6349  40.6501
    40.6888  41.0784  41.4025  41.4745  41.5947  41.7281  42.4637  43.2254
    43.4057  43.7317  44.2994  44.3095  44.3154  44.6045  45.1652  45.3056
    45.6720  45.9243  47.0505  47.1310  47.3243  47.4432  47.4546  48.1821
    48.4073  48.5413  48.7303  49.3430  49.4723  50.4197  50.5079  50.8741
    51.3251  51.5651  51.8289  51.8841  51.9487  52.0007  52.4714  53.0145
    53.1347  53.1428  53.7793

          k = 0.0000 0.0000 0.1221 (  3675 PWs)   bands (ev):

   -78.7403 -78.6852 -78.6407 -78.6243 -78.4421 -78.4097 -78.3411 -78.2347
   -40.1718 -40.1585 -40.1462 -40.1410 -38.6699 -38.6622 -38.6594 -38.6581
   -38.6540 -38.6534 -38.6231 -38.6151 -38.6010 -38.5939 -38.5553 -38.5552
   -38.4368 -38.4347 -38.3736 -38.3692 -38.3628 -38.3568 -38.3071 -38.3007
   -38.2926 -38.2875 -38.2461 -38.2389  -7.6356  -7.6175  -7.6090  -7.6028
    -7.5976  -7.5941  -7.5917  -7.5834  -7.3909  -7.3818  -7.3273  -7.3014
    17.2840  17.3130  17.4355  17.4360  17.5446  17.5719  17.6078  17.6649
    17.9014  17.9659  17.9953  18.1366  18.1989  18.2250  18.3009  18.4654
    18.5691  18.5744  18.6015  18.7099  18.7374  18.7700  18.8210  18.8346
    18.9683  19.0870  19.1220  19.1328  19.2636  19.2751  19.3466  19.3717
    19.4747  19.6665  19.8434  19.8676  20.0747  20.0852  20.0915  20.1971
    23.3367  25.0735  27.4502  27.5659  29.0005  29.3294  30.3154  30.5673
    30.6157  31.2224  31.2822  31.3455  31.6084  31.6883  31.9184  32.0103
    32.1903  32.4750  33.0727  33.2948  33.4192  33.6204  33.6691  33.7950
    35.2709  35.5224  36.2549  36.2772  36.6332  37.3643  37.7026  39.0190
    40.0569  40.8887  40.8940  41.6837  42.1445  42.6494  42.8943  43.2218
    43.4126  43.7554  43.8757  43.9545  44.2963  44.5752  45.3434  45.4601
    45.5056  45.7775  46.7188  46.8225  47.1631  47.5940  47.8378  48.4202
    48.5362  48.7841  49.1894  49.3182  49.6954  50.1719  50.2780  50.8430
    50.9023  51.3326  51.9849  52.0958  52.3983  52.4755  52.4818  53.0344
    53.1209  53.5394  53.9445

          k = 0.0000 0.0000-0.2442 (  3690 PWs)   bands (ev):

   -78.7505 -78.7505 -78.6475 -78.6475 -78.4411 -78.4411 -78.3156 -78.3156
   -40.1756 -40.1756 -40.1487 -40.1487 -38.6637 -38.6637 -38.6625 -38.6625
   -38.6553 -38.6553 -38.6179 -38.6179 -38.5999 -38.5999 -38.5599 -38.5599
   -38.4407 -38.4407 -38.3705 -38.3705 -38.3595 -38.3595 -38.3086 -38.3086
   -38.2913 -38.2913 -38.2451 -38.2451  -7.6212  -7.6212  -7.6163  -7.6163
    -7.5963  -7.5963  -7.5898  -7.5898  -7.4007  -7.4007  -7.3202  -7.3202
    17.2655  17.2655  17.4190  17.4190  17.5085  17.5085  17.8214  17.8214
    17.8382  17.8382  18.1269  18.1269  18.2394  18.2394  18.3661  18.3661
    18.5662  18.5662  18.6546  18.6546  18.7188  18.7188  18.7820  18.7820
    19.0905  19.0905  19.1409  19.1409  19.2192  19.2192  19.2943  19.2943
    19.6922  19.6922  19.7744  19.7744  20.0918  20.0918  20.1389  20.1389
    23.9991  23.9991  27.9431  27.9431  28.7786  28.7786  30.5386  30.5386
    31.0321  31.0321  31.1185  31.1185  31.6998  31.6998  31.9142  31.9142
    32.0423  32.0423  33.3841  33.3841  33.3862  33.3862  34.6669  34.6669
    35.2075  35.2075  36.3625  36.3625  37.0602  37.0602  37.7380  37.7380
    40.2912  40.2912  41.4647  41.4647  41.8924  41.8924  43.1701  43.1701
    43.5134  43.5134  44.0134  44.0134  44.6384  44.6384  45.4256  45.4256
    46.0412  46.0412  46.1635  46.1635  47.4952  47.4952  48.0343  48.0343
    48.8687  48.8687  49.4556  49.4556  49.8743  49.8743  50.3018  50.3018
    51.3088  51.3088  52.2253  52.2254  52.2815  52.2815  53.1923  53.1924
    53.4434  53.4434  53.9173

          k = 0.0000 0.2355 0.0000 (  3664 PWs)   bands (ev):

   -78.6988 -78.6475 -78.6408 -78.6373 -78.3923 -78.3214 -78.3116 -78.3084
   -40.1684 -40.1620 -40.1443 -40.1230 -38.6714 -38.6632 -38.6582 -38.6554
   -38.6503 -38.6484 -38.6222 -38.6176 -38.5901 -38.5895 -38.5547 -38.5520
   -38.3941 -38.3882 -38.3711 -38.3648 -38.3635 -38.3620 -38.3277 -38.3221
   -38.2881 -38.2840 -38.2660 -38.2645  -7.6328  -7.6311  -7.6152  -7.6028
    -7.5906  -7.5891  -7.5860  -7.5790  -7.3888  -7.3793  -7.3190  -7.3072
    17.4103  17.5221  17.5422  17.5881  17.6675  17.7187  17.7582  17.8395
    17.8721  17.9726  18.0256  18.0897  18.1453  18.2057  18.3901  18.4229
    18.4799  18.5153  18.5666  18.6681  18.7243  18.7436  18.8430  18.9262
    18.9854  19.0183  19.1009  19.1445  19.1483  19.2271  19.4850  19.5197
    19.5238  19.5464  19.7307  19.7802  19.8540  20.0436  20.1172  20.1199
    23.9050  25.8860  26.8655  27.1148  28.7565  29.1143  29.8231  30.3108
    30.5017  30.6436  30.6648  31.0399  31.4058  31.9375  32.0939  32.1467
    32.2989  32.6083  32.7807  32.8371  32.8823  33.1626  33.2402  33.2439
    34.3573  34.6987  36.7730  37.3034  38.0136  38.9971  39.7577  40.1976
    40.2295  40.8216  41.2788  41.3064  41.6100  41.6437  41.7481  43.1121
    43.2914  43.4259  43.6274  43.9135  44.3969  44.4369  45.5931  46.2519
    46.5806  46.6943  47.2614  47.2846  47.6733  48.3479  48.5169  48.6315
    49.0861  49.1143  49.3599  49.3700  49.3728  49.9750  50.2739  50.3042
    50.6906  50.6949  51.2156  51.3500  52.2413  52.3487  52.6009  52.8005
    53.3649  53.8477  53.9142

          k = 0.0000 0.2355 0.1221 (  3669 PWs)   bands (ev):

   -78.7270 -78.6933 -78.6135 -78.6012 -78.4101 -78.3925 -78.3054 -78.2950
   -40.1658 -40.1606 -40.1512 -40.1368 -38.6679 -38.6637 -38.6593 -38.6558
   -38.6555 -38.6517 -38.6189 -38.6150 -38.5938 -38.5916 -38.5547 -38.5524
   -38.3969 -38.3890 -38.3709 -38.3654 -38.3619 -38.3611 -38.3294 -38.3221
   -38.2872 -38.2862 -38.2660 -38.2644  -7.6298  -7.6257  -7.6119  -7.6071
    -7.6028  -7.5868  -7.5853  -7.5820  -7.3918  -7.3842  -7.3272  -7.3087
    17.4025  17.4806  17.5105  17.5198  17.6537  17.7258  17.7881  17.9104
    17.9216  18.0059  18.0486  18.0920  18.2036  18.2069  18.3606  18.3840
    18.5323  18.5535  18.5973  18.7050  18.7342  18.7730  18.7773  18.9137
    18.9616  18.9869  19.0798  19.1111  19.1138  19.2580  19.3774  19.4615
    19.5573  19.6011  19.7357  19.7412  19.9071  20.0593  20.0911  20.1119
    24.1202  25.7040  26.2287  27.5722  28.3542  29.3961  29.9600  30.4091
    30.4375  30.6361  30.6828  30.9855  31.3702  31.7495  31.9612  32.1920
    32.3241  32.6520  32.6548  32.8250  33.2209  33.3176  33.3261  33.4512
    34.5436  35.1974  37.0819  37.1546  37.8634  38.8138  39.2759  39.7758
    39.7941  40.4546  40.4776  40.6070  41.4884  42.0105  42.9936  43.3671
    43.4743  43.8791  44.0647  44.1574  44.5487  44.9688  45.0537  45.4535
    46.2292  46.3237  46.8503  47.4433  47.7281  48.2839  48.6142  48.7533
    49.2258  49.3675  49.4525  49.7356  49.8918  49.8988  50.1752  50.1775
    50.4132  50.7894  51.1309  51.4962  51.9463  52.2497  52.6582  52.9660
    53.5161  53.8074  54.0193

          k = 0.0000 0.2355-0.2442 (  3666 PWs)   bands (ev):

   -78.7032 -78.7032 -78.5871 -78.5871 -78.3924 -78.3924 -78.3183 -78.3183
   -40.1648 -40.1648 -40.1399 -40.1399 -38.6602 -38.6602 -38.6579 -38.6579
   -38.6576 -38.6576 -38.6160 -38.6160 -38.5938 -38.5938 -38.5514 -38.5514
   -38.3945 -38.3945 -38.3687 -38.3687 -38.3612 -38.3612 -38.3245 -38.3245
   -38.2842 -38.2842 -38.2653 -38.2653  -7.6236  -7.6236  -7.6110  -7.6110
    -7.5890  -7.5890  -7.5885  -7.5885  -7.3868  -7.3868  -7.3178  -7.3178
    17.4324  17.4324  17.4522  17.4522  17.7611  17.7611  17.7739  17.7739
    18.0324  18.0324  18.1388  18.1388  18.2028  18.2028  18.3759  18.3759
    18.5894  18.5894  18.6211  18.6211  18.7322  18.7322  18.8524  18.8524
    18.9988  18.9988  19.0416  19.0416  19.1578  19.1578  19.3837  19.3837
    19.6489  19.6489  19.6769  19.6769  20.0162  20.0162  20.0924  20.0924
    24.7570  24.7570  26.7841  26.7841  28.9557  28.9557  30.2545  30.2545
    30.6190  30.6190  30.8256  30.8256  31.3880  31.3880  32.0940  32.0940
    32.4542  32.4542  32.7801  32.7801  33.4080  33.4080  33.5105  33.5105
    35.6068  35.6068  36.7124  36.7124  38.2486  38.2486  38.7626  38.7626
    40.0570  40.0570  41.0395  41.0395  41.1274  41.1274  43.2827  43.2827
    44.2282  44.2282  44.4255  44.4255  44.5628  44.5628  45.4301  45.4301
    46.0273  46.0273  46.6485  46.6485  48.2795  48.2795  48.8262  48.8262
    49.0846  49.0846  49.7858  49.7858  49.7924  49.7924  50.3320  50.3320
    50.5915  50.5915  51.3561  51.3561  51.9794  51.9794  53.1650  53.1651
    53.5880  53.5883  54.0941

          k =-0.4608 0.0000 0.0000 (  3722 PWs)   bands (ev):

   -78.7592 -78.7592 -78.7228 -78.7228 -78.4556 -78.4556 -78.4521 -78.4521
   -40.1943 -40.1943 -40.1859 -40.1859 -38.6785 -38.6785 -38.6704 -38.6704
   -38.6468 -38.6468 -38.6328 -38.6328 -38.5761 -38.5761 -38.5743 -38.5743
   -38.4433 -38.4433 -38.3700 -38.3700 -38.3639 -38.3639 -38.3079 -38.3079
   -38.2931 -38.2931 -38.2450 -38.2450  -7.6601  -7.6601  -7.6316  -7.6316
    -7.6099  -7.6099  -7.5917  -7.5917  -7.3689  -7.3689  -7.3414  -7.3414
    17.5401  17.5401  17.5846  17.5846  17.7308  17.7308  17.9452  17.9452
    18.1390  18.1390  18.1471  18.1471  18.2284  18.2284  18.2449  18.2449
    18.4173  18.4173  18.5059  18.5059  18.5988  18.5988  18.7659  18.7659
    18.7738  18.7738  18.9106  18.9106  19.1343  19.1343  19.2812  19.2812
    19.3572  19.3572  19.7331  19.7331  19.9998  19.9998  20.2375  20.2375
    26.2163  26.2163  28.3730  28.3730  28.3955  28.3955  30.3996  30.3996
    30.7971  30.7971  31.0636  31.0636  31.7430  31.7430  32.1670  32.1670
    32.2961  32.2961  32.7950  32.7950  33.2431  33.2431  33.5624  33.5624
    33.5934  33.5934  33.9861  33.9861  37.6162  37.6162  38.8642  38.8642
    39.1969  39.1969  40.1570  40.1570  40.3489  40.3489  42.3674  42.3674
    43.7307  43.7307  45.3424  45.3424  45.7546  45.7546  47.1892  47.1892
    47.2286  47.2286  47.6736  47.6736  47.8256  47.8256  48.7882  48.7882
    49.3530  49.3530  49.6493  49.6493  50.6833  50.6834  50.9671  50.9671
    51.2008  51.2008  51.6027  51.6027  51.6579  51.6579  52.6636  52.6636
    53.1940  53.1940  53.8597

          k =-0.4608 0.0000 0.1221 (  3710 PWs)   bands (ev):

   -78.7519 -78.7519 -78.6845 -78.6845 -78.4749 -78.4749 -78.3939 -78.3939
   -40.1892 -40.1892 -40.1754 -40.1754 -38.6782 -38.6782 -38.6661 -38.6661
   -38.6443 -38.6443 -38.6333 -38.6333 -38.5790 -38.5790 -38.5720 -38.5720
   -38.4417 -38.4417 -38.3672 -38.3672 -38.3633 -38.3633 -38.3074 -38.3074
   -38.2904 -38.2904 -38.2454 -38.2454  -7.6531  -7.6531  -7.6284  -7.6284
    -7.6011  -7.6011  -7.5889  -7.5889  -7.3661  -7.3661  -7.3428  -7.3428
    17.5567  17.5567  17.5989  17.5989  17.7434  17.7434  17.9573  17.9573
    18.0545  18.0545  18.0985  18.0985  18.2749  18.2749  18.2806  18.2806
    18.3912  18.3912  18.5312  18.5312  18.5634  18.5634  18.7212  18.7212
    18.8707  18.8707  18.9819  18.9819  19.1306  19.1306  19.2380  19.2380
    19.4115  19.4115  19.7088  19.7088  19.9580  19.9580  20.2289  20.2289
    26.3541  26.3541  27.5713  27.5713  28.8161  28.8161  30.2889  30.2889
    31.0765  31.0765  31.2493  31.2493  31.8271  31.8271  32.1210  32.1210
    32.2931  32.2931  32.7295  32.7295  33.0619  33.0619  33.4431  33.4431
    33.7554  33.7554  34.5659  34.5659  36.8597  36.8597  38.7937  38.7937
    39.7541  39.7541  40.1375  40.1375  40.4990  40.4990  41.5931  41.5931
    44.2291  44.2291  44.6676  44.6676  45.6867  45.6867  47.1890  47.1890
    47.6640  47.6640  48.0166  48.0166  48.2840  48.2840  48.5148  48.5148
    49.4439  49.4439  49.7787  49.7787  49.9848  49.9848  50.7519  50.7519
    51.0267  51.0267  51.7775  51.7775  52.2381  52.2381  52.3106  52.3106
    53.1672  53.1674  53.6209

          k =-0.4608 0.0000-0.2442 (  3680 PWs)   bands (ev):

   -78.6861 -78.6861 -78.6537 -78.6537 -78.4310 -78.4310 -78.3348 -78.3348
   -40.1649 -40.1649 -40.1646 -40.1646 -38.6713 -38.6713 -38.6610 -38.6610
   -38.6421 -38.6421 -38.6305 -38.6305 -38.5768 -38.5768 -38.5709 -38.5709
   -38.4438 -38.4438 -38.3630 -38.3630 -38.3614 -38.3614 -38.3028 -38.3028
   -38.2831 -38.2831 -38.2420 -38.2420  -7.6397  -7.6397  -7.6192  -7.6192
    -7.5932  -7.5932  -7.5750  -7.5750  -7.3561  -7.3561  -7.3416  -7.3416
    17.5590  17.5590  17.6204  17.6204  17.7958  17.7958  17.9509  17.9509
    17.9867  17.9867  18.0416  18.0416  18.2936  18.2936  18.3043  18.3043
    18.3694  18.3694  18.5204  18.5204  18.6114  18.6114  18.7466  18.7466
    18.8858  18.8858  19.0666  19.0666  19.1130  19.1130  19.1564  19.1564
    19.5305  19.5305  19.6851  19.6851  19.8923  19.8923  20.2187  20.2187
    26.7687  26.7687  26.8579  26.8579  28.9748  28.9748  30.1140  30.1140
    31.3353  31.3353  31.3893  31.3893  31.8053  31.8053  32.0457  32.0457
    32.4344  32.4344  32.7315  32.7315  33.0727  33.0727  33.3236  33.3236
    33.8803  33.8803  35.4058  35.4058  35.8077  35.8077  38.9199  38.9199
    39.6190  39.6190  39.9688  39.9688  40.8660  40.8660  41.9272  41.9272
    43.1345  43.1345  44.3486  44.3486  46.7564  46.7564  47.4075  47.4075
    47.6733  47.6733  47.8772  47.8772  48.2772  48.2772  48.8472  48.8472
    48.8680  48.8680  49.9307  49.9308  50.1219  50.1219  50.5208  50.5208
    51.2297  51.2297  51.5701  51.5701  51.9363  51.9363  52.4545  52.4545
    52.8061  52.8061  53.6189

          k =-0.4608 0.2355 0.0000 (  3686 PWs)   bands (ev):

   -78.6904 -78.6904 -78.6804 -78.6804 -78.4105 -78.4105 -78.3861 -78.3861
   -40.1825 -40.1825 -40.1673 -40.1673 -38.6701 -38.6701 -38.6656 -38.6656
   -38.6397 -38.6397 -38.6315 -38.6315 -38.5702 -38.5702 -38.5657 -38.5657
   -38.3960 -38.3960 -38.3672 -38.3672 -38.3661 -38.3661 -38.3255 -38.3255
   -38.2820 -38.2820 -38.2654 -38.2654  -7.6517  -7.6517  -7.6342  -7.6342
    -7.5895  -7.5895  -7.5873  -7.5873  -7.3526  -7.3526  -7.3387  -7.3387
    17.6061  17.6061  17.6993  17.6993  17.9204  17.9204  17.9614  17.9614
    18.1150  18.1150  18.1556  18.1556  18.3718  18.3718  18.3823  18.3823
    18.4710  18.4710  18.5889  18.5889  18.6016  18.6016  18.7442  18.7442
    18.8745  18.8745  18.9322  18.9322  19.0991  19.0991  19.2270  19.2270
    19.4067  19.4067  19.5065  19.5065  19.8160  19.8160  20.0378  20.0378
    26.7438  26.7438  28.0188  28.0188  28.8679  28.8679  29.4321  29.4321
    30.6632  30.6632  30.7180  30.7180  31.7057  31.7057  31.9886  31.9886
    32.3333  32.3333  32.5363  32.5363  32.7023  32.7023  32.9357  32.9357
    34.4026  34.4026  34.5828  34.5828  36.3380  36.3380  36.6902  36.6902
    40.7542  40.7542  42.0250  42.0250  42.6750  42.6750  43.5577  43.5577
    44.0964  44.0964  44.6649  44.6649  45.3680  45.3680  46.6800  46.6800
    47.9565  47.9565  47.9874  47.9874  48.4240  48.4240  48.5351  48.5351
    49.1204  49.1204  49.3377  49.3377  50.2714  50.2714  50.2894  50.2894
    50.7584  50.7584  51.0989  51.0989  52.0188  52.0189  52.8655  52.8655
    53.8616  53.8616  54.0475

          k =-0.4608 0.2355 0.1221 (  3692 PWs)   bands (ev):

   -78.6991 -78.6991 -78.6839 -78.6839 -78.4189 -78.4189 -78.3994 -78.3994
   -40.1858 -40.1858 -40.1692 -40.1692 -38.6719 -38.6719 -38.6659 -38.6659
   -38.6366 -38.6366 -38.6322 -38.6322 -38.5723 -38.5723 -38.5682 -38.5682
   -38.3980 -38.3980 -38.3665 -38.3665 -38.3639 -38.3639 -38.3270 -38.3270
   -38.2838 -38.2838 -38.2670 -38.2670  -7.6432  -7.6432  -7.6359  -7.6359
    -7.5957  -7.5957  -7.5883  -7.5883  -7.3628  -7.3628  -7.3388  -7.3388
    17.6036  17.6036  17.7451  17.7451  17.9137  17.9137  17.9480  17.9480
    18.0887  18.0887  18.1457  18.1457  18.2636  18.2636  18.4140  18.4140
    18.5151  18.5151  18.5605  18.5605  18.6351  18.6351  18.7929  18.7929
    18.9304  18.9304  18.9738  18.9738  19.0976  19.0976  19.1835  19.1835
    19.3913  19.3913  19.5073  19.5073  19.7710  19.7710  20.0385  20.0385
    26.8268  26.8268  27.7222  27.7222  28.7932  28.7932  29.3767  29.3767
    30.8165  30.8165  31.0745  31.0745  31.5875  31.5875  32.0418  32.0418
    32.2094  32.2094  32.5517  32.5517  32.6532  32.6532  32.8744  32.8744
    34.5169  34.5169  34.8658  34.8658  35.9049  35.9049  37.4924  37.4924
    40.6877  40.6877  40.8116  40.8116  42.0499  42.0499  43.3287  43.3287
    44.3024  44.3024  45.6684  45.6684  46.2247  46.2247  46.7316  46.7316
    47.5345  47.5345  47.8670  47.8670  48.3557  48.3557  48.8627  48.8627
    49.2329  49.2329  49.5521  49.5521  49.9164  49.9164  50.0785  50.0786
    50.6222  50.6222  50.8592  50.8592  51.6258  51.6258  53.1807  53.1807
    53.5573  53.5573  53.7866

          k =-0.4608 0.2355-0.2442 (  3704 PWs)   bands (ev):

   -78.7313 -78.7313 -78.6956 -78.6956 -78.4280 -78.4280 -78.4264 -78.4264
   -40.1956 -40.1956 -40.1730 -40.1730 -38.6735 -38.6735 -38.6645 -38.6645
   -38.6389 -38.6389 -38.6328 -38.6328 -38.5754 -38.5754 -38.5726 -38.5726
   -38.4001 -38.4001 -38.3656 -38.3656 -38.3652 -38.3652 -38.3292 -38.3292
   -38.2843 -38.2843 -38.2686 -38.2686  -7.6460  -7.6460  -7.6366  -7.6366
    -7.6013  -7.6013  -7.5895  -7.5895  -7.3657  -7.3657  -7.3492  -7.3492
    17.6017  17.6017  17.8095  17.8095  17.8803  17.8803  17.9822  17.9822
    17.9979  17.9979  18.1675  18.1675  18.1985  18.1985  18.4285  18.4285
    18.5323  18.5323  18.5700  18.5700  18.6091  18.6091  18.8955  18.8955
    18.9431  18.9431  19.0305  19.0305  19.0754  19.0754  19.1613  19.1613
    19.3183  19.3183  19.5926  19.5926  19.6811  19.6811  20.0342  20.0342
    27.0347  27.0347  27.3073  27.3073  28.8847  28.8847  29.1751  29.1751
    31.1657  31.1657  31.2329  31.2329  31.4548  31.4548  31.9586  31.9586
    32.3456  32.3456  32.3746  32.3746  32.7487  32.7487  32.7871  32.7871
    34.7127  34.7127  34.8943  34.8943  35.8544  35.8544  38.3716  38.3716
    39.8164  39.8164  40.3778  40.3778  41.4591  41.4591  42.9610  42.9610
    45.5014  45.5014  45.5361  45.5361  46.8504  46.8504  47.0116  47.0116
    47.3804  47.3804  47.5276  47.5276  48.4887  48.4887  48.9572  48.9572
    49.2428  49.2428  49.5141  49.5141  50.0355  50.0355  50.1004  50.1004
    50.1050  50.1050  50.5386  50.5386  51.4910  51.4910  52.8292  52.8292
    53.6061  53.6062  53.6474

     the Fermi energy is    46.4903 ev

!    total energy              =   -4304.98239206 Ry
     Harris-Foulkes estimate   =   -4304.98241247 Ry
     estimated scf accuracy    <       0.00002534 Ry

     The total energy is the sum of the following terms:

     one-electron contribution =    -507.95925878 Ry
     hartree contribution      =     540.01211260 Ry
     xc contribution           =    -361.16937110 Ry
     ewald contribution        =   -3975.49655251 Ry
     smearing contrib. (-TS)   =      -0.36932227 Ry

     convergence has been achieved in   7 iterations

     Forces acting on atoms (Ry/au):

     atom    1 type  1   force =     0.00000000   -0.03562172   -0.03195303
     atom    2 type  1   force =     0.00000000    0.03562172    0.03195303
     atom    3 type  1   force =     0.00000000   -0.03562172    0.03195303
     atom    4 type  1   force =     0.00000000    0.03562172   -0.03195303
     atom    5 type  1   force =     0.00000000    0.03046604   -0.09060191
     atom    6 type  1   force =     0.00000000   -0.03046604    0.09060191
     atom    7 type  1   force =     0.00000000    0.03046604    0.09060191
     atom    8 type  1   force =     0.00000000   -0.03046604   -0.09060191
     atom    9 type  2   force =     0.00000000   -0.09833777    0.03595178
     atom   10 type  2   force =     0.00000000    0.09833777   -0.03595178
     atom   11 type  2   force =     0.00000000   -0.09833777   -0.03595178
     atom   12 type  2   force =     0.00000000    0.09833777    0.03595178

     Total force =     0.299263     Total SCF correction =     0.000000


     entering subroutine stress ...

          total   stress  (Ry/bohr**3)                   (kbar)     P= 2840.87
   0.02029830   0.00000000   0.00000000       2985.98      0.00      0.00
   0.00000000   0.01841429   0.00000000          0.00   2708.83      0.00
   0.00000000   0.00000000   0.01922300          0.00      0.00   2827.80


     number of scf cycles    =   2
     number of bfgs steps    =   1

     enthalpy old            =   -4297.1679848713 Ry
     enthalpy new            =   -4304.9823920573 Ry

     CASE: enthalpy_new < enthalpy_old

     small trust_radius: resetting bfgs history

     new trust radius        =       3.3441813438 bohr
     new conv_thr            =       0.0000983378 Ry

     new unit-cell volume =   3538.79173 a.u.^3 (   524.39482 Ang^3 )

CELL_PARAMETERS (alat=  7.01510508)
   1.635797243   0.000000000   0.000000000
   0.000000000   2.067421375   0.000000000
   0.000000000   0.000000000   3.031056190

ATOMIC_POSITIONS (crystal)
Co       0.750000000   0.822526275   0.433076124
Co       0.250000000   0.177473725   0.566923876
Co       0.750000000   0.322526275   0.066923876
Co       0.250000000   0.677473725   0.933076124
Co       0.250000000   0.540633336   0.275274916
Co       0.750000000   0.459366664   0.724725084
Co       0.250000000   0.040633336   0.224725084
Co       0.750000000   0.959366664   0.775274916
Si       0.250000000   0.191863140   0.896179104
Si       0.750000000   0.808136860   0.103820896
Si       0.250000000   0.691863140   0.603820896
Si       0.750000000   0.308136860   0.396179104



     Writing output data file Prototype-La-oP12-Co2Si.save
     NEW-OLD atomic charge density approx. for the potential
     NEW k-points:
        k(    1) = (   0.0000000   0.0000000   0.0000000), wk =   0.0833333
        k(    2) = (   0.0000000   0.0000000   0.0824795), wk =   0.1666667
        k(    3) = (   0.0000000   0.0000000  -0.1649590), wk =   0.0833333
        k(    4) = (   0.0000000   0.1612314   0.0000000), wk =   0.1666667
        k(    5) = (   0.0000000   0.1612314   0.0824795), wk =   0.3333333
        k(    6) = (   0.0000000   0.1612314  -0.1649590), wk =   0.1666667
        k(    7) = (  -0.3056614   0.0000000   0.0000000), wk =   0.0833333
        k(    8) = (  -0.3056614   0.0000000   0.0824795), wk =   0.1666667
        k(    9) = (  -0.3056614   0.0000000  -0.1649590), wk =   0.0833333
        k(   10) = (  -0.3056614   0.1612314   0.0000000), wk =   0.1666667
        k(   11) = (  -0.3056614   0.1612314   0.0824795), wk =   0.3333333
        k(   12) = (  -0.3056614   0.1612314  -0.1649590), wk =   0.1666667

     total cpu time spent up to now is      403.8 secs

     Self-consistent Calculation

     iteration #  1     ecut=    40.00 Ry     beta=0.70
     CG style diagonalization
     c_bands:  1 eigenvalues not converged
     c_bands:  3 eigenvalues not converged
     c_bands:  3 eigenvalues not converged
     c_bands:  5 eigenvalues not converged
     c_bands:  2 eigenvalues not converged
     c_bands:  2 eigenvalues not converged
     c_bands:  5 eigenvalues not converged
     c_bands:  4 eigenvalues not converged
     c_bands:  1 eigenvalues not converged
     c_bands:  1 eigenvalues not converged
     c_bands:  2 eigenvalues not converged
     c_bands:  3 eigenvalues not converged
     ethr =  1.00E-06,  avg # of iterations = 36.4

     total cpu time spent up to now is      521.5 secs

     total energy              =   -4141.37444261 Ry
     Harris-Foulkes estimate   =   -4591.66088827 Ry
     estimated scf accuracy    <     559.31232709 Ry

     iteration #  2     ecut=    40.00 Ry     beta=0.70
     CG style diagonalization
     ethr =  1.00E-02,  avg # of iterations =  5.6

     total cpu time spent up to now is      541.6 secs

     total energy              =   -4230.52442348 Ry
     Harris-Foulkes estimate   =   -4243.26376374 Ry
     estimated scf accuracy    <      16.27220809 Ry

     iteration #  3     ecut=    40.00 Ry     beta=0.70
     CG style diagonalization
     ethr =  5.98E-03,  avg # of iterations =  3.8

     total cpu time spent up to now is      554.0 secs

     total energy              =   -4234.47389554 Ry
     Harris-Foulkes estimate   =   -4244.37212388 Ry
     estimated scf accuracy    <      21.18023765 Ry

     iteration #  4     ecut=    40.00 Ry     beta=0.70
     CG style diagonalization
     ethr =  5.98E-03,  avg # of iterations =  3.4

     total cpu time spent up to now is      564.7 secs

     total energy              =   -4238.20434673 Ry
     Harris-Foulkes estimate   =   -4238.40077068 Ry
     estimated scf accuracy    <       0.34951385 Ry

     iteration #  5     ecut=    40.00 Ry     beta=0.70
     CG style diagonalization
     ethr =  1.28E-04,  avg # of iterations =  3.9

     total cpu time spent up to now is      577.2 secs

     total energy              =   -4238.29179899 Ry
     Harris-Foulkes estimate   =   -4238.35739330 Ry
     estimated scf accuracy    <       0.13470469 Ry

     iteration #  6     ecut=    40.00 Ry     beta=0.70
     CG style diagonalization
     ethr =  4.95E-05,  avg # of iterations =  3.4

     total cpu time spent up to now is      588.2 secs

     total energy              =   -4238.31942231 Ry
     Harris-Foulkes estimate   =   -4238.33165222 Ry
     estimated scf accuracy    <       0.02449907 Ry

     iteration #  7     ecut=    40.00 Ry     beta=0.70
     CG style diagonalization
     c_bands:  1 eigenvalues not converged
     c_bands:  1 eigenvalues not converged
     c_bands:  1 eigenvalues not converged
     ethr =  9.01E-06,  avg # of iterations =  3.5

     total cpu time spent up to now is      601.2 secs

     total energy              =   -4238.32480117 Ry
     Harris-Foulkes estimate   =   -4238.32682221 Ry
     estimated scf accuracy    <       0.00357451 Ry

     iteration #  8     ecut=    40.00 Ry     beta=0.70
     CG style diagonalization
     c_bands:  2 eigenvalues not converged
     c_bands:  1 eigenvalues not converged
     ethr =  1.31E-06,  avg # of iterations =  3.6

     total cpu time spent up to now is      612.1 secs

     total energy              =   -4238.32574758 Ry
     Harris-Foulkes estimate   =   -4238.32585352 Ry
     estimated scf accuracy    <       0.00021966 Ry

     iteration #  9     ecut=    40.00 Ry     beta=0.70
     CG style diagonalization
     ethr =  8.08E-08,  avg # of iterations =  3.6

     total cpu time spent up to now is      623.2 secs

     End of self-consistent calculation

          k = 0.0000 0.0000 0.0000 (  3675 PWs)   bands (ev):

  -114.5100-114.4904-114.4704-114.4528-114.4225-114.3969-114.3666-114.3571
   -80.8865 -80.7742 -80.7620 -80.7131 -80.5716 -80.5248 -80.5235 -80.5223
   -80.4666 -80.4566 -80.4518 -80.2925 -80.2798 -80.2425 -80.2249 -80.2170
   -80.0616 -80.0440 -79.9752 -79.8400 -79.6187 -79.6027 -79.5597 -79.4784
   -66.2826 -66.2813 -66.2495 -66.2040 -40.2918 -40.2640 -40.2626 -40.2564
   -40.2409 -40.2238 -40.2229 -40.2188 -40.1526 -40.1370 -40.1207 -40.1145
   -13.7850 -13.6178 -13.5992 -13.5607 -13.5203 -13.4603 -13.4456 -13.4395
   -13.4267 -13.3987 -13.3141 -13.2345 -13.2098 -13.2005 -13.1762 -13.0805
   -13.0699 -12.9710 -12.9559 -12.9478 -12.9429 -12.8755 -12.8512 -12.8268
   -12.7269 -12.6752 -12.6620 -12.6461 -12.5865 -12.5324 -12.4915 -12.4841
   -12.4356 -12.3311 -12.2850 -12.2569 -12.1867 -12.1692 -12.1643 -12.1193
    -0.4924  -0.0173   0.2113   0.5006   0.6229   0.7790   0.8260   0.8763
     3.4950   3.5336   3.5761   3.5963   3.6353   3.6376   3.6428   3.6663
     3.6701   3.6904   3.6973   3.7054   3.7160   3.8039   3.8042   3.8293
     3.8374   3.8931   3.9211   4.0391   6.8727   7.4277   7.5367   7.7461
     7.7619   8.3542   8.4072   8.6124   8.7983   9.0542   9.0847   9.4126
     9.7716   9.7973  10.0096  10.1638  10.1677  10.2362  10.6725  10.6727
    10.7589  10.7818  11.1743  11.2724  11.3247  11.7221  11.8673  12.1391
    13.7138  14.3868  14.4123  14.7701  14.9501  15.1473  15.2070  15.2571
    15.9281  15.9732  16.3009  16.4230  16.7760  17.1015  17.2759  17.3143
    17.8218  17.8614  17.8920

          k = 0.0000 0.0000 0.0825 (  3675 PWs)   bands (ev):

  -114.5364-114.5078-114.4884-114.4438-114.4221-114.3887-114.3519-114.3476
   -80.9136 -80.8751 -80.8226 -80.7510 -80.6893 -80.6236 -80.5532 -80.4904
   -80.4839 -80.3976 -80.3407 -80.3318 -80.2635 -80.2109 -80.1739 -80.1589
   -80.0903 -80.0554 -80.0522 -79.6691 -79.6450 -79.5791 -79.4663 -79.4047
   -66.2965 -66.2707 -66.2420 -66.2123 -40.2894 -40.2723 -40.2707 -40.2621
   -40.2356 -40.2326 -40.2234 -40.2046 -40.1445 -40.1322 -40.1234 -40.1061
   -13.7428 -13.7089 -13.6089 -13.5458 -13.5034 -13.4939 -13.4596 -13.4397
   -13.4343 -13.3887 -13.3709 -13.2925 -13.2581 -13.2061 -13.2046 -13.1415
   -13.1339 -13.0542 -13.0495 -13.0431 -12.9601 -12.8798 -12.8547 -12.8508
   -12.8422 -12.7228 -12.6254 -12.5409 -12.5349 -12.5320 -12.4891 -12.4691
   -12.4384 -12.2181 -12.2145 -12.1752 -12.1600 -12.1430 -11.9790 -11.9530
    -0.4507  -0.1563   0.3520   0.5028   0.6273   0.7883   0.7985   0.8380
     3.5287   3.5418   3.5590   3.5993   3.6068   3.6283   3.6357   3.6620
     3.6634   3.6644   3.6780   3.7013   3.7282   3.8083   3.8213   3.8287
     3.8606   3.8761   3.9936   4.0839   6.9263   7.3305   7.6537   7.7941
     7.8762   8.2611   8.3059   8.3506   8.5526   9.0448   9.4244   9.4624
     9.6625   9.7061   9.9978  10.1699  10.2981  10.3099  10.5011  10.5981
    10.6980  10.8749  11.0961  11.2487  11.6926  11.7738  11.9774  12.3514
    13.8311  14.2770  14.3108  14.6134  14.7742  15.0792  15.1241  15.5557
    15.6005  15.9551  16.1668  16.3058  16.8277  16.8561  17.1126  17.3575
    17.3919  17.8320  18.1121

          k = 0.0000 0.0000-0.1650 (  3690 PWs)   bands (ev):

  -114.5400-114.5400-114.4792-114.4792-114.4434-114.4434-114.3696-114.3696
   -80.9871 -80.9871 -80.8597 -80.8597 -80.7612 -80.7612 -80.6754 -80.6754
   -80.5793 -80.5793 -80.4276 -80.4276 -80.2116 -80.2116 -80.0871 -80.0871
   -80.0665 -80.0665 -79.8083 -79.8083 -79.5999 -79.5999 -79.4000 -79.4000
   -66.3241 -66.3241 -66.2540 -66.2540 -40.2878 -40.2878 -40.2754 -40.2754
   -40.2356 -40.2356 -40.2191 -40.2191 -40.1368 -40.1368 -40.1064 -40.1064
   -13.9120 -13.9120 -13.6940 -13.6940 -13.6281 -13.6281 -13.5221 -13.5221
   -13.4326 -13.4326 -13.3935 -13.3935 -13.2984 -13.2984 -13.1643 -13.1643
   -13.1526 -13.1526 -13.0494 -13.0494 -12.9483 -12.9483 -12.9300 -12.9300
   -12.7915 -12.7915 -12.6795 -12.6795 -12.5622 -12.5622 -12.4562 -12.4562
   -12.3135 -12.3135 -12.3134 -12.3134 -12.0872 -12.0872 -11.9811 -11.9811
    -0.3314  -0.3314   0.4862   0.4862   0.6840   0.6840   0.8078   0.8078
     3.4880   3.4880   3.5432   3.5432   3.5957   3.5957   3.6312   3.6312
     3.6486   3.6486   3.7233   3.7233   3.7870   3.7870   3.8182   3.8182
     3.8429   3.8429   4.0256   4.0256   7.0823   7.0823   7.9384   7.9384
     7.9501   7.9501   8.2571   8.2571   8.5814   8.5814   9.5553   9.5553
     9.8975   9.8975   9.9676   9.9676  10.2219  10.2219  10.5226  10.5226
    10.7844  10.7844  11.0377  11.0377  11.8665  11.8665  12.3633  12.3633
    14.0634  14.0634  14.2524  14.2524  14.8832  14.8832  15.1354  15.1354
    16.0258  16.0258  16.0335  16.0335  16.7838  16.7838  16.8501  16.8502
    17.6523  17.6523  18.4507

          k = 0.0000 0.1612 0.0000 (  3664 PWs)   bands (ev):

  -114.5118-114.4867-114.4802-114.4518-114.3783-114.3774-114.3678-114.3344
   -80.8640 -80.7403 -80.7161 -80.6208 -80.5653 -80.5506 -80.4977 -80.4481
   -80.4157 -80.4136 -80.3684 -80.3377 -80.2858 -80.2432 -80.1126 -80.0917
   -80.0894 -80.0389 -80.0324 -79.8183 -79.6820 -79.5788 -79.4063 -79.2640
   -66.3241 -66.2754 -66.1795 -66.1441 -40.2784 -40.2782 -40.2637 -40.2538
   -40.2383 -40.2376 -40.2011 -40.1997 -40.1487 -40.1259 -40.1164 -40.1055
   -13.6886 -13.6226 -13.5394 -13.5078 -13.4201 -13.3861 -13.3431 -13.3304
   -13.3261 -13.2871 -13.2788 -13.2394 -13.2331 -13.1777 -13.1569 -13.1280
   -13.0725 -13.0355 -13.0131 -12.9651 -12.9536 -12.8960 -12.8692 -12.7970
   -12.7823 -12.7454 -12.6596 -12.5631 -12.5616 -12.4724 -12.4695 -12.3555
   -12.3346 -12.3196 -12.2103 -12.1825 -12.1247 -12.0984 -11.9467 -11.9179
    -0.3227   0.0775   0.1327   0.3460   0.5564   0.6048   0.9298   0.9387
     3.4967   3.5154   3.5682   3.5757   3.5943   3.6208   3.6426   3.6427
     3.6847   3.6970   3.7062   3.7237   3.7575   3.7682   3.8048   3.8326
     3.8738   3.8756   4.0085   4.0523   7.0038   7.1155   7.9040   8.1004
     8.4416   8.5340   8.6405   8.7994   8.8189   8.8199   8.9767   9.2232
     9.2458   9.7605   9.9261  10.1755  10.2559  10.3469  10.4137  10.4890
    10.7811  11.1904  11.2182  11.3779  11.5566  11.8161  12.0752  12.3218
    13.7942  14.2676  14.2789  14.3809  14.5908  14.7016  14.9208  14.9944
    15.3633  15.4013  15.6176  16.1398  16.9615  17.0402  17.1135  17.5800
    17.9108  18.0835  18.1127

          k = 0.0000 0.1612 0.0825 (  3669 PWs)   bands (ev):

  -114.5281-114.4868-114.4768-114.4498-114.4047-114.3958-114.3603-114.3420
   -80.9130 -80.7814 -80.7512 -80.7200 -80.6750 -80.5863 -80.5735 -80.5312
   -80.4623 -80.4308 -80.3883 -80.3296 -80.2810 -80.2118 -80.1393 -80.1331
   -80.0951 -80.0352 -79.8521 -79.7951 -79.6347 -79.5346 -79.3876 -79.3260
   -66.3181 -66.2626 -66.2194 -66.1757 -40.2795 -40.2754 -40.2694 -40.2642
   -40.2381 -40.2270 -40.2246 -40.2041 -40.1423 -40.1257 -40.1124 -40.1031
   -13.7373 -13.6725 -13.5832 -13.5744 -13.4748 -13.4531 -13.3956 -13.3657
   -13.3494 -13.3314 -13.2934 -13.2694 -13.2254 -13.2214 -13.2201 -13.1664
   -13.0761 -13.0554 -13.0159 -12.9765 -12.9529 -12.9208 -12.9033 -12.8958
   -12.7724 -12.7641 -12.6903 -12.6411 -12.5452 -12.5277 -12.4036 -12.3622
   -12.3035 -12.2108 -12.2051 -12.1636 -12.1572 -12.1184 -11.9715 -11.8309
    -0.2848  -0.0265   0.1646   0.3357   0.5786   0.6939   0.8856   0.9071
     3.4952   3.5186   3.5486   3.5561   3.5983   3.6091   3.6350   3.6477
     3.6493   3.6679   3.6896   3.7135   3.7574   3.7795   3.8432   3.8477
     3.8814   3.8893   3.9625   4.0470   7.0644   7.2092   7.8981   8.0030
     8.1832   8.3991   8.6119   8.6744   8.7215   8.8638   8.9352   9.3250
     9.4213   9.8635  10.0284  10.1648  10.2698  10.3826  10.4702  10.5998
    10.8820  11.1222  11.1797  11.3687  11.4507  11.7522  12.2194  12.5159
    13.7527  13.9369  14.3094  14.4010  14.4663  14.6372  14.6790  15.0859
    15.2568  15.3499  15.6498  16.0074  17.1256  17.1435  17.4010  17.4698
    17.9281  17.9544  18.2213

          k = 0.0000 0.1612-0.1650 (  3666 PWs)   bands (ev):

  -114.4770-114.4770-114.4547-114.4547-114.4145-114.4145-114.3567-114.3567
   -80.7633 -80.7633 -80.7379 -80.7379 -80.6596 -80.6596 -80.5321 -80.5321
   -80.3932 -80.3932 -80.3348 -80.3348 -80.2540 -80.2540 -80.1315 -80.1315
   -80.0705 -80.0705 -79.8325 -79.8325 -79.5815 -79.5815 -79.4025 -79.4025
   -66.2695 -66.2695 -66.2040 -66.2040 -40.2799 -40.2799 -40.2624 -40.2624
   -40.2336 -40.2336 -40.2129 -40.2129 -40.1306 -40.1306 -40.1122 -40.1122
   -13.5858 -13.5858 -13.5216 -13.5216 -13.4847 -13.4847 -13.3278 -13.3278
   -13.2810 -13.2810 -13.2139 -13.2139 -13.1782 -13.1782 -13.1304 -13.1304
   -13.1274 -13.1274 -13.0061 -13.0061 -12.9557 -12.9557 -12.8964 -12.8964
   -12.7361 -12.7361 -12.5963 -12.5963 -12.5501 -12.5501 -12.3738 -12.3738
   -12.3459 -12.3459 -12.2578 -12.2578 -12.1840 -12.1840 -11.9303 -11.9303
    -0.1769  -0.1769   0.2426   0.2426   0.7156   0.7156   0.8416   0.8416
     3.5292   3.5292   3.5600   3.5600   3.5769   3.5769   3.6642   3.6642
     3.6722   3.6722   3.6932   3.6932   3.7597   3.7597   3.8619   3.8619
     3.8890   3.8890   4.0027   4.0027   7.2500   7.2500   7.7903   7.7903
     8.2735   8.2735   8.5014   8.5014   8.8330   8.8330   9.1048   9.1048
     9.7401   9.7401  10.0989  10.0989  10.4043  10.4043  10.6664  10.6664
    11.0936  11.0936  11.1558  11.1558  11.6051  11.6051  12.5149  12.5149
    13.5958  13.5958  14.4217  14.4217  14.4678  14.4678  14.8037  14.8037
    15.3605  15.3605  15.7281  15.7281  17.1685  17.1685  17.4177  17.4178
    18.1709  18.1710  18.2486

          k =-0.3057 0.0000 0.0000 (  3722 PWs)   bands (ev):

  -114.5305-114.5305-114.5134-114.5134-114.4592-114.4592-114.4447-114.4447
   -80.7682 -80.7682 -80.7628 -80.7628 -80.6975 -80.6975 -80.6705 -80.6705
   -80.6521 -80.6521 -80.5542 -80.5542 -80.4543 -80.4543 -80.3939 -80.3939
   -80.1335 -80.1335 -80.0708 -80.0708 -79.9413 -79.9413 -79.9407 -79.9407
   -66.3744 -66.3744 -66.3460 -66.3460 -40.2768 -40.2768 -40.2716 -40.2716
   -40.2450 -40.2450 -40.2336 -40.2336 -40.1776 -40.1776 -40.1555 -40.1555
   -13.8090 -13.8090 -13.7021 -13.7021 -13.6090 -13.6090 -13.6006 -13.6006
   -13.5227 -13.5227 -13.4588 -13.4588 -13.3259 -13.3259 -13.2670 -13.2670
   -13.2423 -13.2423 -13.0577 -13.0577 -13.0535 -13.0535 -12.9524 -12.9524
   -12.9187 -12.9187 -12.8538 -12.8538 -12.7397 -12.7397 -12.7195 -12.7195
   -12.6702 -12.6702 -12.6410 -12.6410 -12.6015 -12.6015 -12.4958 -12.4958
    -0.0527  -0.0527   0.3848   0.3848   0.4795   0.4795   0.8092   0.8092
     3.5145   3.5145   3.5179   3.5179   3.5291   3.5291   3.5942   3.5942
     3.6894   3.6894   3.7137   3.7137   3.7370   3.7370   3.7839   3.7839
     3.8263   3.8263   3.8519   3.8519   7.0690   7.0690   7.1430   7.1430
     7.4530   7.4530   8.1574   8.1574   8.4222   8.4222   9.0591   9.0591
     9.7456   9.7456  10.0658  10.0658  10.2626  10.2626  11.0830  11.0830
    11.3803  11.3803  11.8211  11.8211  11.9170  11.9170  12.4072  12.4072
    14.4728  14.4728  15.2991  15.2991  15.4187  15.4187  15.5417  15.5417
    16.2395  16.2395  16.2725  16.2725  17.1330  17.1330  17.4339  17.4340
    17.9817  17.9817  18.1650

          k =-0.3057 0.0000 0.0825 (  3710 PWs)   bands (ev):

  -114.5099-114.5099-114.5000-114.5000-114.4751-114.4751-114.4131-114.4131
   -80.8040 -80.8040 -80.7351 -80.7351 -80.6724 -80.6724 -80.6313 -80.6313
   -80.5806 -80.5806 -80.5129 -80.5129 -80.4265 -80.4265 -80.3094 -80.3094
   -80.1560 -80.1560 -80.0098 -80.0098 -79.8914 -79.8914 -79.7917 -79.7917
   -66.3389 -66.3389 -66.3308 -66.3308 -40.2783 -40.2783 -40.2706 -40.2706
   -40.2382 -40.2382 -40.2261 -40.2261 -40.1679 -40.1679 -40.1507 -40.1507
   -13.7234 -13.7234 -13.6948 -13.6948 -13.6083 -13.6083 -13.5646 -13.5646
   -13.4236 -13.4236 -13.3899 -13.3899 -13.2992 -13.2992 -13.2238 -13.2238
   -13.1459 -13.1459 -13.0307 -13.0307 -13.0070 -13.0070 -12.9074 -12.9074
   -12.8802 -12.8802 -12.8183 -12.8183 -12.7192 -12.7192 -12.6838 -12.6837
   -12.6187 -12.6187 -12.5542 -12.5542 -12.5016 -12.5016 -12.4504 -12.4504
    -0.0428  -0.0428   0.3612   0.3612   0.4966   0.4966   0.8051   0.8051
     3.5208   3.5208   3.5265   3.5265   3.5616   3.5616   3.5989   3.5989
     3.7239   3.7239   3.7393   3.7393   3.7722   3.7722   3.7912   3.7912
     3.8318   3.8318   3.8791   3.8791   6.9636   6.9636   7.2611   7.2611
     7.6646   7.6646   7.9595   7.9595   8.3568   8.3568   8.9890   8.9890
     9.5400   9.5400  10.2647  10.2647  10.4540  10.4540  11.1488  11.1488
    11.5462  11.5462  11.8034  11.8034  11.9189  11.9189  12.3958  12.3958
    14.5030  14.5030  15.0601  15.0601  15.3108  15.3108  15.6444  15.6444
    15.9967  15.9967  16.2122  16.2122  17.1796  17.1797  17.4893  17.4893
    17.9683  17.9684  18.2257

          k =-0.3057 0.0000-0.1650 (  3680 PWs)   bands (ev):

  -114.4946-114.4946-114.4526-114.4526-114.4108-114.4108-114.4008-114.4008
   -80.7602 -80.7602 -80.7360 -80.7360 -80.6563 -80.6563 -80.6312 -80.6312
   -80.3972 -80.3972 -80.3496 -80.3496 -80.2444 -80.2444 -80.2038 -80.2038
   -80.0340 -80.0340 -79.9519 -79.9519 -79.7894 -79.7894 -79.5914 -79.5914
   -66.2908 -66.2908 -66.2465 -66.2465 -40.2764 -40.2764 -40.2709 -40.2709
   -40.2222 -40.2222 -40.2098 -40.2098 -40.1523 -40.1523 -40.1419 -40.1419
   -13.6464 -13.6464 -13.5141 -13.5141 -13.4469 -13.4469 -13.3659 -13.3659
   -13.3573 -13.3573 -13.2927 -13.2927 -13.2926 -13.2926 -13.2474 -13.2474
   -13.0936 -13.0936 -12.9449 -12.9449 -12.8551 -12.8551 -12.8108 -12.8108
   -12.7812 -12.7812 -12.7400 -12.7400 -12.5475 -12.5475 -12.5051 -12.5051
   -12.4912 -12.4912 -12.4167 -12.4167 -12.2902 -12.2902 -12.2527 -12.2527
    -0.0325  -0.0325   0.3411   0.3411   0.5093   0.5093   0.8011   0.8011
     3.5380   3.5380   3.5705   3.5705   3.6075   3.6075   3.6301   3.6301
     3.7603   3.7603   3.7905   3.7905   3.8142   3.8142   3.8233   3.8233
     3.8774   3.8774   3.9286   3.9286   6.9179   6.9179   7.4223   7.4223
     7.8170   7.8170   7.9297   7.9297   8.1008   8.1008   9.1605   9.1605
     9.2219   9.2219  10.2133  10.2133  10.9185  10.9185  11.1880  11.1880
    11.6071  11.6071  11.9117  11.9117  11.9790  11.9790  12.3523  12.3523
    14.6713  14.6713  14.9063  14.9063  14.9507  14.9507  15.7903  15.7903
    15.8184  15.8184  16.1704  16.1704  17.3383  17.3383  17.5778  17.5778
    17.8633  17.8638  18.0014

          k =-0.3057 0.1612 0.0000 (  3686 PWs)   bands (ev):

  -114.4628-114.4628-114.4619-114.4619-114.4358-114.4358-114.3995-114.3995
   -80.6671 -80.6671 -80.6600 -80.6600 -80.5524 -80.5524 -80.5206 -80.5206
   -80.4627 -80.4627 -80.4396 -80.4396 -80.3133 -80.3133 -80.2730 -80.2730
   -80.1294 -80.1294 -80.0078 -80.0078 -80.0033 -80.0033 -79.8337 -79.8337
   -66.2872 -66.2872 -66.2768 -66.2768 -40.2698 -40.2698 -40.2659 -40.2659
   -40.2259 -40.2259 -40.2233 -40.2233 -40.1708 -40.1708 -40.1563 -40.1563
   -13.6123 -13.6123 -13.4567 -13.4567 -13.4169 -13.4169 -13.3946 -13.3946
   -13.3514 -13.3514 -13.2850 -13.2850 -13.2062 -13.2062 -13.1705 -13.1705
   -13.0410 -13.0410 -12.9124 -12.9124 -12.9086 -12.9086 -12.8743 -12.8743
   -12.8671 -12.8671 -12.7735 -12.7735 -12.7358 -12.7358 -12.6990 -12.6990
   -12.6440 -12.6440 -12.5180 -12.5180 -12.4712 -12.4712 -12.4579 -12.4579
     0.0898   0.0898   0.3368   0.3368   0.5194   0.5194   0.6512   0.6512
     3.5306   3.5306   3.5608   3.5608   3.5970   3.5970   3.6079   3.6079
     3.7261   3.7261   3.7492   3.7492   3.7518   3.7518   3.7907   3.7907
     3.8527   3.8527   3.8573   3.8573   6.8957   6.8957   6.9270   6.9270
     7.9087   7.9087   8.5259   8.5259   8.8789   8.8789   9.3523   9.3523
     9.7835   9.7835   9.9311   9.9311  10.5548  10.5548  10.8659  10.8659
    11.3105  11.3105  11.5313  11.5313  11.9318  11.9318  12.3456  12.3456
    14.3635  14.3635  14.7850  14.7850  14.8298  14.8298  15.1857  15.1857
    15.8838  15.8838  16.0410  16.0410  17.3107  17.3108  17.4803  17.4803
    18.2694  18.2797  18.2806

          k =-0.3057 0.1612 0.0825 (  3692 PWs)   bands (ev):

  -114.4783-114.4783-114.4573-114.4573-114.4380-114.4380-114.4242-114.4242
   -80.7723 -80.7723 -80.6984 -80.6984 -80.6673 -80.6673 -80.5471 -80.5471
   -80.4692 -80.4692 -80.3925 -80.3925 -80.3359 -80.3359 -80.3062 -80.3062
   -80.0613 -80.0613 -79.9921 -79.9921 -79.9431 -79.9431 -79.7966 -79.7966
[...]
    45.0978  45.5615  45.8885

          k = 0.0000 0.0000-0.2309 (  5530 PWs)   bands (ev):

   -86.7870 -86.7870 -86.7405 -86.7405 -86.5304 -86.5304 -86.5167 -86.5167
   -46.7685 -46.7685 -46.7630 -46.7630 -45.6323 -45.6323 -45.6260 -45.6260
   -45.6220 -45.6220 -45.5983 -45.5983 -45.5919 -45.5917 -45.5662 -45.5661
   -45.4214 -45.4214 -45.3915 -45.3915 -45.3854 -45.3853 -45.3513 -45.3513
   -45.3381 -45.3381 -45.3253 -45.3253 -13.9500 -13.9499 -13.9398 -13.9398
   -13.9385 -13.9385 -13.9344 -13.9344 -13.8020 -13.8020 -13.7823 -13.7823
    11.2087  11.2087  11.3108  11.3108  11.3609  11.3609  11.5541  11.5541
    11.5561  11.5561  11.7172  11.7172  11.8048  11.8048  11.8733  11.8733
    12.0184  12.0184  12.0783  12.0783  12.1334  12.1334  12.1533  12.1533
    12.4021  12.4021  12.4032  12.4032  12.4386  12.4386  12.4854  12.4854
    12.7273  12.7273  12.7815  12.7815  12.9607  12.9607  13.0639  13.0639
    18.5881  18.5881  22.2361  22.2361  23.0586  23.0586  24.3363  24.3363
    25.1839  25.1839  25.2783  25.2783  25.7745  25.7745  25.9851  25.9851
    26.1312  26.1312  27.1250  27.1250  27.1367  27.1367  28.0026  28.0026
    28.3418  28.3418  29.4361  29.4361  30.1031  30.1031  30.6023  30.6023
    32.0533  32.0534  33.5286  33.5286  34.1082  34.1082  35.5673  35.5673
    35.7530  35.7530  36.4059  36.4059  36.7557  36.7557  37.5524  37.5525
    37.8306  37.8306  38.5187  38.5187  39.9944  39.9944  40.5049  40.5049
    41.6310  41.6310  42.1839  42.1839  42.8624  42.8624  43.2852  43.2852
    43.3405  43.3405  44.2687  44.2688  44.6855  44.6856  44.9706  44.9708
    45.5582  45.5584  45.7041

          k = 0.0000 0.2234 0.0000 (  5489 PWs)   bands (ev):

   -86.7685 -86.7407 -86.7337 -86.7031 -86.5185 -86.5015 -86.4928 -86.4728
   -46.7674 -46.7655 -46.7588 -46.7503 -45.6306 -45.6289 -45.6250 -45.6233
   -45.6190 -45.6095 -45.5976 -45.5950 -45.5836 -45.5766 -45.5628 -45.5623
   -45.3970 -45.3905 -45.3882 -45.3850 -45.3809 -45.3793 -45.3633 -45.3617
   -45.3333 -45.3328 -45.3322 -45.3261 -13.9503 -13.9401 -13.9393 -13.9376
   -13.9366 -13.9324 -13.9264 -13.9259 -13.7954 -13.7946 -13.7833 -13.7668
    11.2942  11.3570  11.3690  11.4026  11.4328  11.5116  11.5174  11.5594
    11.6048  11.6510  11.6803  11.7276  11.7557  11.7904  11.9153  11.9240
    11.9813  11.9985  12.0158  12.0389  12.1297  12.1397  12.1780  12.2759
    12.2914  12.3065  12.3519  12.3652  12.4078  12.4656  12.5958  12.6106
    12.6472  12.6509  12.7539  12.7911  12.8607  12.9246  12.9672  13.0133
    18.5187  20.2557  21.0601  21.4268  22.7028  22.9210  24.2729  24.7295
    24.7901  24.8256  24.9608  25.2759  25.6415  25.8647  26.1138  26.1528
    26.2754  26.5593  26.5623  26.6653  26.7013  27.0000  27.0333  27.0539
    27.9210  28.1966  29.4774  29.8909  30.2512  31.8067  31.9530  32.2007
    32.7792  33.4114  33.4749  33.7497  33.8286  33.8345  34.0269  35.4858
    35.5499  35.6234  35.6649  35.9393  36.5111  36.7512  37.8131  38.4989
    38.6441  38.9143  39.4451  39.7686  39.8494  40.4794  40.6475  41.0564
    41.1104  41.2595  41.8441  41.9337  42.4503  42.5765  42.8719  43.1922
    43.3587  43.4472  43.5932  43.9964  44.1928  44.2773  44.4086  44.7929
    45.3170  45.6415  45.8591

          k = 0.0000 0.2234 0.1154 (  5494 PWs)   bands (ev):

   -86.7633 -86.7483 -86.7264 -86.7209 -86.5230 -86.5096 -86.4976 -86.4689
   -46.7692 -46.7661 -46.7580 -46.7512 -45.6311 -45.6291 -45.6239 -45.6229
   -45.6194 -45.6143 -45.5965 -45.5932 -45.5829 -45.5768 -45.5672 -45.5641
   -45.3993 -45.3930 -45.3883 -45.3849 -45.3821 -45.3802 -45.3636 -45.3627
   -45.3378 -45.3340 -45.3288 -45.3217 -13.9497 -13.9432 -13.9421 -13.9387
   -13.9345 -13.9301 -13.9269 -13.9257 -13.8006 -13.7982 -13.7800 -13.7677
    11.2897  11.3373  11.3530  11.3618  11.4366  11.5157  11.5326  11.6077
    11.6349  11.6458  11.6874  11.7195  11.7859  11.8126  11.8930  11.9061
    11.9951  11.9984  12.0167  12.0932  12.1227  12.1502  12.1676  12.2690
    12.2762  12.2935  12.3455  12.3620  12.3841  12.4777  12.5454  12.6014
    12.6614  12.6648  12.7522  12.7646  12.8914  12.9376  12.9674  12.9962
    18.6990  20.0304  20.5818  21.8342  22.3550  23.4769  24.1386  24.5871
    24.7966  24.9543  24.9769  25.1986  25.6134  25.8850  25.9403  26.1942
    26.2887  26.4999  26.5657  26.6672  26.9472  27.1046  27.1387  27.1674
    28.0268  28.5367  29.4814  30.2056  30.2240  31.3130  31.6470  32.1320
    32.4154  32.5216  32.9964  33.0017  33.6734  34.3999  35.1252  35.5610
    35.6014  35.9759  36.3482  36.4093  36.7101  37.1622  37.2758  37.7268
    38.3668  38.5893  39.1740  39.5351  39.8317  40.2957  40.8531  41.2928
    41.4907  41.7347  42.0069  42.2791  42.2827  42.7351  42.8797  42.8939
    43.0482  43.4151  43.7011  43.9892  44.1153  44.1750  44.4083  45.1118
    45.3823  45.7494  45.8271

          k = 0.0000 0.2234-0.2309 (  5488 PWs)   bands (ev):

   -86.7438 -86.7438 -86.7321 -86.7321 -86.5037 -86.5037 -86.4884 -86.4884
   -46.7665 -46.7665 -46.7543 -46.7543 -45.6261 -45.6261 -45.6236 -45.6236
   -45.6190 -45.6190 -45.5963 -45.5963 -45.5772 -45.5770 -45.5653 -45.5652
   -45.3948 -45.3948 -45.3867 -45.3867 -45.3839 -45.3839 -45.3603 -45.3603
   -45.3334 -45.3334 -45.3251 -45.3251 -13.9494 -13.9494 -13.9345 -13.9345
   -13.9322 -13.9322 -13.9304 -13.9304 -13.7993 -13.7992 -13.7689 -13.7688
    11.3060  11.3060  11.3272  11.3272  11.5127  11.5127  11.5247  11.5247
    11.6943  11.6943  11.7464  11.7464  11.7748  11.7748  11.8932  11.8932
    12.0093  12.0093  12.0633  12.0633  12.1200  12.1200  12.2245  12.2245
    12.2898  12.2898  12.3340  12.3340  12.4210  12.4210  12.5529  12.5529
    12.7110  12.7110  12.7133  12.7133  12.9506  12.9506  12.9582  12.9582
    19.2335  19.2335  21.0522  21.0522  23.1798  23.1798  24.2899  24.2899
    24.9365  24.9365  25.0938  25.0938  25.6226  25.6226  26.1031  26.1031
    26.3731  26.3731  26.6566  26.6566  27.1505  27.1505  27.2452  27.2453
    28.7243  28.7243  29.5906  29.5906  30.9246  30.9246  31.1131  31.1131
    32.2962  32.2963  33.3277  33.3278  33.5997  33.5997  35.3864  35.3864
    36.4057  36.4057  36.6767  36.6767  36.7843  36.7843  37.6539  37.6539
    38.3105  38.3105  38.8050  38.8050  40.1745  40.1745  41.2147  41.2148
    41.6385  41.6385  41.8771  41.8771  42.6599  42.6600  42.9923  42.9923
    43.3793  43.3794  43.9467  43.9467  44.0522  44.0523  44.7646  44.7647
    45.6708  45.6709  46.2379

          k =-0.4333 0.0000 0.0000 (  5512 PWs)   bands (ev):

   -86.7548 -86.7548 -86.7545 -86.7545 -86.5309 -86.5309 -86.5020 -86.5020
   -46.7697 -46.7697 -46.7636 -46.7636 -45.6296 -45.6296 -45.6256 -45.6256
   -45.6129 -45.6129 -45.6103 -45.6103 -45.5745 -45.5745 -45.5696 -45.5696
   -45.4161 -45.4161 -45.3936 -45.3936 -45.3860 -45.3860 -45.3475 -45.3475
   -45.3350 -45.3350 -45.3224 -45.3224 -13.9539 -13.9539 -13.9534 -13.9534
   -13.9338 -13.9338 -13.9242 -13.9242 -13.7908 -13.7908 -13.7783 -13.7783
    11.3808  11.3808  11.3927  11.3927  11.4979  11.4979  11.6373  11.6373
    11.7423  11.7423  11.7760  11.7760  11.8082  11.8082  11.8179  11.8179
    11.9212  11.9212  11.9863  11.9863  12.0548  12.0548  12.1607  12.1607
    12.1743  12.1743  12.2804  12.2804  12.4013  12.4013  12.4963  12.4963
    12.5562  12.5562  12.7662  12.7662  12.8971  12.8971  13.1148  13.1148
    20.3762  20.3762  22.3474  22.3474  22.4126  22.4126  24.3026  24.3026
    24.9923  24.9923  25.3570  25.3570  25.9059  25.9059  26.2019  26.2019
    26.3539  26.3539  26.5678  26.5678  26.9763  26.9763  27.1801  27.1801
    27.4005  27.4005  27.6412  27.6412  30.4293  30.4293  31.2279  31.2279
    31.8592  31.8592  32.3465  32.3465  32.4106  32.4106  34.4294  34.4294
    35.6284  35.6284  37.5682  37.5682  37.7352  37.7352  39.2980  39.2980
    39.8339  39.8339  40.8041  40.8041  40.9554  40.9554  41.1046  41.1046
    41.8344  41.8344  41.8433  41.8433  42.6103  42.6103  42.8593  42.8593
    43.4821  43.4821  44.0125  44.0125  44.2132  44.2133  44.7649  44.7649
    45.4980  45.4981  46.0130

          k =-0.4333 0.0000 0.1154 (  5508 PWs)   bands (ev):

   -86.7628 -86.7628 -86.7388 -86.7388 -86.5269 -86.5269 -86.5010 -86.5010
   -46.7677 -46.7677 -46.7634 -46.7634 -45.6303 -45.6303 -45.6264 -45.6264
   -45.6093 -45.6093 -45.6078 -45.6078 -45.5748 -45.5748 -45.5718 -45.5718
   -45.4184 -45.4184 -45.3904 -45.3904 -45.3841 -45.3841 -45.3478 -45.3478
   -45.3351 -45.3351 -45.3230 -45.3230 -13.9504 -13.9504 -13.9488 -13.9488
   -13.9349 -13.9349 -13.9247 -13.9247 -13.7909 -13.7909 -13.7811 -13.7811
    11.3799  11.3799  11.4138  11.4138  11.5120  11.5120  11.6394  11.6394
    11.6937  11.6937  11.7334  11.7334  11.8225  11.8225  11.8476  11.8476
    11.9164  11.9164  12.0023  12.0023  12.0132  12.0132  12.1295  12.1295
    12.2547  12.2547  12.3113  12.3113  12.4009  12.4009  12.4737  12.4737
    12.5827  12.5827  12.7487  12.7487  12.8793  12.8793  13.1099  13.1099
    20.5185  20.5185  21.6879  21.6879  22.7795  22.7795  24.1890  24.1890
    25.2575  25.2575  25.4932  25.4932  25.9929  25.9929  26.1685  26.1685
    26.3536  26.3536  26.5436  26.5436  26.8479  26.8479  27.1147  27.1147
    27.4058  27.4058  28.1199  28.1199  29.9760  29.9760  30.9528  30.9528
    31.9221  31.9221  32.4173  32.4173  32.8391  32.8391  33.6928  33.6928
    36.2009  36.2009  36.8792  36.8792  37.6810  37.6810  39.9550  39.9550
    40.2505  40.2505  40.9131  40.9131  41.0330  41.0331  41.2836  41.2836
    41.4818  41.4818  41.8382  41.8382  42.3209  42.3209  42.7388  42.7388
    43.2384  43.2384  43.8953  43.8953  44.4647  44.4649  44.6562  44.6562
    45.4532  45.4535  45.7934

          k =-0.4333 0.0000-0.2309 (  5496 PWs)   bands (ev):

   -86.7459 -86.7459 -86.7372 -86.7372 -86.5088 -86.5088 -86.5007 -86.5007
   -46.7688 -46.7688 -46.7577 -46.7577 -45.6290 -45.6290 -45.6257 -45.6257
   -45.6087 -45.6087 -45.6060 -45.6060 -45.5723 -45.5723 -45.5703 -45.5703
   -45.4172 -45.4172 -45.3893 -45.3893 -45.3832 -45.3832 -45.3451 -45.3451
   -45.3332 -45.3332 -45.3214 -45.3214 -13.9560 -13.9560 -13.9412 -13.9412
   -13.9276 -13.9276 -13.9267 -13.9267 -13.7873 -13.7873 -13.7787 -13.7787
    11.3796  11.3796  11.4334  11.4334  11.5457  11.5457  11.6345  11.6345
    11.6506  11.6506  11.6937  11.6937  11.8301  11.8301  11.8573  11.8573
    11.9043  11.9043  11.9925  11.9925  12.0355  12.0355  12.1328  12.1328
    12.2610  12.2610  12.3784  12.3784  12.3915  12.3915  12.4275  12.4275
    12.6410  12.6410  12.7204  12.7204  12.8534  12.8534  13.1052  13.1052
    20.8285  20.8285  21.1379  21.1379  22.9141  22.9141  24.0543  24.0543
    25.5321  25.5321  25.5502  25.5502  25.9908  25.9908  26.2070  26.2070
    26.3378  26.3378  26.5684  26.5684  26.8974  26.8974  27.0221  27.0221
    27.4865  27.4865  28.7754  28.7754  29.1391  29.1391  30.9549  30.9549
    31.6137  31.6137  32.2327  32.2327  33.4352  33.4352  34.0911  34.0911
    34.9891  34.9891  36.6172  36.6172  39.2871  39.2871  39.4632  39.4632
    40.4221  40.4221  40.6048  40.6048  40.9912  40.9912  41.3775  41.3775
    41.4897  41.4897  42.2934  42.2934  42.4011  42.4011  42.6048  42.6048
    42.9613  42.9614  43.7484  43.7485  44.3716  44.3716  44.6478  44.6479
    44.8480  44.8481  46.2235

          k =-0.4333 0.2234 0.0000 (  5516 PWs)   bands (ev):

   -86.7642 -86.7642 -86.7476 -86.7476 -86.5178 -86.5178 -86.5172 -86.5172
   -46.7685 -46.7685 -46.7660 -46.7660 -45.6315 -45.6315 -45.6294 -45.6294
   -45.6096 -45.6096 -45.6089 -45.6089 -45.5741 -45.5741 -45.5704 -45.5704
   -45.4008 -45.4008 -45.3895 -45.3895 -45.3854 -45.3854 -45.3617 -45.3617
   -45.3359 -45.3359 -45.3294 -45.3294 -13.9538 -13.9538 -13.9487 -13.9487
   -13.9356 -13.9356 -13.9296 -13.9296 -13.7893 -13.7893 -13.7852 -13.7852
    11.3969  11.3969  11.4728  11.4728  11.6209  11.6209  11.6450  11.6450
    11.7533  11.7533  11.7675  11.7675  11.8871  11.8871  11.8922  11.8922
    11.9628  11.9628  12.0385  12.0385  12.0559  12.0559  12.1460  12.1460
    12.2439  12.2439  12.2787  12.2787  12.3762  12.3762  12.4517  12.4517
    12.5731  12.5731  12.6217  12.6217  12.8000  12.8000  12.9674  12.9674
    20.8848  20.8848  22.1207  22.1207  22.8703  22.8703  23.3061  23.3061
    24.8969  24.8969  24.9937  24.9937  25.7823  25.7823  26.0747  26.0747
    26.3596  26.3596  26.5008  26.5008  26.6020  26.6020  26.7791  26.7791
    27.7755  27.7755  27.9603  27.9603  29.3887  29.3887  29.6801  29.6801
    32.9042  32.9042  34.0624  34.0624  34.7986  34.7986  35.8461  35.8461
    36.1030  36.1030  36.6101  36.6101  37.3130  37.3130  38.6618  38.6618
    40.3674  40.3674  40.3993  40.3993  40.8188  40.8188  41.0806  41.0806
    41.6694  41.6694  41.9089  41.9089  42.3971  42.3971  42.4122  42.4122
    43.2522  43.2522  43.3761  43.3761  44.2899  44.2900  45.0810  45.0811
    46.0842  46.0959  46.0960

          k =-0.4333 0.2234 0.1154 (  5506 PWs)   bands (ev):

   -86.7623 -86.7623 -86.7381 -86.7381 -86.5219 -86.5219 -86.4986 -86.4986
   -46.7671 -46.7671 -46.7644 -46.7644 -45.6296 -45.6296 -45.6274 -45.6274
   -45.6094 -45.6094 -45.6077 -45.6077 -45.5737 -45.5737 -45.5694 -45.5694
   -45.3984 -45.3984 -45.3885 -45.3885 -45.3847 -45.3847 -45.3630 -45.3630
   -45.3343 -45.3343 -45.3277 -45.3277 -13.9514 -13.9514 -13.9477 -13.9477
   -13.9332 -13.9332 -13.9287 -13.9287 -13.7883 -13.7883 -13.7841 -13.7841
    11.4039  11.4039  11.5012  11.5012  11.6175  11.6175  11.6323  11.6323
    11.7199  11.7199  11.7657  11.7657  11.8315  11.8315  11.9185  11.9185
    11.9805  11.9805  12.0247  12.0247  12.0663  12.0663  12.1773  12.1773
    12.2767  12.2767  12.3064  12.3064  12.3732  12.3732  12.4300  12.4300
    12.5556  12.5556  12.6277  12.6277  12.7760  12.7760  12.9693  12.9693
    20.9956  20.9956  21.9727  21.9727  22.6838  22.6838  23.2210  23.2210
    25.0785  25.0785  25.2998  25.2998  25.7372  25.7372  26.0762  26.0762
    26.2494  26.2494  26.4862  26.4862  26.5680  26.5680  26.7381  26.7381
    27.9150  27.9150  28.1674  28.1674  29.1323  29.1323  30.3117  30.3117
    32.7114  32.7114  32.9091  32.9091  34.2868  34.2868  35.4676  35.4676
    36.4506  36.4506  37.5656  37.5656  38.3266  38.3266  38.9076  38.9076
    39.6955  39.6955  40.1513  40.1513  41.0701  41.0701  41.2144  41.2144
    41.6320  41.6320  42.0395  42.0395  42.2214  42.2214  42.4176  42.4176
    42.8635  42.8635  43.1920  43.1921  43.9433  43.9434  45.2878  45.2878
    45.6925  45.6928  45.9318

          k =-0.4333 0.2234-0.2309 (  5528 PWs)   bands (ev):

   -86.7723 -86.7723 -86.7589 -86.7589 -86.5306 -86.5306 -86.5226 -86.5226
   -46.7708 -46.7708 -46.7689 -46.7689 -45.6315 -45.6315 -45.6306 -45.6306
   -45.6129 -45.6129 -45.6116 -45.6116 -45.5745 -45.5745 -45.5714 -45.5714
   -45.3988 -45.3988 -45.3906 -45.3906 -45.3903 -45.3903 -45.3653 -45.3653
   -45.3363 -45.3363 -45.3298 -45.3298 -13.9593 -13.9593 -13.9526 -13.9526
   -13.9359 -13.9359 -13.9319 -13.9319 -13.7898 -13.7898 -13.7864 -13.7864
    11.4123  11.4123  11.5579  11.5579  11.5718  11.5718  11.6448  11.6448
    11.6670  11.6670  11.7722  11.7722  11.8003  11.8003  11.9359  11.9359
    11.9887  11.9887  12.0256  12.0256  12.0507  12.0507  12.2333  12.2333
    12.2799  12.2799  12.3492  12.3492  12.3614  12.3614  12.4250  12.4250
    12.5029  12.5029  12.6722  12.6722  12.7312  12.7312  12.9702  12.9702
    21.1850  21.1850  21.6654  21.6654  22.7698  22.7698  22.9631  22.9631
    25.4058  25.4058  25.4790  25.4790  25.6249  25.6249  26.0367  26.0367
    26.2934  26.2934  26.3370  26.3370  26.6139  26.6139  26.6925  26.6925
    28.0955  28.0955  28.2346  28.2346  29.1586  29.1586  31.0472  31.0472
    31.9187  31.9187  32.4444  32.4444  33.6398  33.6398  35.1735  35.1735
    37.6044  37.6044  37.6711  37.6711  38.8800  38.8800  39.0019  39.0019
    39.7913  39.7913  40.0209  40.0209  40.9267  40.9267  41.1379  41.1379
    41.7349  41.7349  41.7507  41.7507  42.0535  42.0535  42.6006  42.6006
    42.6978  42.6978  42.8780  42.8780  43.6728  43.6728  45.1174  45.1175
    45.7134  45.7134  45.7686

     the Fermi energy is    38.7097 ev

!    total energy              =   -4313.43748988 Ry
     Harris-Foulkes estimate   =   -4313.43749663 Ry
     estimated scf accuracy    <       0.00000786 Ry

     The total energy is the sum of the following terms:

     one-electron contribution =    -829.91004012 Ry
     hartree contribution      =     630.37153493 Ry
     xc contribution           =    -356.99658592 Ry
     ewald contribution        =   -3756.57092590 Ry
     smearing contrib. (-TS)   =      -0.33147287 Ry

     convergence has been achieved in  11 iterations

     Forces acting on atoms (Ry/au):

     atom    1 type  1   force =     0.00000000   -0.03987271   -0.02985091
     atom    2 type  1   force =     0.00000000    0.03987271    0.02985091
     atom    3 type  1   force =     0.00000000   -0.03987271    0.02985091
     atom    4 type  1   force =     0.00000000    0.03987271   -0.02985091
     atom    5 type  1   force =     0.00000000    0.01142041   -0.04731202
     atom    6 type  1   force =     0.00000000   -0.01142041    0.04731202
     atom    7 type  1   force =     0.00000000    0.01142041    0.04731202
     atom    8 type  1   force =     0.00000000   -0.01142041   -0.04731202
     atom    9 type  2   force =     0.00000000   -0.07260801    0.02050651
     atom   10 type  2   force =     0.00000000    0.07260801   -0.02050651
     atom   11 type  2   force =     0.00000000   -0.07260801   -0.02050651
     atom   12 type  2   force =     0.00000000    0.07260801    0.02050651

     Total force =     0.205350     Total SCF correction =     0.000000


     entering subroutine stress ...

          total   stress  (Ry/bohr**3)                   (kbar)     P= 1624.68
   0.01142324   0.00000000   0.00000000       1680.42      0.00      0.00
   0.00000000   0.01071441   0.00000000          0.00   1576.14      0.00
   0.00000000   0.00000000   0.01099535          0.00      0.00   1617.47


     Writing output data file Prototype-La-oP12-Co2Si.save
 
     init_run     :      5.50s CPU      6.78s WALL (       2 calls)
     electrons    :   1237.87s CPU   1442.57s WALL (       5 calls)
     update_pot   :      1.91s CPU      1.97s WALL (       3 calls)
     forces       :      5.34s CPU      5.65s WALL (       5 calls)
     stress       :     14.36s CPU     14.87s WALL (       5 calls)

     Called by init_run:
     wfcinit      :      4.57s CPU      5.76s WALL (       2 calls)
     potinit      :      0.47s CPU      0.50s WALL (       2 calls)

     Called by electrons:
     c_bands      :   1213.35s CPU   1379.23s WALL (      46 calls)
     sum_band     :     24.13s CPU     33.37s WALL (      46 calls)
     v_of_rho     :      0.08s CPU      0.09s WALL (      51 calls)
     mix_rho      :      0.09s CPU      0.12s WALL (      46 calls)

     Called by c_bands:
     init_us_2    :      1.32s CPU      1.55s WALL (    1248 calls)
     ccgdiagg     :   1109.37s CPU   1248.05s WALL (     665 calls)
     wfcrot       :    107.03s CPU    134.18s WALL (     677 calls)

     Called by *cgdiagg:
     h_psi        :    733.04s CPU    874.83s WALL (  590331 calls)
     cdiaghg      :      9.47s CPU     10.45s WALL (     677 calls)

     Called by h_psi:
     add_vuspsi   :    125.77s CPU    142.09s WALL (  590331 calls)

     General routines
     calbec       :    307.17s CPU    322.01s WALL ( 1180105 calls)
     fft          :      0.27s CPU      0.34s WALL (     227 calls)
     fftw         :    423.24s CPU    511.02s WALL ( 1489986 calls)
     davcio       :      0.86s CPU      2.42s WALL (    1800 calls)
 
     Parallel routines
     fft_scatter  :    177.94s CPU    216.83s WALL ( 1490213 calls)
 
     PWSCF        : 21m 5.37s CPU    24m35.14s WALL

 
   This run was terminated on:  12:28:57  22Mar2018            

=------------------------------------------------------------------------------=
   JOB DONE.
=------------------------------------------------------------------------------=
