
     Program PWSCF v.5.0.2 starts on 22Mar2018 at 12: 4:21 

     This program is part of the open-source Quantum ESPRESSO suite
     for quantum simulation of materials; please cite
         "P. Giannozzi et al., J. Phys.:Condens. Matter 21 395502 (2009);
          URL http://www.quantum-espresso.org", 
     in publications or presentations arising from this work. More details at
     http://www.quantum-espresso.org/quote.php

     Parallel version (MPI), running on     4 processors
     R & G space division:  proc/nbgrp/npool/nimage =       4

     Current dimensions of program PWSCF are:
     Max number of different atomic species (ntypx) = 10
     Max number of k-points (npk) =  40000
     Max angular momentum in pseudopotentials (lmaxx) =  3
     Waiting for input...
     Reading input from standard input

     Subspace diagonalization in iterative solution of the eigenvalue problem:
     a serial algorithm will be used

 
     Parallelization info
     --------------------
     sticks:   dense  smooth     PW     G-vecs:    dense   smooth      PW
     Min         267     267     77                11587    11587    1762
     Max         268     268     79                11596    11596    1765
     Sum        1069    1069    313                46361    46361    7055
 


     bravais-lattice index     =            0
     lattice parameter (alat)  =       9.9235  a.u.
     unit-cell volume          =    1361.0366 (a.u.)^3
     number of atoms/cell      =           12
     number of atomic types    =            2
     number of electrons       =       256.00
     number of Kohn-Sham states=          154
     kinetic-energy cutoff     =      40.0000  Ry
     charge density cutoff     =     160.0000  Ry
     convergence threshold     =      1.0E-04
     mixing beta               =       0.7000
     number of iterations used =            8  plain     mixing
     Exchange-correlation      = SLA-PZ-NOGX-NOGC ( 1 1 0 0 0)
     EXX-fraction              =        0.00
     nstep                     =           50


     celldm(1)=   9.923489  celldm(2)=   0.000000  celldm(3)=   0.000000
     celldm(4)=   0.000000  celldm(5)=   0.000000  celldm(6)=   0.000000

     crystal axes: (cart. coord. in units of alat)
               a(1) = (   1.000000   0.000000   0.000000 )  
               a(2) = (  -0.500000   0.866025   0.000000 )  
               a(3) = (   0.000000   0.000000   1.608222 )  

     reciprocal axes: (cart. coord. in units 2 pi/alat)
               b(1) = (  1.000000  0.577350  0.000000 )  
               b(2) = (  0.000000  1.154701  0.000000 )  
               b(3) = (  0.000000  0.000000  0.621805 )  


     PseudoPot. # 1 for Yb read from file:
     /home/jld5415/pp.La/Yb.UPF
     MD5 check sum: 3e859b81cc28c53ec6aa3a2e888efcdf
     Pseudo is Norm-conserving, Zval = 24.0
     Generated in analytical, separable form
     Using radial grid of 1269 points,  6 beta functions with: 
                l(1) =   0
                l(2) =   0
                l(3) =   1
                l(4) =   1
                l(5) =   2
                l(6) =   3

     PseudoPot. # 2 for Dy read from file:
     /home/jld5415/pp.La/Dy.UPF
     MD5 check sum: 9597327bec62616a94a14d07f3fd9936
     Pseudo is Norm-conserving, Zval = 20.0
     Generated in analytical, separable form
     Using radial grid of 1265 points,  6 beta functions with: 
                l(1) =   0
                l(2) =   0
                l(3) =   1
                l(4) =   1
                l(5) =   2
                l(6) =   3

     atomic species   valence    mass     pseudopotential
        Mg            24.00    24.30500     Yb( 1.00)
        Zn            20.00    65.39000     Dy( 1.00)

     24 Sym. Ops., with inversion, found (12 have fractional translation)



   Cartesian axes

     site n.     atom                  positions (alat units)
         1           Mg  tau(   1) = (  -0.0000005   0.5773506   0.1003820  )
         2           Mg  tau(   2) = (   0.5000005   0.2886748   0.9044931  )
         3           Mg  tau(   3) = (   0.5000005   0.2886748   1.5078402  )
         4           Mg  tau(   4) = (  -0.0000005   0.5773506   0.7037291  )
         5           Zn  tau(   5) = (   0.0000000   0.0000000   0.0000000  )
         6           Zn  tau(   6) = (   0.0000000   0.0000000   0.8041111  )
         7           Zn  tau(   7) = (   0.0000000   0.2950739   1.2061667  )
         8           Zn  tau(   8) = (   0.7444585   0.1475370   0.4020556  )
         9           Zn  tau(   9) = (   0.2555415   0.1475370   0.4020556  )
        10           Zn  tau(  10) = (   0.2444585   0.7184884   1.2061667  )
        11           Zn  tau(  11) = (  -0.2444585   0.7184884   1.2061667  )
        12           Zn  tau(  12) = (   0.5000000   0.5709515   0.4020556  )

     number of k points=    12  gaussian smearing, width (Ry)=  0.1000
                       cart. coord. in units 2pi/alat
        k(    1) = (   0.0000000   0.0000000   0.0000000), wk =   0.0833333
        k(    2) = (   0.0000000   0.0000000   0.1554512), wk =   0.1666667
        k(    3) = (   0.0000000   0.0000000  -0.3109023), wk =   0.0833333
        k(    4) = (   0.0000000   0.3849002   0.0000000), wk =   0.1666667
        k(    5) = (   0.0000000   0.3849002   0.1554512), wk =   0.3333333
        k(    6) = (   0.0000000   0.3849002  -0.3109023), wk =   0.1666667
        k(    7) = (  -0.5000000  -0.2886751   0.0000000), wk =   0.0833333
        k(    8) = (  -0.5000000  -0.2886751   0.1554512), wk =   0.1666667
        k(    9) = (  -0.5000000  -0.2886751  -0.3109023), wk =   0.0833333
        k(   10) = (  -0.5000000   0.0962250   0.0000000), wk =   0.1666667
        k(   11) = (  -0.5000000   0.0962250   0.1554512), wk =   0.3333333
        k(   12) = (  -0.5000000   0.0962250  -0.3109023), wk =   0.1666667

     Dense  grid:    46361 G-vectors     FFT dimensions: (  40,  40,  72)

     Largest allocated arrays     est. size (Mb)     dimensions
        Kohn-Sham Wavefunctions         3.47 Mb     (   1478,  154)
        NL pseudopotentials             5.41 Mb     (   1478,  240)
        Each V/rho on FFT grid          0.44 Mb     (  28800)
        Each G-vector array             0.09 Mb     (  11589)
        G-vector shells                 0.09 Mb     (  11589)
     Largest temporary arrays     est. size (Mb)     dimensions
        Each subspace H/S matrix        0.36 Mb     ( 154, 154)
        Each <psi_i|beta_j> matrix      0.56 Mb     (    240,  154)
        Arrays for rho mixing           3.52 Mb     (  28800,   8)

     Initial potential from superposition of free atoms

     Starting from uniform charge
     Starting wfc are    0 randomized atomic wfcs

     total cpu time spent up to now is        4.3 secs

     Self-consistent Calculation

     iteration #  1     ecut=    40.00 Ry     beta=0.70
     CG style diagonalization
     c_bands:  3 eigenvalues not converged
     c_bands:  3 eigenvalues not converged
     c_bands:  3 eigenvalues not converged
     c_bands:  4 eigenvalues not converged
     c_bands:  2 eigenvalues not converged
     c_bands:  5 eigenvalues not converged
     c_bands:  4 eigenvalues not converged
     c_bands:  5 eigenvalues not converged
     c_bands:  4 eigenvalues not converged
     c_bands:  4 eigenvalues not converged
     c_bands:  4 eigenvalues not converged
     c_bands:  2 eigenvalues not converged
     ethr =  1.00E-02,  avg # of iterations = 13.0

     total cpu time spent up to now is       79.8 secs

     total energy              =   -3238.82511175 Ry
     Harris-Foulkes estimate   =   -4571.09109075 Ry
     estimated scf accuracy    <    1669.96236271 Ry

     iteration #  2     ecut=    40.00 Ry     beta=0.70
     CG style diagonalization
     ethr =  1.00E-02,  avg # of iterations = 10.3

     total cpu time spent up to now is      136.4 secs

     total energy              =   -3426.07888060 Ry
     Harris-Foulkes estimate   =   -3914.25723556 Ry
     estimated scf accuracy    <     744.09329601 Ry

     iteration #  3     ecut=    40.00 Ry     beta=0.70
     CG style diagonalization
     c_bands:  5 eigenvalues not converged
     c_bands:  4 eigenvalues not converged
     c_bands:  1 eigenvalues not converged
     c_bands:  1 eigenvalues not converged
     c_bands:  1 eigenvalues not converged
     c_bands:  2 eigenvalues not converged
     c_bands:  3 eigenvalues not converged
     c_bands:  2 eigenvalues not converged
     c_bands:  2 eigenvalues not converged
     c_bands:  1 eigenvalues not converged
     ethr =  1.00E-02,  avg # of iterations = 10.3

     total cpu time spent up to now is      193.0 secs

     total energy              =   -3527.71717723 Ry
     Harris-Foulkes estimate   =   -3859.88527652 Ry
     estimated scf accuracy    <     960.27693439 Ry

     iteration #  4     ecut=    40.00 Ry     beta=0.70
     CG style diagonalization
     c_bands:  2 eigenvalues not converged
     c_bands:  1 eigenvalues not converged
     ethr =  1.00E-02,  avg # of iterations =  7.4

     total cpu time spent up to now is      233.9 secs

     total energy              =   -3718.55964329 Ry
     Harris-Foulkes estimate   =   -3724.06107122 Ry
     estimated scf accuracy    <      14.21076429 Ry

     iteration #  5     ecut=    40.00 Ry     beta=0.70
     CG style diagonalization
     ethr =  5.55E-03,  avg # of iterations =  3.3

     total cpu time spent up to now is      250.2 secs

     total energy              =   -3718.99922852 Ry
     Harris-Foulkes estimate   =   -3720.06484026 Ry
     estimated scf accuracy    <       2.97190531 Ry

     iteration #  6     ecut=    40.00 Ry     beta=0.70
     CG style diagonalization
     ethr =  1.16E-03,  avg # of iterations =  3.6

     total cpu time spent up to now is      268.2 secs

     total energy              =   -3719.28883819 Ry
     Harris-Foulkes estimate   =   -3719.41577295 Ry
     estimated scf accuracy    <       0.42447978 Ry

     iteration #  7     ecut=    40.00 Ry     beta=0.70
     CG style diagonalization
     ethr =  1.66E-04,  avg # of iterations =  3.6

     total cpu time spent up to now is      286.3 secs

     total energy              =   -3719.28351406 Ry
     Harris-Foulkes estimate   =   -3719.34315201 Ry
     estimated scf accuracy    <       0.16233714 Ry

     iteration #  8     ecut=    40.00 Ry     beta=0.70
     CG style diagonalization
     c_bands:  1 eigenvalues not converged
     ethr =  6.34E-05,  avg # of iterations =  3.4

     total cpu time spent up to now is      303.7 secs

     total energy              =   -3719.28991743 Ry
     Harris-Foulkes estimate   =   -3719.30269354 Ry
     estimated scf accuracy    <       0.02972026 Ry

     iteration #  9     ecut=    40.00 Ry     beta=0.70
     CG style diagonalization
     c_bands:  1 eigenvalues not converged
     c_bands:  1 eigenvalues not converged
     c_bands:  1 eigenvalues not converged
     ethr =  1.16E-05,  avg # of iterations =  3.9

     total cpu time spent up to now is      323.7 secs

     total energy              =   -3719.29475196 Ry
     Harris-Foulkes estimate   =   -3719.29565732 Ry
     estimated scf accuracy    <       0.00216909 Ry

     iteration # 10     ecut=    40.00 Ry     beta=0.70
     CG style diagonalization
     c_bands:  1 eigenvalues not converged
     ethr =  8.47E-07,  avg # of iterations =  4.1

     total cpu time spent up to now is      344.8 secs

     total energy              =   -3719.29530845 Ry
     Harris-Foulkes estimate   =   -3719.29546299 Ry
     estimated scf accuracy    <       0.00036477 Ry

     iteration # 11     ecut=    40.00 Ry     beta=0.70
     CG style diagonalization
     ethr =  1.42E-07,  avg # of iterations =  3.6

     total cpu time spent up to now is      362.1 secs

     End of self-consistent calculation

          k = 0.0000 0.0000 0.0000 (  5769 PWs)   bands (ev):

   -89.9882 -89.9659 -89.9587 -89.8943 -50.7450 -50.7013 -50.6011 -50.5366
   -50.5365 -50.5309 -50.5308 -50.5289 -48.8169 -48.8082 -48.7978 -48.7977
   -48.7975 -48.7876 -48.7876 -48.7840 -48.7774 -48.7774 -48.7724 -48.7724
   -18.9769 -18.7379 -18.3724 -18.0276 -18.0276 -17.9730 -17.9730 -17.8801
   -17.8800 -17.6906 -17.6876 -17.5238 -17.5237 -17.5166 -17.5166 -17.1954
   -17.1949 -17.1949 -17.1725 -17.1631 -17.1631 -17.1607 -17.1372 -17.1372
     8.8717   8.8717   8.8836   8.8914   8.9236   8.9236   8.9483   8.9483
     9.0122   9.0122   9.1529   9.1529   9.1931   9.2282   9.2283   9.2317
     9.2337   9.2337   9.2861   9.2861  17.1552  17.7026  18.2147  18.3770
    19.4191  19.7618  19.9197  19.9197  20.0185  20.0185  20.0742  20.1994
    20.1994  20.9066  20.9340  20.9341  21.9230  21.9230  21.9554  21.9554
    22.6712  22.6712  23.0961  23.1369  23.7272  23.7273  24.3445  24.6622
    24.7935  24.8197  24.8197  24.8594  24.8594  24.9897  24.9956  24.9956
    24.9974  24.9975  26.1912  26.3310  26.3311  26.8077  26.8077  27.9580
    27.9606  28.5847  28.5847  28.6453  28.8334  29.0420  29.0420  30.6534
    30.7441  30.7443  30.7776  31.2343  31.2345  31.6243  32.3295  34.3307
    34.3307  34.7150  35.7671  36.0210  36.0210  37.6357  37.6358  37.7672
    37.7673  37.9279  37.9279  38.4441  38.4826  38.7239  38.7431  38.7431
    39.2214  39.2215  40.1770  40.7465  40.8354  40.9463  40.9463  41.3275
    42.2986  42.9517

          k = 0.0000 0.0000 0.1555 (  5780 PWs)   bands (ev):

   -89.9918 -89.9896 -89.9481 -89.9028 -50.7384 -50.7094 -50.5834 -50.5456
   -50.5386 -50.5385 -50.5345 -50.5344 -48.8136 -48.8120 -48.8003 -48.7937
   -48.7937 -48.7935 -48.7935 -48.7861 -48.7778 -48.7778 -48.7742 -48.7742
   -18.9538 -18.7905 -18.2952 -18.0269 -18.0269 -17.9904 -17.9904 -17.8871
   -17.8429 -17.8429 -17.6485 -17.6485 -17.4986 -17.4050 -17.4050 -17.2263
   -17.2166 -17.2166 -17.1763 -17.1706 -17.1610 -17.1609 -17.1439 -17.1439
     8.8811   8.8811   8.8831   8.8874   8.9244   8.9244   8.9466   8.9466
     8.9978   8.9978   9.1642   9.1642   9.2018   9.2110   9.2110   9.2282
     9.2500   9.2500   9.2812   9.2812  17.3083  17.7500  17.9612  18.4150
    19.2308  19.9262  19.9308  19.9308  19.9904  19.9904  20.0404  20.3560
    20.3561  20.7672  21.0029  21.0029  21.4575  21.4575  21.7112  21.7112
    23.1325  23.2428  23.2428  23.6276  23.9400  23.9401  24.2694  24.6806
    24.7592  24.7592  24.7734  24.7949  24.7949  25.0053  25.0053  25.0144
    25.0144  25.2395  26.1597  26.2989  26.2990  26.7220  26.7220  27.6169
    27.9583  27.9600  28.2975  28.2976  28.7262  28.7262  28.9607  30.1601
    30.9244  31.2452  31.2454  31.5990  31.5991  31.8312  33.3272  34.3282
    34.3283  34.4446  35.5713  35.5714  36.2603  37.0918  37.0918  37.6570
    37.6570  37.7496  38.5773  38.5774  38.7134  39.1046  39.1047  39.2168
    39.3020  39.3021  39.8836  40.2571  40.9156  41.1059  41.1842  41.1842
    41.7747  41.7752

          k = 0.0000 0.0000-0.3109 (  5780 PWs)   bands (ev):

   -89.9836 -89.9835 -89.9302 -89.9301 -50.7320 -50.7320 -50.5704 -50.5704
   -50.5288 -50.5288 -50.5287 -50.5287 -48.8127 -48.8126 -48.8007 -48.8007
   -48.7925 -48.7925 -48.7925 -48.7925 -48.7734 -48.7734 -48.7734 -48.7733
   -18.8803 -18.8803 -18.1288 -18.1288 -18.0065 -18.0065 -18.0065 -18.0065
   -17.7513 -17.7513 -17.7512 -17.7512 -17.3440 -17.3439 -17.2949 -17.2949
   -17.2949 -17.2949 -17.1656 -17.1656 -17.1548 -17.1548 -17.1548 -17.1548
     8.8826   8.8827   8.9045   8.9045   8.9045   8.9045   8.9677   8.9678
     8.9678   8.9678   9.1881   9.1881   9.1881   9.1881   9.2167   9.2168
     9.2682   9.2682   9.2682   9.2682  17.6640  17.6640  17.9659  17.9659
    19.5736  19.5736  19.9575  19.9575  19.9575  19.9575  20.3870  20.3870
    20.7536  20.7536  20.7536  20.7536  21.3609  21.3609  21.3609  21.3609
    23.4944  23.4944  23.9022  23.9022  23.9022  23.9022  24.7043  24.7043
    24.7043  24.7043  24.7271  24.7271  25.0249  25.0249  25.0250  25.0250
    25.1359  25.1359  26.2795  26.2795  26.4278  26.4278  26.4279  26.4279
    27.9592  27.9592  28.2842  28.2842  28.2842  28.2843  29.4921  29.4921
    31.3759  31.3759  31.8238  31.8238  31.8238  31.8238  34.4374  34.4374
    34.6771  34.6771  34.6772  34.6772  36.8462  36.8462  37.2201  37.2201
    37.2202  37.2202  39.0863  39.0863  39.0863  39.0864  39.3598  39.3598
    39.4509  39.4509  40.2457  40.2457  40.2457  40.2458  41.0602  41.0603
    42.0933  42.0933

          k = 0.0000 0.3849 0.0000 (  5787 PWs)   bands (ev):

   -89.9861 -89.9754 -89.9469 -89.9402 -50.7252 -50.6643 -50.6023 -50.6013
   -50.5591 -50.5355 -50.5290 -50.5145 -48.8118 -48.8088 -48.7991 -48.7981
   -48.7956 -48.7943 -48.7909 -48.7860 -48.7819 -48.7818 -48.7781 -48.7732
   -18.7337 -18.5105 -18.3696 -18.0768 -17.9700 -17.9101 -17.8773 -17.8731
   -17.7936 -17.7056 -17.6253 -17.5772 -17.5495 -17.5457 -17.5173 -17.4450
   -17.3704 -17.3333 -17.3199 -17.2150 -17.1862 -17.1605 -17.1578 -17.1521
     8.8165   8.8395   8.8649   8.9101   8.9440   8.9444   8.9625   9.0214
     9.0510   9.0590   9.0776   9.0917   9.1008   9.1825   9.1945   9.2148
     9.2676   9.2800   9.3061   9.3224  18.0685  18.5996  18.7803  19.2518
    19.3989  19.6462  19.9262  20.1576  20.4978  20.5389  20.7381  21.0092
    21.0232  21.1881  21.4665  21.5816  21.6244  21.9933  22.0066  22.0502
    22.2246  22.3825  22.7548  22.9435  23.1227  23.2674  23.3263  23.4187
    23.6823  24.1172  24.1372  24.3984  24.4775  24.7385  24.7473  24.8490
    25.0090  25.1596  25.2610  25.2957  25.4844  25.5845  26.4599  26.4955
    26.7745  27.1811  27.2038  28.0795  28.5649  28.5665  29.0066  30.6692
    30.7786  31.6086  32.1859  32.5699  33.8069  33.9339  34.5209  34.8396
    34.9294  35.2585  36.2795  36.5602  36.5688  36.8121  37.2259  37.2933
    37.8534  37.8844  37.9713  38.2455  39.0693  39.5467  39.6831  39.7826
    40.2696  40.7517  41.0981  41.1263  41.4260  41.5055  41.8664  42.1570
    42.1826  42.2563

          k = 0.0000 0.3849 0.1555 (  5804 PWs)   bands (ev):

   -89.9987 -89.9873 -89.9558 -89.9506 -50.7200 -50.6794 -50.6049 -50.5984
   -50.5555 -50.5403 -50.5343 -50.5199 -48.8153 -48.8125 -48.8016 -48.7983
   -48.7966 -48.7965 -48.7922 -48.7919 -48.7840 -48.7813 -48.7771 -48.7736
   -18.7204 -18.5836 -18.2835 -18.0949 -17.9704 -17.8810 -17.8744 -17.8708
   -17.8142 -17.7812 -17.6922 -17.6386 -17.5467 -17.5141 -17.4402 -17.3979
   -17.3735 -17.3040 -17.3024 -17.2400 -17.2115 -17.1767 -17.1642 -17.1605
     8.8268   8.8474   8.8702   8.9006   8.9210   8.9458   8.9767   8.9949
     9.0284   9.0384   9.1113   9.1146   9.1248   9.1697   9.1901   9.2280
     9.2720   9.2753   9.3016   9.3121  18.1746  18.6185  18.6698  19.2110
    19.4752  19.6377  19.9143  20.2193  20.5396  20.5867  20.7144  20.7575
    20.8602  21.2415  21.2468  21.5581  21.6451  21.8109  22.0104  22.0221
    22.3471  22.5678  22.8155  23.1329  23.2051  23.4423  23.5448  23.6273
    23.8124  24.0057  24.0360  24.4723  24.5059  24.6521  24.6854  24.8760
    24.9285  24.9909  24.9912  25.4003  25.4701  25.5241  26.4565  26.4966
    26.7134  26.8616  27.2469  28.3788  28.5789  28.6764  29.0725  30.3627
    30.5513  31.8253  32.0848  32.8487  33.2129  34.1114  34.7682  35.0213
    35.1575  35.4059  35.8662  35.9674  36.7190  37.0332  37.1673  37.5114
    37.8648  38.1567  38.2856  38.9528  38.9608  39.3299  39.4601  39.8728
    40.3940  40.4009  40.7467  40.8647  41.1606  41.4136  41.7057  41.8343
    41.9559  42.3755

          k = 0.0000 0.3849-0.3109 (  5816 PWs)   bands (ev):

   -89.9972 -89.9971 -89.9651 -89.9650 -50.7019 -50.7019 -50.6045 -50.6045
   -50.5406 -50.5406 -50.5374 -50.5374 -48.8130 -48.8129 -48.8046 -48.8045
   -48.7962 -48.7961 -48.7936 -48.7936 -48.7833 -48.7833 -48.7774 -48.7774
   -18.6707 -18.6707 -18.1688 -18.1688 -17.9277 -17.9277 -17.8747 -17.8747
   -17.7988 -17.7988 -17.7289 -17.7289 -17.5143 -17.5143 -17.3910 -17.3910
   -17.3073 -17.3073 -17.2632 -17.2632 -17.2344 -17.2344 -17.1606 -17.1606
     8.8492   8.8493   8.8840   8.8840   8.9145   8.9145   9.0024   9.0024
     9.0064   9.0064   9.1384   9.1385   9.1417   9.1417   9.2118   9.2118
     9.2858   9.2858   9.2898   9.2898  18.4182  18.4182  18.8337  18.8337
    19.7007  19.7007  20.1373  20.1373  20.3984  20.3984  20.7026  20.7026
    20.9040  20.9040  21.4426  21.4426  21.7080  21.7080  21.9089  21.9089
    22.6030  22.6030  23.1605  23.1605  23.5049  23.5049  23.6190  23.6190
    23.9608  23.9608  24.3346  24.3346  24.5453  24.5453  24.5958  24.5958
    24.8310  24.8310  25.1887  25.1887  25.4563  25.4563  26.4982  26.4982
    26.6030  26.6030  27.9560  27.9560  28.6756  28.6756  29.4218  29.4219
    31.2166  31.2166  33.0528  33.0529  33.1285  33.1285  35.1099  35.1099
    35.3348  35.3348  35.5532  35.5532  37.2109  37.2109  37.6655  37.6655
    37.9780  37.9781  38.6853  38.6853  39.1221  39.1221  39.8548  39.8548
    40.1389  40.1390  40.4894  40.4895  41.0878  41.0879  41.8435  41.8437
    41.9601  41.9602

          k =-0.5000-0.2887 0.0000 (  5800 PWs)   bands (ev):

   -89.9918 -89.9812 -89.9728 -89.9349 -50.7062 -50.6534 -50.6198 -50.6025
   -50.5776 -50.5447 -50.5298 -50.5135 -48.8163 -48.8089 -48.7999 -48.7994
   -48.7956 -48.7910 -48.7898 -48.7891 -48.7890 -48.7867 -48.7798 -48.7706
   -18.6236 -18.4057 -18.3639 -18.1683 -17.9199 -17.9155 -17.8750 -17.7876
   -17.7243 -17.6837 -17.6420 -17.6229 -17.5796 -17.5649 -17.5278 -17.5261
   -17.4920 -17.3803 -17.3706 -17.2312 -17.1875 -17.1601 -17.1585 -17.1394
     8.8159   8.8288   8.8721   8.8994   8.9445   8.9494   8.9684   9.0436
     9.0538   9.0650   9.0684   9.0710   9.0751   9.1698   9.1958   9.2083
     9.2777   9.2969   9.3071   9.3193  18.8270  18.9619  18.9708  19.1164
    19.5086  19.7279  19.8395  20.2674  20.7824  20.8541  20.9208  21.1682
    21.1802  21.1859  21.4538  21.8651  22.0299  22.1573  22.1763  22.3253
    22.5553  22.5585  22.5899  22.6396  22.9418  22.9515  22.9959  23.2579
    23.3745  23.4589  23.6423  23.7552  23.8696  24.5526  24.6263  24.7249
    24.7506  24.8318  24.8659  24.8783  24.9527  25.3002  26.5132  26.5581
    26.7051  26.7671  27.1625  28.2540  28.4157  28.5719  28.7394  30.8417
    31.1281  32.2688  32.8944  33.3791  33.9549  34.1633  34.3989  35.4166
    35.5048  35.5174  35.5996  36.1793  36.4293  36.7612  37.0635  37.2940
    38.1536  38.2519  38.4047  38.4760  38.5841  38.7250  39.9163  40.3638
    41.0988  41.3012  41.3069  41.6697  41.7083  41.9314  42.1390  42.3217
    42.4462  42.6227

          k =-0.5000-0.2887 0.1555 (  5822 PWs)   bands (ev):

   -90.0084 -90.0043 -89.9644 -89.9610 -50.7030 -50.6603 -50.6242 -50.6151
   -50.5639 -50.5474 -50.5384 -50.5234 -48.8149 -48.8148 -48.8023 -48.8009
   -48.7987 -48.7965 -48.7948 -48.7940 -48.7888 -48.7869 -48.7774 -48.7745
   -18.6112 -18.4886 -18.2819 -18.1742 -17.9369 -17.8715 -17.8638 -17.8024
   -17.7774 -17.7212 -17.6847 -17.6224 -17.6213 -17.5990 -17.5139 -17.4991
   -17.4341 -17.3467 -17.3162 -17.2563 -17.2121 -17.1666 -17.1658 -17.1621
     8.8260   8.8387   8.8745   8.8927   8.9330   8.9543   8.9825   8.9835
     9.0001   9.0439   9.1017   9.1213   9.1346   9.1583   9.1920   9.2097
     9.2825   9.2883   9.3029   9.3071  18.7814  18.9423  19.1477  19.2019
    19.3947  19.5484  20.0404  20.3175  20.7456  20.8168  20.8215  20.8690
    21.1862  21.2716  21.5207  21.7937  21.9570  22.0489  22.2205  22.3747
    22.4549  22.6079  22.7116  22.7893  22.8176  22.9957  23.1215  23.4633
    23.4926  23.5236  23.7160  23.7581  23.9778  24.2346  24.5213  24.6292
    24.7181  24.7560  24.8162  24.9387  24.9535  25.2341  26.5107  26.6135
    26.7581  26.8071  27.3001  27.9470  28.4815  28.6202  29.4708  29.9418
    30.9236  32.6573  32.8870  33.0212  33.7429  34.5606  34.7360  34.9056
    35.5418  35.6914  35.7506  36.2580  36.4106  36.8483  36.8623  36.8673
    38.3409  38.6713  38.7231  38.8598  38.9024  39.0131  39.6518  40.3956
    40.5087  40.7021  41.0873  41.5078  41.5304  41.6207  41.7059  41.9288
    42.5881  42.6689

          k =-0.5000-0.2887-0.3109 (  5804 PWs)   bands (ev):

   -89.9848 -89.9847 -89.9612 -89.9611 -50.6781 -50.6781 -50.6165 -50.6165
   -50.5418 -50.5418 -50.5408 -50.5408 -48.8111 -48.8110 -48.7961 -48.7961
   -48.7957 -48.7956 -48.7920 -48.7919 -48.7867 -48.7867 -48.7788 -48.7788
   -18.5655 -18.5655 -18.2068 -18.2068 -17.8816 -17.8816 -17.8347 -17.8347
   -17.7887 -17.7887 -17.6558 -17.6558 -17.6153 -17.6153 -17.5015 -17.5015
   -17.3251 -17.3251 -17.2738 -17.2738 -17.2207 -17.2207 -17.1624 -17.1624
     8.8459   8.8459   8.8818   8.8818   8.9303   8.9303   8.9712   8.9713
     9.0125   9.0125   9.1318   9.1319   9.1633   9.1634   9.1990   9.1991
     9.2851   9.2851   9.2934   9.2934  18.8440  18.8440  19.2944  19.2944
    19.3997  19.3997  20.2711  20.2711  20.5117  20.5117  20.8709  20.8709
    21.2352  21.2352  21.7649  21.7649  21.9581  21.9581  22.1295  22.1295
    22.6752  22.6752  22.7270  22.7270  22.9622  22.9622  23.3087  23.3087
    23.6514  23.6514  23.8241  23.8241  24.2117  24.2117  24.3525  24.3526
    24.6650  24.6650  24.8442  24.8442  25.0819  25.0819  26.5023  26.5024
    26.6149  26.6149  28.5083  28.5083  28.6484  28.6484  28.7668  28.7669
    31.7792  31.7792  33.2645  33.2645  33.6249  33.6249  35.3030  35.3031
    35.5982  35.5982  36.2086  36.2086  36.5176  36.5176  36.6623  36.6623
    38.6048  38.6049  39.1043  39.1043  39.3278  39.3279  40.0332  40.0333
    40.4052  40.4052  40.7375  40.7375  41.2813  41.2813  42.0449  42.0449
    42.3055  42.3055

          k =-0.5000 0.0962 0.0000 (  5827 PWs)   bands (ev):

   -90.0107 -89.9895 -89.9867 -89.9622 -50.7118 -50.6516 -50.6275 -50.6092
   -50.5798 -50.5474 -50.5388 -50.5135 -48.8169 -48.8148 -48.8023 -48.8006
   -48.7989 -48.7979 -48.7943 -48.7894 -48.7868 -48.7865 -48.7816 -48.7800
   -18.6147 -18.4054 -18.3646 -18.1756 -18.0103 -17.9185 -17.8918 -17.7569
   -17.7257 -17.7108 -17.6188 -17.6163 -17.5802 -17.5622 -17.5425 -17.5273
   -17.4069 -17.3677 -17.3352 -17.2350 -17.2283 -17.2211 -17.1802 -17.1476
     8.8163   8.8275   8.8548   8.8811   8.9626   8.9732   8.9869   9.0458
     9.0568   9.0600   9.0649   9.0774   9.0831   9.1510   9.1716   9.1746
     9.2944   9.2972   9.3156   9.3334  18.6380  19.0523  19.0888  19.3595
    19.3689  19.8550  19.9707  20.2659  20.6130  20.8069  20.9468  21.1163
    21.1399  21.4364  21.4956  21.6386  21.7468  21.9469  22.0550  22.2879
    22.3164  22.4664  22.4971  22.6229  22.8680  22.8778  23.0247  23.1040
    23.5686  23.6917  23.7657  23.9672  24.1748  24.2597  24.2873  24.7408
    24.7850  24.8744  25.2755  25.3522  25.4180  25.5931  26.3860  26.4104
    26.4596  26.6756  26.9647  27.8316  27.9273  29.1601  29.4077  30.9558
    31.1994  32.0883  32.9306  32.9947  33.5583  33.9398  34.2658  34.3769
    35.2150  35.3840  35.7810  35.9124  36.8068  37.2565  37.7933  37.8770
    38.0753  38.0882  38.2540  38.8523  38.8691  39.5781  40.1924  40.4106
    40.5145  40.9030  41.1186  41.1983  41.6990  42.0383  42.1889  42.3096
    42.5306  42.5809

          k =-0.5000 0.0962 0.1555 (  5825 PWs)   bands (ev):

   -90.0103 -89.9917 -89.9753 -89.9668 -50.7042 -50.6636 -50.6247 -50.6182
   -50.5648 -50.5427 -50.5382 -50.5211 -48.8146 -48.8140 -48.8025 -48.8010
   -48.7994 -48.7983 -48.7945 -48.7930 -48.7864 -48.7852 -48.7794 -48.7789
   -18.5989 -18.4799 -18.2883 -18.1864 -17.9883 -17.8931 -17.8738 -17.7906
   -17.7658 -17.7134 -17.6995 -17.6688 -17.5852 -17.5688 -17.4753 -17.4568
   -17.3892 -17.3381 -17.3091 -17.2485 -17.2364 -17.2218 -17.1940 -17.1656
     8.8265   8.8368   8.8573   8.8743   8.9479   8.9714   8.9858   9.0020
     9.0278   9.0486   9.0970   9.1109   9.1287   9.1394   9.1638   9.1886
     9.2854   9.3027   9.3051   9.3280  18.6960  18.9976  19.1076  19.4056
    19.4506  19.6298  20.1576  20.3374  20.6601  20.7408  20.7931  20.8902
    21.0659  21.3063  21.5394  21.6705  21.8304  22.0110  22.0601  22.1046
    22.2748  22.4019  22.6759  22.7311  22.8962  23.1121  23.1562  23.2430
    23.5418  23.7134  23.8481  24.0394  24.1521  24.2399  24.3859  24.5270
    24.7507  24.8426  25.0883  25.2244  25.3562  25.4684  26.1007  26.1987
    26.5981  26.7764  27.2608  27.7881  28.8774  29.1174  29.4196  30.3750
    30.9976  31.6834  32.5486  32.8290  33.8201  34.2366  34.7332  35.0407
    35.1043  35.1897  35.3357  35.9423  36.8248  37.3235  37.5701  38.0392
    38.2586  38.4268  38.6353  38.7230  39.3130  39.5722  39.9040  40.1821
    40.4720  40.6563  40.9060  40.9505  41.4188  41.4728  41.8692  42.0862
    42.4088  42.6138

          k =-0.5000 0.0962-0.3109 (  5824 PWs)   bands (ev):

   -89.9966 -89.9965 -89.9746 -89.9745 -50.6846 -50.6846 -50.6244 -50.6243
   -50.5415 -50.5415 -50.5378 -50.5378 -48.8133 -48.8132 -48.8012 -48.8012
   -48.7985 -48.7985 -48.7938 -48.7938 -48.7860 -48.7860 -48.7803 -48.7803
   -18.5530 -18.5530 -18.2185 -18.2185 -17.9085 -17.9085 -17.8497 -17.8497
   -17.7772 -17.7772 -17.7013 -17.7013 -17.5808 -17.5808 -17.4350 -17.4349
   -17.3288 -17.3288 -17.2721 -17.2721 -17.2329 -17.2329 -17.2089 -17.2089
     8.8449   8.8449   8.8635   8.8636   8.9354   8.9354   9.0001   9.0002
     9.0253   9.0253   9.1189   9.1189   9.1412   9.1412   9.1852   9.1853
     9.2837   9.2837   9.3154   9.3154  18.8388  18.8388  19.2582  19.2582
    19.5737  19.5737  20.3442  20.3442  20.5818  20.5818  20.7692  20.7692
    21.0624  21.0624  21.6718  21.6718  21.9360  21.9360  22.0280  22.0280
    22.3218  22.3218  22.8314  22.8314  23.0414  23.0414  23.4290  23.4290
    23.7059  23.7059  23.8397  23.8397  24.1698  24.1698  24.5240  24.5240
    24.7775  24.7775  24.9538  24.9538  25.2773  25.2773  26.0064  26.0064
    26.6984  26.6984  28.0205  28.0205  28.9199  28.9200  29.8996  29.8996
    31.0395  31.0395  32.3768  32.3768  34.4516  34.4516  34.7522  34.7523
    35.2857  35.2857  35.7374  35.7374  36.9650  36.9650  38.0822  38.0823
    38.3470  38.3470  38.9233  38.9233  39.2504  39.2504  39.9068  39.9069
    40.6043  40.6043  40.7722  40.7723  41.0755  41.0756  42.0844  42.0844
    42.5028  42.5029

     the Fermi energy is    34.8689 ev

!    total energy              =   -3719.29535541 Ry
     Harris-Foulkes estimate   =   -3719.29538817 Ry
     estimated scf accuracy    <       0.00003553 Ry

     The total energy is the sum of the following terms:

     one-electron contribution =    -680.63944131 Ry
     hartree contribution      =     544.46312823 Ry
     xc contribution           =    -323.41284160 Ry
     ewald contribution        =   -3259.34806546 Ry
     smearing contrib. (-TS)   =      -0.35813528 Ry

     convergence has been achieved in  11 iterations

     Forces acting on atoms (Ry/au):

     atom    1 type  1   force =     0.00000000    0.00000000    0.01962924
     atom    2 type  1   force =     0.00000000    0.00000000    0.01962924
     atom    3 type  1   force =     0.00000000    0.00000000   -0.01962924
     atom    4 type  1   force =     0.00000000    0.00000000   -0.01962924
     atom    5 type  2   force =     0.00000000    0.00000000    0.00000000
     atom    6 type  2   force =     0.00000000    0.00000000    0.00000000
     atom    7 type  2   force =     0.00000000    0.03043109    0.00000000
     atom    8 type  2   force =    -0.02635410    0.01521554    0.00000000
     atom    9 type  2   force =     0.02635410    0.01521554    0.00000000
     atom   10 type  2   force =    -0.02635410   -0.01521554    0.00000000
     atom   11 type  2   force =     0.02635410   -0.01521554    0.00000000
     atom   12 type  2   force =     0.00000000   -0.03043109    0.00000000

     Total force =     0.084247     Total SCF correction =     0.000000


     entering subroutine stress ...

          total   stress  (Ry/bohr**3)                   (kbar)     P= 1084.44
   0.00725702   0.00000000   0.00000000       1067.54      0.00      0.00
   0.00000000   0.00725702   0.00000000          0.00   1067.54      0.00
   0.00000000   0.00000000   0.00760159          0.00      0.00   1118.23


     BFGS Geometry Optimization

     number of scf cycles    =   1
     number of bfgs steps    =   0

     enthalpy new            =   -3719.2953554147 Ry

     new trust radius        =       0.5000000000 bohr
     new conv_thr            =       0.0001000000 Ry

     new unit-cell volume =   1647.38265 a.u.^3 (   244.11692 Ang^3 )

CELL_PARAMETERS (alat=  9.92348860)
   1.064693264   0.000000000   0.000000000
  -0.532346632   0.922051414   0.000000000
   0.000000000   0.000000000   1.717203317

ATOMIC_POSITIONS (crystal)
Mg       0.333333000   0.666667000   0.062856585
Mg       0.666667000   0.333333000   0.562856585
Mg       0.666667000   0.333333000   0.937143415
Mg       0.333333000   0.666667000   0.437143415
Zn       0.000000000   0.000000000   0.000000000
Zn       0.000000000   0.000000000   0.500000000
Zn       0.170992325   0.341984650   0.750000000
Zn       0.829007675   0.170992325   0.250000000
Zn       0.341984650   0.170992325   0.250000000
Zn       0.658015350   0.829007675   0.750000000
Zn       0.170992325   0.829007675   0.750000000
Zn       0.829007675   0.658015350   0.250000000



     Writing output data file Prototype-La-hP12-MgZn2.save
     NEW-OLD atomic charge density approx. for the potential
     NEW k-points:
        k(    1) = (   0.0000000   0.0000000   0.0000000), wk =   0.0833333
        k(    2) = (   0.0000000   0.0000000   0.1455856), wk =   0.1666667
        k(    3) = (   0.0000000   0.0000000  -0.2911711), wk =   0.0833333
        k(    4) = (   0.0000000   0.3615127   0.0000000), wk =   0.1666667
        k(    5) = (   0.0000000   0.3615127   0.1455856), wk =   0.3333333
        k(    6) = (   0.0000000   0.3615127  -0.2911711), wk =   0.1666667
        k(    7) = (  -0.4696188  -0.2711346   0.0000000), wk =   0.0833333
        k(    8) = (  -0.4696188  -0.2711346   0.1455856), wk =   0.1666667
        k(    9) = (  -0.4696188  -0.2711346  -0.2911711), wk =   0.0833333
        k(   10) = (  -0.4696188   0.0903782   0.0000000), wk =   0.1666667
        k(   11) = (  -0.4696188   0.0903782   0.1455856), wk =   0.3333333
        k(   12) = (  -0.4696188   0.0903782  -0.2911711), wk =   0.1666667

     total cpu time spent up to now is      369.1 secs

     Self-consistent Calculation

     iteration #  1     ecut=    40.00 Ry     beta=0.70
     CG style diagonalization
     c_bands:  1 eigenvalues not converged
     c_bands:  1 eigenvalues not converged
     ethr =  1.00E-06,  avg # of iterations = 19.6

     total cpu time spent up to now is      470.7 secs

     total energy              =   -3708.13826060 Ry
     Harris-Foulkes estimate   =   -3735.36427682 Ry
     estimated scf accuracy    <      34.03074055 Ry

     iteration #  2     ecut=    40.00 Ry     beta=0.70
     CG style diagonalization
     ethr =  1.00E-02,  avg # of iterations =  3.9

     total cpu time spent up to now is      490.3 secs

     total energy              =   -3718.23884175 Ry
     Harris-Foulkes estimate   =   -3722.32603165 Ry
     estimated scf accuracy    <       6.18321439 Ry

     iteration #  3     ecut=    40.00 Ry     beta=0.70
     CG style diagonalization
     ethr =  2.42E-03,  avg # of iterations =  3.7

     total cpu time spent up to now is      508.5 secs

     total energy              =   -3719.81582778 Ry
     Harris-Foulkes estimate   =   -3720.08074146 Ry
     estimated scf accuracy    <       0.50420977 Ry

     iteration #  4     ecut=    40.00 Ry     beta=0.70
     CG style diagonalization
     ethr =  1.97E-04,  avg # of iterations =  3.5

     total cpu time spent up to now is      526.0 secs

     total energy              =   -3719.94281581 Ry
     Harris-Foulkes estimate   =   -3719.94675216 Ry
     estimated scf accuracy    <       0.00552603 Ry

     iteration #  5     ecut=    40.00 Ry     beta=0.70
     CG style diagonalization
     c_bands:  1 eigenvalues not converged
     c_bands:  1 eigenvalues not converged
     c_bands:  1 eigenvalues not converged
     ethr =  2.16E-06,  avg # of iterations =  4.9

     total cpu time spent up to now is      550.9 secs

     total energy              =   -3719.94738935 Ry
     Harris-Foulkes estimate   =   -3719.95025215 Ry
     estimated scf accuracy    <       0.00638729 Ry

     iteration #  6     ecut=    40.00 Ry     beta=0.70
     CG style diagonalization
     c_bands:  1 eigenvalues not converged
     ethr =  2.16E-06,  avg # of iterations =  3.5

     total cpu time spent up to now is      568.5 secs

     total energy              =   -3719.94824769 Ry
     Harris-Foulkes estimate   =   -3719.94849080 Ry
     estimated scf accuracy    <       0.00055970 Ry

     iteration #  7     ecut=    40.00 Ry     beta=0.70
     CG style diagonalization
     ethr =  2.19E-07,  avg # of iterations =  3.6

     total cpu time spent up to now is      586.0 secs

     End of self-consistent calculation

          k = 0.0000 0.0000 0.0000 (  5769 PWs)   bands (ev):

   -95.7917 -95.7559 -95.7426 -95.6404 -56.2355 -56.2325 -56.2097 -56.1694
   -56.1693 -56.1575 -56.1575 -56.1452 -55.3844 -55.3771 -55.3734 -55.3703
   -55.3703 -55.3633 -55.3632 -55.3632 -55.3596 -55.3595 -55.3559 -55.3559
   -23.9565 -23.8176 -23.5849 -23.4149 -23.4149 -23.3875 -23.3875 -23.3285
   -23.3284 -23.2585 -23.2150 -23.1376 -23.1376 -23.1343 -23.1342 -22.9660
   -22.9660 -22.9599 -22.9438 -22.9393 -22.9393 -22.9284 -22.9203 -22.9203
     2.5954   2.5954   2.6001   2.6090   2.6266   2.6266   2.6319   2.6320
     2.6674   2.6674   2.7381   2.7381   2.7634   2.7750   2.7750   2.7814
     2.7837   2.7837   2.8105   2.8105  12.7088  13.6114  13.8243  14.0950
    14.6988  14.8955  15.2884  15.2884  15.3690  15.4744  15.4744  15.4934
    15.4934  16.0776  16.0776  16.1029  16.8075  16.8075  16.8485  16.8486
    17.4407  17.4407  17.6093  17.8050  18.1471  18.1472  18.5729  18.6037
    18.7839  18.8495  18.8672  18.8672  18.8938  18.8939  19.0167  19.0167
    19.0295  19.0296  19.7284  19.9619  19.9619  20.2884  20.2884  21.0507
    21.0517  22.1232  22.3573  22.3574  22.8472  22.9952  22.9953  24.0318
    24.1066  24.4685  24.4687  24.5024  24.5026  24.6586  25.3034  27.0862
    27.0862  27.5904  28.5780  28.8238  28.8239  30.4973  30.4974  30.5842
    30.5844  31.0637  31.0638  31.3680  31.5653  32.2302  32.2304  32.6105
    32.6106  32.9550  33.2730  34.9449  35.2378  35.2379  35.3705  35.7350
    36.1576  36.1576

          k = 0.0000 0.0000 0.1456 (  5780 PWs)   bands (ev):

   -95.7954 -95.7920 -95.7292 -95.6558 -56.2374 -56.2318 -56.1839 -56.1743
   -56.1742 -56.1714 -56.1655 -56.1654 -55.3826 -55.3804 -55.3747 -55.3678
   -55.3678 -55.3674 -55.3674 -55.3649 -55.3598 -55.3598 -55.3573 -55.3573
   -23.9421 -23.8418 -23.5557 -23.4173 -23.4173 -23.3967 -23.3967 -23.3328
   -23.3115 -23.3114 -23.2089 -23.2088 -23.1337 -23.0783 -23.0782 -22.9738
   -22.9673 -22.9673 -22.9492 -22.9450 -22.9450 -22.9413 -22.9289 -22.9289
     2.5996   2.5996   2.6016   2.6023   2.6215   2.6215   2.6359   2.6359
     2.6621   2.6621   2.7421   2.7421   2.7669   2.7669   2.7699   2.7805
     2.7906   2.7906   2.8071   2.8071  12.8351  13.5825  13.6398  13.9865
    14.7481  15.1459  15.2715  15.3004  15.3004  15.3872  15.3872  15.6685
    15.6685  15.9641  16.1157  16.1158  16.5270  16.5271  16.6610  16.6610
    17.5580  17.8113  17.8113  18.0483  18.2860  18.2861  18.6106  18.7934
    18.8011  18.8011  18.8397  18.8564  18.8640  18.8640  19.0360  19.0360
    19.0379  19.0379  19.7652  19.9641  19.9642  20.2210  20.2210  21.0508
    21.0516  21.4904  22.2522  22.2522  22.5930  22.6849  22.6849  23.5088
    24.2102  24.7108  24.7109  24.8008  24.8009  25.0825  26.3371  27.2415
    27.2415  27.2558  28.7649  28.7649  29.0594  29.4317  29.4317  30.2085
    30.5266  30.5267  31.7833  31.7834  32.2687  32.3963  32.3963  32.7944
    33.0346  33.0346  33.1412  34.4298  34.8611  34.8611  35.4230  35.4231
    35.4312  35.5597

          k = 0.0000 0.0000-0.2912 (  5780 PWs)   bands (ev):

   -95.7841 -95.7841 -95.6994 -95.6994 -56.2413 -56.2413 -56.2019 -56.2019
   -56.1534 -56.1534 -56.1533 -56.1533 -55.3815 -55.3814 -55.3753 -55.3752
   -55.3669 -55.3669 -55.3669 -55.3669 -55.3568 -55.3568 -55.3567 -55.3567
   -23.8917 -23.8917 -23.4827 -23.4827 -23.4007 -23.4007 -23.4007 -23.4007
   -23.2580 -23.2580 -23.2579 -23.2579 -23.0522 -23.0522 -23.0130 -23.0130
   -23.0129 -23.0129 -22.9417 -22.9417 -22.9417 -22.9417 -22.9352 -22.9352
     2.5966   2.5967   2.6117   2.6117   2.6117   2.6117   2.6471   2.6471
     2.6472   2.6472   2.7569   2.7569   2.7569   2.7569   2.7726   2.7727
     2.8015   2.8015   2.8015   2.8015  13.1703  13.1704  13.7492  13.7492
    15.0589  15.0589  15.3336  15.3336  15.3336  15.3336  15.5254  15.5254
    15.9629  15.9630  15.9630  15.9630  16.4276  16.4276  16.4276  16.4276
    17.8308  17.8308  18.2514  18.2514  18.2515  18.2515  18.7817  18.7817
    18.7817  18.7817  18.8164  18.8164  19.0495  19.0495  19.0508  19.0508
    19.0508  19.0509  20.0542  20.0542  20.0543  20.0543  20.1912  20.1912
    21.0512  21.0512  22.3016  22.3016  22.3016  22.3017  22.9192  22.9192
    24.7105  24.7105  24.9877  24.9877  24.9878  24.9878  27.4370  27.4370
    27.8709  27.8709  27.8710  27.8711  29.2118  29.2118  29.7264  29.7264
    29.7265  29.7265  32.4460  32.4460  32.5191  32.5191  32.5191  32.5191
    33.6700  33.6701  33.7336  33.7336  33.7336  33.7336  35.5006  35.5006
    35.8311  35.8311

          k = 0.0000 0.3615 0.0000 (  5787 PWs)   bands (ev):

   -95.7879 -95.7705 -95.7280 -95.7120 -56.2471 -56.2116 -56.2106 -56.1966
   -56.1742 -56.1682 -56.1570 -56.1531 -55.3801 -55.3782 -55.3721 -55.3719
   -55.3715 -55.3674 -55.3653 -55.3653 -55.3625 -55.3620 -55.3601 -55.3571
   -23.8106 -23.6918 -23.5999 -23.4562 -23.3863 -23.3384 -23.3371 -23.3252
   -23.2916 -23.2464 -23.1786 -23.1566 -23.1548 -23.1524 -23.1264 -23.1052
   -23.0499 -23.0447 -23.0288 -22.9785 -22.9584 -22.9429 -22.9424 -22.9317
     2.5669   2.5787   2.5896   2.6148   2.6355   2.6394   2.6456   2.6740
     2.6901   2.6919   2.7039   2.7062   2.7147   2.7504   2.7619   2.7736
     2.7995   2.8031   2.8197   2.8257  13.4364  14.2538  14.2839  14.5928
    14.7888  14.9444  15.1416  15.4593  15.7185  15.8303  15.9141  16.1227
    16.1269  16.2528  16.4087  16.5246  16.6216  16.8755  16.8872  16.9475
    17.0592  17.2090  17.4828  17.5355  17.7494  17.8227  17.9049  17.9201
    18.1755  18.3995  18.4382  18.6292  18.6827  18.8083  18.8607  18.8972
    19.0689  19.0906  19.1507  19.1718  19.3814  19.5223  19.8463  20.0612
    20.3507  20.5142  21.1310  21.8298  22.0725  22.4809  22.7673  23.9651
    24.0119  24.8715  25.3148  25.6850  26.9138  26.9222  27.3650  27.6540
    27.7083  28.1458  29.2393  29.3899  29.4663  29.5791  30.1765  30.2799
    30.6546  30.9147  31.1131  31.2434  32.2633  32.5366  33.1004  33.2608
    33.9416  33.9863  34.3401  34.4318  34.5487  35.0166  35.2780  35.4265
    35.7891  35.8872

          k = 0.0000 0.3615 0.1456 (  5804 PWs)   bands (ev):

   -95.8090 -95.7893 -95.7393 -95.7314 -56.2458 -56.2296 -56.2141 -56.1931
   -56.1784 -56.1775 -56.1650 -56.1632 -55.3831 -55.3809 -55.3746 -55.3729
   -55.3709 -55.3693 -55.3689 -55.3659 -55.3639 -55.3621 -55.3595 -55.3573
   -23.8070 -23.7325 -23.5582 -23.4634 -23.3856 -23.3359 -23.3324 -23.3253
   -23.3014 -23.2861 -23.2303 -23.2011 -23.1483 -23.1378 -23.0906 -23.0771
   -23.0517 -23.0257 -23.0181 -22.9921 -22.9707 -22.9571 -22.9455 -22.9435
     2.5691   2.5802   2.5920   2.6099   2.6242   2.6390   2.6509   2.6617
     2.6777   2.6793   2.7169   2.7205   2.7265   2.7450   2.7604   2.7776
     2.7998   2.8027   2.8171   2.8208  13.5288  14.0797  14.3008  14.6121
    14.8269  14.8923  15.2423  15.4985  15.7301  15.8532  15.8978  15.9309
    16.0032  16.2590  16.3002  16.5087  16.6745  16.7675  16.9243  16.9377
    17.0832  17.3345  17.5325  17.7101  17.7378  17.9357  17.9854  18.1295
    18.2533  18.3429  18.3675  18.6470  18.6878  18.7856  18.7878  18.9316
    18.9715  18.9986  19.0790  19.2885  19.3718  19.3736  20.0274  20.0556
    20.2889  20.3665  21.0430  22.0856  22.1073  22.3641  22.6478  23.7397
    23.9064  25.0666  25.3188  25.9644  26.3530  27.0540  27.6367  27.8140
    27.9999  28.2734  28.6305  28.8585  29.6138  29.8399  30.1709  30.3405
    30.7485  31.1621  31.4210  31.8645  32.2445  32.5598  32.7865  32.8911
    33.2828  34.0106  34.2143  34.2713  34.4986  34.5806  35.3613  35.4892
    35.6389  35.6923

          k = 0.0000 0.3615-0.2912 (  5816 PWs)   bands (ev):

   -95.8056 -95.8055 -95.7544 -95.7543 -56.2398 -56.2398 -56.2066 -56.2066
   -56.1784 -56.1784 -56.1759 -56.1759 -55.3816 -55.3815 -55.3767 -55.3766
   -55.3714 -55.3713 -55.3672 -55.3672 -55.3636 -55.3636 -55.3599 -55.3598
   -23.7825 -23.7825 -23.5032 -23.5032 -23.3628 -23.3628 -23.3354 -23.3354
   -23.2923 -23.2923 -23.2547 -23.2547 -23.1367 -23.1367 -23.0633 -23.0633
   -23.0285 -23.0285 -22.9986 -22.9986 -22.9868 -22.9868 -22.9435 -22.9435
     2.5787   2.5788   2.6002   2.6002   2.6207   2.6207   2.6649   2.6649
     2.6657   2.6658   2.7314   2.7315   2.7319   2.7320   2.7694   2.7695
     2.8068   2.8068   2.8105   2.8105  13.7787  13.7788  14.3988  14.3988
    14.9639  14.9639  15.4406  15.4406  15.6455  15.6456  15.9106  15.9106
    16.0304  16.0304  16.4339  16.4339  16.7069  16.7069  16.8638  16.8638
    17.3162  17.3162  17.7405  17.7405  17.9721  17.9721  18.0685  18.0685
    18.3381  18.3381  18.5309  18.5309  18.7139  18.7139  18.7664  18.7664
    18.9019  18.9020  19.1973  19.1973  19.3492  19.3492  20.1307  20.1307
    20.1766  20.1766  21.5883  21.5883  22.2064  22.2064  22.9146  22.9146
    24.6411  24.6411  26.0821  26.0821  26.2430  26.2430  28.0559  28.0559
    28.1687  28.1687  28.3654  28.3654  29.9831  29.9831  30.6089  30.6089
    30.8177  30.8177  31.8221  31.8221  32.0379  32.0379  33.3119  33.3119
    33.4334  33.4334  33.5138  33.5138  34.6524  34.6524  35.2603  35.2604
    35.4526  35.4526

          k =-0.4696-0.2711 0.0000 (  5800 PWs)   bands (ev):

   -95.7996 -95.7784 -95.7671 -95.7058 -56.2448 -56.2185 -56.2120 -56.1914
   -56.1874 -56.1768 -56.1677 -56.1556 -55.3836 -55.3781 -55.3742 -55.3726
   -55.3680 -55.3675 -55.3669 -55.3666 -55.3660 -55.3653 -55.3621 -55.3548
   -23.7482 -23.6383 -23.5993 -23.5147 -23.3632 -23.3438 -23.3220 -23.3001
   -23.2511 -23.2454 -23.1957 -23.1836 -23.1619 -23.1585 -23.1437 -23.1399
   -23.1057 -23.0659 -23.0653 -22.9889 -22.9585 -22.9418 -22.9375 -22.9350
     2.5659   2.5720   2.5940   2.6078   2.6419   2.6449   2.6507   2.6852
     2.6903   2.6929   2.6955   2.6973   2.6996   2.7436   2.7597   2.7710
     2.8042   2.8129   2.8192   2.8218  13.9921  14.3429  14.4879  14.5686
    14.6401  15.1267  15.2288  15.5699  15.9871  16.0060  16.0545  16.1860
    16.1977  16.2457  16.4612  16.8072  16.8736  17.0184  17.0726  17.2099
    17.2176  17.2483  17.2839  17.3950  17.4737  17.6060  17.8034  17.8484
    17.8828  17.9924  18.0201  18.2156  18.2460  18.6612  18.7231  18.8005
    18.8292  18.9115  18.9154  18.9766  19.1785  19.2147  20.0656  20.0977
    20.1338  20.4980  20.5556  21.8382  22.0519  22.2179  22.5074  24.2872
    24.2997  25.2984  25.8218  26.2581  27.0361  27.2787  27.3939  28.0003
    28.3167  28.5046  28.5706  28.8416  29.3769  29.5718  30.2829  30.4579
    30.7931  31.3224  31.3896  31.7989  31.8092  31.8496  33.4859  33.5625
    33.8752  34.3039  34.9234  34.9305  35.0218  35.4426  35.4867  35.5017
    35.5026  35.6397

          k =-0.4696-0.2711 0.1456 (  5822 PWs)   bands (ev):

   -95.8236 -95.8176 -95.7533 -95.7481 -56.2461 -56.2274 -56.2098 -56.2076
   -56.1942 -56.1830 -56.1738 -56.1737 -55.3829 -55.3824 -55.3754 -55.3744
   -55.3721 -55.3707 -55.3700 -55.3679 -55.3671 -55.3656 -55.3599 -55.3580
   -23.7439 -23.6783 -23.5685 -23.5161 -23.3733 -23.3282 -23.3212 -23.3062
   -23.2843 -23.2482 -23.2472 -23.1964 -23.1840 -23.1735 -23.1282 -23.1152
   -23.0998 -23.0489 -23.0314 -23.0030 -22.9706 -22.9540 -22.9478 -22.9460
     2.5672   2.5747   2.5941   2.6051   2.6333   2.6465   2.6540   2.6552
     2.6639   2.6821   2.7121   2.7243   2.7283   2.7370   2.7597   2.7704
     2.8049   2.8068   2.8153   2.8162  14.0225  14.3436  14.4938  14.5617
    14.6868  14.9501  15.3848  15.6028  15.9003  15.9496  16.0054  16.0182
    16.2219  16.3435  16.4996  16.7679  16.8831  16.9149  17.0590  17.1247
    17.2265  17.3029  17.3861  17.4077  17.5279  17.6998  17.7291  17.9806
    17.9831  18.0519  18.1105  18.2460  18.3146  18.4354  18.6819  18.7446
    18.8126  18.8764  18.9632  18.9910  19.0467  19.1426  20.0834  20.1280
    20.1413  20.3376  21.0355  21.6303  22.0841  22.1983  22.8901  23.4217
    24.1066  25.6815  26.0297  26.1855  26.8468  27.5209  27.5294  27.8762
    28.2903  28.2934  28.7943  28.9121  29.4440  29.7491  29.7928  30.0588
    31.3137  31.4560  31.9279  31.9839  32.1840  32.2382  32.9751  33.1156
    33.5958  33.8660  34.4169  34.6444  34.8294  34.9289  35.3234  35.4554
    35.5673  35.7209

          k =-0.4696-0.2711-0.2912 (  5804 PWs)   bands (ev):

   -95.7874 -95.7872 -95.7467 -95.7465 -56.2303 -56.2303 -56.1977 -56.1977
   -56.1788 -56.1788 -56.1771 -56.1771 -55.3799 -55.3798 -55.3708 -55.3708
   -55.3686 -55.3685 -55.3684 -55.3683 -55.3658 -55.3658 -55.3608 -55.3607
   -23.7203 -23.7203 -23.5322 -23.5322 -23.3393 -23.3393 -23.3184 -23.3184
   -23.2758 -23.2758 -23.2165 -23.2165 -23.1797 -23.1796 -23.1167 -23.1167
   -23.0382 -23.0382 -23.0066 -23.0066 -22.9735 -22.9735 -22.9458 -22.9458
     2.5774   2.5774   2.5973   2.5973   2.6330   2.6331   2.6533   2.6533
     2.6680   2.6680   2.7259   2.7260   2.7425   2.7425   2.7658   2.7659
     2.8070   2.8071   2.8122   2.8122  14.1510  14.1510  14.6337  14.6337
    14.7453  14.7453  15.5666  15.5666  15.7396  15.7396  16.0288  16.0288
    16.2825  16.2825  16.7552  16.7552  16.8164  16.8164  17.0173  17.0173
    17.2807  17.2807  17.4922  17.4922  17.5907  17.5907  17.8802  17.8802
    18.0823  18.0823  18.2543  18.2543  18.5040  18.5040  18.5544  18.5544
    18.7993  18.7993  18.9507  18.9507  19.0569  19.0569  20.1123  20.1123
    20.1237  20.1237  22.0970  22.0970  22.1482  22.1482  22.2193  22.2193
    25.0467  25.0467  26.4306  26.4306  26.5755  26.5756  28.1080  28.1080
    28.3824  28.3824  29.0570  29.0570  29.5386  29.5386  29.6658  29.6658
    31.5094  31.5094  32.2961  32.2961  32.3350  32.3350  33.3537  33.3537
    33.5327  33.5327  33.8427  33.8428  34.3242  34.3242  35.4155  35.4155
    35.8691  35.8699

          k =-0.4696 0.0904 0.0000 (  5827 PWs)   bands (ev):

   -95.8271 -95.7948 -95.7890 -95.7496 -56.2516 -56.2268 -56.2198 -56.2100
   -56.1898 -56.1868 -56.1712 -56.1693 -55.3837 -55.3825 -55.3750 -55.3738
   -55.3724 -55.3705 -55.3692 -55.3678 -55.3660 -55.3655 -55.3631 -55.3617
   -23.7473 -23.6465 -23.6005 -23.5167 -23.4165 -23.3478 -23.3363 -23.2774
   -23.2593 -23.2519 -23.1923 -23.1841 -23.1661 -23.1591 -23.1442 -23.1423
   -23.0798 -23.0610 -23.0459 -22.9880 -22.9857 -22.9825 -22.9573 -22.9450
     2.5637   2.5696   2.5847   2.6011   2.6471   2.6505   2.6581   2.6855
     2.6906   2.6935   2.6952   2.6994   2.7032   2.7358   2.7466   2.7526
     2.8099   2.8128   2.8203   2.8296  13.8724  14.4643  14.5114  14.6588
    14.6699  15.1947  15.3019  15.5610  15.8054  15.9785  16.0597  16.1634
    16.2074  16.4473  16.4616  16.6260  16.6832  16.8409  16.9038  17.1505
    17.1688  17.2238  17.2989  17.3181  17.5694  17.5899  17.6547  17.6993
    17.9723  18.0849  18.2001  18.3053  18.4766  18.4981  18.5921  18.7924
    18.8849  19.0069  19.1505  19.1846  19.3063  19.5856  19.8835  20.0231
    20.0319  20.2443  20.7001  21.4788  21.7100  22.8482  22.8583  24.1439
    24.4424  25.3232  25.9629  26.1099  26.5510  26.8885  27.3237  27.3727
    28.0427  28.1953  28.6092  28.9154  29.5897  30.1987  30.6526  30.8725
    31.0153  31.0353  31.5245  31.9901  32.1771  32.6421  33.4105  33.6577
    33.8289  33.9536  34.3428  34.6124  34.8155  35.0741  35.4686  35.4701
    35.5530  35.6843

          k =-0.4696 0.0904 0.1456 (  5825 PWs)   bands (ev):

   -95.8274 -95.7969 -95.7716 -95.7566 -56.2459 -56.2302 -56.2211 -56.2069
   -56.1856 -56.1834 -56.1791 -56.1679 -55.3823 -55.3820 -55.3751 -55.3739
   -55.3735 -55.3712 -55.3703 -55.3684 -55.3655 -55.3646 -55.3614 -55.3610
   -23.7384 -23.6753 -23.5728 -23.5227 -23.4016 -23.3372 -23.3266 -23.2918
   -23.2831 -23.2534 -23.2362 -23.2164 -23.1675 -23.1601 -23.1109 -23.1062
   -23.0678 -23.0429 -23.0304 -22.9975 -22.9855 -22.9813 -22.9649 -22.9530
     2.5680   2.5733   2.5869   2.5977   2.6375   2.6506   2.6554   2.6658
     2.6772   2.6868   2.7109   2.7176   2.7267   2.7324   2.7434   2.7577
     2.8052   2.8147   2.8154   2.8274  13.9362  14.3181  14.5987  14.6411
    14.7760  15.0133  15.4539  15.6037  15.8298  15.9393  15.9443  16.0211
    16.1554  16.3036  16.5477  16.6595  16.7737  16.8941  16.9377  16.9941
    17.1034  17.1942  17.3518  17.4537  17.5490  17.7532  17.7761  17.8276
    17.9647  18.0942  18.2229  18.3709  18.4568  18.5214  18.6038  18.6972
    18.8547  18.9675  19.0557  19.1649  19.2706  19.3830  19.8003  19.8727
    20.1367  20.2842  20.8769  21.3666  22.4794  22.7299  22.8862  23.7301
    24.1309  25.0061  25.7358  25.9446  26.7978  27.2540  27.6684  27.9236
    28.0203  28.1065  28.2697  28.6800  29.8504  30.2705  30.5121  30.8676
    31.1893  31.4896  31.6939  31.9152  32.4203  32.5239  33.0355  33.2267
    33.6227  33.9191  34.2264  34.3777  34.5423  34.7906  35.1310  35.3886
    35.4914  35.6682

          k =-0.4696 0.0904-0.2912 (  5824 PWs)   bands (ev):

   -95.8049 -95.8048 -95.7697 -95.7696 -56.2355 -56.2355 -56.2133 -56.2133
   -56.1840 -56.1840 -56.1760 -56.1760 -55.3814 -55.3813 -55.3744 -55.3744
   -55.3716 -55.3716 -55.3695 -55.3694 -55.3653 -55.3653 -55.3620 -55.3620
   -23.7139 -23.7139 -23.5369 -23.5369 -23.3556 -23.3556 -23.3175 -23.3175
   -23.2776 -23.2776 -23.2430 -23.2430 -23.1656 -23.1656 -23.0897 -23.0897
   -23.0405 -23.0405 -23.0049 -23.0049 -22.9892 -22.9892 -22.9753 -22.9753
     2.5761   2.5762   2.5912   2.5912   2.6320   2.6320   2.6636   2.6636
     2.6760   2.6760   2.7218   2.7218   2.7320   2.7321   2.7562   2.7562
     2.8050   2.8050   2.8214   2.8214  14.1056  14.1056  14.6563  14.6563
    14.8810  14.8810  15.5904  15.5904  15.7965  15.7965  15.9561  15.9561
    16.1421  16.1421  16.6496  16.6496  16.8560  16.8560  16.9269  16.9269
    17.1478  17.1478  17.4844  17.4844  17.6648  17.6648  17.9294  17.9294
    18.1319  18.1319  18.2265  18.2265  18.4672  18.4672  18.7104  18.7104
    18.8943  18.8943  18.9885  18.9885  19.2233  19.2233  19.7316  19.7316
    20.2147  20.2147  21.4643  21.4643  22.4412  22.4413  23.3681  23.3681
    24.3738  24.3738  25.5147  25.5148  27.4011  27.4011  27.7744  27.7744
    28.2834  28.2834  28.5116  28.5116  29.8797  29.8798  30.9591  30.9591
    31.3192  31.3192  32.0396  32.0396  32.1960  32.1960  33.1171  33.1171
    33.8361  33.8361  34.0519  34.0519  34.2765  34.2765  35.1339  35.1339
    35.7373  35.7373

     the Fermi energy is    27.7801 ev

!    total energy              =   -3719.94830050 Ry
     Harris-Foulkes estimate   =   -3719.94835285 Ry
     estimated scf accuracy    <       0.00006408 Ry

     The total energy is the sum of the following terms:

     one-electron contribution =    -976.00967645 Ry
     hartree contribution      =     634.71770789 Ry
     xc contribution           =    -319.61259708 Ry
     ewald contribution        =   -3058.66581866 Ry
     smearing contrib. (-TS)   =      -0.37791621 Ry

     convergence has been achieved in   7 iterations

     Forces acting on atoms (Ry/au):

     atom    1 type  1   force =     0.00000000    0.00000000    0.01566135
     atom    2 type  1   force =     0.00000000    0.00000000    0.01566135
     atom    3 type  1   force =     0.00000000    0.00000000   -0.01566135
     atom    4 type  1   force =     0.00000000    0.00000000   -0.01566135
     atom    5 type  2   force =     0.00000000    0.00000000    0.00000000
     atom    6 type  2   force =     0.00000000    0.00000000    0.00000000
     atom    7 type  2   force =     0.00000000   -0.01009495    0.00000000
     atom    8 type  2   force =     0.00874248   -0.00504747    0.00000000
     atom    9 type  2   force =    -0.00874248   -0.00504747    0.00000000
     atom   10 type  2   force =     0.00874248    0.00504747    0.00000000
     atom   11 type  2   force =    -0.00874248    0.00504747    0.00000000
     atom   12 type  2   force =     0.00000000    0.01009495    0.00000000

     Total force =     0.039907     Total SCF correction =     0.000000


     entering subroutine stress ...

          total   stress  (Ry/bohr**3)                   (kbar)     P= -243.17
  -0.00168146   0.00000000   0.00000000       -247.35      0.00      0.00
   0.00000000  -0.00168146   0.00000000          0.00   -247.35      0.00
   0.00000000   0.00000000  -0.00159619          0.00      0.00   -234.81


     number of scf cycles    =   2
     number of bfgs steps    =   1

     enthalpy old            =   -3719.2953554147 Ry
     enthalpy new            =   -3719.9483004977 Ry

     CASE: enthalpy_new < enthalpy_old

     small trust_radius: resetting bfgs history

     new trust radius        =       0.3412349951 bohr
     new conv_thr            =       0.0000156613 Ry

     new unit-cell volume =   1451.46566 a.u.^3 (   215.08502 Ang^3 )

CELL_PARAMETERS (alat=  9.92348860)
   1.019937308   0.000000000   0.000000000
  -0.509968654   0.883291619   0.000000000
   0.000000000   0.000000000   1.648678796

ATOMIC_POSITIONS (crystal)
Mg       0.333333000   0.666667000   0.063775643
Mg       0.666667000   0.333333000   0.563775643
Mg       0.666667000   0.333333000   0.936224357
Mg       0.333333000   0.666667000   0.436224357
Zn       0.000000000   0.000000000   0.000000000
Zn       0.000000000   0.000000000   0.500000000
Zn       0.170440687   0.340881373   0.750000000
Zn       0.829559313   0.170440687   0.250000000
Zn       0.340881373   0.170440687   0.250000000
Zn       0.659118627   0.829559313   0.750000000
Zn       0.170440687   0.829559313   0.750000000
Zn       0.829559313   0.659118627   0.250000000



     Writing output data file Prototype-La-hP12-MgZn2.save
     NEW-OLD atomic charge density approx. for the potential
     NEW k-points:
        k(    1) = (   0.0000000   0.0000000   0.0000000), wk =   0.0833333
        k(    2) = (   0.0000000   0.0000000   0.1516366), wk =   0.1666667
        k(    3) = (   0.0000000   0.0000000  -0.3032731), wk =   0.0833333
        k(    4) = (   0.0000000   0.3773763   0.0000000), wk =   0.1666667
        k(    5) = (   0.0000000   0.3773763   0.1516366), wk =   0.3333333
        k(    6) = (   0.0000000   0.3773763  -0.3032731), wk =   0.1666667
        k(    7) = (  -0.4902262  -0.2830322   0.0000000), wk =   0.0833333
        k(    8) = (  -0.4902262  -0.2830322   0.1516366), wk =   0.1666667
        k(    9) = (  -0.4902262  -0.2830322  -0.3032731), wk =   0.0833333
        k(   10) = (  -0.4902262   0.0943441   0.0000000), wk =   0.1666667
        k(   11) = (  -0.4902262   0.0943441   0.1516366), wk =   0.3333333
        k(   12) = (  -0.4902262   0.0943441  -0.3032731), wk =   0.1666667

     total cpu time spent up to now is      593.1 secs

     Self-consistent Calculation

     iteration #  1     ecut=    40.00 Ry     beta=0.70
     CG style diagonalization
     c_bands:  1 eigenvalues not converged
     c_bands:  1 eigenvalues not converged
     c_bands:  1 eigenvalues not converged
     ethr =  1.00E-06,  avg # of iterations = 17.2

     total cpu time spent up to now is      683.4 secs

     total energy              =   -3713.37486206 Ry
     Harris-Foulkes estimate   =   -3727.21092910 Ry
     estimated scf accuracy    <      17.13374746 Ry

     iteration #  2     ecut=    40.00 Ry     beta=0.70
     CG style diagonalization
     ethr =  6.69E-03,  avg # of iterations =  3.8

     total cpu time spent up to now is      702.2 secs

     total energy              =   -3718.52988034 Ry
     Harris-Foulkes estimate   =   -3721.55563323 Ry
     estimated scf accuracy    <       4.70146874 Ry

     iteration #  3     ecut=    40.00 Ry     beta=0.70
     CG style diagonalization
     ethr =  1.84E-03,  avg # of iterations =  3.6

     total cpu time spent up to now is      720.2 secs

     total energy              =   -3719.68030832 Ry
     Harris-Foulkes estimate   =   -3719.91788263 Ry
     estimated scf accuracy    <       0.42672143 Ry

     iteration #  4     ecut=    40.00 Ry     beta=0.70
     CG style diagonalization
     ethr =  1.67E-04,  avg # of iterations =  3.6

     total cpu time spent up to now is      738.3 secs

     total energy              =   -3719.78833792 Ry
     Harris-Foulkes estimate   =   -3719.79822115 Ry
     estimated scf accuracy    <       0.01552770 Ry

     iteration #  5     ecut=    40.00 Ry     beta=0.70
     CG style diagonalization
     c_bands:  1 eigenvalues not converged
     c_bands:  2 eigenvalues not converged
     ethr =  6.07E-06,  avg # of iterations =  4.3

     total cpu time spent up to now is      760.8 secs

     total energy              =   -3719.79354247 Ry
     Harris-Foulkes estimate   =   -3719.79780305 Ry
     estimated scf accuracy    <       0.00838951 Ry

     iteration #  6     ecut=    40.00 Ry     beta=0.70
     CG style diagonalization
     ethr =  3.28E-06,  avg # of iterations =  3.5

     total cpu time spent up to now is      778.6 secs

     total energy              =   -3719.79521600 Ry
     Harris-Foulkes estimate   =   -3719.79530508 Ry
     estimated scf accuracy    <       0.00014420 Ry

     iteration #  7     ecut=    40.00 Ry     beta=0.70
     CG style diagonalization
     ethr =  5.63E-08,  avg # of iterations =  4.1

     total cpu time spent up to now is      799.4 secs

     total energy              =   -3719.79527808 Ry
     Harris-Foulkes estimate   =   -3719.79528975 Ry
     estimated scf accuracy    <       0.00002098 Ry

     iteration #  8     ecut=    40.00 Ry     beta=0.70
     CG style diagonalization
     ethr =  8.20E-09,  avg # of iterations =  3.6

     total cpu time spent up to now is      816.9 secs

     End of self-consistent calculation

          k = 0.0000 0.0000 0.0000 (  5769 PWs)   bands (ev):

   -92.1176 -92.0883 -92.0786 -92.0054 -52.7065 -52.6846 -52.6059 -52.5608
   -52.5608 -52.5530 -52.5529 -52.5462 -51.1472 -51.1390 -51.1330 -51.1330
   -51.1311 -51.1228 -51.1227 -51.1177 -51.1158 -51.1158 -51.1118 -51.1118
   -20.7227 -20.5323 -20.1959 -19.9380 -19.9379 -19.8982 -19.8982 -19.7987
   -19.7986 -19.6647 -19.6469 -19.5138 -19.5138 -19.5103 -19.5102 -19.2533
   -19.2533 -19.2496 -19.2354 -19.2223 -19.2222 -19.2221 -19.2009 -19.2008
     6.6430   6.6430   6.6526   6.6564   6.6896   6.6896   6.7044   6.7044
     6.7603   6.7603   6.8687   6.8687   6.9173   6.9299   6.9299   6.9359
     6.9359   6.9408   6.9814   6.9814  15.5573  16.2483  16.7031  16.8438
    17.6797  17.9804  18.2724  18.2724  18.4173  18.4260  18.4260  18.5181
    18.5181  19.1878  19.2360  19.2360  20.1303  20.1303  20.1373  20.1373
    20.8182  20.8182  21.1268  21.2436  21.7600  21.7601  22.3343  22.5872
    22.6671  22.6882  22.7287  22.7287  22.7395  22.7395  22.8732  22.8733
    22.8793  22.8794  23.9010  24.0641  24.0641  24.5059  24.5059  25.5137
    25.5156  26.3389  26.3390  26.3557  26.6888  26.8284  26.8285  28.2856
    28.3502  28.5136  28.5138  28.8439  28.8441  29.1352  29.7228  31.7450
    31.7450  32.1399  33.1522  33.5018  33.5018  35.0890  35.0891  35.1816
    35.1818  35.5631  35.5632  35.9346  36.2653  36.5697  36.5698  36.5778
    36.7293  36.7295  37.6947  38.7814  38.8418  38.9348  38.9348  39.3448
    40.5620  40.5620

          k = 0.0000 0.0000 0.1516 (  5780 PWs)   bands (ev):

   -92.1176 -92.1129 -92.0715 -92.0182 -52.7014 -52.6878 -52.5899 -52.5648
   -52.5636 -52.5635 -52.5579 -52.5578 -51.1440 -51.1424 -51.1338 -51.1288
   -51.1287 -51.1284 -51.1284 -51.1202 -51.1165 -51.1164 -51.1137 -51.1137
   -20.7036 -20.5701 -20.1413 -19.9384 -19.9384 -19.9096 -19.9096 -19.8115
   -19.7723 -19.7723 -19.6173 -19.6173 -19.5013 -19.4210 -19.4210 -19.2737
   -19.2661 -19.2661 -19.2397 -19.2332 -19.2239 -19.2239 -19.2081 -19.2081
     6.6503   6.6503   6.6525   6.6533   6.6861   6.6861   6.7070   6.7070
     6.7491   6.7491   6.8777   6.8777   6.9159   6.9159   6.9230   6.9389
     6.9494   6.9494   6.9770   6.9770  15.7017  16.2872  16.4437  16.8069
    17.6046  18.2707  18.2830  18.2843  18.2844  18.3646  18.3646  18.6921
    18.6921  19.0481  19.2915  19.2915  19.7074  19.7075  19.9465  19.9465
    21.1387  21.3107  21.3107  21.6247  21.9455  21.9455  22.2876  22.6014
    22.6405  22.6405  22.6729  22.7079  22.7079  22.8891  22.8892  22.8943
    22.8943  22.9302  23.8935  24.0511  24.0512  24.4205  24.4205  25.4430
    25.5140  25.5152  26.1270  26.1271  26.5259  26.5259  26.6986  27.7689
    28.5063  28.9155  28.9157  29.1798  29.1799  29.4110  30.7511  31.7960
    31.7960  31.8346  33.1397  33.1398  33.6495  34.3634  34.3634  35.0518
    35.1514  35.1515  36.1966  36.1967  36.7763  36.7901  36.8905  36.8906
    36.9428  36.9429  37.3622  38.2294  38.9598  39.1445  39.1481  39.1482
    39.3354  39.3354

          k = 0.0000 0.0000-0.3033 (  5780 PWs)   bands (ev):

   -92.1109 -92.1108 -92.0475 -92.0474 -52.7046 -52.7046 -52.5867 -52.5867
   -52.5504 -52.5504 -52.5504 -52.5504 -51.1436 -51.1435 -51.1337 -51.1336
   -51.1280 -51.1280 -51.1279 -51.1279 -51.1123 -51.1123 -51.1122 -51.1122
   -20.6405 -20.6405 -20.0161 -20.0161 -19.9197 -19.9197 -19.9197 -19.9197
   -19.6976 -19.6976 -19.6976 -19.6976 -19.3756 -19.3756 -19.3302 -19.3302
   -19.3301 -19.3301 -19.2277 -19.2277 -19.2196 -19.2196 -19.2195 -19.2195
     6.6504   6.6504   6.6689   6.6689   6.6689   6.6689   6.7252   6.7252
     6.7252   6.7252   6.8977   6.8977   6.8977   6.8977   6.9310   6.9310
     6.9657   6.9657   6.9657   6.9657  16.0731  16.0731  16.4422  16.4422
    17.9688  17.9689  18.3161  18.3161  18.3161  18.3161  18.6437  18.6437
    19.0586  19.0586  19.0586  19.0586  19.6334  19.6334  19.6334  19.6334
    21.4698  21.4698  21.8946  21.8946  21.8946  21.8946  22.6117  22.6117
    22.6117  22.6117  22.6372  22.6372  22.9075  22.9075  22.9076  22.9076
    22.9646  22.9646  24.1096  24.1096  24.1715  24.1716  24.1716  24.1716
    25.5146  25.5146  26.1242  26.1242  26.1243  26.1243  27.1448  27.1448
    28.9808  28.9808  29.3861  29.3861  29.3861  29.3862  31.8872  31.8872
    32.2386  32.2387  32.2387  32.2388  34.0652  34.0652  34.5576  34.5576
    34.5577  34.5577  36.8241  36.8241  36.8241  36.8241  36.9763  36.9763
    37.3883  37.3883  37.9342  37.9343  37.9343  37.9343  39.0874  39.0874
    39.8838  39.8838

          k = 0.0000 0.3774 0.0000 (  5787 PWs)   bands (ev):

   -92.1132 -92.1005 -92.0693 -92.0555 -52.6998 -52.6536 -52.6071 -52.6066
   -52.5710 -52.5592 -52.5503 -52.5481 -51.1426 -51.1400 -51.1340 -51.1332
   -51.1291 -51.1290 -51.1256 -51.1208 -51.1199 -51.1195 -51.1174 -51.1126
   -20.5153 -20.3414 -20.2001 -19.9798 -19.8921 -19.8208 -19.8098 -19.7957
   -19.7490 -19.6750 -19.5921 -19.5550 -19.5417 -19.5365 -19.5065 -19.4598
   -19.3971 -19.3720 -19.3576 -19.2687 -19.2468 -19.2251 -19.2173 -19.2162
     6.5987   6.6181   6.6381   6.6765   6.7060   6.7071   6.7202   6.7626
     6.7936   6.7988   6.8116   6.8204   6.8360   6.8935   6.9060   6.9187
     6.9617   6.9773   6.9953   7.0106  16.4101  17.0668  17.2146  17.6015
    17.7890  17.9387  18.1890  18.4902  18.7935  18.8909  19.0390  19.2668
    19.2833  19.4445  19.6964  19.7825  19.8405  20.1770  20.2174  20.2590
    20.3642  20.5407  20.8931  21.0246  21.2317  21.3337  21.4182  21.4792
    21.7144  22.1042  22.1044  22.3323  22.4081  22.6462  22.6491  22.7528
    22.8800  23.0319  23.0769  23.1143  23.3148  23.4226  24.0712  24.1991
    24.4700  24.8156  25.0262  25.8336  26.2512  26.4010  26.7653  28.2530
    28.3192  29.1594  29.6797  30.1172  31.3667  31.3794  31.9767  32.2670
    32.3832  32.7070  33.8655  34.0019  34.0957  34.2493  34.7055  34.7547
    35.3041  35.4856  35.5173  35.7552  36.6895  37.1989  37.2820  37.4946
    38.0825  38.4332  38.6816  38.7743  39.0133  39.2350  39.7601  39.7871
    39.8762  39.9188

          k = 0.0000 0.3774 0.1516 (  5804 PWs)   bands (ev):

   -92.1294 -92.1133 -92.0784 -92.0705 -52.6962 -52.6665 -52.6116 -52.6032
   -52.5733 -52.5657 -52.5577 -52.5513 -51.1459 -51.1433 -51.1354 -51.1327
   -51.1315 -51.1311 -51.1279 -51.1267 -51.1209 -51.1195 -51.1163 -51.1128
   -20.5060 -20.3969 -20.1366 -19.9920 -19.8902 -19.8073 -19.8049 -19.7970
   -19.7606 -19.7359 -19.6526 -19.6104 -19.5371 -19.5161 -19.4492 -19.4178
   -19.3992 -19.3441 -19.3425 -19.2891 -19.2654 -19.2380 -19.2273 -19.2254
     6.6065   6.6238   6.6424   6.6685   6.6878   6.7072   6.7314   6.7460
     6.7716   6.7805   6.8375   6.8416   6.8527   6.8837   6.9031   6.9297
     6.9681   6.9714   6.9912   7.0020  16.5143  17.0489  17.1049  17.5661
    17.8446  17.9319  18.2365  18.5402  18.8236  18.9285  19.0004  19.0575
    19.1479  19.4734  19.5013  19.7640  19.8824  20.0451  20.2057  20.2178
    20.4837  20.7094  20.9530  21.2232  21.2496  21.4851  21.5838  21.6885
    21.8389  21.9961  22.0086  22.3892  22.4334  22.5743  22.5957  22.7731
    22.8260  22.8674  22.8757  23.2270  23.3028  23.3371  24.1584  24.1754
    24.4056  24.5647  25.0236  26.1030  26.2800  26.4050  26.7607  27.9753
    28.1324  29.4184  29.6305  30.3656  30.7452  31.5920  32.2360  32.4794
    32.5820  32.8361  33.3105  33.4453  34.2464  34.4784  34.7211  34.9540
    35.3498  35.6798  35.8768  36.4680  36.6097  37.0035  37.0542  37.4221
    37.8530  38.2266  38.4057  38.5472  38.8079  39.0074  39.5295  39.6094
    39.7692  40.0603

          k = 0.0000 0.3774-0.3033 (  5816 PWs)   bands (ev):

   -92.1255 -92.1255 -92.0892 -92.0892 -52.6826 -52.6826 -52.6110 -52.6110
   -52.5659 -52.5659 -52.5638 -52.5638 -51.1439 -51.1439 -51.1386 -51.1386
   -51.1306 -51.1305 -51.1286 -51.1286 -51.1211 -51.1211 -51.1164 -51.1163
   -20.4671 -20.4671 -20.0491 -20.0491 -19.8546 -19.8546 -19.8075 -19.8075
   -19.7398 -19.7398 -19.6872 -19.6872 -19.5155 -19.5155 -19.4127 -19.4127
   -19.3437 -19.3437 -19.3076 -19.3076 -19.2856 -19.2856 -19.2251 -19.2251
     6.6242   6.6243   6.6541   6.6541   6.6823   6.6824   6.7518   6.7519
     6.7549   6.7550   6.8603   6.8604   6.8619   6.8619   6.9206   6.9207
     6.9804   6.9805   6.9808   6.9808  16.7791  16.7791  17.2435  17.2435
    18.0279  18.0279  18.4579  18.4579  18.7096  18.7096  19.0190  19.0190
    19.1788  19.1788  19.6751  19.6751  19.9402  19.9402  20.1214  20.1214
    20.7348  20.7348  21.2398  21.2399  21.5482  21.5482  21.6372  21.6372
    21.9672  21.9672  22.2605  22.2605  22.4826  22.4826  22.5267  22.5267
    22.7298  22.7298  23.0595  23.0595  23.2864  23.2864  24.2379  24.2379
    24.2872  24.2872  25.6659  25.6659  26.3590  26.3590  27.0572  27.0572
    28.8706  28.8706  30.5406  30.5406  30.6464  30.6464  32.6238  32.6238
    32.8016  32.8017  32.9571  32.9571  34.6804  34.6804  35.2093  35.2093
    35.4267  35.4267  36.2671  36.2671  36.6147  36.6147  37.5747  37.5747
    37.7685  37.7685  37.9839  37.9839  38.8272  38.8272  39.5999  39.5999
    39.6455  39.6455

          k =-0.4902-0.2830 0.0000 (  5800 PWs)   bands (ev):

   -92.1236 -92.1042 -92.0971 -92.0526 -52.6838 -52.6498 -52.6190 -52.6074
   -52.5860 -52.5715 -52.5514 -52.5488 -51.1473 -51.1397 -51.1335 -51.1325
   -51.1301 -51.1262 -51.1258 -51.1257 -51.1247 -51.1247 -51.1190 -51.1103
   -20.4227 -20.2571 -20.1964 -20.0541 -19.8491 -19.8291 -19.7930 -19.7390
   -19.6911 -19.6625 -19.6092 -19.6044 -19.5660 -19.5428 -19.5250 -19.5183
   -19.4948 -19.4074 -19.4029 -19.2825 -19.2478 -19.2233 -19.2188 -19.2075
     6.5980   6.6090   6.6430   6.6684   6.7110   6.7133   6.7271   6.7839
     6.7884   6.8037   6.8062   6.8073   6.8124   6.8825   6.9042   6.9127
     6.9693   6.9911   6.9958   7.0076  17.0933  17.3967  17.4067  17.4211
    17.7983  18.0837  18.1960  18.5976  19.1059  19.1528  19.1959  19.3934
    19.4244  19.4329  19.6762  20.0832  20.1982  20.3546  20.3697  20.5218
    20.6664  20.6807  20.6817  20.7943  21.0051  21.0429  21.1664  21.3213
    21.4321  21.4920  21.6497  21.7976  21.8586  22.4718  22.5051  22.6285
    22.6513  22.7272  22.7760  22.7936  22.8103  23.1194  24.2444  24.2498
    24.3600  24.5192  24.7977  26.0413  26.1069  26.2514  26.4982  28.4501
    28.6220  29.7330  30.3509  30.7499  31.5146  31.8077  31.9089  32.7510
    32.9729  33.0356  33.0735  33.6292  33.9271  34.2023  34.6716  34.8688
    35.5172  35.8363  35.9026  36.1575  36.2305  36.2628  37.6624  37.9881
    38.6984  38.9243  39.0287  39.1472  39.2978  39.6066  39.7947  39.9308
    40.1049  40.3905

          k =-0.4902-0.2830 0.1516 (  5822 PWs)   bands (ev):

   -92.1391 -92.1354 -92.0880 -92.0833 -52.6833 -52.6532 -52.6249 -52.6159
   -52.5815 -52.5753 -52.5629 -52.5581 -51.1457 -51.1453 -51.1359 -51.1344
   -51.1334 -51.1332 -51.1306 -51.1293 -51.1247 -51.1234 -51.1167 -51.1137
   -20.4139 -20.3153 -20.1420 -20.0580 -19.8603 -19.7996 -19.7865 -19.7487
   -19.7332 -19.6772 -19.6637 -19.6039 -19.6021 -19.5798 -19.5122 -19.5025
   -19.4468 -19.3785 -19.3545 -19.3029 -19.2656 -19.2308 -19.2288 -19.2272
     6.6054   6.6162   6.6453   6.6627   6.7011   6.7167   6.7370   6.7375
     6.7497   6.7842   6.8308   6.8484   6.8577   6.8734   6.9019   6.9142
     6.9733   6.9837   6.9917   6.9980  17.0968  17.3583  17.4923  17.5285
    17.7205  17.9035  18.3788  18.6432  19.0226  19.1041  19.1338  19.1677
    19.4178  19.5214  19.7403  20.0259  20.1805  20.2245  20.4034  20.5152
    20.6326  20.6982  20.8231  20.8912  20.9222  21.1108  21.2009  21.4927
    21.5567  21.5657  21.7282  21.7975  21.9551  22.1850  22.4459  22.5440
    22.6257  22.6682  22.7322  22.8164  22.8249  23.0652  24.2176  24.2949
    24.3651  24.5215  25.0689  25.6690  26.2317  26.2894  27.0987  27.5560
    28.4200  30.1217  30.4587  30.5536  31.3216  32.0572  32.1391  32.4114
    32.9799  33.0267  33.3237  33.7090  33.9388  34.3336  34.3585  34.4548
    35.8621  36.1124  36.3205  36.4338  36.5414  36.5835  37.2981  37.8515
    38.0340  38.5349  38.5778  39.0964  39.1370  39.2576  39.5599  39.7130
    40.1693  40.2660

          k =-0.4902-0.2830-0.3033 (  5804 PWs)   bands (ev):

   -92.1140 -92.1138 -92.0811 -92.0810 -52.6622 -52.6622 -52.6146 -52.6146
   -52.5702 -52.5702 -52.5660 -52.5660 -51.1427 -51.1426 -51.1304 -51.1304
   -51.1301 -51.1300 -51.1276 -51.1275 -51.1233 -51.1233 -51.1178 -51.1177
   -20.3773 -20.3773 -20.0834 -20.0834 -19.8143 -19.8142 -19.7698 -19.7698
   -19.7295 -19.7295 -19.6324 -19.6324 -19.5966 -19.5966 -19.5036 -19.5036
   -19.3578 -19.3578 -19.3163 -19.3163 -19.2719 -19.2719 -19.2270 -19.2270
     6.6216   6.6217   6.6522   6.6523   6.6976   6.6976   6.7284   6.7284
     6.7602   6.7602   6.8537   6.8538   6.8801   6.8802   6.9082   6.9082
     6.9808   6.9808   6.9835   6.9835  17.1976  17.1976  17.6550  17.6550
    17.7138  17.7138  18.5947  18.5947  18.8240  18.8241  19.1748  19.1748
    19.4735  19.4735  20.0076  20.0076  20.1409  20.1409  20.3206  20.3206
    20.7620  20.7620  20.8688  20.8688  21.0538  21.0538  21.3656  21.3656
    21.6680  21.6680  21.8407  21.8407  22.1976  22.1976  22.2937  22.2937
    22.5858  22.5858  22.7356  22.7356  22.9408  22.9409  24.2365  24.2365
    24.2819  24.2819  26.1996  26.1997  26.3229  26.3229  26.3736  26.3737
    29.3429  29.3429  30.8626  30.8627  31.0710  31.0710  32.7545  32.7545
    33.0194  33.0194  33.7978  33.7978  33.9738  33.9739  34.1809  34.1809
    36.0680  36.0680  36.7149  36.7150  36.8431  36.8431  37.7295  37.7295
    37.9288  37.9288  38.3198  38.3198  38.8464  38.8465  39.8932  39.8932
    39.9320  39.9320

          k =-0.4902 0.0943 0.0000 (  5827 PWs)   bands (ev):

   -92.1410 -92.1176 -92.1141 -92.0859 -52.6912 -52.6475 -52.6296 -52.6162
   -52.5888 -52.5748 -52.5639 -52.5485 -51.1470 -51.1454 -51.1365 -51.1354
   -51.1327 -51.1320 -51.1303 -51.1255 -51.1244 -51.1236 -51.1202 -51.1189
   -20.4166 -20.2586 -20.1972 -20.0624 -19.9277 -19.8295 -19.8090 -19.7139
   -19.6936 -19.6823 -19.6017 -19.5883 -19.5573 -19.5547 -19.5297 -19.5229
   -19.4314 -19.3982 -19.3732 -19.2888 -19.2824 -19.2752 -19.2393 -19.2159
     6.5976   6.6078   6.6305   6.6554   6.7223   6.7320   6.7395   6.7840
     6.7926   6.7999   6.8040   6.8131   6.8174   6.8699   6.8851   6.8867
     6.9831   6.9888   7.0057   7.0138  16.9330  17.4608  17.5168  17.6330
    17.7157  18.1818  18.3035  18.5983  18.9113  19.1139  19.2133  19.3757
    19.3861  19.6755  19.7150  19.8708  19.9222  20.1465  20.2261  20.4750
    20.4969  20.5985  20.6602  20.7410  20.9908  21.0060  21.1129  21.1935
    21.5743  21.7074  21.7834  21.9661  22.1338  22.2227  22.2518  22.6309
    22.6723  22.7765  23.0961  23.1683  23.2442  23.4385  24.0693  24.1293
    24.1557  24.4042  24.7028  25.5601  25.6789  26.8819  27.0817  28.4923
    28.7499  29.6394  30.4386  30.4884  31.0191  31.4068  31.8367  31.8798
    32.6533  32.8344  33.2493  33.4390  34.2490  34.7792  35.3140  35.4027
    35.5873  35.6042  35.8752  36.4300  36.5433  37.1183  37.8968  37.9632
    38.2111  38.5126  38.7555  38.8679  39.2344  39.5954  39.8269  39.9582
    40.1103  40.1666

          k =-0.4902 0.0943 0.1516 (  5825 PWs)   bands (ev):

   -92.1426 -92.1188 -92.1020 -92.0895 -52.6853 -52.6569 -52.6256 -52.6208
   -52.5830 -52.5686 -52.5625 -52.5550 -51.1454 -51.1450 -51.1367 -51.1359
   -51.1328 -51.1326 -51.1298 -51.1285 -51.1240 -51.1222 -51.1183 -51.1179
   -20.4035 -20.3077 -20.1478 -20.0705 -19.9077 -19.8110 -19.7947 -19.7435
   -19.7199 -19.6814 -19.6624 -19.6385 -19.5728 -19.5560 -19.4798 -19.4653
   -19.4138 -19.3719 -19.3496 -19.2970 -19.2878 -19.2773 -19.2515 -19.2298
     6.6059   6.6150   6.6331   6.6496   6.7102   6.7286   6.7390   6.7522
     6.7715   6.7881   6.8278   6.8393   6.8538   6.8611   6.8796   6.8986
     6.9816   6.9879   6.9971   7.0092  16.9990  17.3624  17.5187  17.7451
    17.7631  17.9698  18.4784  18.6579  18.9486  19.0568  19.0775  19.1696
    19.3295  19.5301  19.7760  19.8984  20.0428  20.2058  20.2342  20.2951
    20.4434  20.5549  20.7913  20.8601  20.9986  21.2045  21.2463  21.3183
    21.5685  21.7212  21.8528  22.0240  22.1277  22.2049  22.3221  22.4561
    22.6450  22.7476  22.9458  23.0777  23.1919  23.2985  23.8549  23.9325
    24.2910  24.4681  24.9650  25.4584  26.5662  26.8175  27.0807  27.9643
    28.5101  29.3121  30.0722  30.3629  31.3030  31.7401  32.2375  32.5576
    32.5840  32.6316  32.8240  33.3585  34.3678  34.8354  35.0845  35.5435
    35.7624  35.9919  36.2029  36.3198  36.9048  37.0454  37.5553  37.6547
    38.0798  38.3199  38.5198  38.6441  38.9824  39.1384  39.6083  39.7106
    39.9988  40.1911

          k =-0.4902 0.0943-0.3033 (  5824 PWs)   bands (ev):

   -92.1253 -92.1252 -92.1000 -92.0999 -52.6700 -52.6700 -52.6259 -52.6259
   -52.5687 -52.5687 -52.5634 -52.5634 -51.1441 -51.1441 -51.1353 -51.1353
   -51.1325 -51.1325 -51.1295 -51.1295 -51.1234 -51.1233 -51.1192 -51.1192
   -20.3662 -20.3662 -20.0937 -20.0937 -19.8395 -19.8395 -19.7780 -19.7780
   -19.7207 -19.7207 -19.6723 -19.6723 -19.5691 -19.5691 -19.4493 -19.4493
   -19.3634 -19.3634 -19.3145 -19.3145 -19.2853 -19.2853 -19.2668 -19.2668
     6.6207   6.6208   6.6396   6.6396   6.6996   6.6997   6.7500   6.7501
     6.7702   6.7703   6.8446   6.8447   6.8624   6.8625   6.8983   6.8984
     6.9800   6.9801   6.9986   6.9986  17.1663  17.1663  17.6348  17.6348
    17.8940  17.8940  18.6513  18.6513  18.8860  18.8860  19.0779  19.0779
    19.3191  19.3191  19.9004  19.9004  20.1457  20.1457  20.2163  20.2163
    20.4851  20.4851  20.9324  20.9324  21.1292  21.1292  21.4759  21.4759
    21.7335  21.7335  21.8488  21.8488  22.1396  22.1396  22.4538  22.4538
    22.6717  22.6717  22.8407  22.8407  23.1312  23.1312  23.7646  23.7646
    24.3878  24.3878  25.6429  25.6430  26.5594  26.5594  27.5713  27.5713
[...]
     6.9583   6.9583   7.0901   7.0901   7.1291   7.1291   7.1368   7.1535
     7.1634   7.1634   7.1917   7.1917  15.8012  16.4102  16.5629  16.9310
    17.7306  18.3988  18.4257  18.4257  18.4264  18.5053  18.5053  18.8360
    18.8360  19.1897  19.4399  19.4400  19.8578  19.8579  20.1003  20.1003
    21.2984  21.4760  21.4760  21.7893  22.1196  22.1197  22.4589  22.7851
    22.8249  22.8249  22.8588  22.8932  22.8933  23.0737  23.0738  23.0785
    23.0795  23.0795  24.0489  24.2487  24.2488  24.6242  24.6242  25.6052
    25.7316  25.7327  26.3039  26.3039  26.7004  26.7004  26.8735  27.9428
    28.6901  29.1110  29.1112  29.3862  29.3863  29.5902  30.9501  32.0044
    32.0044  32.0385  33.3362  33.3362  33.8481  34.5756  34.5756  35.2514
    35.3382  35.3383  36.3692  36.3693  36.8864  36.9284  37.0547  37.0547
    37.0760  37.0761  37.5214  38.2972  39.0369  39.2425  39.2499  39.2501
    39.4821  39.4821

          k = 0.0000 0.0000-0.3039 (  6152 PWs)   bands (ev):

   -92.1517 -92.1517 -92.0827 -92.0826 -52.5755 -52.5755 -52.4560 -52.4560
   -52.4277 -52.4277 -52.4276 -52.4276 -50.9466 -50.9466 -50.9309 -50.9309
   -50.9309 -50.9309 -50.9256 -50.9256 -50.9176 -50.9176 -50.9176 -50.9176
   -20.5253 -20.5253 -19.8807 -19.8807 -19.7985 -19.7985 -19.7985 -19.7985
   -19.5748 -19.5748 -19.5748 -19.5748 -19.2346 -19.2346 -19.2041 -19.2041
   -19.2040 -19.2040 -19.1011 -19.1011 -19.0879 -19.0879 -19.0878 -19.0878
     6.8588   6.8588   6.8758   6.8758   6.8758   6.8758   6.9342   6.9342
     6.9342   6.9342   7.1097   7.1097   7.1097   7.1097   7.1464   7.1464
     7.1795   7.1795   7.1795   7.1795  16.1823  16.1823  16.5664  16.5664
    18.1064  18.1064  18.4573  18.4573  18.4573  18.4573  18.7766  18.7766
    19.2051  19.2051  19.2051  19.2051  19.7831  19.7831  19.7831  19.7831
    21.6332  21.6332  22.0676  22.0676  22.0676  22.0676  22.7969  22.7969
    22.7969  22.7969  22.8216  22.8217  23.0924  23.0924  23.0924  23.0924
    23.1292  23.1292  24.2652  24.2652  24.3705  24.3705  24.3705  24.3705
    25.7321  25.7321  26.2990  26.2990  26.2990  26.2990  27.3210  27.3211
    29.1600  29.1601  29.5930  29.5930  29.5930  29.5930  32.0777  32.0777
    32.4317  32.4317  32.4318  32.4318  34.2770  34.2770  34.7584  34.7585
    34.7585  34.7585  36.9760  36.9760  36.9761  36.9761  37.1362  37.1362
    37.4757  37.4758  38.0777  38.0777  38.0778  38.0779  39.1904  39.1906
    39.9933  39.9942

          k = 0.0000 0.3781 0.0000 (  6172 PWs)   bands (ev):

   -92.1522 -92.1358 -92.1248 -92.1095 -52.5701 -52.5335 -52.4867 -52.4799
   -52.4555 -52.4341 -52.4266 -52.4157 -50.9481 -50.9427 -50.9355 -50.9319
   -50.9314 -50.9291 -50.9280 -50.9263 -50.9245 -50.9233 -50.9227 -50.9213
   -20.3978 -20.2265 -20.0890 -19.8609 -19.7769 -19.7138 -19.6780 -19.6737
   -19.6230 -19.5544 -19.4747 -19.4250 -19.4167 -19.4140 -19.3858 -19.3111
   -19.2686 -19.2378 -19.2269 -19.1355 -19.1097 -19.1057 -19.0968 -19.0841
     6.8041   6.8244   6.8451   6.8838   6.9139   6.9152   6.9285   6.9716
     7.0041   7.0096   7.0219   7.0313   7.0477   7.1067   7.1184   7.1314
     7.1753   7.1934   7.2098   7.2264  16.5169  17.1960  17.3368  17.7283
    17.9164  18.0706  18.3176  18.6320  18.9407  19.0337  19.1842  19.4119
    19.4338  19.5958  19.8478  19.9368  19.9924  20.3314  20.3742  20.4112
    20.5228  20.6989  21.0527  21.1897  21.3962  21.5002  21.5841  21.6510
    21.8799  22.2778  22.2829  22.5074  22.5859  22.8267  22.8293  22.9389
    23.0545  23.2171  23.2500  23.3049  23.5024  23.6031  24.2482  24.4001
    24.6450  25.0252  25.2051  26.0107  26.4514  26.5838  26.9389  28.4355
    28.4926  29.3579  29.8698  30.3117  31.5695  31.5723  32.1882  32.4714
    32.5913  32.9027  34.0584  34.2029  34.2799  34.4504  34.9045  34.9462
    35.4959  35.6771  35.6967  35.9289  36.8704  37.3694  37.4237  37.6434
    38.1995  38.5749  38.8231  38.9162  39.1750  39.3600  39.8557  39.9245
    40.0112  40.0390

          k = 0.0000 0.3781 0.1519 (  6162 PWs)   bands (ev):

   -92.1562 -92.1361 -92.1222 -92.0831 -52.5642 -52.5380 -52.4851 -52.4826
   -52.4438 -52.4339 -52.4226 -52.4197 -50.9493 -50.9410 -50.9361 -50.9311
   -50.9306 -50.9271 -50.9266 -50.9255 -50.9249 -50.9234 -50.9198 -50.9174
   -20.3818 -20.2771 -20.0194 -19.8768 -19.7697 -19.6761 -19.6752 -19.6729
   -19.6392 -19.6067 -19.5235 -19.4835 -19.4044 -19.3706 -19.3203 -19.2824
   -19.2657 -19.2144 -19.2117 -19.1540 -19.1338 -19.1029 -19.0991 -19.0897
     6.8130   6.8310   6.8495   6.8756   6.8959   6.9151   6.9405   6.9550
     6.9817   6.9912   7.0489   7.0532   7.0649   7.0967   7.1154   7.1431
     7.1823   7.1872   7.2058   7.2174  16.6280  17.1683  17.2330  17.6965
    17.9735  18.0594  18.3737  18.6830  18.9698  19.0722  19.1471  19.2030
    19.2946  19.6222  19.6533  19.9185  20.0324  20.1995  20.3591  20.3734
    20.6462  20.8678  21.1139  21.3884  21.4178  21.6539  21.7564  21.8565
    22.0072  22.1721  22.1779  22.5634  22.6133  22.7556  22.7760  22.9581
    23.0034  23.0523  23.0534  23.4165  23.4904  23.5157  24.3317  24.3753
    24.5841  24.7669  25.2016  26.2870  26.4793  26.5980  26.9398  28.1569
    28.3050  29.6071  29.8293  30.5587  30.9339  31.8005  32.4406  32.6873
    32.7848  33.0350  33.5166  33.6460  34.4374  34.6760  34.9089  35.1512
    35.5514  35.8656  36.0590  36.6465  36.7845  37.1641  37.2224  37.5990
    38.0352  38.3479  38.5563  38.6949  38.9498  39.1640  39.6395  39.7283
    39.8750  40.2042

          k = 0.0000 0.3781-0.3039 (  6158 PWs)   bands (ev):

   -92.1348 -92.1348 -92.1102 -92.1102 -52.5506 -52.5506 -52.4842 -52.4842
   -52.4303 -52.4303 -52.4277 -52.4277 -50.9422 -50.9422 -50.9331 -50.9331
   -50.9294 -50.9294 -50.9266 -50.9266 -50.9226 -50.9226 -50.9204 -50.9204
   -20.3394 -20.3394 -19.9292 -19.9292 -19.7307 -19.7307 -19.6765 -19.6765
   -19.6023 -19.6023 -19.5550 -19.5550 -19.3715 -19.3715 -19.2835 -19.2835
   -19.2087 -19.2087 -19.1733 -19.1733 -19.1525 -19.1525 -19.0956 -19.0956
     6.8316   6.8317   6.8611   6.8612   6.8908   6.8908   6.9612   6.9613
     6.9647   6.9647   7.0728   7.0728   7.0742   7.0742   7.1342   7.1342
     7.1952   7.1952   7.1959   7.1959  16.8963  16.8963  17.3733  17.3733
    18.1589  18.1589  18.5980  18.5980  18.8542  18.8542  19.1640  19.1640
    19.3276  19.3276  19.8292  19.8292  20.0929  20.0929  20.2740  20.2740
    20.8979  20.8979  21.4054  21.4054  21.7195  21.7195  21.8036  21.8036
    22.1396  22.1396  22.4340  22.4340  22.6635  22.6635  22.7048  22.7048
    22.9140  22.9140  23.2380  23.2380  23.4752  23.4752  24.4354  24.4354
    24.4592  24.4592  25.8533  25.8533  26.5587  26.5587  27.2342  27.2342
    29.0558  29.0559  30.7306  30.7306  30.8488  30.8488  32.8224  32.8224
    33.0073  33.0073  33.1610  33.1610  34.8758  34.8758  35.3987  35.3987
    35.6272  35.6272  36.4509  36.4510  36.8006  36.8007  37.7231  37.7231
    37.9287  37.9287  38.1601  38.1601  38.9639  38.9640  39.7466  39.7468
    39.7633  39.7634

          k =-0.4911-0.2835 0.0000 (  6164 PWs)   bands (ev):

   -92.1496 -92.1360 -92.1234 -92.0955 -52.5550 -52.5152 -52.4950 -52.4889
   -52.4651 -52.4309 -52.4245 -52.4189 -50.9464 -50.9406 -50.9321 -50.9320
   -50.9318 -50.9306 -50.9270 -50.9268 -50.9245 -50.9241 -50.9216 -50.9177
   -20.3043 -20.1406 -20.0814 -19.9276 -19.7238 -19.7184 -19.6750 -19.5963
   -19.5722 -19.5271 -19.4792 -19.4663 -19.4367 -19.4198 -19.3886 -19.3773
   -19.3665 -19.2765 -19.2735 -19.1461 -19.1103 -19.1077 -19.0965 -19.0690
     6.8037   6.8152   6.8495   6.8761   6.9180   6.9213   6.9355   6.9946
     6.9985   7.0138   7.0181   7.0194   7.0239   7.0955   7.1169   7.1240
     7.1832   7.2069   7.2108   7.2239  17.2052  17.5254  17.5342  17.5457
    17.9216  18.2245  18.3279  18.7387  19.2513  19.2980  19.3426  19.5471
    19.5781  19.5812  19.8264  20.2352  20.3571  20.5095  20.5278  20.6786
    20.8283  20.8427  20.8486  20.9501  21.1766  21.2070  21.3194  21.4892
    21.6025  21.6548  21.8260  21.9669  22.0286  22.6490  22.6800  22.8089
    22.8349  22.9094  22.9568  22.9626  22.9924  23.3100  24.4314  24.4521
    24.5488  24.6968  25.0074  26.2193  26.2873  26.4525  26.6662  28.6256
    28.7955  29.9388  30.5660  30.9420  31.7165  32.0047  32.1165  32.9707
    33.1782  33.2256  33.2723  33.8420  34.1225  34.3968  34.8558  35.0590
    35.7044  36.0049  36.0982  36.3240  36.4056  36.4427  37.8030  38.1158
    38.8924  39.0033  39.1517  39.3415  39.4445  39.7269  39.9360  40.0835
    40.2639  40.4597

          k =-0.4911-0.2835 0.1519 (  6182 PWs)   bands (ev):

   -92.1481 -92.1410 -92.1307 -92.1294 -52.5537 -52.5224 -52.5006 -52.4946
   -52.4519 -52.4360 -52.4297 -52.4262 -50.9458 -50.9443 -50.9369 -50.9343
   -50.9327 -50.9287 -50.9285 -50.9278 -50.9266 -50.9254 -50.9253 -50.9207
   -20.2913 -20.2014 -20.0208 -19.9353 -19.7339 -19.6813 -19.6669 -19.6086
   -19.6075 -19.5405 -19.5255 -19.4808 -19.4707 -19.4499 -19.3763 -19.3677
   -19.3136 -19.2442 -19.2306 -19.1700 -19.1338 -19.0978 -19.0977 -19.0947
     6.8123   6.8229   6.8522   6.8701   6.9090   6.9246   6.9467   6.9468
     6.9596   6.9948   7.0426   7.0599   7.0702   7.0868   7.1140   7.1260
     7.1878   7.1999   7.2071   7.2140  17.2133  17.4812  17.6160  17.6560
    17.8476  18.0372  18.5180  18.7844  19.1706  19.2476  19.2794  19.3138
    19.5710  19.6699  19.8938  20.1779  20.3356  20.3810  20.5627  20.6783
    20.7907  20.8661  20.9847  21.0609  21.0817  21.2695  21.3647  21.6581
    21.7278  21.7340  21.9016  21.9629  22.1263  22.3571  22.6247  22.7240
    22.8090  22.8497  22.9048  22.9975  23.0112  23.2547  24.4186  24.4727
    24.5391  24.7227  25.2546  25.8548  26.4241  26.4913  27.2755  27.7309
    28.6147  30.3271  30.6510  30.7409  31.5109  32.2601  32.3508  32.6105
    33.1861  33.2395  33.5210  33.9220  34.1283  34.5231  34.5617  34.6416
    36.0423  36.2982  36.4878  36.6144  36.7188  36.7676  37.4608  38.0444
    38.1698  38.6457  38.7403  39.2745  39.2796  39.3895  39.6681  39.8161
    40.2978  40.4651

          k =-0.4911-0.2835-0.3039 (  6184 PWs)   bands (ev):

   -92.1432 -92.1432 -92.1349 -92.1349 -52.5400 -52.5400 -52.4980 -52.4980
   -52.4378 -52.4378 -52.4341 -52.4341 -50.9444 -50.9444 -50.9391 -50.9391
   -50.9292 -50.9292 -50.9291 -50.9290 -50.9251 -50.9251 -50.9230 -50.9230
   -20.2563 -20.2563 -19.9612 -19.9612 -19.6926 -19.6926 -19.6330 -19.6330
   -19.6158 -19.6158 -19.5164 -19.5164 -19.4720 -19.4720 -19.3741 -19.3741
   -19.2298 -19.2298 -19.1822 -19.1822 -19.1460 -19.1460 -19.0955 -19.0955
     6.8287   6.8287   6.8598   6.8598   6.9052   6.9052   6.9367   6.9368
     6.9702   6.9702   7.0661   7.0662   7.0927   7.0928   7.1199   7.1199
     7.1960   7.1961   7.1979   7.1979  17.3161  17.3161  17.7842  17.7842
    17.8396  17.8397  18.7369  18.7369  18.9661  18.9661  19.3208  19.3208
    19.6247  19.6247  20.1602  20.1602  20.3000  20.3000  20.4768  20.4768
    20.9300  20.9300  21.0281  21.0281  21.2164  21.2164  21.5304  21.5304
    21.8388  21.8388  22.0064  22.0064  22.3733  22.3734  22.4716  22.4716
    22.7674  22.7674  22.9157  22.9157  23.1278  23.1278  24.4346  24.4346
    24.4463  24.4463  26.3895  26.3896  26.5237  26.5237  26.5505  26.5505
    29.5281  29.5281  31.0472  31.0472  31.2764  31.2764  32.9548  32.9548
    33.2217  33.2218  33.9901  33.9902  34.1811  34.1811  34.3625  34.3625
    36.2574  36.2574  36.8888  36.8888  37.0253  37.0253  37.8789  37.8789
    38.0799  38.0799  38.4525  38.4527  39.0087  39.0089  39.9908  39.9909
    40.0550  40.0554

          k =-0.4911 0.0945 0.0000 (  6172 PWs)   bands (ev):

   -92.1567 -92.1359 -92.1266 -92.1085 -52.5557 -52.5236 -52.4994 -52.4840
   -52.4653 -52.4352 -52.4243 -52.4176 -50.9471 -50.9406 -50.9350 -50.9330
   -50.9308 -50.9297 -50.9291 -50.9279 -50.9264 -50.9256 -50.9230 -50.9178
   -20.2930 -20.1304 -20.0829 -19.9403 -19.7938 -19.7140 -19.6818 -19.5864
   -19.5693 -19.5576 -19.4644 -19.4582 -19.4250 -19.4210 -19.4008 -19.3963
   -19.2861 -19.2632 -19.2336 -19.1537 -19.1399 -19.1373 -19.1065 -19.0766
     6.8038   6.8146   6.8371   6.8624   6.9311   6.9411   6.9484   6.9944
     7.0029   7.0099   7.0155   7.0248   7.0291   7.0826   7.0979   7.0985
     7.1972   7.2051   7.2220   7.2292  17.0500  17.5879  17.6489  17.7563
    17.8437  18.3136  18.4460  18.7408  19.0582  19.2587  19.3606  19.5234
    19.5359  19.8290  19.8687  20.0208  20.0777  20.3031  20.3835  20.6299
    20.6535  20.7573  20.8188  20.9039  21.1520  21.1668  21.2758  21.3602
    21.7472  21.8819  21.9523  22.1410  22.3069  22.4013  22.4241  22.8085
    22.8528  22.9537  23.2839  23.3547  23.4309  23.6193  24.2579  24.3162
    24.3538  24.6039  24.8942  25.7525  25.8560  27.0584  27.2714  28.6675
    28.9289  29.8262  30.6445  30.6781  31.2200  31.6122  32.0362  32.0861
    32.8553  33.0410  33.4522  33.6369  34.4478  34.9779  35.5156  35.5983
    35.7774  35.7948  36.0488  36.6092  36.7128  37.2938  38.0485  38.1243
    38.3598  38.6757  38.8906  39.0054  39.3801  39.7583  39.9695  40.1185
    40.2421  40.3038

          k =-0.4911 0.0945 0.1519 (  6171 PWs)   bands (ev):

   -92.1391 -92.1384 -92.1276 -92.1197 -52.5511 -52.5268 -52.5000 -52.4930
   -52.4509 -52.4324 -52.4288 -52.4214 -50.9453 -50.9412 -50.9378 -50.9332
   -50.9312 -50.9288 -50.9281 -50.9273 -50.9251 -50.9240 -50.9214 -50.9209
   -20.2810 -20.1848 -20.0257 -19.9470 -19.7782 -19.6899 -19.6726 -19.6128
   -19.5900 -19.5531 -19.5333 -19.5087 -19.4373 -19.4189 -19.3514 -19.3355
   -19.2746 -19.2357 -19.2166 -19.1595 -19.1540 -19.1355 -19.1188 -19.0937
     6.8126   6.8221   6.8397   6.8566   6.9190   6.9375   6.9487   6.9613
     6.9812   6.9982   7.0394   7.0511   7.0661   7.0730   7.0923   7.1112
     7.1978   7.2021   7.2134   7.2242  17.1143  17.4837  17.6504  17.8709
    17.8940  18.1018  18.6209  18.8011  19.0955  19.2008  19.2226  19.3175
    19.4791  19.6818  19.9279  20.0514  20.1973  20.3605  20.3904  20.4512
    20.6015  20.7127  20.9569  21.0207  21.1615  21.3660  21.4098  21.4835
    21.7423  21.8948  22.0260  22.1964  22.3002  22.3818  22.4978  22.6321
    22.8246  22.9266  23.1320  23.2618  23.3780  23.4831  24.0421  24.1173
    24.4861  24.6656  25.1571  25.6433  26.7490  27.0037  27.2659  28.1482
    28.6983  29.5031  30.2609  30.5562  31.5030  31.9408  32.4413  32.7603
    32.7883  32.8272  33.0232  33.5617  34.5626  35.0280  35.2771  35.7354
    35.9582  36.1793  36.3852  36.4985  37.0768  37.2277  37.7175  37.8399
    38.2367  38.4645  38.6708  38.7903  39.1327  39.2713  39.7461  39.8585
    40.1465  40.3471

          k =-0.4911 0.0945-0.3039 (  6170 PWs)   bands (ev):

   -92.1364 -92.1364 -92.1252 -92.1251 -52.5384 -52.5384 -52.4989 -52.4989
   -52.4357 -52.4357 -52.4286 -52.4286 -50.9434 -50.9434 -50.9362 -50.9362
   -50.9310 -50.9310 -50.9262 -50.9261 -50.9249 -50.9249 -50.9202 -50.9202
   -20.2451 -20.2451 -19.9717 -19.9717 -19.7137 -19.7137 -19.6512 -19.6512
   -19.5933 -19.5933 -19.5453 -19.5453 -19.4344 -19.4344 -19.3136 -19.3136
   -19.2255 -19.2255 -19.1831 -19.1831 -19.1511 -19.1511 -19.1239 -19.1239
     6.8281   6.8281   6.8465   6.8465   6.9081   6.9081   6.9592   6.9592
     6.9801   6.9801   7.0565   7.0565   7.0749   7.0749   7.1112   7.1112
     7.1958   7.1958   7.2133   7.2133  17.2859  17.2859  17.7660  17.7660
    18.0235  18.0235  18.7940  18.7940  19.0314  19.0314  19.2232  19.2232
    19.4698  19.4698  20.0541  20.0541  20.2995  20.2995  20.3726  20.3727
    20.6431  20.6431  21.0959  21.0959  21.2932  21.2933  21.6440  21.6440
    21.9033  21.9033  22.0210  22.0210  22.3131  22.3131  22.6316  22.6316
    22.8514  22.8514  23.0254  23.0254  23.3156  23.3156  23.9501  23.9501
    24.5838  24.5838  25.8262  25.8262  26.7474  26.7474  27.7592  27.7592
    28.8255  28.8255  30.1089  30.1089  32.1429  32.1429  32.4847  32.4847
    33.0051  33.0051  33.3462  33.3462  34.6583  34.6583  35.7980  35.7980
    36.0289  36.0290  36.6794  36.6794  36.9434  36.9434  37.6907  37.6908
    38.3995  38.3996  38.6010  38.6011  38.7540  38.7540  39.8523  39.8525
    40.3197  40.3198

     the Fermi energy is    32.5469 ev

!    total energy              =   -3720.32907688 Ry
     Harris-Foulkes estimate   =   -3720.32908722 Ry
     estimated scf accuracy    <       0.00001121 Ry

     The total energy is the sum of the following terms:

     one-electron contribution =    -773.69221789 Ry
     hartree contribution      =     572.13819334 Ry
     xc contribution           =    -322.21354000 Ry
     ewald contribution        =   -3196.19965267 Ry
     smearing contrib. (-TS)   =      -0.36185965 Ry

     convergence has been achieved in  11 iterations

     Forces acting on atoms (Ry/au):

     atom    1 type  1   force =     0.00000000    0.00000000    0.01208544
     atom    2 type  1   force =     0.00000000    0.00000000    0.01208544
     atom    3 type  1   force =     0.00000000    0.00000000   -0.01208544
     atom    4 type  1   force =     0.00000000    0.00000000   -0.01208544
     atom    5 type  2   force =     0.00000000    0.00000000    0.00000000
     atom    6 type  2   force =     0.00000000    0.00000000    0.00000000
     atom    7 type  2   force =     0.00000000    0.00520580    0.00000000
     atom    8 type  2   force =    -0.00450836    0.00260290    0.00000000
     atom    9 type  2   force =     0.00450836    0.00260290    0.00000000
     atom   10 type  2   force =    -0.00450836   -0.00260290    0.00000000
     atom   11 type  2   force =     0.00450836   -0.00260290    0.00000000
     atom   12 type  2   force =     0.00000000   -0.00520580    0.00000000

     Total force =     0.027328     Total SCF correction =     0.000000


     entering subroutine stress ...

          total   stress  (Ry/bohr**3)                   (kbar)     P=  711.29
   0.00478484   0.00000000   0.00000000        703.87      0.00      0.00
   0.00000000   0.00478484   0.00000000          0.00    703.87      0.00
   0.00000000   0.00000000   0.00493618          0.00      0.00    726.14


     Writing output data file Prototype-La-hP12-MgZn2.save
 
     init_run     :      6.76s CPU      8.18s WALL (       2 calls)
     electrons    :   1345.80s CPU   1595.32s WALL (       5 calls)
     update_pot   :      2.96s CPU      2.98s WALL (       3 calls)
     forces       :      7.05s CPU      7.34s WALL (       5 calls)
     stress       :     21.52s CPU     21.99s WALL (       5 calls)

     Called by init_run:
     wfcinit      :      5.61s CPU      7.02s WALL (       2 calls)
     potinit      :      0.53s CPU      0.53s WALL (       2 calls)

     Called by electrons:
     c_bands      :   1313.47s CPU   1519.38s WALL (      42 calls)
     sum_band     :     31.83s CPU     43.02s WALL (      42 calls)
     v_of_rho     :      0.11s CPU      0.13s WALL (      47 calls)
     mix_rho      :      0.09s CPU      0.12s WALL (      42 calls)

     Called by c_bands:
     init_us_2    :      1.79s CPU      2.12s WALL (    1152 calls)
     ccgdiagg     :   1200.06s CPU   1377.12s WALL (     555 calls)
     wfcrot       :    117.00s CPU    145.49s WALL (     567 calls)

     Called by *cgdiagg:
     h_psi        :    830.30s CPU   1029.53s WALL (  429398 calls)
     cdiaghg      :      6.82s CPU      7.39s WALL (     567 calls)

     Called by h_psi:
     add_vuspsi   :    155.16s CPU    168.34s WALL (  429398 calls)

     General routines
     calbec       :    355.66s CPU    375.95s WALL (  858349 calls)
     fft          :      0.21s CPU      0.24s WALL (     211 calls)
     fftw         :    453.18s CPU    592.78s WALL ( 1109914 calls)
     davcio       :      1.36s CPU      3.60s WALL (    1656 calls)
 
     Parallel routines
     fft_scatter  :    174.44s CPU    238.71s WALL ( 1110125 calls)
 
     PWSCF        : 23m 4.48s CPU    27m17.97s WALL

 
   This run was terminated on:  12:31:39  22Mar2018            

=------------------------------------------------------------------------------=
   JOB DONE.
=------------------------------------------------------------------------------=
