
     Program PWSCF v.5.0.2 starts on 22Mar2018 at 10:12:22 

     This program is part of the open-source Quantum ESPRESSO suite
     for quantum simulation of materials; please cite
         "P. Giannozzi et al., J. Phys.:Condens. Matter 21 395502 (2009);
          URL http://www.quantum-espresso.org", 
     in publications or presentations arising from this work. More details at
     http://www.quantum-espresso.org/quote.php

     Parallel version (MPI), running on     4 processors
     R & G space division:  proc/nbgrp/npool/nimage =       4

     Current dimensions of program PWSCF are:
     Max number of different atomic species (ntypx) = 10
     Max number of k-points (npk) =  40000
     Max angular momentum in pseudopotentials (lmaxx) =  3
     Waiting for input...
     Reading input from standard input

     Subspace diagonalization in iterative solution of the eigenvalue problem:
     a serial algorithm will be used

 
     Parallelization info
     --------------------
     sticks:   dense  smooth     PW     G-vecs:    dense   smooth      PW
     Min         207     207     61                 7381     7381    1191
     Max         208     208     62                 7386     7386    1192
     Sum         829     829    247                29529    29529    4767
 


     bravais-lattice index     =            0
     lattice parameter (alat)  =       7.0151  a.u.
     unit-cell volume          =     862.2778 (a.u.)^3
     number of atoms/cell      =           12
     number of atomic types    =            2
     number of electrons       =       276.00
     number of Kohn-Sham states=          166
     kinetic-energy cutoff     =      40.0000  Ry
     charge density cutoff     =     160.0000  Ry
     convergence threshold     =      1.0E-04
     mixing beta               =       0.7000
     number of iterations used =            8  plain     mixing
     Exchange-correlation      = SLA-PZ-NOGX-NOGC ( 1 1 0 0 0)
     EXX-fraction              =        0.00
     nstep                     =           50


     celldm(1)=   7.015105  celldm(2)=   0.000000  celldm(3)=   0.000000
     celldm(4)=   0.000000  celldm(5)=   0.000000  celldm(6)=   0.000000

     crystal axes: (cart. coord. in units of alat)
               a(1) = (   1.000000   0.000000   0.000000 )  
               a(2) = (   0.000000   1.315963   0.000000 )  
               a(3) = (   0.000000   0.000000   1.898020 )  

     reciprocal axes: (cart. coord. in units 2 pi/alat)
               b(1) = (  1.000000  0.000000  0.000000 )  
               b(2) = (  0.000000  0.759900  0.000000 )  
               b(3) = (  0.000000  0.000000  0.526865 )  


     PseudoPot. # 1 for Lu read from file:
     /home/cwx6513/pp.La/La.UPF
     MD5 check sum: 4fc038260c66a0bf25fb4835376efb80
     Pseudo is Norm-conserving, Zval = 25.0
     Generated in analytical, separable form
     Using radial grid of 1271 points,  6 beta functions with: 
                l(1) =   0
                l(2) =   0
                l(3) =   1
                l(4) =   1
                l(5) =   2
                l(6) =   3

     PseudoPot. # 2 for Tb read from file:
     /home/cwx6513/pp.La/Tb.UPF
     MD5 check sum: 3d6088a3f0cf7fd2e110c43f7f8e95c2
     Pseudo is Norm-conserving, Zval = 19.0
     Generated in analytical, separable form
     Using radial grid of 1263 points,  6 beta functions with: 
                l(1) =   0
                l(2) =   0
                l(3) =   1
                l(4) =   1
                l(5) =   2
                l(6) =   3

     atomic species   valence    mass     pseudopotential
        Co            25.00    58.93320     Lu( 1.00)
        Si            19.00    28.08550     Tb( 1.00)

      8 Sym. Ops., with inversion, found ( 6 have fractional translation)



   Cartesian axes

     site n.     atom                  positions (alat units)
         1           Co  tau(   1) = (   0.7500000   1.0875135   0.8270358  )
         2           Co  tau(   2) = (   0.2500000   0.2284499   1.0709846  )
         3           Co  tau(   3) = (   0.7500000   0.4295318   0.1219744  )
         4           Co  tau(   4) = (   0.2500000   0.8864316   1.7760460  )
         5           Co  tau(   5) = (   0.2500000   0.7067855   0.5358966  )
         6           Co  tau(   6) = (   0.7500000   0.6091779   1.3621238  )
         7           Co  tau(   7) = (   0.2500000   0.0488038   0.4131136  )
         8           Co  tau(   8) = (   0.7500000   1.2671596   1.4849068  )
         9           Si  tau(   9) = (   0.2500000   0.2669484   1.6960710  )
        10           Si  tau(  10) = (   0.7500000   1.0490149   0.2019494  )
        11           Si  tau(  11) = (   0.2500000   0.9249301   1.1509596  )
        12           Si  tau(  12) = (   0.7500000   0.3910333   0.7470608  )

     number of k points=    12  gaussian smearing, width (Ry)=  0.1000
                       cart. coord. in units 2pi/alat
        k(    1) = (   0.0000000   0.0000000   0.0000000), wk =   0.0833333
        k(    2) = (   0.0000000   0.0000000   0.1317162), wk =   0.1666667
        k(    3) = (   0.0000000   0.0000000  -0.2634324), wk =   0.0833333
        k(    4) = (   0.0000000   0.2532999   0.0000000), wk =   0.1666667
        k(    5) = (   0.0000000   0.2532999   0.1317162), wk =   0.3333333
        k(    6) = (   0.0000000   0.2532999  -0.2634324), wk =   0.1666667
        k(    7) = (  -0.5000000   0.0000000   0.0000000), wk =   0.0833333
        k(    8) = (  -0.5000000   0.0000000   0.1317162), wk =   0.1666667
        k(    9) = (  -0.5000000   0.0000000  -0.2634324), wk =   0.0833333
        k(   10) = (  -0.5000000   0.2532999   0.0000000), wk =   0.1666667
        k(   11) = (  -0.5000000   0.2532999   0.1317162), wk =   0.3333333
        k(   12) = (  -0.5000000   0.2532999  -0.2634324), wk =   0.1666667

     Dense  grid:    29529 G-vectors     FFT dimensions: (  30,  40,  54)

     Largest allocated arrays     est. size (Mb)     dimensions
        Kohn-Sham Wavefunctions         2.34 Mb     (    922,  166)
        NL pseudopotentials             3.38 Mb     (    922,  240)
        Each V/rho on FFT grid          0.26 Mb     (  16800)
        Each G-vector array             0.06 Mb     (   7386)
        G-vector shells                 0.06 Mb     (   7386)
     Largest temporary arrays     est. size (Mb)     dimensions
        Each subspace H/S matrix        0.42 Mb     ( 166, 166)
        Each <psi_i|beta_j> matrix      0.61 Mb     (    240,  166)
        Arrays for rho mixing           2.05 Mb     (  16800,   8)

     Initial potential from superposition of free atoms

     Starting from uniform charge
     Starting wfc are    0 randomized atomic wfcs

     total cpu time spent up to now is        3.2 secs

     Self-consistent Calculation

     iteration #  1     ecut=    40.00 Ry     beta=0.70
     CG style diagonalization
     c_bands:  5 eigenvalues not converged
     ethr =  1.00E-02,  avg # of iterations = 17.8

     total cpu time spent up to now is      100.5 secs

     total energy              =   -3677.39690073 Ry
     Harris-Foulkes estimate   =   -5354.43526453 Ry
     estimated scf accuracy    <    2065.10576495 Ry

     iteration #  2     ecut=    40.00 Ry     beta=0.70
     CG style diagonalization
     c_bands:  4 eigenvalues not converged
     c_bands:  2 eigenvalues not converged
     c_bands:  2 eigenvalues not converged
     c_bands:  4 eigenvalues not converged
     ethr =  1.00E-02,  avg # of iterations = 13.7

     total cpu time spent up to now is      174.3 secs

     total energy              =   -4000.48305186 Ry
     Harris-Foulkes estimate   =   -5004.78912060 Ry
     estimated scf accuracy    <    1768.13651871 Ry

     iteration #  3     ecut=    40.00 Ry     beta=0.70
     CG style diagonalization
     c_bands:  1 eigenvalues not converged
     c_bands:  1 eigenvalues not converged
     ethr =  1.00E-02,  avg # of iterations = 10.3

     total cpu time spent up to now is      228.8 secs

     total energy              =   -4478.47724315 Ry
     Harris-Foulkes estimate   =   -4589.90473686 Ry
     estimated scf accuracy    <     223.07594348 Ry

     iteration #  4     ecut=    40.00 Ry     beta=0.70
     CG style diagonalization
     ethr =  1.00E-02,  avg # of iterations =  5.2

     total cpu time spent up to now is      254.1 secs

     total energy              =   -4520.43803721 Ry
     Harris-Foulkes estimate   =   -4527.87628773 Ry
     estimated scf accuracy    <      15.67799950 Ry

     iteration #  5     ecut=    40.00 Ry     beta=0.70
     CG style diagonalization
     ethr =  5.68E-03,  avg # of iterations =  3.6

     total cpu time spent up to now is      270.9 secs

     total energy              =   -4523.54356679 Ry
     Harris-Foulkes estimate   =   -4524.02710250 Ry
     estimated scf accuracy    <       0.97657737 Ry

     iteration #  6     ecut=    40.00 Ry     beta=0.70
     CG style diagonalization
     c_bands:  1 eigenvalues not converged
     c_bands:  1 eigenvalues not converged
     c_bands:  1 eigenvalues not converged
     ethr =  3.54E-04,  avg # of iterations =  4.5

     total cpu time spent up to now is      293.6 secs

     total energy              =   -4523.78264782 Ry
     Harris-Foulkes estimate   =   -4523.87040902 Ry
     estimated scf accuracy    <       0.16444769 Ry

     iteration #  7     ecut=    40.00 Ry     beta=0.70
     CG style diagonalization
     c_bands:  1 eigenvalues not converged
     ethr =  5.96E-05,  avg # of iterations =  4.2

     total cpu time spent up to now is      314.1 secs

     total energy              =   -4523.81921425 Ry
     Harris-Foulkes estimate   =   -4523.83740240 Ry
     estimated scf accuracy    <       0.02928339 Ry

     iteration #  8     ecut=    40.00 Ry     beta=0.70
     CG style diagonalization
     c_bands:  1 eigenvalues not converged
     ethr =  1.06E-05,  avg # of iterations =  4.0

     total cpu time spent up to now is      333.6 secs

     total energy              =   -4523.82632959 Ry
     Harris-Foulkes estimate   =   -4523.82703812 Ry
     estimated scf accuracy    <       0.00119237 Ry

     iteration #  9     ecut=    40.00 Ry     beta=0.70
     CG style diagonalization
     c_bands:  2 eigenvalues not converged
     c_bands:  1 eigenvalues not converged
     c_bands:  1 eigenvalues not converged
     ethr =  4.32E-07,  avg # of iterations =  4.4

     total cpu time spent up to now is      354.2 secs

     total energy              =   -4523.82681102 Ry
     Harris-Foulkes estimate   =   -4523.82688465 Ry
     estimated scf accuracy    <       0.00013651 Ry

     iteration # 10     ecut=    40.00 Ry     beta=0.70
     CG style diagonalization
     c_bands:  1 eigenvalues not converged
     ethr =  4.95E-08,  avg # of iterations =  3.8

     total cpu time spent up to now is      371.3 secs

     End of self-consistent calculation

          k = 0.0000 0.0000 0.0000 (  3675 PWs)   bands (ev):

   -79.4570 -79.4489 -79.4176 -79.3679 -79.1656 -79.0971 -79.0761 -79.0650
   -35.2913 -35.2840 -35.2735 -35.2562 -35.2417 -35.2160 -35.1756 -35.1622
   -35.1382 -35.1326 -35.0790 -35.0565 -34.9974 -34.9806 -34.8854 -34.8819
   -34.8752 -34.8719 -34.8200 -34.8135 -34.8010 -34.7448 -34.6571 -34.6438
   -22.9013 -22.8621 -22.8609 -22.8598   7.4192   7.5936   7.5946   7.6182
     7.6183   7.6277   7.6943   7.7035   8.0592   8.1970   8.2295   8.4136
    22.7129  22.7572  22.7792  22.8160  22.8479  23.0791  23.1148  23.1440
    23.4933  23.5322  23.5884  23.7661  23.7956  24.0465  24.0712  24.3567
    24.4550  24.5159  24.5244  24.5286  24.5950  24.6722  24.7076  24.7852
    24.9268  24.9909  25.0585  25.1564  25.2869  25.3493  25.4720  25.4902
    25.5664  25.5767  26.0504  26.1135  26.3099  26.3310  26.3346  26.4945
    30.6858  34.9107  34.9295  35.7079  39.2311  39.2661  39.4570  40.6246
    40.7469  41.3023  41.4794  41.9226  42.7227  43.0368  43.0731  43.3343
    43.5372  44.2718  44.3430  44.7322  45.1910  45.3352  45.6968  45.7806
    46.2799  47.2317  47.2590  48.2609  48.7472  49.7606  49.9243  52.5586
    52.5955  53.1834  53.8545  54.0942  54.1769  54.7797  54.8467  55.0392
    55.2761  56.2660  56.2788  56.3677  56.6694  56.7543  57.1720  57.1778
    57.3401  58.1138  58.1952  58.4525  58.5271  59.0561  59.1093  59.3403
    59.4965  59.9381  60.0174  60.8280  61.6770  61.9060  62.0846  62.4034
    62.6869  62.9834  63.0581  63.2732  63.5563  63.6552  63.8010  65.3375
    65.3996  65.4482  65.5697  65.7342  65.7565  66.0905

          k = 0.0000 0.0000 0.1317 (  3675 PWs)   bands (ev):

   -79.4830 -79.4379 -79.3949 -79.3884 -79.1777 -79.1530 -79.0796 -78.9915
   -35.2872 -35.2854 -35.2688 -35.2505 -35.2483 -35.2236 -35.1681 -35.1632
   -35.1508 -35.1366 -35.0741 -35.0600 -34.9996 -34.9867 -34.8897 -34.8730
   -34.8723 -34.8647 -34.8189 -34.8035 -34.7911 -34.7590 -34.6597 -34.6459
   -22.8978 -22.8695 -22.8607 -22.8561   7.4433   7.5462   7.6108   7.6234
     7.6249   7.6264   7.7023   7.7035   8.0715   8.1413   8.2860   8.3875
    22.5748  22.7071  22.7929  22.8158  22.9821  23.0216  23.0311  23.2321
    23.5872  23.6098  23.6719  23.8454  23.8787  24.0727  24.0801  24.3379
    24.3976  24.4398  24.5803  24.5892  24.5937  24.6091  24.6719  24.6939
    24.9462  25.0134  25.0264  25.1426  25.2087  25.2524  25.3936  25.4663
    25.6612  25.7319  25.9882  26.0329  26.3456  26.3506  26.3578  26.4505
    30.9844  33.2732  35.9965  36.4059  38.2740  38.8430  40.1523  40.4231
    40.9593  41.1922  41.6805  42.1493  42.5002  42.5177  43.0446  43.2863
    43.2996  43.5466  45.0708  45.1910  45.3533  45.7013  46.0247  46.1151
    47.0833  47.4765  47.7460  48.1380  48.6985  49.5897  49.9728  51.4714
    52.2583  52.7884  52.8222  53.5424  54.0546  54.3250  54.6209  54.8769
    55.7539  55.9470  55.9767  56.1917  56.3047  56.4685  57.5616  57.6627
    58.3370  58.3838  58.4335  58.4974  58.6459  59.2403  59.3159  59.3213
    59.4193  60.0030  60.7886  60.9722  61.3761  61.4588  61.8019  61.9056
    62.1981  62.6335  63.5694  63.8816  63.9424  64.3664  64.9341  64.9664
    65.3702  65.5543  65.6510  65.8676  65.9270  66.1301

          k = 0.0000 0.0000-0.2634 (  3690 PWs)   bands (ev):

   -79.4867 -79.4867 -79.4137 -79.4137 -79.1687 -79.1687 -79.0611 -79.0611
   -35.2888 -35.2888 -35.2650 -35.2650 -35.2347 -35.2347 -35.1637 -35.1637
   -35.1469 -35.1469 -35.0802 -35.0802 -34.9977 -34.9977 -34.8823 -34.8823
   -34.8654 -34.8654 -34.8225 -34.8225 -34.7785 -34.7785 -34.6590 -34.6590
   -22.8863 -22.8863 -22.8597 -22.8597   7.4915   7.4915   7.6145   7.6145
     7.6351   7.6351   7.6917   7.6917   8.0876   8.0876   8.3355   8.3355
    22.5773  22.5773  22.7766  22.7766  22.9378  22.9378  23.3956  23.3956
    23.4972  23.4972  23.9071  23.9071  23.9706  23.9706  24.2375  24.2375
    24.3413  24.3413  24.5188  24.5188  24.5754  24.5754  24.7248  24.7248
    24.9821  24.9821  25.1444  25.1444  25.2250  25.2250  25.2747  25.2747
    25.8640  25.8640  25.8658  25.8658  26.3726  26.3726  26.3931  26.3931
    31.8711  31.8711  36.7571  36.7571  37.9877  37.9877  40.2795  40.2795
    41.5304  41.5304  41.6023  41.6023  42.7145  42.7145  42.7460  42.7460
    43.1376  43.1376  45.6298  45.6298  45.6513  45.6513  46.9554  46.9554
    47.0871  47.0871  48.5497  48.5497  49.3007  49.3007  49.7942  49.7942
    51.8290  51.8290  52.9780  52.9780  53.5343  53.5343  54.9922  54.9922
    55.3720  55.3720  55.6906  55.6906  56.9678  56.9678  57.8928  57.8928
    58.7035  58.7035  58.7728  58.7728  58.8361  58.8361  59.1206  59.1206
    60.3920  60.3920  60.5750  60.5750  60.9505  60.9506  61.5163  61.5164
    63.2943  63.2943  63.6925  63.6926  64.5811  64.5813  64.8532  64.8534
    65.3020  65.3021  65.6376  65.6378  65.8960  65.8962

          k = 0.0000 0.2533 0.0000 (  3664 PWs)   bands (ev):

   -79.4493 -79.4048 -79.4022 -79.3936 -79.1347 -79.0807 -79.0583 -79.0531
   -35.2892 -35.2798 -35.2526 -35.2421 -35.2410 -35.2263 -35.1688 -35.1494
   -35.1438 -35.1424 -35.0783 -35.0639 -34.9479 -34.9156 -34.8839 -34.8807
   -34.8702 -34.8542 -34.8417 -34.8323 -34.7674 -34.7483 -34.7043 -34.6988
   -22.8903 -22.8679 -22.8548 -22.8494   7.4494   7.5087   7.6253   7.6268
     7.6316   7.6516   7.6520   7.6688   8.0354   8.0816   8.2812   8.3488
    22.7360  22.9006  23.0065  23.0520  23.2342  23.2681  23.3414  23.3563
    23.4463  23.6074  23.7268  23.7607  23.8066  23.8918  24.1533  24.2476
    24.2671  24.3860  24.4171  24.5092  24.5584  24.7614  24.8320  24.9141
    24.9777  25.0174  25.0386  25.1087  25.1836  25.2305  25.5325  25.5523
    25.6560  25.6938  25.8781  25.9424  26.0420  26.3028  26.3237  26.4168
    31.7383  34.1837  35.3811  35.8435  37.8092  38.4726  39.6021  40.4709
    40.6680  40.7009  41.0429  41.4791  42.1742  42.8208  43.1563  43.2310
    43.7815  44.1011  44.5057  44.6821  44.7198  45.0428  45.1865  45.2134
    46.5792  47.0290  48.1700  48.4254  49.0597  50.7704  51.1159  51.7812
    52.2450  53.0657  53.3303  53.6662  54.1129  54.3629  54.9168  55.5308
    55.5877  55.8869  56.2078  56.7582  57.3365  57.4218  57.4578  57.7740
    58.2334  58.2449  58.3624  58.5983  59.3246  59.4457  59.8276  59.8688
    59.9156  60.2060  60.7877  60.8717  60.9443  61.2776  62.0249  62.0389
    62.3109  62.4055  62.5064  63.8041  64.7550  64.8411  64.8574  64.9919
    65.2501  65.5206  65.9164  66.0957  66.2834  66.9219

          k = 0.0000 0.2533 0.1317 (  3669 PWs)   bands (ev):

   -79.4670 -79.4438 -79.3853 -79.3713 -79.1424 -79.1320 -79.0553 -79.0468
   -35.2909 -35.2842 -35.2593 -35.2465 -35.2424 -35.2294 -35.1577 -35.1524
   -35.1491 -35.1439 -35.0766 -35.0669 -34.9495 -34.9176 -34.8833 -34.8731
   -34.8685 -34.8622 -34.8474 -34.8308 -34.7641 -34.7552 -34.7050 -34.6999
   -22.8862 -22.8662 -22.8590 -22.8552   7.4589   7.5082   7.6183   7.6252
     7.6351   7.6453   7.6515   7.6627   8.0398   8.0690   8.2837   8.3385
    22.7435  22.9280  22.9446  22.9496  23.1516  23.2622  23.3646  23.4333
    23.4785  23.7169  23.8022  23.8031  23.8705  23.9299  24.0905  24.1437
    24.4103  24.4444  24.4665  24.5174  24.6776  24.7366  24.7470  24.8249
    24.8875  24.9994  25.0084  25.1179  25.1719  25.2316  25.3830  25.5413
    25.6847  25.7100  25.8703  25.9136  26.0916  26.2916  26.3174  26.4027
    32.0160  34.0022  34.6421  36.3021  37.4168  38.8306  39.6594  40.4274
    40.6241  40.8165  41.0638  41.3385  42.1154  42.6601  42.9000  43.3291
    43.7979  44.1778  44.4106  44.5811  45.0924  45.2435  45.4846  45.7485
    46.9020  47.3730  48.1671  48.8661  49.2485  50.5245  51.0194  51.2898
    51.9505  52.0127  52.6025  52.8107  54.0716  54.5122  55.0714  55.4022
    55.6213  56.1069  56.3608  56.3869  57.1151  57.3416  57.7210  57.7645
    58.0823  58.3398  58.5643  59.2168  59.5159  59.6789  59.8465  60.0111
    60.2708  60.5472  60.5728  60.9369  61.0158  61.2931  61.9163  62.0213
    62.3773  62.4028  62.8019  63.5807  64.2636  64.6518  65.0127  65.2106
    65.2429  65.6423  65.7354  66.3474  66.3867  66.7198

          k = 0.0000 0.2533-0.2634 (  3666 PWs)   bands (ev):

   -79.4527 -79.4527 -79.3658 -79.3658 -79.1255 -79.1255 -79.0641 -79.0641
   -35.2860 -35.2860 -35.2502 -35.2502 -35.2357 -35.2357 -35.1526 -35.1526
   -35.1487 -35.1487 -35.0655 -35.0655 -34.9357 -34.9357 -34.8770 -34.8770
   -34.8680 -34.8680 -34.8378 -34.8378 -34.7591 -34.7591 -34.7018 -34.7018
   -22.8743 -22.8743 -22.8584 -22.8584   7.4859   7.4859   7.6269   7.6269
     7.6353   7.6353   7.6553   7.6553   8.0548   8.0548   8.3120   8.3120
    22.8309  22.8309  22.8690  22.8690  23.2656  23.2656  23.3407  23.3407
    23.6438  23.6438  23.8868  23.8868  23.9955  23.9955  24.1181  24.1181
    24.4745  24.4745  24.5139  24.5139  24.6149  24.6149  24.7491  24.7491
    24.9553  24.9553  25.0977  25.0977  25.0979  25.0979  25.4231  25.4231
    25.7752  25.7752  25.8096  25.8096  26.2074  26.2074  26.3627  26.3627
    32.8306  32.8306  35.3403  35.3403  38.2048  38.2048  40.0858  40.0858
    40.9522  40.9522  41.0880  41.0880  42.1317  42.1317  43.1337  43.1337
    44.0346  44.0346  44.4766  44.4766  45.4260  45.4260  45.9158  45.9158
    47.8100  47.8100  48.6144  48.6144  50.0717  50.0717  50.2497  50.2497
    51.3508  51.3508  53.0257  53.0257  53.4577  53.4577  55.1354  55.1354
    55.8914  55.8914  56.5790  56.5790  57.4789  57.4789  57.5327  57.5327
    57.9190  57.9190  59.2245  59.2245  59.9540  59.9540  59.9760  59.9760
    60.6630  60.6630  60.8049  60.8049  61.3936  61.3936  61.7920  61.7920
    62.8783  62.8783  62.9478  62.9479  63.7548  63.7550  65.5654  65.5654
    65.7232  65.7233  65.7856  65.7857  66.3532  66.3534

          k =-0.5000 0.0000 0.0000 (  3722 PWs)   bands (ev):

   -79.4947 -79.4947 -79.4734 -79.4734 -79.1802 -79.1802 -79.1567 -79.1567
   -35.2965 -35.2965 -35.2786 -35.2786 -35.2598 -35.2598 -35.2156 -35.2156
   -35.1142 -35.1142 -35.1046 -35.1046 -34.9957 -34.9957 -34.9034 -34.9034
   -34.8807 -34.8807 -34.8197 -34.8197 -34.7691 -34.7691 -34.6563 -34.6563
   -22.8705 -22.8705 -22.8694 -22.8694   7.4687   7.4687   7.5865   7.5865
     7.6833   7.6833   7.7360   7.7360   8.1790   8.1790   8.2529   8.2529
    23.0161  23.0161  23.1137  23.1137  23.1886  23.1886  23.4851  23.4851
    23.7981  23.7981  23.8478  23.8478  23.8659  23.8659  23.8816  23.8816
    24.1247  24.1247  24.3420  24.3420  24.3971  24.3971  24.6218  24.6218
    24.7439  24.7439  24.8099  24.8099  25.1103  25.1103  25.2680  25.2680
    25.3571  25.3571  25.8818  25.8818  26.2087  26.2087  26.4585  26.4585
    34.8266  34.8266  37.3917  37.3917  37.4637  37.4637  40.1615  40.1615
    40.7627  40.7627  41.5205  41.5205  42.4796  42.4796  42.8801  42.8801
    43.7155  43.7155  44.1897  44.1897  45.1567  45.1567  45.2773  45.2773
    45.7905  45.7905  45.8437  45.8437  50.0630  50.0630  50.8740  50.8740
    51.1923  51.1923  52.5671  52.5671  53.2031  53.2031  55.1381  55.1381
    56.0539  56.0539  56.6959  56.6959  57.5169  57.5169  58.1204  58.1204
    58.2978  58.2978  58.4690  58.4690  58.6452  58.6452  60.0716  60.0716
    60.8893  60.8893  61.5720  61.5720  62.7951  62.7951  62.8752  62.8753
    63.1616  63.1619  63.4741  63.4742  64.0788  64.0789  64.4613  64.4614
    64.7352  64.7353  65.3643  65.3646  65.9484  65.9507

          k =-0.5000 0.0000 0.1317 (  3710 PWs)   bands (ev):

   -79.4931 -79.4931 -79.4395 -79.4395 -79.1853 -79.1853 -79.1219 -79.1219
   -35.3008 -35.3008 -35.2622 -35.2622 -35.2518 -35.2518 -35.2157 -35.2157
   -35.1144 -35.1144 -35.1013 -35.1013 -34.9976 -34.9976 -34.8956 -34.8956
   -34.8806 -34.8806 -34.8169 -34.8169 -34.7638 -34.7638 -34.6579 -34.6579
   -22.8696 -22.8696 -22.8672 -22.8672   7.4745   7.4745   7.5988   7.5988
     7.6891   7.6891   7.7330   7.7330   8.1808   8.1808   8.2502   8.2502
    23.0087  23.0087  23.1188  23.1188  23.2536  23.2536  23.5052  23.5052
    23.7017  23.7017  23.7252  23.7252  23.9384  23.9384  23.9840  23.9840
    24.0966  24.0966  24.3298  24.3298  24.4570  24.4570  24.5891  24.5891
    24.6959  24.6959  24.9160  24.9160  25.1106  25.1106  25.2172  25.2172
    25.4387  25.4387  25.8447  25.8447  26.1716  26.1716  26.4481  26.4481
    34.9670  34.9670  36.3995  36.3995  38.0184  38.0184  40.0012  40.0012
    41.1123  41.1123  41.8015  41.8015  42.6348  42.6348  42.9721  42.9721
    43.4615  43.4615  44.0760  44.0760  44.7424  44.7424  45.6315  45.6315
    45.9206  45.9206  46.3307  46.3307  49.0284  49.0284  50.9128  50.9128
    51.8812  51.8812  52.7315  52.7315  53.2374  53.2374  54.4355  54.4355
    55.7895  55.7895  56.4417  56.4417  57.1387  57.1387  58.1334  58.1334
    58.5563  58.5563  59.0786  59.0786  59.4434  59.4434  59.6232  59.6232
    60.9333  60.9333  61.3825  61.3825  62.1540  62.1540  62.6831  62.6832
    63.1512  63.1513  63.8897  63.8898  64.1496  64.1498  64.3110  64.3111
    64.8575  64.8575  65.3081  65.3082  65.3938  65.3940

          k =-0.5000 0.0000-0.2634 (  3680 PWs)   bands (ev):

   -79.4405 -79.4405 -79.4176 -79.4176 -79.1406 -79.1406 -79.0879 -79.0879
   -35.2936 -35.2936 -35.2493 -35.2493 -35.2398 -35.2398 -35.2076 -35.2076
   -35.1045 -35.1045 -35.0979 -35.0979 -35.0058 -35.0058 -34.8830 -34.8830
   -34.8806 -34.8806 -34.8081 -34.8081 -34.7486 -34.7486 -34.6501 -34.6501
   -22.8652 -22.8652 -22.8645 -22.8645   7.4848   7.4848   7.6122   7.6122
     7.6969   7.6969   7.7407   7.7407   8.1885   8.1885   8.2501   8.2501
    23.0007  23.0007  23.1040  23.1040  23.4170  23.4170  23.5562  23.5562
    23.5585  23.5585  23.6159  23.6159  23.9805  23.9805  24.0052  24.0052
    24.0777  24.0777  24.3476  24.3476  24.4402  24.4402  24.6605  24.6605
    24.7795  24.7795  24.9654  24.9654  25.0374  25.0374  25.0987  25.0987
    25.5434  25.5434  25.8815  25.8815  26.0837  26.0837  26.4387  26.4387
    35.4288  35.4288  35.5248  35.5248  38.2653  38.2653  39.7275  39.7275
    41.4207  41.4207  41.9967  41.9967  42.6546  42.6546  43.2287  43.2287
    43.6787  43.6787  43.9900  43.9900  44.3027  44.3027  45.6018  45.6018
    46.0517  46.0517  47.5143  47.5143  47.5401  47.5401  51.0867  51.0867
    52.3134  52.3134  52.8506  52.8506  53.0381  53.0381  54.5477  54.5477
    55.1494  55.1494  55.7335  55.7335  57.3165  57.3165  58.4087  58.4087
    58.6566  58.6566  59.2975  59.2975  59.6877  59.6877  60.1952  60.1952
    60.3696  60.3696  61.6175  61.6176  62.1178  62.1178  62.2322  62.2323
    62.7390  62.7390  63.4681  63.4682  63.7455  63.7456  64.6140  64.6140
    64.8816  64.8817  65.2647  65.2648  66.5153  66.5153

          k =-0.5000 0.2533 0.0000 (  3686 PWs)   bands (ev):

   -79.4451 -79.4451 -79.4354 -79.4354 -79.1278 -79.1278 -79.1228 -79.1228
   -35.2834 -35.2834 -35.2723 -35.2723 -35.2404 -35.2404 -35.2209 -35.2209
   -35.0982 -35.0982 -35.0880 -35.0880 -34.9316 -34.9316 -34.8956 -34.8956
   -34.8878 -34.8878 -34.8299 -34.8299 -34.7448 -34.7448 -34.7010 -34.7010
   -22.8636 -22.8636 -22.8611 -22.8611   7.4913   7.4913   7.5504   7.5504
     7.7035   7.7035   7.7182   7.7182   8.1751   8.1751   8.2031   8.2031
    23.0273  23.0273  23.2792  23.2792  23.4350  23.4350  23.4933  23.4933
    23.7042  23.7042  23.8483  23.8483  24.1337  24.1337  24.1840  24.1840
    24.2130  24.2130  24.3904  24.3904  24.4623  24.4623  24.5922  24.5922
    24.8187  24.8187  24.8480  24.8480  25.0743  25.0743  25.2679  25.2679
    25.4909  25.4909  25.5704  25.5704  25.9697  25.9697  26.2313  26.2313
    35.3641  35.3641  36.8215  36.8215  38.0802  38.0802  38.8706  38.8706
    40.7920  40.7920  40.8221  40.8221  42.6041  42.6041  43.1771  43.1771
    43.4359  43.4359  44.0160  44.0160  44.3250  44.3250  44.6701  44.6701
    46.0508  46.0508  46.7788  46.7788  48.9909  48.9909  49.3185  49.3185
    52.2370  52.2370  53.8145  53.8145  54.7152  54.7152  55.0457  55.0457
    56.2486  56.2486  56.7931  56.7931  57.9504  57.9504  58.0465  58.0465
    58.9086  58.9086  59.4579  59.4579  60.1805  60.1805  60.3741  60.3741
    60.8720  60.8720  61.1857  61.1858  62.0283  62.0283  62.2239  62.2240
    62.8264  62.8265  63.3171  63.3171  63.8802  63.8803  64.4230  64.4230
    65.6113  65.6115  65.9099  65.9105  66.3740  66.3742

          k =-0.5000 0.2533 0.1317 (  3692 PWs)   bands (ev):

   -79.4527 -79.4527 -79.4405 -79.4405 -79.1415 -79.1415 -79.1251 -79.1251
   -35.2843 -35.2843 -35.2679 -35.2679 -35.2382 -35.2382 -35.2218 -35.2218
   -35.1032 -35.1032 -35.0934 -35.0934 -34.9358 -34.9358 -34.8924 -34.8924
   -34.8813 -34.8813 -34.8349 -34.8349 -34.7506 -34.7506 -34.7055 -34.7055
   -22.8652 -22.8652 -22.8612 -22.8612   7.4989   7.4989   7.5538   7.5538
     7.6971   7.6971   7.7109   7.7109   8.1661   8.1661   8.2028   8.2028
    23.0230  23.0230  23.3175  23.3175  23.4604  23.4604  23.4738  23.4738
    23.7037  23.7037  23.8377  23.8377  24.0101  24.0101  24.1834  24.1834
    24.2792  24.2792  24.4222  24.4222  24.4849  24.4849  24.6590  24.6590
    24.8087  24.8087  24.9139  24.9139  25.0489  25.0489  25.1943  25.1943
    25.4421  25.4421  25.6208  25.6208  25.9386  25.9386  26.2276  26.2276
    35.4314  35.4314  36.4550  36.4550  37.9839  37.9839  38.7935  38.7935
    41.0141  41.0141  41.4752  41.4752  42.3559  42.3559  43.0773  43.0773
    43.3905  43.3905  44.0511  44.0511  44.2493  44.2493  44.6630  44.6630
    46.2153  46.2153  47.0809  47.0809  48.5428  48.5428  49.6916  49.6916
    52.3286  52.3286  53.1929  53.1929  54.2234  54.2234  55.2995  55.2995
    56.0225  56.0225  57.3657  57.3657  57.9690  57.9690  58.2595  58.2595
    58.7760  58.7760  59.3301  59.3301  59.8421  59.8421  60.5835  60.5835
    61.0120  61.0121  61.3858  61.3859  61.6353  61.6354  62.0556  62.0556
    62.4561  62.4563  63.2356  63.2356  63.5864  63.5864  64.8441  64.8444
    65.6389  65.6391  65.8621  65.8623  66.4891  66.4894

          k =-0.5000 0.2533-0.2634 (  3704 PWs)   bands (ev):

   -79.4758 -79.4758 -79.4508 -79.4508 -79.1562 -79.1562 -79.1405 -79.1405
   -35.2893 -35.2893 -35.2613 -35.2613 -35.2398 -35.2398 -35.2277 -35.2277
   -35.1078 -35.1078 -35.1064 -35.1064 -34.9394 -34.9394 -34.8869 -34.8869
   -34.8856 -34.8856 -34.8393 -34.8393 -34.7508 -34.7508 -34.7105 -34.7105
   -22.8673 -22.8673 -22.8624 -22.8624   7.4970   7.4970   7.5577   7.5577
     7.6903   7.6903   7.7042   7.7042   8.1630   8.1630   8.1935   8.1935
    23.0191  23.0191  23.3798  23.3798  23.3880  23.3880  23.5793  23.5793
    23.6326  23.6326  23.8753  23.8753  23.9015  23.9015  24.1853  24.1853
    24.3405  24.3405  24.4235  24.4235  24.4766  24.4766  24.7856  24.7856
    24.8369  24.8369  24.9290  24.9290  24.9873  24.9873  25.1720  25.1720
    25.3107  25.3107  25.7559  25.7559  25.8612  25.8612  26.2194  26.2194
    35.6153  35.6153  35.9851  35.9851  38.0455  38.0455  38.5809  38.5809
    41.6039  41.6039  41.7819  41.7819  42.1226  42.1226  42.8403  42.8403
    43.6579  43.6579  43.8095  43.8095  44.3411  44.3411  44.6113  44.6113
    46.3083  46.3083  47.1975  47.1975  48.3159  48.3159  50.3914  50.3914
    51.6986  51.6986  53.1491  53.1491  53.6723  53.6723  55.0026  55.0026
    56.6730  56.6730  57.2292  57.2292  58.3317  58.3317  58.4710  58.4710
    58.7991  58.7991  59.1128  59.1128  59.6047  59.6047  60.2833  60.2833
    61.0850  61.0851  61.4411  61.4412  61.8196  61.8196  61.8489  61.8489
    62.1565  62.1565  62.8713  62.8715  63.8056  63.8057  64.8358  64.8361
    65.3061  65.3062  65.9294  65.9296  66.7066  66.7067

     the Fermi energy is    58.7066 ev

!    total energy              =   -4523.82683853 Ry
     Harris-Foulkes estimate   =   -4523.82685591 Ry
     estimated scf accuracy    <       0.00001873 Ry

     The total energy is the sum of the following terms:

     one-electron contribution =    -181.61116402 Ry
     hartree contribution      =     478.53132430 Ry
     xc contribution           =    -379.36886906 Ry
     ewald contribution        =   -4440.86769704 Ry
     smearing contrib. (-TS)   =      -0.51043272 Ry

     convergence has been achieved in  10 iterations

     Forces acting on atoms (Ry/au):

     atom    1 type  1   force =     0.00000000   -0.01879054   -0.06584507
     atom    2 type  1   force =     0.00000000    0.01879054    0.06584507
     atom    3 type  1   force =     0.00000000   -0.01879054    0.06584507
     atom    4 type  1   force =     0.00000000    0.01879054   -0.06584507
     atom    5 type  1   force =     0.00000000    0.06130247   -0.16648946
     atom    6 type  1   force =     0.00000000   -0.06130247    0.16648946
     atom    7 type  1   force =     0.00000000    0.06130247    0.16648946
     atom    8 type  1   force =     0.00000000   -0.06130247   -0.16648946
     atom    9 type  2   force =     0.00000000   -0.17572183    0.02842315
     atom   10 type  2   force =     0.00000000    0.17572183   -0.02842315
     atom   11 type  2   force =     0.00000000   -0.17572183   -0.02842315
     atom   12 type  2   force =     0.00000000    0.17572183    0.02842315

     Total force =     0.520966     Total SCF correction =     0.000000


     entering subroutine stress ...

          total   stress  (Ry/bohr**3)                   (kbar)     P= 7158.29
   0.05142191   0.00000000   0.00000000       7564.42      0.00      0.00
   0.00000000   0.04626393   0.00000000          0.00   6805.66      0.00
   0.00000000   0.00000000   0.04829741          0.00      0.00   7104.79


     number of scf cycles    =   2
     number of bfgs steps    =   1

     enthalpy old            =   -4523.8268385310 Ry
     enthalpy new            =   -4523.8268385310 Ry

     CASE: enthalpy_new < enthalpy_old


     WARNING: unexpected behaviour in update_inverse_hessian
              resetting bfgs history

     small trust_radius: resetting bfgs history

     new trust radius        =       7.5499115123 bohr
     new conv_thr            =       0.0000010000 Ry

     new unit-cell volume =   9381.98585 a.u.^3 (  1390.26685 Ang^3 )

CELL_PARAMETERS (alat=  7.01510508)
   2.285547887   0.000000000   0.000000000
   0.000000000   2.838004203   0.000000000
   0.000000000   0.000000000   4.189757356

ATOMIC_POSITIONS (crystal)
Co       0.750000000   0.824365547   0.430790751
Co       0.250000000   0.175634453   0.569209249
Co       0.750000000   0.324365547   0.069209249
Co       0.250000000   0.675634453   0.930790751
Co       0.250000000   0.543726488   0.269840922
Co       0.750000000   0.456273512   0.730159078
Co       0.250000000   0.043726488   0.230159078
Co       0.750000000   0.956273512   0.769840922
Si       0.250000000   0.183819226   0.895734701
Si       0.750000000   0.816180774   0.104265299
Si       0.250000000   0.683819226   0.604265299
Si       0.750000000   0.316180774   0.395734701



     Writing output data file Prototype-La-oP12-Co2Si.save
     NEW-OLD atomic charge density approx. for the potential
     NEW k-points:
        k(    1) = (   0.0000000   0.0000000   0.0000000), wk =   0.0833333
        k(    2) = (   0.0000000   0.0000000   0.0596693), wk =   0.1666667
        k(    3) = (   0.0000000   0.0000000  -0.1193387), wk =   0.0833333
        k(    4) = (   0.0000000   0.1174534   0.0000000), wk =   0.1666667
        k(    5) = (   0.0000000   0.1174534   0.0596693), wk =   0.3333333
        k(    6) = (   0.0000000   0.1174534  -0.1193387), wk =   0.1666667
        k(    7) = (  -0.2187659   0.0000000   0.0000000), wk =   0.0833333
        k(    8) = (  -0.2187659   0.0000000   0.0596693), wk =   0.1666667
        k(    9) = (  -0.2187659   0.0000000  -0.1193387), wk =   0.0833333
        k(   10) = (  -0.2187659   0.1174534   0.0000000), wk =   0.1666667
        k(   11) = (  -0.2187659   0.1174534   0.0596693), wk =   0.3333333
        k(   12) = (  -0.2187659   0.1174534  -0.1193387), wk =   0.1666667

     total cpu time spent up to now is      377.6 secs

     Self-consistent Calculation

     iteration #  1     ecut=    40.00 Ry     beta=0.70
     CG style diagonalization
     c_bands:  4 eigenvalues not converged
     c_bands:  3 eigenvalues not converged
     c_bands:  4 eigenvalues not converged
     c_bands:  2 eigenvalues not converged
     c_bands:  4 eigenvalues not converged
     c_bands:  1 eigenvalues not converged
     c_bands:  4 eigenvalues not converged
     c_bands:  4 eigenvalues not converged
     c_bands:  1 eigenvalues not converged
     c_bands:  4 eigenvalues not converged
     c_bands:  4 eigenvalues not converged
     ethr =  1.00E-06,  avg # of iterations = 41.3

     total cpu time spent up to now is      587.7 secs

     total energy              =   -4643.44701891 Ry
     Harris-Foulkes estimate   =   -4652.87160989 Ry
     estimated scf accuracy    <      12.27479255 Ry

     iteration #  2     ecut=    40.00 Ry     beta=0.70
     CG style diagonalization
     ethr =  4.45E-03,  avg # of iterations = 16.6

     negative rho (up, down):  0.423E+00 0.000E+00

     total cpu time spent up to now is      669.2 secs

     total energy              =   -4617.08504095 Ry
     Harris-Foulkes estimate   =   -4550.99702117 Ry
     estimated scf accuracy    <     112.69724026 Ry

     iteration #  3     ecut=    40.00 Ry     beta=0.70
     CG style diagonalization
     ethr =  4.45E-03,  avg # of iterations = 18.3

     negative rho (up, down):  0.140E+00 0.000E+00

     total cpu time spent up to now is      758.2 secs

     total energy              =   -4678.21351331 Ry
     Harris-Foulkes estimate   =   -4693.27963680 Ry
     estimated scf accuracy    <     236.61782770 Ry

     iteration #  4     ecut=    40.00 Ry     beta=0.70
     CG style diagonalization
     ethr =  4.45E-03,  avg # of iterations = 17.9

     negative rho (up, down):  0.280E+02 0.000E+00

     total cpu time spent up to now is      849.2 secs

     total energy              =   -5276.04736292 Ry
     Harris-Foulkes estimate   =   -4665.34977858 Ry
     estimated scf accuracy    <     457.66680766 Ry

     iteration #  5     ecut=    40.00 Ry     beta=0.70
     CG style diagonalization
     ethr =  4.45E-03,  avg # of iterations = 21.0

     total cpu time spent up to now is      954.1 secs

     total energy              =   -4417.05065977 Ry
     Harris-Foulkes estimate   =   -5428.38062284 Ry
     estimated scf accuracy    <    1098.42644581 Ry

     iteration #  6     ecut=    40.00 Ry     beta=0.70
     CG style diagonalization
     c_bands:  2 eigenvalues not converged
     c_bands:  5 eigenvalues not converged
     c_bands:  3 eigenvalues not converged
     c_bands:  1 eigenvalues not converged
     c_bands:  1 eigenvalues not converged
     c_bands:  1 eigenvalues not converged
     ethr =  4.45E-03,  avg # of iterations =  9.4

     total cpu time spent up to now is     1005.3 secs

     total energy              =   -4090.75966793 Ry
     Harris-Foulkes estimate   =   -4103.74739947 Ry
     estimated scf accuracy    <      81.97506461 Ry

     iteration #  7     ecut=    40.00 Ry     beta=0.70
     CG style diagonalization
     c_bands:  4 eigenvalues not converged
     c_bands:  2 eigenvalues not converged
     c_bands:  1 eigenvalues not converged
     ethr =  4.45E-03,  avg # of iterations =  6.2

     total cpu time spent up to now is     1038.4 secs

     total energy              =   -4102.74557169 Ry
     Harris-Foulkes estimate   =   -4100.03630688 Ry
     estimated scf accuracy    <      20.58451671 Ry

     iteration #  8     ecut=    40.00 Ry     beta=0.70
     CG style diagonalization
     c_bands:  4 eigenvalues not converged
     ethr =  4.45E-03,  avg # of iterations =  4.3

     total cpu time spent up to now is     1059.5 secs

     total energy              =   -4078.32233192 Ry
     Harris-Foulkes estimate   =   -4102.82305788 Ry
     estimated scf accuracy    <      69.00327416 Ry

     iteration #  9     ecut=    40.00 Ry     beta=0.70
     CG style diagonalization
     c_bands:  5 eigenvalues not converged
     c_bands:  4 eigenvalues not converged
     c_bands:  3 eigenvalues not converged
     c_bands:  1 eigenvalues not converged
     ethr =  4.45E-03,  avg # of iterations =  8.5

     total cpu time spent up to now is     1104.2 secs

     total energy              =   -4124.79631686 Ry
     Harris-Foulkes estimate   =   -4128.04720879 Ry
     estimated scf accuracy    <      38.99093372 Ry

     iteration # 10     ecut=    40.00 Ry     beta=0.70
     CG style diagonalization
     c_bands:  3 eigenvalues not converged
     c_bands:  2 eigenvalues not converged
     ethr =  4.45E-03,  avg # of iterations =  5.6

     total cpu time spent up to now is     1132.5 secs

     total energy              =   -4151.92940129 Ry
     Harris-Foulkes estimate   =   -4124.44292067 Ry
     estimated scf accuracy    <      34.84634846 Ry

     iteration # 11     ecut=    40.00 Ry     beta=0.70
     CG style diagonalization
     c_bands:  1 eigenvalues not converged
     ethr =  4.45E-03,  avg # of iterations =  3.9

     total cpu time spent up to now is     1150.6 secs

     total energy              =   -4137.87906396 Ry
     Harris-Foulkes estimate   =   -4157.53570746 Ry
     estimated scf accuracy    <      43.85101905 Ry

     iteration # 12     ecut=    40.00 Ry     beta=0.70
     CG style diagonalization
     c_bands:  4 eigenvalues not converged
     c_bands:  4 eigenvalues not converged
     c_bands:  5 eigenvalues not converged
     c_bands:  3 eigenvalues not converged
     ethr =  4.45E-03,  avg # of iterations =  7.3

     total cpu time spent up to now is     1185.9 secs

     total energy              =   -4121.32274546 Ry
     Harris-Foulkes estimate   =   -4128.81773849 Ry
     estimated scf accuracy    <      29.53583722 Ry

     iteration # 13     ecut=    40.00 Ry     beta=0.70
     CG style diagonalization
     c_bands:  2 eigenvalues not converged
     c_bands:  3 eigenvalues not converged
     ethr =  4.45E-03,  avg # of iterations =  5.2

     total cpu time spent up to now is     1210.2 secs

     total energy              =   -4134.64054977 Ry
     Harris-Foulkes estimate   =   -4118.27815406 Ry
     estimated scf accuracy    <      40.70979704 Ry

     iteration # 14     ecut=    40.00 Ry     beta=0.70
     CG style diagonalization
     ethr =  4.45E-03,  avg # of iterations =  3.8

     total cpu time spent up to now is     1227.9 secs

     total energy              =   -4151.47292188 Ry
     Harris-Foulkes estimate   =   -4135.81680467 Ry
     estimated scf accuracy    <      26.78935588 Ry

     iteration # 15     ecut=    40.00 Ry     beta=0.70
     CG style diagonalization
     c_bands:  3 eigenvalues not converged
     ethr =  4.45E-03,  avg # of iterations =  7.6

     total cpu time spent up to now is     1264.1 secs

     total energy              =   -4200.91408219 Ry
     Harris-Foulkes estimate   =   -4161.42019980 Ry
     estimated scf accuracy    <      76.30991563 Ry

     iteration # 16     ecut=    40.00 Ry     beta=0.70
     CG style diagonalization
     c_bands:  1 eigenvalues not converged
     c_bands:  1 eigenvalues not converged
     c_bands:  2 eigenvalues not converged
     c_bands:  1 eigenvalues not converged
     ethr =  4.45E-03,  avg # of iterations =  5.8

     total cpu time spent up to now is     1292.0 secs

     total energy              =   -4270.80323060 Ry
     Harris-Foulkes estimate   =   -4207.20112444 Ry
     estimated scf accuracy    <      73.39826397 Ry

     iteration # 17     ecut=    40.00 Ry     beta=0.70
     CG style diagonalization
     c_bands:  2 eigenvalues not converged
     ethr =  4.45E-03,  avg # of iterations =  5.0

     total cpu time spent up to now is     1315.4 secs

     total energy              =   -4193.28984381 Ry
     Harris-Foulkes estimate   =   -4296.89245995 Ry
     estimated scf accuracy    <     181.58803418 Ry

     iteration # 18     ecut=    40.00 Ry     beta=0.70
     CG style diagonalization
     c_bands:  5 eigenvalues not converged
     ethr =  4.45E-03,  avg # of iterations =  9.1

     total cpu time spent up to now is     1359.1 secs

     total energy              =   -4160.27472389 Ry
     Harris-Foulkes estimate   =   -4169.26634318 Ry
     estimated scf accuracy    <      69.21936977 Ry

     iteration # 19     ecut=    40.00 Ry     beta=0.70
     CG style diagonalization
     c_bands:  2 eigenvalues not converged
     c_bands:  3 eigenvalues not converged
     c_bands:  1 eigenvalues not converged
     ethr =  4.45E-03,  avg # of iterations =  6.0

     total cpu time spent up to now is     1387.8 secs

     total energy              =   -4143.97282532 Ry
     Harris-Foulkes estimate   =   -4157.99674505 Ry
     estimated scf accuracy    <      89.44821971 Ry

     iteration # 20     ecut=    40.00 Ry     beta=0.70
     CG style diagonalization
     c_bands:  1 eigenvalues not converged
     ethr =  4.45E-03,  avg # of iterations =  3.6

     total cpu time spent up to now is     1404.8 secs

     total energy              =   -4153.25706451 Ry
     Harris-Foulkes estimate   =   -4144.19529202 Ry
     estimated scf accuracy    <      57.04544074 Ry

     iteration # 21     ecut=    40.00 Ry     beta=0.70
     CG style diagonalization
     c_bands:  5 eigenvalues not converged
     c_bands:  1 eigenvalues not converged
     c_bands:  3 eigenvalues not converged
     ethr =  4.45E-03,  avg # of iterations =  5.0

     total cpu time spent up to now is     1429.1 secs

     total energy              =   -4159.77549916 Ry
     Harris-Foulkes estimate   =   -4154.78871719 Ry
     estimated scf accuracy    <      30.29827147 Ry

     iteration # 22     ecut=    40.00 Ry     beta=0.70
     CG style diagonalization
     c_bands:  4 eigenvalues not converged
     c_bands:  1 eigenvalues not converged
     ethr =  4.45E-03,  avg # of iterations =  4.3

     total cpu time spent up to now is     1449.1 secs

     total energy              =   -4162.41462218 Ry
     Harris-Foulkes estimate   =   -4164.11720202 Ry
     estimated scf accuracy    <      96.14270805 Ry

     iteration # 23     ecut=    40.00 Ry     beta=0.70
     CG style diagonalization
     c_bands:  1 eigenvalues not converged
     ethr =  4.45E-03,  avg # of iterations =  4.8

     total cpu time spent up to now is     1473.9 secs

     total energy              =   -4162.51913783 Ry
     Harris-Foulkes estimate   =   -4162.45533942 Ry
     estimated scf accuracy    <      34.10989687 Ry

     iteration # 24     ecut=    40.00 Ry     beta=0.70
     CG style diagonalization
     ethr =  4.45E-03,  avg # of iterations =  4.2

     total cpu time spent up to now is     1494.9 secs

     total energy              =   -4164.27901728 Ry
     Harris-Foulkes estimate   =   -4162.60867771 Ry
     estimated scf accuracy    <      76.30569670 Ry

     iteration # 25     ecut=    40.00 Ry     beta=0.70
     CG style diagonalization
     c_bands:  2 eigenvalues not converged
     ethr =  4.45E-03,  avg # of iterations =  4.2

     total cpu time spent up to now is     1514.5 secs

     total energy              =   -4160.88152707 Ry
     Harris-Foulkes estimate   =   -4165.04537053 Ry
     estimated scf accuracy    <      49.02537529 Ry

     iteration # 26     ecut=    40.00 Ry     beta=0.70
     CG style diagonalization
     c_bands:  2 eigenvalues not converged
     c_bands:  3 eigenvalues not converged
     c_bands:  2 eigenvalues not converged
     ethr =  4.45E-03,  avg # of iterations =  5.5

     total cpu time spent up to now is     1540.6 secs

     total energy              =   -4157.47499243 Ry
     Harris-Foulkes estimate   =   -4159.04078480 Ry
     estimated scf accuracy    <      72.84999199 Ry

     iteration # 27     ecut=    40.00 Ry     beta=0.70
     CG style diagonalization
     c_bands:  2 eigenvalues not converged
     ethr =  4.45E-03,  avg # of iterations =  5.2

     total cpu time spent up to now is     1566.4 secs

     total energy              =   -4160.74314158 Ry
     Harris-Foulkes estimate   =   -4157.32753990 Ry
     estimated scf accuracy    <      88.50200244 Ry

     iteration # 28     ecut=    40.00 Ry     beta=0.70
     CG style diagonalization
     ethr =  4.45E-03,  avg # of iterations =  3.6

     total cpu time spent up to now is     1582.3 secs

     total energy              =   -4163.69974339 Ry
     Harris-Foulkes estimate   =   -4160.86759363 Ry
     estimated scf accuracy    <      75.72006116 Ry

     iteration # 29     ecut=    40.00 Ry     beta=0.70
     CG style diagonalization
     ethr =  4.45E-03,  avg # of iterations =  3.6

     total cpu time spent up to now is     1598.8 secs

     total energy              =   -4156.88263790 Ry
     Harris-Foulkes estimate   =   -4164.05073422 Ry
     estimated scf accuracy    <      79.46987497 Ry

     iteration # 30     ecut=    40.00 Ry     beta=0.70
     CG style diagonalization
     c_bands:  4 eigenvalues not converged
     ethr =  4.45E-03,  avg # of iterations =  4.2

     total cpu time spent up to now is     1618.4 secs

     total energy              =   -4157.44160328 Ry
     Harris-Foulkes estimate   =   -4156.08572233 Ry
     estimated scf accuracy    <      54.41870976 Ry

     iteration # 31     ecut=    40.00 Ry     beta=0.70
     CG style diagonalization
     c_bands:  1 eigenvalues not converged
     c_bands:  1 eigenvalues not converged
     ethr =  4.45E-03,  avg # of iterations =  4.2

     total cpu time spent up to now is     1637.8 secs

     total energy              =   -4154.70869964 Ry
     Harris-Foulkes estimate   =   -4157.79637837 Ry
     estimated scf accuracy    <      89.14072001 Ry

     iteration # 32     ecut=    40.00 Ry     beta=0.70
     CG style diagonalization
     ethr =  4.45E-03,  avg # of iterations =  4.7

     total cpu time spent up to now is     1659.8 secs

     total energy              =   -4134.20325219 Ry
     Harris-Foulkes estimate   =   -4154.66724867 Ry
     estimated scf accuracy    <      85.54529227 Ry

     iteration # 33     ecut=    40.00 Ry     beta=0.70
     CG style diagonalization
     ethr =  4.45E-03,  avg # of iterations =  3.6

     total cpu time spent up to now is     1676.6 secs

     total energy              =   -4130.49720876 Ry
     Harris-Foulkes estimate   =   -4134.55468951 Ry
     estimated scf accuracy    <      44.81974563 Ry

     iteration # 34     ecut=    40.00 Ry     beta=0.70
     CG style diagonalization
     c_bands:  2 eigenvalues not converged
     c_bands:  2 eigenvalues not converged
     ethr =  4.45E-03,  avg # of iterations =  4.8

     total cpu time spent up to now is     1699.2 secs

     total energy              =   -4116.84501735 Ry
     Harris-Foulkes estimate   =   -4129.92593094 Ry
     estimated scf accuracy    <      28.40954665 Ry

     iteration # 35     ecut=    40.00 Ry     beta=0.70
     CG style diagonalization
     c_bands:  1 eigenvalues not converged
     ethr =  4.45E-03,  avg # of iterations =  5.3

     total cpu time spent up to now is     1725.3 secs

     total energy              =   -4108.67368021 Ry
     Harris-Foulkes estimate   =   -4111.65419924 Ry
     estimated scf accuracy    <      11.33032179 Ry

     iteration # 36     ecut=    40.00 Ry     beta=0.70
     CG style diagonalization
     ethr =  4.11E-03,  avg # of iterations =  4.6

     total cpu time spent up to now is     1746.6 secs

     total energy              =   -4106.61304966 Ry
     Harris-Foulkes estimate   =   -4106.93274956 Ry
     estimated scf accuracy    <      21.61289970 Ry

     iteration # 37     ecut=    40.00 Ry     beta=0.70
     CG style diagonalization
     ethr =  4.11E-03,  avg # of iterations =  3.6

     total cpu time spent up to now is     1762.5 secs

     total energy              =   -4105.82442826 Ry
     Harris-Foulkes estimate   =   -4106.65599175 Ry
     estimated scf accuracy    <      13.21242466 Ry

     iteration # 38     ecut=    40.00 Ry     beta=0.70
     CG style diagonalization
     c_bands:  1 eigenvalues not converged
     ethr =  4.11E-03,  avg # of iterations =  3.5

     total cpu time spent up to now is     1778.2 secs

     total energy              =   -4104.42314849 Ry
     Harris-Foulkes estimate   =   -4105.62408395 Ry
     estimated scf accuracy    <       2.44419142 Ry

     iteration # 39     ecut=    40.00 Ry     beta=0.70
     CG style diagonalization
     ethr =  8.86E-04,  avg # of iterations = 16.6

     total cpu time spent up to now is     1859.8 secs

     total energy              =   -4102.83818411 Ry
     Harris-Foulkes estimate   =   -4101.86612253 Ry
     estimated scf accuracy    <       0.93375431 Ry

     iteration # 40     ecut=    40.00 Ry     beta=0.70
     CG style diagonalization
     ethr =  3.38E-04,  avg # of iterations = 20.5

     total cpu time spent up to now is     1961.6 secs

     total energy              =   -4105.28981821 Ry
     Harris-Foulkes estimate   =   -4105.20977650 Ry
     estimated scf accuracy    <       1.67101963 Ry

     iteration # 41     ecut=    40.00 Ry     beta=0.70
     CG style diagonalization
     ethr =  3.38E-04,  avg # of iterations = 20.6

     total cpu time spent up to now is     2065.8 secs

     total energy              =   -4103.07307413 Ry
     Harris-Foulkes estimate   =   -4104.95030903 Ry
     estimated scf accuracy    <      47.63812187 Ry

     iteration # 42     ecut=    40.00 Ry     beta=0.70
     CG style diagonalization
     ethr =  3.38E-04,  avg # of iterations = 20.6

     total cpu time spent up to now is     2167.4 secs

     total energy              =   -4106.56778303 Ry
     Harris-Foulkes estimate   =   -4106.15972428 Ry
     estimated scf accuracy    <      58.68022474 Ry

     iteration # 43     ecut=    40.00 Ry     beta=0.70
     CG style diagonalization
     ethr =  3.38E-04,  avg # of iterations = 20.6

     total cpu time spent up to now is     2268.1 secs

     total energy              =   -4104.47096439 Ry
     Harris-Foulkes estimate   =   -4105.91955128 Ry
     estimated scf accuracy    <     110.70317098 Ry

     iteration # 44     ecut=    40.00 Ry     beta=0.70
     CG style diagonalization
     ethr =  3.38E-04,  avg # of iterations = 20.6

     total cpu time spent up to now is     2370.3 secs

     total energy              =   -4105.91626490 Ry
     Harris-Foulkes estimate   =   -4106.54052039 Ry
     estimated scf accuracy    <     151.99829022 Ry

     iteration # 45     ecut=    40.00 Ry     beta=0.70
     CG style diagonalization
     ethr =  3.38E-04,  avg # of iterations = 20.4

     total cpu time spent up to now is     2472.3 secs

     total energy              =   -4108.77612662 Ry
     Harris-Foulkes estimate   =   -4106.77013930 Ry
     estimated scf accuracy    <     151.74828992 Ry

     iteration # 46     ecut=    40.00 Ry     beta=0.70
     CG style diagonalization
     ethr =  3.38E-04,  avg # of iterations = 20.4

     total cpu time spent up to now is     2573.8 secs

     total energy              =   -4106.31707052 Ry
     Harris-Foulkes estimate   =   -4106.03424435 Ry
     estimated scf accuracy    <     153.87343513 Ry

     iteration # 47     ecut=    40.00 Ry     beta=0.70
     CG style diagonalization
     ethr =  3.38E-04,  avg # of iterations = 20.4

     total cpu time spent up to now is     2676.3 secs

     total energy              =   -4105.18025034 Ry
     Harris-Foulkes estimate   =   -4105.93238387 Ry
     estimated scf accuracy    <     154.57326644 Ry

     iteration # 48     ecut=    40.00 Ry     beta=0.70
     CG style diagonalization
     ethr =  3.38E-04,  avg # of iterations = 20.5

     total cpu time spent up to now is     2777.2 secs

     total energy              =   -4105.70468700 Ry
     Harris-Foulkes estimate   =   -4106.20391143 Ry
     estimated scf accuracy    <     153.64346399 Ry

     iteration # 49     ecut=    40.00 Ry     beta=0.70
     CG style diagonalization
     ethr =  3.38E-04,  avg # of iterations = 20.4

     total cpu time spent up to now is     2878.9 secs

     total energy              =   -4112.36492676 Ry
     Harris-Foulkes estimate   =   -4106.38592481 Ry
     estimated scf accuracy    <     153.14154927 Ry

     iteration # 50     ecut=    40.00 Ry     beta=0.70
     CG style diagonalization
     ethr =  3.38E-04,  avg # of iterations = 20.5

     total cpu time spent up to now is     2979.5 secs

     total energy              =   -4116.10944014 Ry
     Harris-Foulkes estimate   =   -4104.30364550 Ry
     estimated scf accuracy    <     160.16816946 Ry

     iteration # 51     ecut=    40.00 Ry     beta=0.70
     CG style diagonalization
     ethr =  3.38E-04,  avg # of iterations = 20.5

     total cpu time spent up to now is     3079.9 secs

     total energy              =   -4097.68409467 Ry
     Harris-Foulkes estimate   =   -4100.78596832 Ry
     estimated scf accuracy    <     174.61464429 Ry

     iteration # 52     ecut=    40.00 Ry     beta=0.70
     CG style diagonalization
     ethr =  3.38E-04,  avg # of iterations = 21.1

     total cpu time spent up to now is     3186.8 secs

     total energy              =   -3952.98486467 Ry
     Harris-Foulkes estimate   =   -4101.84296534 Ry
     estimated scf accuracy    <     282.46324871 Ry

     iteration # 53     ecut=    40.00 Ry     beta=0.70
     CG style diagonalization
     ethr =  3.38E-04,  avg # of iterations = 20.9

     total cpu time spent up to now is     3290.4 secs

     total energy              =   -4144.94129546 Ry
     Harris-Foulkes estimate   =   -4181.65168315 Ry
     estimated scf accuracy    <      45.92616130 Ry

     iteration # 54     ecut=    40.00 Ry     beta=0.70
     CG style diagonalization
     ethr =  3.38E-04,  avg # of iterations = 22.3

     total cpu time spent up to now is     3400.6 secs

     total energy              =   -4290.98319835 Ry
     Harris-Foulkes estimate   =   -4292.27787859 Ry
     estimated scf accuracy    <       4.66640340 Ry

     iteration # 55     ecut=    40.00 Ry     beta=0.70
     CG style diagonalization
     ethr =  3.38E-04,  avg # of iterations = 22.3

     total cpu time spent up to now is     3513.8 secs

     total energy              =   -4306.04823967 Ry
     Harris-Foulkes estimate   =   -4302.33471974 Ry
     estimated scf accuracy    <       2.97780110 Ry

     iteration # 56     ecut=    40.00 Ry     beta=0.70
     CG style diagonalization
     ethr =  3.38E-04,  avg # of iterations = 22.2

     total cpu time spent up to now is     3625.0 secs

     total energy              =   -4270.23505976 Ry
     Harris-Foulkes estimate   =   -4275.54136767 Ry
     estimated scf accuracy    <       7.24444545 Ry

     iteration # 57     ecut=    40.00 Ry     beta=0.70
     CG style diagonalization
     ethr =  3.38E-04,  avg # of iterations = 23.2

     total cpu time spent up to now is     3739.0 secs

     total energy              =   -4392.82829595 Ry
     Harris-Foulkes estimate   =   -4394.15305416 Ry
     estimated scf accuracy    <       1.51362318 Ry

     iteration # 58     ecut=    40.00 Ry     beta=0.70
     CG style diagonalization
     ethr =  3.38E-04,  avg # of iterations = 23.6

     total cpu time spent up to now is     3857.7 secs

     total energy              =   -4348.77869020 Ry
     Harris-Foulkes estimate   =   -4351.85897841 Ry
     estimated scf accuracy    <       3.92640381 Ry

     iteration # 59     ecut=    40.00 Ry     beta=0.70
     CG style diagonalization
     ethr =  3.38E-04,  avg # of iterations = 22.9

     total cpu time spent up to now is     3971.0 secs

     total energy              =   -4308.91200357 Ry
     Harris-Foulkes estimate   =   -4311.31726083 Ry
     estimated scf accuracy    <       2.74334320 Ry

     iteration # 60     ecut=    40.00 Ry     beta=0.70
     CG style diagonalization
     ethr =  3.38E-04,  avg # of iterations = 21.8

     total cpu time spent up to now is     4078.4 secs

     total energy              =   -4266.76408586 Ry
     Harris-Foulkes estimate   =   -4258.54428525 Ry
     estimated scf accuracy    <       2.99674447 Ry

     iteration # 61     ecut=    40.00 Ry     beta=0.70
     CG style diagonalization
     ethr =  3.38E-04,  avg # of iterations = 22.4

     total cpu time spent up to now is     4189.0 secs

     total energy              =   -4314.29491006 Ry
     Harris-Foulkes estimate   =   -4308.04792167 Ry
     estimated scf accuracy    <      21.07587583 Ry

     iteration # 62     ecut=    40.00 Ry     beta=0.70
     CG style diagonalization
     ethr =  3.38E-04,  avg # of iterations = 22.6

     total cpu time spent up to now is     4301.2 secs

     total energy              =   -4327.95689914 Ry
     Harris-Foulkes estimate   =   -4329.61556673 Ry
     estimated scf accuracy    <      28.45443603 Ry

     iteration # 63     ecut=    40.00 Ry     beta=0.70
     CG style diagonalization
     ethr =  3.38E-04,  avg # of iterations = 22.7

     total cpu time spent up to now is     4413.0 secs

     total energy              =   -4322.83139076 Ry
     Harris-Foulkes estimate   =   -4324.12258117 Ry
     estimated scf accuracy    <      51.43492795 Ry

     iteration # 64     ecut=    40.00 Ry     beta=0.70
     CG style diagonalization
     ethr =  3.38E-04,  avg # of iterations = 22.6

     total cpu time spent up to now is     4524.6 secs

     total energy              =   -4314.56578671 Ry
     Harris-Foulkes estimate   =   -4321.00161209 Ry
     estimated scf accuracy    <     123.33673606 Ry

     iteration # 65     ecut=    40.00 Ry     beta=0.70
     CG style diagonalization
     ethr =  3.38E-04,  avg # of iterations = 22.6

     total cpu time spent up to now is     4637.8 secs

     total energy              =   -4318.39301597 Ry
     Harris-Foulkes estimate   =   -4311.01433799 Ry
     estimated scf accuracy    <     162.87433028 Ry

     iteration # 66     ecut=    40.00 Ry     beta=0.70
     CG style diagonalization
     ethr =  3.38E-04,  avg # of iterations = 22.6

     total cpu time spent up to now is     4750.8 secs

     total energy              =   -4337.41721941 Ry
     Harris-Foulkes estimate   =   -4320.70549941 Ry
     estimated scf accuracy    <     199.55110226 Ry

     iteration # 67     ecut=    40.00 Ry     beta=0.70
     CG style diagonalization
     ethr =  3.38E-04,  avg # of iterations = 22.8

     total cpu time spent up to now is     4864.1 secs

     total energy              =   -4332.20412434 Ry
     Harris-Foulkes estimate   =   -4340.95203367 Ry
     estimated scf accuracy    <     220.14466942 Ry

     iteration # 68     ecut=    40.00 Ry     beta=0.70
     CG style diagonalization
     ethr =  3.38E-04,  avg # of iterations = 22.9

     total cpu time spent up to now is     4981.3 secs

     total energy              =   -4291.75440658 Ry
     Harris-Foulkes estimate   =   -4330.40687089 Ry
     estimated scf accuracy    <     271.99277949 Ry

     iteration # 69     ecut=    40.00 Ry     beta=0.70
     CG style diagonalization
     ethr =  3.38E-04,  avg # of iterations = 19.2

     total cpu time spent up to now is     5080.3 secs

     total energy              =   -4310.06152861 Ry
     Harris-Foulkes estimate   =   -4289.46138102 Ry
     estimated scf accuracy    <     255.58283546 Ry

     iteration # 70     ecut=    40.00 Ry     beta=0.70
     CG style diagonalization
     ethr =  3.38E-04,  avg # of iterations =  4.8

     total cpu time spent up to now is     5103.4 secs

     total energy              =   -4300.14972104 Ry
     Harris-Foulkes estimate   =   -4310.12451443 Ry
     estimated scf accuracy    <     248.58593499 Ry

     iteration # 71     ecut=    40.00 Ry     beta=0.70
     CG style diagonalization
     ethr =  3.38E-04,  avg # of iterations = 20.9

     total cpu time spent up to now is     5207.6 secs

     total energy              =   -4299.96968748 Ry
     Harris-Foulkes estimate   =   -4299.51441070 Ry
     estimated scf accuracy    <     268.27365978 Ry

     iteration # 72     ecut=    40.00 Ry     beta=0.70
     CG style diagonalization
     ethr =  3.38E-04,  avg # of iterations =  3.0

     total cpu time spent up to now is     5221.4 secs

     total energy              =   -4265.99668390 Ry
     Harris-Foulkes estimate   =   -4299.97673902 Ry
     estimated scf accuracy    <     236.68356842 Ry

     iteration # 73     ecut=    40.00 Ry     beta=0.70
     CG style diagonalization
     ethr =  3.38E-04,  avg # of iterations = 15.8

     total cpu time spent up to now is     5302.4 secs

     total energy              =   -4220.73409741 Ry
     Harris-Foulkes estimate   =   -4263.81005648 Ry
     estimated scf accuracy    <     224.36921926 Ry

     iteration # 74     ecut=    40.00 Ry     beta=0.70
     CG style diagonalization
     ethr =  3.38E-04,  avg # of iterations =  8.2

     total cpu time spent up to now is     5342.2 secs

     total energy              =   -4191.61979902 Ry
     Harris-Foulkes estimate   =   -4221.02360989 Ry
     estimated scf accuracy    <     146.28968783 Ry

     iteration # 75     ecut=    40.00 Ry     beta=0.70
     CG style diagonalization
     ethr =  3.38E-04,  avg # of iterations = 14.1

     total cpu time spent up to now is     5411.7 secs

     total energy              =   -4202.63475395 Ry
     Harris-Foulkes estimate   =   -4189.28870661 Ry
     estimated scf accuracy    <     131.44262760 Ry

     iteration # 76     ecut=    40.00 Ry     beta=0.70
     CG style diagonalization
     ethr =  3.38E-04,  avg # of iterations =  9.3

     total cpu time spent up to now is     5456.5 secs

     total energy              =   -4155.44959209 Ry
     Harris-Foulkes estimate   =   -4202.69058874 Ry
     estimated scf accuracy    <     125.32989803 Ry

     iteration # 77     ecut=    40.00 Ry     beta=0.70
     CG style diagonalization
     ethr =  3.38E-04,  avg # of iterations =  8.1

     total cpu time spent up to now is     5495.9 secs

     total energy              =   -4168.39293183 Ry
     Harris-Foulkes estimate   =   -4151.72098806 Ry
     estimated scf accuracy    <      26.94701142 Ry

     iteration # 78     ecut=    40.00 Ry     beta=0.70
     CG style diagonalization
     ethr =  3.38E-04,  avg # of iterations = 15.2

     total cpu time spent up to now is     5564.1 secs

     total energy              =   -4191.31835147 Ry
     Harris-Foulkes estimate   =   -4179.69889213 Ry
     estimated scf accuracy    <     118.88714103 Ry

     iteration # 79     ecut=    40.00 Ry     beta=0.70
     CG style diagonalization
     ethr =  3.38E-04,  avg # of iterations =  4.5

     total cpu time spent up to now is     5585.7 secs

     total energy              =   -4183.96144436 Ry
     Harris-Foulkes estimate   =   -4191.36597894 Ry
     estimated scf accuracy    <      74.32054258 Ry

     iteration # 80     ecut=    40.00 Ry     beta=0.70
     CG style diagonalization
     ethr =  3.38E-04,  avg # of iterations = 19.8

     total cpu time spent up to now is     5675.3 secs

     total energy              =   -4124.04308558 Ry
     Harris-Foulkes estimate   =   -4181.39401087 Ry
     estimated scf accuracy    <     100.34943233 Ry

     iteration # 81     ecut=    40.00 Ry     beta=0.70
     CG style diagonalization
     ethr =  3.38E-04,  avg # of iterations =  8.5

     total cpu time spent up to now is     5712.9 secs

     total energy              =   -4115.60985263 Ry
     Harris-Foulkes estimate   =   -4120.20960538 Ry
     estimated scf accuracy    <       7.58229601 Ry

     iteration # 82     ecut=    40.00 Ry     beta=0.70
     CG style diagonalization
     ethr =  3.38E-04,  avg # of iterations = 15.2

     total cpu time spent up to now is     5780.1 secs

     total energy              =   -4106.68615431 Ry
     Harris-Foulkes estimate   =   -4107.06518560 Ry
     estimated scf accuracy    <      13.91022963 Ry

     iteration # 83     ecut=    40.00 Ry     beta=0.70
     CG style diagonalization
     ethr =  3.38E-04,  avg # of iterations =  5.0

     total cpu time spent up to now is     5801.2 secs

     total energy              =   -4104.94622006 Ry
     Harris-Foulkes estimate   =   -4107.76831625 Ry
     estimated scf accuracy    <      15.91500127 Ry

     iteration # 84     ecut=    40.00 Ry     beta=0.70
     CG style diagonalization
     ethr =  3.38E-04,  avg # of iterations = 10.4

     total cpu time spent up to now is     5846.3 secs

     total energy              =   -4103.33417628 Ry
     Harris-Foulkes estimate   =   -4104.37948397 Ry
     estimated scf accuracy    <      18.38955759 Ry

     iteration # 85     ecut=    40.00 Ry     beta=0.70
     CG style diagonalization
     ethr =  3.38E-04,  avg # of iterations =  8.7

     total cpu time spent up to now is     5884.2 secs

     total energy              =   -4107.17774131 Ry
     Harris-Foulkes estimate   =   -4103.34646946 Ry
     estimated scf accuracy    <      16.64333611 Ry

     iteration # 86     ecut=    40.00 Ry     beta=0.70
     CG style diagonalization
     ethr =  3.38E-04,  avg # of iterations =  3.4

     total cpu time spent up to now is     5898.3 secs

     total energy              =   -4106.42254402 Ry
     Harris-Foulkes estimate   =   -4107.27120809 Ry
     estimated scf accuracy    <       7.84415695 Ry

     iteration # 87     ecut=    40.00 Ry     beta=0.70
     CG style diagonalization
     ethr =  3.38E-04,  avg # of iterations = 10.4

     total cpu time spent up to now is     5943.6 secs

     total energy              =   -4101.53163248 Ry
     Harris-Foulkes estimate   =   -4105.88575189 Ry
     estimated scf accuracy    <      12.61387008 Ry

     iteration # 88     ecut=    40.00 Ry     beta=0.70
     CG style diagonalization
     ethr =  3.38E-04,  avg # of iterations = 11.7

     total cpu time spent up to now is     5994.4 secs

     total energy              =   -4100.64108282 Ry
     Harris-Foulkes estimate   =   -4100.37038500 Ry
     estimated scf accuracy    <       6.60660098 Ry

     iteration # 89     ecut=    40.00 Ry     beta=0.70
     CG style diagonalization
     ethr =  3.38E-04,  avg # of iterations =  7.3

     total cpu time spent up to now is     6024.6 secs

     total energy              =   -4099.77537570 Ry
     Harris-Foulkes estimate   =   -4100.75414592 Ry
     estimated scf accuracy    <      12.55042574 Ry

     iteration # 90     ecut=    40.00 Ry     beta=0.70
     CG style diagonalization
     ethr =  3.38E-04,  avg # of iterations =  7.3

     total cpu time spent up to now is     6054.6 secs

     total energy              =   -4100.09094363 Ry
     Harris-Foulkes estimate   =   -4099.78697933 Ry
     estimated scf accuracy    <       2.30075232 Ry

     iteration # 91     ecut=    40.00 Ry     beta=0.70
     CG style diagonalization
     ethr =  3.38E-04,  avg # of iterations =  9.9

     total cpu time spent up to now is     6097.1 secs

     total energy              =   -4100.08580598 Ry
     Harris-Foulkes estimate   =   -4100.49026507 Ry
     estimated scf accuracy    <       6.57879233 Ry

     iteration # 92     ecut=    40.00 Ry     beta=0.70
     CG style diagonalization
     ethr =  3.38E-04,  avg # of iterations =  5.8

     total cpu time spent up to now is     6120.6 secs

     total energy              =   -4099.41031923 Ry
     Harris-Foulkes estimate   =   -4099.93991637 Ry
     estimated scf accuracy    <       5.97786457 Ry

     iteration # 93     ecut=    40.00 Ry     beta=0.70
     CG style diagonalization
     ethr =  3.38E-04,  avg # of iterations = 13.2

     total cpu time spent up to now is     6176.6 secs

     total energy              =   -4100.28628428 Ry
     Harris-Foulkes estimate   =   -4099.20679607 Ry
     estimated scf accuracy    <      10.28437662 Ry

     iteration # 94     ecut=    40.00 Ry     beta=0.70
     CG style diagonalization
     ethr =  3.38E-04,  avg # of iterations =  5.8

     total cpu time spent up to now is     6200.2 secs

     total energy              =   -4100.82483118 Ry
     Harris-Foulkes estimate   =   -4100.29539246 Ry
     estimated scf accuracy    <      11.83565076 Ry

     iteration # 95     ecut=    40.00 Ry     beta=0.70
     CG style diagonalization
     ethr =  3.38E-04,  avg # of iterations =  3.0

     total cpu time spent up to now is     6212.0 secs

     total energy              =   -4100.78107256 Ry
     Harris-Foulkes estimate   =   -4100.82868861 Ry
     estimated scf accuracy    <       2.89233908 Ry

     iteration # 96     ecut=    40.00 Ry     beta=0.70
     CG style diagonalization
     ethr =  3.38E-04,  avg # of iterations =  7.4

     total cpu time spent up to now is     6243.2 secs

     total energy              =   -4101.37360552 Ry
     Harris-Foulkes estimate   =   -4100.72856793 Ry
     estimated scf accuracy    <      12.47959662 Ry

     iteration # 97     ecut=    40.00 Ry     beta=0.70
     CG style diagonalization
     ethr =  3.38E-04,  avg # of iterations =  7.2

     total cpu time spent up to now is     6273.7 secs

     total energy              =   -4102.29800159 Ry
     Harris-Foulkes estimate   =   -4101.37600083 Ry
     estimated scf accuracy    <      13.39906048 Ry

     iteration # 98     ecut=    40.00 Ry     beta=0.70
     CG style diagonalization
     ethr =  3.38E-04,  avg # of iterations =  7.2

     total cpu time spent up to now is     6304.0 secs

     total energy              =   -4099.96508889 Ry
     Harris-Foulkes estimate   =   -4102.30238644 Ry
     estimated scf accuracy    <      14.73075797 Ry

     iteration # 99     ecut=    40.00 Ry     beta=0.70
     CG style diagonalization
     ethr =  3.38E-04,  avg # of iterations =  4.4

     total cpu time spent up to now is     6321.8 secs

     total energy              =   -4099.73915669 Ry
     Harris-Foulkes estimate   =   -4099.99489547 Ry
     estimated scf accuracy    <       2.36926594 Ry

     iteration #100     ecut=    40.00 Ry     beta=0.70
     CG style diagonalization
     ethr =  3.38E-04,  avg # of iterations = 11.7

     total cpu time spent up to now is     6370.9 secs

     total energy              =   -4096.12570297 Ry
     Harris-Foulkes estimate   =   -4099.42469797 Ry
     estimated scf accuracy    <      10.61072741 Ry

     End of self-consistent calculation

     convergence NOT achieved after 100 iterations: stopping

     Writing output data file Prototype-La-oP12-Co2Si.save
 
     init_run     :      2.36s CPU      2.98s WALL (       1 calls)
     electrons    :   5744.76s CPU   6361.44s WALL (       2 calls)
     update_pot   :      0.65s CPU      0.66s WALL (       1 calls)
     forces       :      1.06s CPU      1.12s WALL (       1 calls)
     stress       :      4.39s CPU      4.44s WALL (       1 calls)

     Called by init_run:
     wfcinit      :      1.82s CPU      2.41s WALL (       1 calls)
     potinit      :      0.28s CPU      0.28s WALL (       1 calls)

     Called by electrons:
     c_bands      :   5686.57s CPU   6279.58s WALL (     110 calls)
     sum_band     :     57.07s CPU     75.06s WALL (     110 calls)
     v_of_rho     :      0.16s CPU      0.19s WALL (     112 calls)
     mix_rho      :      0.35s CPU      0.40s WALL (     110 calls)

     Called by c_bands:
     init_us_2    :      3.18s CPU      3.76s WALL (    2676 calls)
     ccgdiagg     :   5384.03s CPU   5908.80s WALL (    1925 calls)
     wfcrot       :    300.62s CPU    365.89s WALL (    1925 calls)

     Called by *cgdiagg:
     h_psi        :   3360.53s CPU   3910.42s WALL ( 2253147 calls)
     cdiaghg      :     29.27s CPU     32.11s WALL (    1925 calls)

     Called by h_psi:
     add_vuspsi   :    646.53s CPU    688.44s WALL ( 2253147 calls)

     General routines
     calbec       :   1743.56s CPU   1888.19s WALL ( 4504393 calls)
     fft          :      0.21s CPU      0.25s WALL (     453 calls)
     fftw         :   1560.39s CPU   1839.52s WALL ( 5360664 calls)
     davcio       :      2.32s CPU      7.06s WALL (    3996 calls)
 
     Parallel routines
     fft_scatter  :    730.99s CPU    879.40s WALL ( 5361117 calls)
 
     PWSCF        :     1h35m CPU        1h46m WALL

 
   This run was terminated on:  11:58:33  22Mar2018            

=------------------------------------------------------------------------------=
   JOB DONE.
=------------------------------------------------------------------------------=
