
     Program PWSCF v.5.0.2 starts on 22Mar2018 at 17:31: 2 

     This program is part of the open-source Quantum ESPRESSO suite
     for quantum simulation of materials; please cite
         "P. Giannozzi et al., J. Phys.:Condens. Matter 21 395502 (2009);
          URL http://www.quantum-espresso.org", 
     in publications or presentations arising from this work. More details at
     http://www.quantum-espresso.org/quote.php

     Parallel version (MPI), running on     4 processors
     R & G space division:  proc/nbgrp/npool/nimage =       4

     Current dimensions of program PWSCF are:
     Max number of different atomic species (ntypx) = 10
     Max number of k-points (npk) =  40000
     Max angular momentum in pseudopotentials (lmaxx) =  3
     Waiting for input...
     Reading input from standard input

     Subspace diagonalization in iterative solution of the eigenvalue problem:
     a serial algorithm will be used

 
     Parallelization info
     --------------------
     sticks:   dense  smooth     PW     G-vecs:    dense   smooth      PW
     Min         233     233     69                 5311     5311     851
     Max         234     234     70                 5314     5314     854
     Sum         933     933    277                21247    21247    3407
 


     bravais-lattice index     =            0
     lattice parameter (alat)  =       8.5346  a.u.
     unit-cell volume          =     621.6493 (a.u.)^3
     number of atoms/cell      =            8
     number of atomic types    =            2
     number of electrons       =       124.00
     number of Kohn-Sham states=           74
     kinetic-energy cutoff     =      40.0000  Ry
     charge density cutoff     =     160.0000  Ry
     convergence threshold     =      1.0E-04
     mixing beta               =       0.7000
     number of iterations used =            8  plain     mixing
     Exchange-correlation      = SLA-PZ-NOGX-NOGC ( 1 1 0 0 0)
     EXX-fraction              =        0.00
     nstep                     =           50


     celldm(1)=   8.534573  celldm(2)=   0.000000  celldm(3)=   0.000000
     celldm(4)=   0.000000  celldm(5)=   0.000000  celldm(6)=   0.000000

     crystal axes: (cart. coord. in units of alat)
               a(1) = (   1.000000   0.000000   0.000000 )  
               a(2) = (   0.000000   1.000000   0.000000 )  
               a(3) = (   0.000000   0.000000   1.000000 )  

     reciprocal axes: (cart. coord. in units 2 pi/alat)
               b(1) = (  1.000000  0.000000  0.000000 )  
               b(2) = (  0.000000  1.000000  0.000000 )  
               b(3) = (  0.000000  0.000000  1.000000 )  


     PseudoPot. # 1 for Nd read from file:
     /home/cwx6513/pp.La/Nd.UPF
     MD5 check sum: c66c5b6abe7b5840ced9b1e244e3bed6
     Pseudo is Norm-conserving, Zval = 14.0
     Generated in analytical, separable form
     Using radial grid of 1257 points,  6 beta functions with: 
                l(1) =   0
                l(2) =   0
                l(3) =   1
                l(4) =   1
                l(5) =   2
                l(6) =   3

     PseudoPot. # 2 for Dy read from file:
     /home/cwx6513/pp.La/Dy.UPF
     MD5 check sum: 9597327bec62616a94a14d07f3fd9936
     Pseudo is Norm-conserving, Zval = 20.0
     Generated in analytical, separable form
     Using radial grid of 1265 points,  6 beta functions with: 
                l(1) =   0
                l(2) =   0
                l(3) =   1
                l(4) =   1
                l(5) =   2
                l(6) =   3

     atomic species   valence    mass     pseudopotential
        Cr            14.00    51.99610     Nd( 1.00)
        Si            20.00    28.08550     Dy( 1.00)

     48 Sym. Ops., with inversion, found (24 have fractional translation)



   Cartesian axes

     site n.     atom                  positions (alat units)
         1           Cr  tau(   1) = (   0.0000000   0.5000000   0.2500000  )
         2           Cr  tau(   2) = (   0.0000000   0.5000000   0.7500000  )
         3           Cr  tau(   3) = (   0.5000000   0.7500000   0.0000000  )
         4           Cr  tau(   4) = (   0.5000000   0.2500000   0.0000000  )
         5           Cr  tau(   5) = (   0.7500000   0.0000000   0.5000000  )
         6           Cr  tau(   6) = (   0.2500000   0.0000000   0.5000000  )
         7           Si  tau(   7) = (   0.5000000   0.5000000   0.5000000  )
         8           Si  tau(   8) = (   0.0000000   0.0000000   0.0000000  )

     number of k points=    48  gaussian smearing, width (Ry)=  0.1000
                       cart. coord. in units 2pi/alat
        k(    1) = (   0.0000000   0.0000000   0.0000000), wk =   0.0095238
        k(    2) = (   0.0000000   0.0000000   0.1428571), wk =   0.0190476
        k(    3) = (   0.0000000   0.0000000   0.2857143), wk =   0.0190476
        k(    4) = (   0.0000000   0.0000000   0.4285714), wk =   0.0190476
        k(    5) = (   0.0000000   0.1666667   0.0000000), wk =   0.0190476
        k(    6) = (   0.0000000   0.1666667   0.1428571), wk =   0.0380952
        k(    7) = (   0.0000000   0.1666667   0.2857143), wk =   0.0380952
        k(    8) = (   0.0000000   0.1666667   0.4285714), wk =   0.0380952
        k(    9) = (   0.0000000   0.3333333   0.0000000), wk =   0.0190476
        k(   10) = (   0.0000000   0.3333333   0.1428571), wk =   0.0380952
        k(   11) = (   0.0000000   0.3333333   0.2857143), wk =   0.0380952
        k(   12) = (   0.0000000   0.3333333   0.4285714), wk =   0.0380952
        k(   13) = (   0.0000000  -0.5000000   0.0000000), wk =   0.0095238
        k(   14) = (   0.0000000  -0.5000000   0.1428571), wk =   0.0190476
        k(   15) = (   0.0000000  -0.5000000   0.2857143), wk =   0.0190476
        k(   16) = (   0.0000000  -0.5000000   0.4285714), wk =   0.0190476
        k(   17) = (   0.2000000   0.0000000   0.0000000), wk =   0.0190476
        k(   18) = (   0.2000000   0.0000000   0.1428571), wk =   0.0380952
        k(   19) = (   0.2000000   0.0000000   0.2857143), wk =   0.0380952
        k(   20) = (   0.2000000   0.0000000   0.4285714), wk =   0.0380952
        k(   21) = (   0.2000000   0.1666667   0.0000000), wk =   0.0380952
        k(   22) = (   0.2000000   0.1666667   0.1428571), wk =   0.0761905
        k(   23) = (   0.2000000   0.1666667   0.2857143), wk =   0.0761905
        k(   24) = (   0.2000000   0.1666667   0.4285714), wk =   0.0761905
        k(   25) = (   0.2000000   0.3333333   0.0000000), wk =   0.0380952
        k(   26) = (   0.2000000   0.3333333   0.1428571), wk =   0.0761905
        k(   27) = (   0.2000000   0.3333333   0.2857143), wk =   0.0761905
        k(   28) = (   0.2000000   0.3333333   0.4285714), wk =   0.0761905
        k(   29) = (   0.2000000  -0.5000000   0.0000000), wk =   0.0190476
        k(   30) = (   0.2000000  -0.5000000   0.1428571), wk =   0.0380952
        k(   31) = (   0.2000000  -0.5000000   0.2857143), wk =   0.0380952
        k(   32) = (   0.2000000  -0.5000000   0.4285714), wk =   0.0380952
        k(   33) = (   0.4000000   0.0000000   0.0000000), wk =   0.0190476
        k(   34) = (   0.4000000   0.0000000   0.1428571), wk =   0.0380952
        k(   35) = (   0.4000000   0.0000000   0.2857143), wk =   0.0380952
        k(   36) = (   0.4000000   0.0000000   0.4285714), wk =   0.0380952
        k(   37) = (   0.4000000   0.1666667   0.0000000), wk =   0.0380952
        k(   38) = (   0.4000000   0.1666667   0.1428571), wk =   0.0761905
        k(   39) = (   0.4000000   0.1666667   0.2857143), wk =   0.0761905
        k(   40) = (   0.4000000   0.1666667   0.4285714), wk =   0.0761905
        k(   41) = (   0.4000000   0.3333333   0.0000000), wk =   0.0380952
        k(   42) = (   0.4000000   0.3333333   0.1428571), wk =   0.0761905
        k(   43) = (   0.4000000   0.3333333   0.2857143), wk =   0.0761905
        k(   44) = (   0.4000000   0.3333333   0.4285714), wk =   0.0761905
        k(   45) = (   0.4000000  -0.5000000   0.0000000), wk =   0.0190476
        k(   46) = (   0.4000000  -0.5000000   0.1428571), wk =   0.0380952
        k(   47) = (   0.4000000  -0.5000000   0.2857143), wk =   0.0380952
        k(   48) = (   0.4000000  -0.5000000   0.4285714), wk =   0.0380952

     Dense  grid:    21247 G-vectors     FFT dimensions: (  36,  36,  36)

     Largest allocated arrays     est. size (Mb)     dimensions
        Kohn-Sham Wavefunctions         0.77 Mb     (    683,   74)
        NL pseudopotentials             1.67 Mb     (    683,  160)
        Each V/rho on FFT grid          0.18 Mb     (  11664)
        Each G-vector array             0.04 Mb     (   5314)
        G-vector shells                 0.04 Mb     (   5314)
     Largest temporary arrays     est. size (Mb)     dimensions
        Each subspace H/S matrix        0.08 Mb     (  74,  74)
        Each <psi_i|beta_j> matrix      0.18 Mb     (    160,   74)
        Arrays for rho mixing           1.42 Mb     (  11664,   8)

     Initial potential from superposition of free atoms

     Starting from uniform charge
     Starting wfc are    0 randomized atomic wfcs

     total cpu time spent up to now is        3.5 secs

     Self-consistent Calculation

     iteration #  1     ecut=    40.00 Ry     beta=0.70
     CG style diagonalization
     ethr =  1.00E-02,  avg # of iterations = 15.9

     total cpu time spent up to now is       53.5 secs

     total energy              =    -781.55952535 Ry
     Harris-Foulkes estimate   =   -1371.17290211 Ry
     estimated scf accuracy    <     712.25081987 Ry

     iteration #  2     ecut=    40.00 Ry     beta=0.70
     CG style diagonalization
     c_bands:  4 eigenvalues not converged
     c_bands:  1 eigenvalues not converged
     c_bands:  1 eigenvalues not converged
     c_bands:  4 eigenvalues not converged
     c_bands:  1 eigenvalues not converged
     c_bands:  1 eigenvalues not converged
     c_bands:  4 eigenvalues not converged
     c_bands:  1 eigenvalues not converged
     c_bands:  3 eigenvalues not converged
     c_bands:  2 eigenvalues not converged
     c_bands:  3 eigenvalues not converged
     c_bands:  4 eigenvalues not converged
     c_bands:  2 eigenvalues not converged
     c_bands:  1 eigenvalues not converged
     c_bands:  2 eigenvalues not converged
     c_bands:  1 eigenvalues not converged
     c_bands:  2 eigenvalues not converged
     c_bands:  2 eigenvalues not converged
     c_bands:  2 eigenvalues not converged
     c_bands:  1 eigenvalues not converged
     c_bands:  1 eigenvalues not converged
     c_bands:  5 eigenvalues not converged
     c_bands:  1 eigenvalues not converged
     c_bands:  1 eigenvalues not converged
     c_bands:  2 eigenvalues not converged
     c_bands:  3 eigenvalues not converged
     c_bands:  2 eigenvalues not converged
     c_bands:  1 eigenvalues not converged
     c_bands:  3 eigenvalues not converged
     c_bands:  2 eigenvalues not converged
     c_bands:  4 eigenvalues not converged
     c_bands:  1 eigenvalues not converged
     c_bands:  5 eigenvalues not converged
     c_bands:  2 eigenvalues not converged
     c_bands:  2 eigenvalues not converged
     c_bands:  5 eigenvalues not converged
     c_bands:  4 eigenvalues not converged
     c_bands:  3 eigenvalues not converged
     c_bands:  2 eigenvalues not converged
     c_bands:  2 eigenvalues not converged
     c_bands:  3 eigenvalues not converged
     c_bands:  2 eigenvalues not converged
     c_bands:  1 eigenvalues not converged
     ethr =  1.00E-02,  avg # of iterations = 10.5

     total cpu time spent up to now is       89.8 secs

     total energy              =   -1100.89859191 Ry
     Harris-Foulkes estimate   =   -1506.89951039 Ry
     estimated scf accuracy    <     744.69888887 Ry

     iteration #  3     ecut=    40.00 Ry     beta=0.70
     CG style diagonalization
     c_bands:  1 eigenvalues not converged
     c_bands:  1 eigenvalues not converged
     c_bands:  1 eigenvalues not converged
     c_bands:  1 eigenvalues not converged
     c_bands:  1 eigenvalues not converged
     ethr =  1.00E-02,  avg # of iterations = 10.3

     total cpu time spent up to now is      125.8 secs

     total energy              =   -1173.31674298 Ry
     Harris-Foulkes estimate   =   -1188.49510122 Ry
     estimated scf accuracy    <      32.45936787 Ry

     iteration #  4     ecut=    40.00 Ry     beta=0.70
     CG style diagonalization
     ethr =  1.00E-02,  avg # of iterations =  3.7

     total cpu time spent up to now is      139.5 secs

     total energy              =   -1176.22059978 Ry
     Harris-Foulkes estimate   =   -1177.54056966 Ry
     estimated scf accuracy    <       2.17662923 Ry

     iteration #  5     ecut=    40.00 Ry     beta=0.70
     CG style diagonalization
     ethr =  1.76E-03,  avg # of iterations =  4.4

     total cpu time spent up to now is      156.1 secs

     total energy              =   -1177.15804260 Ry
     Harris-Foulkes estimate   =   -1177.25414415 Ry
     estimated scf accuracy    <       0.20307365 Ry

     iteration #  6     ecut=    40.00 Ry     beta=0.70
     CG style diagonalization
     c_bands:  1 eigenvalues not converged
     c_bands:  1 eigenvalues not converged
     c_bands:  1 eigenvalues not converged
     c_bands:  1 eigenvalues not converged
     ethr =  1.64E-04,  avg # of iterations =  4.3

     total cpu time spent up to now is      171.7 secs

     total energy              =   -1177.20951677 Ry
     Harris-Foulkes estimate   =   -1177.21913254 Ry
     estimated scf accuracy    <       0.01378234 Ry

     iteration #  7     ecut=    40.00 Ry     beta=0.70
     CG style diagonalization
     c_bands:  1 eigenvalues not converged
     c_bands:  1 eigenvalues not converged
     c_bands:  1 eigenvalues not converged
     c_bands:  1 eigenvalues not converged
     c_bands:  1 eigenvalues not converged
     c_bands:  1 eigenvalues not converged
     c_bands:  1 eigenvalues not converged
     c_bands:  1 eigenvalues not converged
     c_bands:  1 eigenvalues not converged
     c_bands:  1 eigenvalues not converged
     ethr =  1.11E-05,  avg # of iterations =  4.9

     total cpu time spent up to now is      187.5 secs

     total energy              =   -1177.21713112 Ry
     Harris-Foulkes estimate   =   -1177.21929232 Ry
     estimated scf accuracy    <       0.00354815 Ry

     iteration #  8     ecut=    40.00 Ry     beta=0.70
     CG style diagonalization
     c_bands:  1 eigenvalues not converged
     c_bands:  1 eigenvalues not converged
     c_bands:  1 eigenvalues not converged
     c_bands:  1 eigenvalues not converged
     ethr =  2.86E-06,  avg # of iterations =  3.8

     total cpu time spent up to now is      199.4 secs

     End of self-consistent calculation

          k = 0.0000 0.0000 0.0000 (  2601 PWs)   bands (ev):

   -41.6958 -41.6744  -9.1136  -9.1136  -9.1136  -9.0053  -9.0053  -9.0053
    -7.4316  -6.1074  -6.1074  -3.5540  -3.5540  -3.5540   9.9312   9.9312
    11.1057  13.3681  13.3681  13.3681  15.7798  15.7798  15.7798  17.0598
    17.0598  17.0598  17.4747  17.4747  17.4747  21.8268  21.8268  21.8268
    30.3516  30.3516  31.7217  31.7217  32.0291  32.0291  32.0291  32.3374
    32.3374  32.3374  33.1981  33.5508  33.5508  33.5508  34.2676  35.3968
    37.2377  37.2378  37.2378  38.1955  38.1954  38.9797  41.5747  41.5747
    41.5747  41.9330  41.9330  44.2867  44.2867  44.2867  44.5010  44.5011
    44.5011  48.1767  48.6832  48.6836  49.0778  49.0778  49.0777  49.6471
    49.6474  49.6474

          k = 0.0000 0.0000 0.1429 (  2657 PWs)   bands (ev):

   -41.7123 -41.6977  -9.1499  -9.1095  -9.1095  -9.0995  -9.0438  -9.0438
    -7.2914  -6.1071  -6.0239  -3.7500  -3.5642  -3.5642   9.9685  10.1391
    11.2602  13.3168  13.3168  13.5728  15.8052  15.8052  15.8450  16.7559
    17.2130  17.2130  17.3680  17.4221  17.4221  20.9521  21.8083  21.8083
    30.3221  30.6276  31.1511  31.6142  31.6882  31.6882  31.9940  32.1058
    32.1058  32.2997  33.2468  33.5639  33.8790  33.8790  35.7922  35.8546
    36.4677  37.6147  37.6147  38.0529  38.4679  39.6937  41.0373  41.0373
    41.4712  41.6550  41.7122  44.3154  44.3154  44.5380  45.1549  45.1549
    45.4210  47.5113  47.5695  47.8107  47.8106  48.4488  49.3303  49.3301
    50.1462  50.3190

          k = 0.0000 0.0000 0.2857 (  2677 PWs)   bands (ev):

   -41.7161 -41.7077  -9.2450  -9.2182  -9.0987  -9.0987  -9.0539  -9.0539
    -6.9550  -6.1425  -5.7815  -4.2465  -3.5869  -3.5869  10.0683  10.2768
    12.2473  13.2145  13.2145  14.0623  15.8885  15.8885  16.0188  16.0513
    17.1002  17.3043  17.3043  17.5624  17.5624  18.9060  21.7670  21.7670
    30.0280  30.8023  30.8023  30.8806  30.9370  31.4048  31.9511  31.9511
    31.9581  32.2061  33.1612  34.1829  34.6061  34.6061  35.6097  36.8506
    37.6952  38.2479  38.2479  38.4460  38.6132  40.4123  40.4123  41.0008
    41.3229  41.3661  42.2617  43.9379  44.0866  44.0866  44.9283  44.9283
    46.0827  46.3995  46.5794  48.1705  48.1708  49.1701  49.1702  49.4288
    50.9284  51.1898

          k = 0.0000 0.0000 0.4286 (  2658 PWs)   bands (ev):

   -41.7055 -41.7051  -9.2898  -9.2879  -9.0842  -9.0842  -9.0537  -9.0537
    -6.5712  -6.2825  -5.3877  -4.8495  -3.6051  -3.6051  10.1696  10.2386
    13.1395  13.1395  13.9668  14.7779  15.1691  15.9667  15.9667  16.3661
    16.5529  16.7392  17.2066  17.2066  17.8489  17.8489  21.7371  21.7371
    30.0190  30.1513  30.1513  30.4743  31.1686  31.3646  31.8892  31.8892
    31.9917  32.0879  33.1928  33.5406  35.2977  35.2977  36.5807  37.2738
    38.3226  38.3905  38.3905  39.3061  39.8748  40.2476  40.3001  40.3001
    41.3507  41.5460  42.7776  43.3426  43.3426  44.6230  44.9943  44.9943
    45.4183  45.6357  46.1240  47.8164  47.8162  49.3672  50.1658  50.1655
    50.6201  50.8679

          k = 0.0000 0.1667 0.0000 (  2653 PWs)   bands (ev):

   -41.7099 -41.6977  -9.1612  -9.1144  -9.1074  -9.1074  -9.0428  -9.0428
    -7.2447  -6.1085  -5.9941  -3.8166  -3.5675  -3.5675   9.9825  10.1850
    11.3503  13.3018  13.3018  13.6419  15.8166  15.8166  15.8706  16.6537
    17.2621  17.2621  17.3335  17.4079  17.4079  20.6680  21.8034  21.8034
    30.2943  30.6985  31.0518  31.5559  31.5559  31.5783  31.9853  32.0706
    32.0706  32.2874  33.2231  33.6935  33.9834  33.9834  35.9290  36.2523
    36.2552  37.7266  37.7266  38.0063  38.4904  40.0124  40.9128  40.9128
    41.4275  41.6016  41.6491  44.3093  44.3093  44.5157  45.2256  45.2256
    45.7076  47.2972  47.3076  47.7892  47.7892  48.5789  49.1158  49.1156
    50.3023  50.5493

          k = 0.0000 0.1667 0.1429 (  2662 PWs)   bands (ev):

   -41.7155 -41.6989  -9.1818  -9.1692  -9.1194  -9.0993  -9.0503  -9.0453
    -7.1220  -6.0572  -5.9640  -3.8281  -3.7573  -3.5776  10.0889  10.4366
    11.4004  13.2836  13.5073  13.6029  15.5881  15.7149  16.1860  16.8470
    17.0302  17.0795  17.3476  17.3688  17.5672  20.6490  20.9394  21.7856
    30.4022  30.8212  30.9786  31.2149  31.5166  31.5411  31.6526  31.6736
    31.9204  32.1965  32.8505  33.9906  34.3084  34.9930  36.3121  36.5506
    36.8394  37.1203  38.0628  38.0654  39.1272  40.1440  40.4899  40.6969
    41.2436  41.3869  41.9703  44.2448  44.4109  44.9755  45.1690  45.4126
    45.6635  46.2262  46.8284  47.7701  48.5349  48.6556  48.9816  49.3673
    50.1120  50.5775

          k = 0.0000 0.1667 0.2857 (  2666 PWs)   bands (ev):

   -41.7118 -41.7056  -9.2640  -9.2526  -9.1117  -9.0924  -9.0514  -9.0490
    -6.8142  -6.0561  -5.7634  -4.2542  -3.8378  -3.6003  10.1632  10.7764
    12.1905  13.2408  13.5143  13.9963  15.5070  15.5246  16.3215  16.4538
    16.9205  17.2093  17.2825  17.6080  17.6466  18.9228  20.6310  21.7471
    30.1448  30.6134  30.7618  30.9047  31.0863  31.2558  31.4741  31.5128
    31.7305  32.1780  32.9129  34.5552  35.0342  35.7788  35.9624  37.3371
    37.6524  37.8052  38.5832  38.7532  39.5950  40.0467  40.2799  40.9882
    41.0130  42.0894  42.2037  43.5859  43.8745  44.0908  44.3418  44.9891
    45.4941  46.6996  47.2441  48.0165  48.6347  48.6362  49.2837  49.9127
    50.1494  50.2861

          k = 0.0000 0.1667 0.4286 (  2658 PWs)   bands (ev):

   -41.7078 -41.7036  -9.3242  -9.3089  -9.0891  -9.0763  -9.0578  -9.0543
    -6.4584  -6.1823  -5.3862  -4.8478  -3.8500  -3.6185  10.2055  10.8199
    13.2059  13.2996  14.0362  14.5934  15.0996  15.6134  16.0632  16.1306
    16.5690  17.0149  17.1197  17.5747  17.6559  17.8895  20.6041  21.7191
    29.8639  30.1126  30.2240  30.6163  31.2006  31.3736  31.4484  31.4753
    31.6234  32.1823  33.2742  33.9763  35.7453  36.0349  36.6792  37.4559
    38.3211  38.6217  38.8886  39.5341  39.9389  40.1702  40.5540  40.7305
    41.1572  41.5639  42.7458  42.8255  43.1161  44.0457  44.5626  44.9530
    45.3462  46.4517  47.2110  47.3395  48.3932  48.5035  49.6849  50.2091
    50.4010  50.5058

          k = 0.0000 0.3333 0.0000 (  2677 PWs)   bands (ev):

   -41.7160 -41.7076  -9.2589  -9.2527  -9.0969  -9.0969  -9.0570  -9.0570
    -6.8247  -6.1740  -5.6672  -4.4454  -3.5944  -3.5944  10.1047  10.2708
    12.7740  13.1828  13.1828  14.2640  15.7354  15.9193  15.9193  16.1462
    16.9870  17.2656  17.2656  17.6773  17.6773  18.1281  21.7520  21.7520
    29.9624  30.5306  30.5306  30.8016  30.9982  31.3873  31.9220  31.9220
    31.9613  32.1675  33.1548  34.0195  34.8678  34.8678  35.8489  37.3069
    37.5672  38.3683  38.3683  38.7466  39.3134  40.3103  40.3103  40.7034
    41.2361  41.3304  43.3187  43.5014  43.8417  43.8417  44.8846  44.8846
    45.7522  46.0946  46.3959  48.0105  48.0104  49.8237  49.8866  49.8866
    50.7083  51.1646

          k = 0.0000 0.3333 0.1429 (  2660 PWs)   bands (ev):

   -41.7084 -41.7046  -9.2802  -9.2680  -9.1047  -9.0881  -9.0502  -9.0463
    -6.7269  -6.1063  -5.6578  -4.4489  -3.7804  -3.6044  10.1754  10.6497
    12.6907  13.2158  13.4420  14.2040  15.4429  15.5983  16.2502  16.3119
    16.8899  17.1942  17.4273  17.5550  17.7231  18.1836  20.8997  21.7415
    30.0458  30.4114  30.5018  30.8399  31.0772  31.3257  31.5961  31.6007
    31.7272  32.1684  33.0108  34.3475  35.1928  35.6774  36.0168  37.6445
    37.7170  38.0840  38.5919  39.2457  39.6054  40.0369  40.2104  40.8562
    40.9816  41.8915  43.0927  43.3352  43.6452  43.9714  44.1511  44.9332
    45.1409  46.7356  47.0127  47.8605  48.8631  48.9220  49.2817  50.0881
    50.3079  50.4461

          k = 0.0000 0.3333 0.2857 (  2658 PWs)   bands (ev):

   -41.7101 -41.7024  -9.3450  -9.3191  -9.0917  -9.0775  -9.0554  -9.0494
    -6.4778  -5.9421  -5.6295  -4.4785  -4.2248  -3.6272  10.2088  11.8104
    12.7071  13.2929  13.8852  14.0626  15.2349  15.3478  15.9346  16.4387
    17.0295  17.0641  17.3221  17.7716  17.8774  18.1659  18.9528  21.7069
    29.9981  30.3285  30.3741  30.5034  30.7773  31.0283  31.3087  31.4880
    31.4941  32.2289  33.2564  35.1041  35.9435  36.3628  36.8032  37.3184
    37.7038  38.5371  38.7692  39.8845  40.0320  40.0706  40.5558  41.2343
    41.2668  41.6932  42.2980  42.7594  43.7026  43.9883  44.2608  45.2649
    45.3557  46.8448  47.4556  47.7902  48.1202  48.7288  49.1895  49.1919
    49.7485  50.6045

          k = 0.0000 0.3333 0.4286 (  2654 PWs)   bands (ev):

   -41.7054 -41.7034  -9.3876  -9.3584  -9.0812  -9.0709  -9.0632  -9.0473
    -6.2100  -5.8856  -5.4191  -4.8654  -4.3943  -3.6454  10.2397  12.4507
    13.3595  13.5664  14.1897  14.2455  15.2003  15.3064  15.5663  16.0683
    16.4786  16.9805  17.2592  17.6418  17.8729  18.0193  18.2112  21.6765
    29.6966  29.9278  30.0101  30.5330  30.5615  30.8769  31.3631  31.4838
    31.6100  32.2863  34.0177  35.0863  36.2872  36.7564  36.8703  37.1930
    38.3679  38.6717  39.5162  39.8476  39.9499  39.9642  40.4802  41.0345
    41.5320  41.6443  42.1283  43.6597  43.7294  44.4232  44.7516  45.3487
    45.5497  46.8362  47.3978  47.4558  47.8004  48.5766  48.9257  49.0584
    49.5552  49.5683

          k = 0.0000-0.5000 0.0000 (  2666 PWs)   bands (ev):

   -41.7077 -41.7077  -9.3010  -9.3010  -9.0808  -9.0808  -9.0608  -9.0608
    -6.4090  -6.4090  -5.1344  -5.1344  -3.6078  -3.6078  10.2064  10.2064
    13.1292  13.1292  14.6917  14.6917  15.4871  15.4871  15.9787  15.9787
    16.5489  16.5489  17.1904  17.1904  17.8907  17.8907  21.7323  21.7323
    30.0597  30.0597  30.2100  30.2100  31.2877  31.2877  31.8822  31.8822
    32.0341  32.0341  33.3060  33.3060  35.4184  35.4184  36.9903  36.9904
    38.3531  38.3531  39.1167  39.1167  39.8971  39.8972  40.3295  40.3295
    41.5081  41.5081  43.1954  43.1954  43.5430  43.5430  45.0484  45.0484
    45.4381  45.4381  47.7302  47.7303  47.7781  47.7783  50.0114  50.0114
    50.5052  50.5053

          k = 0.0000-0.5000 0.1429 (  2666 PWs)   bands (ev):

   -41.7080 -41.7079  -9.3243  -9.3147  -9.0879  -9.0767  -9.0639  -9.0602
    -6.3488  -6.3129  -5.1683  -5.0977  -3.7901  -3.6179  10.2101  10.6626
    13.1823  13.2780  14.6176  14.7089  15.2912  15.4582  15.7026  16.1718
    16.1900  16.9415  17.1245  17.4976  17.7307  17.9173  20.8775  21.7176
    29.8213  30.0315  30.2565  30.4751  31.2824  31.3210  31.5649  31.5839
    31.6565  32.1636  33.4007  33.6140  35.7607  35.8877  36.9715  37.3109
    38.3040  38.6670  39.3519  39.4436  39.5602  40.3371  40.5121  40.6087
    41.1250  42.0519  42.3742  42.8288  42.8717  44.1853  44.5311  44.6460
    45.8117  46.8952  47.0865  47.3267  47.6529  48.3306  50.0328  50.0740
    50.2644  50.4250

          k = 0.0000-0.5000 0.2857 (  2658 PWs)   bands (ev):

   -41.7057 -41.7055  -9.3759  -9.3506  -9.0816  -9.0740  -9.0661  -9.0513
    -6.2057  -6.0320  -5.2552  -5.0349  -4.2358  -3.6407  10.2319  11.9225
    13.3179  13.5961  14.3463  14.7406  15.2570  15.3986  15.4261  15.6377
    16.3294  17.0022  17.3383  17.5182  17.8223  18.0019  18.9164  21.6837
    29.6626  29.9205  30.1616  30.6234  30.7347  30.8290  31.4054  31.4908
    31.4969  32.2676  34.0057  34.4548  36.6048  36.6485  36.8126  37.1623
    38.2473  39.2913  39.4753  39.7733  39.8423  40.0194  40.4759  41.0345
    41.4282  41.6045  41.6914  43.7071  43.7840  44.0544  44.2502  45.0510
    46.4437  46.6544  46.9896  47.4448  47.8977  48.5985  48.7856  49.7032
    49.8055  50.0517

          k = 0.0000-0.5000 0.4286 (  2662 PWs)   bands (ev):

   -41.7070 -41.7070  -9.4240  -9.3900  -9.0797  -9.0657  -9.0647  -9.0470
    -6.0771  -5.6013  -5.3428  -5.1515  -4.6258  -3.6589  10.2672  13.4552
    13.5814  13.8174  14.2507  14.7649  15.2434  15.2754  15.2863  15.4744
    15.9617  16.9282  16.9505  17.0871  17.9110  17.9520  18.1092  21.6533
    29.5443  29.6181  29.6484  30.3076  30.7935  30.8119  31.2709  31.6890
    31.6907  32.3417  35.1525  35.3764  35.7321  36.6844  36.8570  37.6744
    38.1569  38.9700  39.1340  39.1453  39.7632  40.1482  40.6269  40.8530
    41.9024  42.0963  43.7454  43.8061  43.9559  44.5784  45.1555  45.6637
    45.6901  46.9858  47.3512  47.5890  47.8153  48.2207  48.2355  48.3669
    48.5158  50.4457

          k = 0.2000 0.0000 0.0000 (  2661 PWs)   bands (ev):

   -41.7160 -41.6975  -9.1784  -9.1488  -9.1039  -9.1039  -9.0488  -9.0488
    -7.1724  -6.1127  -5.9452  -3.9225  -3.5726  -3.5726  10.0045  10.2340
    11.5273  13.2779  13.2779  13.7471  15.8346  15.8346  15.9126  16.4923
    17.2776  17.3305  17.3305  17.3924  17.3924  20.2207  21.7927  21.7927
    30.2325  30.7882  30.9588  31.3510  31.3510  31.5232  31.9743  32.0289
    32.0289  32.2676  33.1983  33.8884  34.1444  34.1444  35.9632  36.1498
    36.8357  37.8859  37.8859  37.9343  38.5133  40.5370  40.7475  40.7475
    41.3465  41.5377  41.5556  44.2887  44.2887  44.4346  45.2103  45.2103
    46.0798  46.9219  47.0337  47.9258  47.9256  48.7952  48.8550  48.8550
    50.5291  50.8640

          k = 0.2000 0.0000 0.1429 (  2667 PWs)   bands (ev):

   -41.7134 -41.7043  -9.2043  -9.1890  -9.1221  -9.0994  -9.0512  -9.0451
    -7.0541  -6.0557  -5.9221  -3.9318  -3.7629  -3.5828  10.1088  10.5233
    11.5393  13.2703  13.4898  13.7045  15.5705  15.6816  16.2450  16.7235
    17.0169  17.1136  17.3209  17.4300  17.5774  20.2090  20.9295  21.7769
    30.3429  30.8862  30.9253  31.1827  31.3161  31.3472  31.6357  31.6614
    31.8735  32.1886  32.8482  34.1596  34.4686  35.1706  36.3167  36.5275
    37.2238  37.3329  38.0074  38.2094  39.2171  40.3440  40.5770  40.5847
    41.1914  41.2943  42.0235  44.1008  44.3333  44.9258  44.9459  45.2450
    45.9726  46.0549  46.9098  47.9827  48.4180  48.4880  49.1917  49.6256
    49.8708  50.5044

          k = 0.2000 0.0000 0.2857 (  2659 PWs)   bands (ev):

   -41.7088 -41.7043  -9.2790  -9.2636  -9.1063  -9.0913  -9.0481  -9.0460
    -6.7571  -6.0235  -5.7543  -4.2588  -3.9371  -3.6055  10.1737  11.0077
    12.1937  13.2509  13.6199  13.9709  15.4417  15.4656  16.2778  16.5233
    16.9789  17.1685  17.2030  17.6451  17.6970  18.9204  20.1997  21.7404
    30.1478  30.5680  30.7431  30.8638  31.1212  31.2746  31.2755  31.3616
    31.6750  32.1861  32.9207  34.7034  35.1966  36.0758  36.1328  37.4580
    37.5415  37.7498  38.6721  38.9026  39.9386  40.1099  40.2354  40.8810
    41.0353  42.1468  42.2060  43.5572  43.6405  43.9482  44.2532  45.0890
    45.5792  46.6370  47.3880  48.0418  48.4778  48.5574  49.3885  49.8786
    50.0957  50.3167

          k = 0.2000 0.0000 0.4286 (  2660 PWs)   bands (ev):

   -41.7084 -41.7042  -9.3358  -9.3189  -9.0897  -9.0749  -9.0586  -9.0576
    -6.4125  -6.1392  -5.3888  -4.8465  -3.9475  -3.6236  10.2101  11.0778
    13.2323  13.3559  14.0650  14.5175  15.1007  15.5353  16.0110  16.0775
    16.5705  17.0890  17.1467  17.5821  17.6573  17.9082  20.1713  21.7115
    29.8290  30.0938  30.2385  30.6280  31.1467  31.2447  31.3650  31.4230
    31.5609  32.2053  33.3540  34.1679  35.9199  36.3144  36.6809  37.3752
    38.3482  38.6774  39.0294  39.7025  39.9621  40.2426  40.5426  40.8860
    40.9037  41.5797  42.5187  43.0766  43.1664  43.9224  44.5018  44.9929
    45.3657  46.5744  47.2451  47.6383  48.2172  48.5205  49.2163  50.2108
    50.3851  50.4956

          k = 0.2000 0.1667 0.0000 (  2672 PWs)   bands (ev):

   -41.7130 -41.7086  -9.2118  -9.2034  -9.1295  -9.1043  -9.0496  -9.0433
    -7.0141  -6.0408  -5.9100  -3.9367  -3.8257  -3.5862  10.1221  10.6293
    11.5661  13.2679  13.5567  13.6921  15.5382  15.6437  16.2884  16.7686
    16.9792  17.0571  17.2979  17.4598  17.6036  20.2018  20.6523  21.7704
    30.3402  30.8921  30.9284  31.1365  31.3029  31.3392  31.5070  31.5460
    31.8362  32.1841  32.8239  34.2550  34.5720  35.3808  36.3923  36.6579
    37.1319  37.4729  37.9800  38.3009  39.4608  40.2603  40.5196  40.6436
    41.1622  41.2264  42.1237  44.0417  44.2665  44.7417  44.9362  45.3213
    45.9073  46.0612  46.8796  48.0794  48.3843  48.5626  49.2877  49.5293
    50.0169  50.3837

          k = 0.2000 0.1667 0.1429 (  2665 PWs)   bands (ev):

   -41.7128 -41.7041  -9.2331  -9.2004  -9.1637  -9.0872  -9.0538  -9.0505
    -6.9055  -5.9689  -5.9024  -3.9428  -3.8376  -3.7731  10.5028  10.6822
    11.5369  13.4871  13.5626  13.6802  15.1010  16.0811  16.2089  16.6555
    16.9640  17.1302  17.2424  17.4987  17.5790  20.1966  20.6375  20.9155
    30.5667  30.8578  30.8839  30.8985  31.1076  31.3021  31.4006  31.5014
    31.7130  31.9169  32.6684  34.5224  35.2837  35.5263  36.7968  36.9844
    37.3602  37.7781  37.9514  38.7905  39.3048  40.0709  40.1873  40.7424
    41.0438  41.8741  42.1666  43.9899  44.1213  44.2291  44.7723  45.4046
    45.6273  46.8322  47.0826  47.7300  47.9033  48.0399  48.3789  49.9260
    50.0852  50.3305

          k = 0.2000 0.1667 0.2857 (  2655 PWs)   bands (ev):

   -41.7108 -41.6987  -9.2938  -9.2508  -9.1645  -9.0681  -9.0576  -9.0545
    -6.6283  -5.9351  -5.7386  -4.2635  -3.9507  -3.8531  10.7451  11.0601
    12.1098  13.5612  13.6610  13.9722  14.7878  16.0426  16.1830  16.3922
    16.8520  17.2093  17.3771  17.5295  17.6751  18.9352  20.1855  20.6122
    30.3819  30.3928  30.6910  30.8131  30.9884  31.1665  31.1827  31.2451
    31.6375  31.8879  32.8598  35.0053  35.8916  36.2665  36.5603  37.7471
    37.9877  38.2051  38.7641  39.3145  39.5501  39.7816  40.2988  41.0195
    41.8554  42.1265  42.4900  42.9879  43.4810  43.6252  44.4215  44.6939
    46.1260  46.3741  47.1440  47.2721  47.7768  48.1029  48.1640  49.4108
    50.3891  50.5502

          k = 0.2000 0.1667 0.4286 (  2655 PWs)   bands (ev):

   -41.7053 -41.7032  -9.3330  -9.3196  -9.1288  -9.0974  -9.0514  -9.0468
    -6.3011  -6.0522  -5.3705  -4.8495  -3.9600  -3.8668  10.8193  11.0864
    13.3230  13.5172  14.0999  14.5014  14.6465  15.7786  15.8222  16.3583
    16.4993  16.6999  17.5039  17.5732  17.6769  17.7485  20.1598  20.5845
    29.8731  30.0163  30.5209  30.6900  30.8849  30.9710  31.2470  31.2689
    31.7085  31.9317  33.4854  34.3837  36.4635  36.6038  36.9358  37.9297
    38.7422  38.8117  39.3064  39.4653  39.6633  40.3451  40.9153  41.2949
    41.4969  41.5505  42.2666  42.6915  43.4693  43.6293  43.8416  45.0211
    45.3713  46.7662  46.9230  47.2605  47.3974  48.1189  48.5532  49.1178
    50.3089  50.8967

          k = 0.2000 0.3333 0.0000 (  2656 PWs)   bands (ev):

   -41.7093 -41.7015  -9.3044  -9.2840  -9.0985  -9.0828  -9.0530  -9.0473
    -6.6403  -6.0464  -5.6508  -4.4533  -3.9418  -3.6129  10.1893  11.0499
    12.6673  13.2436  13.6176  14.1495  15.3391  15.4755  16.1905  16.3704
    17.0397  17.1403  17.2589  17.6682  17.7698  18.1941  20.1886  21.7282
    30.0601  30.3570  30.4727  30.8017  31.1131  31.2608  31.3493  31.3630
    31.6257  32.1922  33.0342  34.6476  35.4634  36.0937  36.2827  37.6340
    37.8449  37.9513  38.7120  39.5391  39.9240  40.1556  40.1996  40.7864
    40.9825  41.9405  43.0307  43.1422  43.5917  43.8943  43.9008  45.0129
    45.1604  46.8239  47.5700  47.8056  48.6003  48.6360  49.0848  49.8224
    50.4191  50.4755

          k = 0.2000 0.3333 0.1429 (  2657 PWs)   bands (ev):

   -41.7100 -41.7007  -9.3104  -9.2798  -9.1463  -9.0729  -9.0545  -9.0515
    -6.5492  -5.9827  -5.6373  -4.4558  -3.9514  -3.7969  10.6289  11.0701
    12.5903  13.4890  13.6634  14.1459  14.8151  15.9275  16.0652  16.4240
    16.7649  17.2480  17.4622  17.5278  17.6985  18.2374  20.1784  20.8775
    30.1721  30.2538  30.5727  30.7904  31.0212  31.1266  31.2317  31.2505
    31.6256  31.9816  33.0266  34.8487  35.9773  36.3920  36.4025  38.0039
    38.2640  38.2983  38.6925  39.4646  39.6062  40.0258  40.3971  40.9849
    41.5124  42.3546  42.6729  42.9652  43.3303  43.6143  44.1781  44.3648
    45.8759  46.7152  47.0393  47.2597  48.0090  48.2684  48.4251  49.3395
    50.3573  50.7236

          k = 0.2000 0.3333 0.2857 (  2656 PWs)   bands (ev):

   -41.7086 -41.7007  -9.3354  -9.2868  -9.1777  -9.0850  -9.0694  -9.0514
    -6.3134  -5.8220  -5.6052  -4.4711  -4.2518  -3.9689  11.0706  11.8646
    12.5642  13.7542  13.8997  14.1242  14.4574  15.8195  16.0653  16.3746
    16.8608  16.9997  17.3728  17.6214  17.7703  18.2345  18.9359  20.1541
    30.0636  30.2446  30.4595  30.6020  30.8524  30.9433  31.1380  31.2676
    31.4324  31.8904  33.2822  35.4411  36.3943  36.9117  37.1020  37.6895
    38.5262  38.9010  39.0923  39.4484  39.9186  40.4882  41.0245  41.4970
    41.8430  42.1179  42.3950  42.7113  43.0856  43.4700  44.1852  44.8620
    45.8802  46.0377  46.1757  47.0434  47.2764  47.6871  47.8557  49.0419
    50.1150  50.9428

          k = 0.2000 0.3333 0.4286 (  2643 PWs)   bands (ev):

   -41.7006 -41.6993  -9.3518  -9.3298  -9.1466  -9.1013  -9.0680  -9.0531
    -6.0503  -5.7894  -5.3699  -4.8559  -4.4281  -3.9812  11.1115  12.4602
    13.4440  13.8184  14.0438  14.1910  14.7687  15.6233  15.8630  16.1693
    16.4833  16.7409  17.2146  17.5903  17.6715  17.8284  18.2235  20.1302
    29.8357  29.9966  30.3382  30.6269  30.6683  30.8541  31.0326  31.3410
    31.3794  32.0290  34.0905  35.2203  36.6012  36.9047  37.3145  38.0698
    38.6255  39.3106  39.4361  40.0144  40.1710  40.6610  41.1046  41.3890
    41.5606  41.8425  42.1968  42.6034  43.4719  43.9858  44.7176  45.0728
    45.5405  45.9421  46.3823  46.9145  47.1863  47.5215  48.1917  48.8726
    49.4816  50.3145

          k = 0.2000-0.5000 0.0000 (  2658 PWs)   bands (ev):

   -41.7053 -41.7052  -9.3457  -9.3294  -9.0828  -9.0721  -9.0588  -9.0557
    -6.2974  -6.2215  -5.1986  -5.0696  -3.9489  -3.6263  10.2161  11.0831
    13.2293  13.3991  14.5253  14.7213  15.2438  15.4402  15.5673  15.9514
    16.2756  17.0740  17.1770  17.5929  17.6506  17.9458  20.1685  21.7069
    29.7488  30.0017  30.2759  30.5436  31.1603  31.2417  31.3741  31.4257
    31.5459  32.2093  33.5601  33.9003  36.0567  36.3548  36.9415  37.2006
    38.2857  38.9899  39.5485  39.6127  39.7844  40.2969  40.4242  40.6458
    40.9005  42.2006  42.3433  42.7673  42.9136  43.9562  44.3287  44.9543
    46.1788  46.7302  47.2099  47.4490  47.6600  48.3644  49.4023  50.0509
    50.0974  50.6251

          k = 0.2000-0.5000 0.1429 (  2658 PWs)   bands (ev):

   -41.7053 -41.7051  -9.3367  -9.3289  -9.1082  -9.1052  -9.0540  -9.0504
    -6.2063  -6.1665  -5.1574  -5.0983  -3.9583  -3.8073  10.6702  11.0833
    13.3897  13.4571  14.4755  14.5841  15.2032  15.2036  15.8297  15.8766
    16.4669  16.6874  17.4826  17.6100  17.6471  17.7987  20.1591  20.8567
    29.8274  29.8892  30.5424  30.6130  30.8810  31.0760  31.2677  31.2988
    31.6609  32.0157  33.7868  33.9311  36.3934  36.5599  37.3798  37.4527
    38.6780  39.0791  39.2705  39.4086  40.1529  40.4347  40.6715  40.9021
    41.5059  41.6078  42.3004  42.3863  43.5774  43.5822  43.9417  44.6723
    46.4215  46.5347  46.9803  47.1921  47.5734  47.7172  49.0129  49.2649
    50.1757  50.2325

          k = 0.2000-0.5000 0.2857 (  2648 PWs)   bands (ev):

   -41.7018 -41.7016  -9.3467  -9.3338  -9.1314  -9.1250  -9.0558  -9.0513
    -6.0364  -5.9399  -5.1743  -5.0752  -4.2578  -3.9774  11.1050  11.9238
    13.6185  13.6584  14.2096  14.4510  15.1996  15.2319  15.7474  15.8394
    16.4768  16.6733  17.3287  17.5928  17.6663  17.7980  18.9072  20.1349
    29.8954  29.9030  30.3529  30.6555  30.7692  30.7822  31.1622  31.2936
    31.4245  31.9718  34.2871  34.4585  36.9513  37.1227  37.1257  37.7887
    38.8922  39.3935  39.4440  40.0271  40.3139  40.5754  40.7029  40.8217
    41.7570  41.7816  42.3952  42.5773  43.6407  43.8995  44.0674  44.7201
    45.8167  45.9946  46.5988  46.7607  47.5401  48.0062  48.3297  48.3747
    50.0211  50.5514

          k = 0.2000-0.5000 0.4286 (  2646 PWs)   bands (ev):

   -41.7009 -41.7006  -9.3709  -9.3451  -9.1209  -9.1164  -9.0835  -9.0642
    -5.9190  -5.5270  -5.2537  -5.1141  -4.7060  -3.9902  11.1390  13.4897
    13.6809  13.9216  14.0210  14.6253  15.2353  15.3947  15.5183  15.7229
    16.0799  16.7628  16.9417  17.0396  17.6783  17.6829  17.8812  20.1113
    29.7998  29.8974  30.1224  30.4184  30.5851  30.9284  30.9684  31.4471
    31.4473  32.1368  35.2035  35.3866  36.1553  36.5028  37.1405  38.0741
    39.2603  39.3873  39.5368  40.4081  40.6308  40.6714  40.9542  41.0196
    41.0588  41.5102  42.1181  43.0428  44.4158  44.7318  44.9698  45.5728
    46.0498  46.0502  46.1731  46.9352  47.1824  47.7687  47.8566  48.6922
    48.9260  49.2732

          k = 0.4000 0.0000 0.0000 (  2657 PWs)   bands (ev):

   -41.7103 -41.6994  -9.2810  -9.2759  -9.0829  -9.0829  -9.0576  -9.0576
    -6.6438  -6.2423  -5.4788  -4.7296  -3.6026  -3.6026  10.1518  10.2499
    13.1496  13.1496  13.6078  14.5982  15.3411  15.9557  15.9557  16.2971
    16.8158  17.0185  17.2212  17.2213  17.8086  17.8086  21.7415  21.7415
    29.9758  30.2373  30.2373  30.5836  31.1153  31.3786  31.8964  31.8964
    31.9801  32.1120  33.1722  33.6713  35.1930  35.1930  36.3728  37.3687
    38.0096  38.4061  38.4061  39.0944  40.1522  40.1767  40.2843  40.2843
    41.3267  41.3690  42.8827  43.4698  43.4698  44.6269  44.9529  44.9529
    45.4751  45.7538  45.8787  47.8623  47.8625  49.9114  50.2621  50.2622
    50.5124  50.7248

          k = 0.4000 0.0000 0.1429 (  2659 PWs)   bands (ev):

   -41.7092 -41.7030  -9.3069  -9.2949  -9.0926  -9.0792  -9.0565  -9.0555
    -6.5558  -6.1713  -5.4742  -4.7303  -3.7864  -3.6127  10.1967  10.6593
    13.1954  13.2166  13.7123  14.4978  15.2132  15.6504  16.1134  16.2446
    16.9112  16.9596  17.1562  17.5232  17.6922  17.8415  20.8858  21.7284
    29.9421  30.2090  30.2189  30.6749  31.1603  31.3686  31.5752  31.5873
    31.6826  32.1653  33.1620  34.0053  35.5237  35.8052  36.4794  37.5501
    38.2007  38.4474  38.6540  39.4001  40.0554  40.0555  40.4744  40.6592
    41.1292  41.5802  42.7184  43.1613  43.3434  44.1430  44.7650  44.8001
    44.9430  46.3790  46.9250  47.5714  48.5456  48.7857  49.8810  50.2941
    50.3150  50.6604

          k = 0.4000 0.0000 0.2857 (  2657 PWs)   bands (ev):

   -41.7091 -41.7024  -9.3646  -9.3363  -9.0868  -9.0749  -9.0623  -9.0499
    -6.3353  -5.9689  -5.4815  -4.7394  -4.2340  -3.6355  10.2227  11.8961
    13.3081  13.3317  13.9803  14.2486  15.1656  15.3571  15.7696  16.2365
    16.7803  17.0255  17.4451  17.4584  17.8103  17.9493  18.9278  21.6925
    29.8157  30.0948  30.2020  30.5305  30.7470  30.9434  31.3873  31.4381
    31.5356  32.2513  33.5701  34.9078  36.3091  36.3715  37.0318  37.1346
    38.2893  38.4762  39.1875  39.9917  40.0193  40.3240  40.5157  40.9290
    41.3457  41.5512  41.8814  43.2677  43.7276  44.4441  44.6911  44.7189
    45.2559  46.7538  47.5784  47.7378  47.9987  48.7524  48.8030  49.2723
    49.8099  50.3666

          k = 0.4000 0.0000 0.4286 (  2657 PWs)   bands (ev):

   -41.7068 -41.7040  -9.4102  -9.3782  -9.0770  -9.0675  -9.0663  -9.0448
    -6.1291  -5.7255  -5.4261  -4.9500  -4.5588  -3.6538  10.2559  13.2067
    13.4162  13.6541  14.1760  14.2790  15.2503  15.2914  15.4009  16.0225
    16.2223  16.9509  17.1211  17.3879  17.8133  17.9208  18.0748  21.6622
    29.6332  29.7477  29.7748  30.3712  30.6516  30.8701  31.3042  31.5774
    31.6878  32.3193  34.5054  35.4229  36.0164  36.7984  36.9343  37.2042
    38.3121  38.9786  39.3123  39.4728  39.8271  40.0444  40.5210  40.8867
    41.6172  41.9094  43.3367  43.7577  43.8365  44.1456  45.0131  45.4302
    46.2121  47.0499  47.0684  47.4423  47.9835  48.3781  48.4525  48.5337
    48.6093  50.0866

          k = 0.4000 0.1667 0.0000 (  2659 PWs)   bands (ev):

   -41.7079 -41.7043  -9.3162  -9.3018  -9.0938  -9.0789  -9.0560  -9.0524
    -6.5257  -6.1462  -5.4739  -4.7304  -3.8484  -3.6161  10.2001  10.8169
    13.2107  13.2354  13.7495  14.4620  15.1916  15.5913  16.1461  16.1707
    16.9384  16.9943  17.1355  17.5840  17.6560  17.8538  20.6075  21.7236
    29.9251  30.1983  30.2245  30.6849  31.1658  31.3785  31.4510  31.4756
    31.6368  32.1810  33.1850  34.1284  35.6330  36.0032  36.4945  37.5340
    38.2613  38.4631  38.7249  39.5049  40.0493  40.0954  40.4951  40.7619
    41.0296  41.5543  42.9252  42.9797  43.2725  44.0310  44.6908  44.7715
    45.0044  46.4794  47.2190  47.5053  48.6156  48.6265  49.5248  50.2883
    50.3049  50.6634

          k = 0.4000 0.1667 0.1429 (  2662 PWs)   bands (ev):

   -41.7084 -41.7054  -9.3227  -9.3049  -9.1276  -9.0855  -9.0588  -9.0466
    -6.4403  -6.0801  -5.4625  -4.7323  -3.8579  -3.7988  10.6411  10.8332
    13.1725  13.4262  13.8209  14.4282  14.8217  15.8423  15.9034  16.4549
    16.6309  16.8957  17.4673  17.5440  17.6932  17.7562  20.5966  20.8703
    29.9627  30.0587  30.4484  30.7407  31.0815  31.1489  31.2667  31.2811
    31.7834  31.9645  33.2509  34.3359  36.1046  36.2510  36.6821  38.0189
    38.4687  38.5369  39.1142  39.3968  39.4574  40.2909  40.9039  40.9824
    41.1759  41.8713  42.4927  42.6958  43.5944  43.8267  43.8852  44.7475
    45.4147  46.7300  46.9070  47.3865  47.7865  48.4927  49.0005  49.3622
    50.2767  51.1489

          k = 0.4000 0.1667 0.2857 (  2650 PWs)   bands (ev):

   -41.7030 -41.7023  -9.3468  -9.3209  -9.1442  -9.0896  -9.0588  -9.0499
    -6.2227  -5.8921  -5.4546  -4.7376  -4.2511  -3.8770  10.8341  11.9059
    13.2145  13.6873  13.9770  14.2240  14.6408  15.7178  15.8548  16.3450
    16.7269  16.7888  17.3718  17.6250  17.6944  17.8387  18.9223  20.5712
    29.8794  30.0843  30.4202  30.5642  30.8496  30.8731  31.1168  31.3296
    31.4076  32.0557  33.6183  35.0545  36.5486  36.8258  37.1896  37.8438
    38.4010  38.9683  39.4039  39.6077  39.9607  40.7459  40.9550  41.2436
    41.5934  41.6961  42.0816  42.9276  43.3703  43.7284  44.3456  45.0543
    45.3391  46.2783  46.8852  47.0664  47.5753  47.6043  48.0344  49.0764
    50.0625  50.7150

          k = 0.4000 0.1667 0.4286 (  2652 PWs)   bands (ev):

   -41.7033 -41.7028  -9.3774  -9.3517  -9.1241  -9.0960  -9.0757  -9.0543
    -6.0182  -5.6648  -5.3808  -4.9216  -4.6066  -3.8911  10.8679  13.2207
    13.4701  13.8674  13.9989  14.1858  14.9850  15.4841  15.7477  16.0746
    16.2641  16.8113  17.0842  17.3308  17.7266  17.7513  17.9375  20.5472
    29.7317  29.8606  30.2181  30.4145  30.7497  30.8339  30.9427  31.4398
    31.4766  32.1881  34.5031  35.5251  36.3033  36.5731  37.3749  37.8398
    38.9013  39.0842  39.2105  40.1661  40.4000  40.6547  40.9392  41.0068
    41.4603  41.6349  42.5291  42.7363  43.7297  44.5180  44.8889  45.8310
    46.0611  46.1103  46.3206  46.8410  47.1627  47.6385  48.1731  48.9572
    49.0602  49.4917

          k = 0.4000 0.3333 0.0000 (  2652 PWs)   bands (ev):

   -41.7058 -41.7021  -9.3807  -9.3514  -9.0822  -9.0728  -9.0600  -9.0472
    -6.2544  -5.8790  -5.4845  -4.7636  -4.3897  -3.6430  10.2351  12.4216
    13.3502  13.3767  14.0689  14.1794  15.1948  15.2993  15.6257  16.2240
    16.6792  16.9902  17.3831  17.6034  17.8600  17.9993  18.2248  21.6806
    29.7634  30.0056  30.0499  30.5045  30.5462  30.9174  31.3795  31.4476
    31.6100  32.2777  33.8410  35.2047  36.3213  36.6125  36.9068  37.0872
    38.4751  38.4756  39.3685  39.9586  39.9743  40.0459  40.5010  40.9510
    41.5643  41.6277  42.1906  43.3382  43.7064  44.6223  44.6311  45.1398
    45.5838  46.8426  47.3474  47.5741  47.8525  48.7212  48.7715  49.0761
    49.5221  49.7992

          k = 0.4000 0.3333 0.1429 (  2654 PWs)   bands (ev):

   -41.7052 -41.7029  -9.3636  -9.3369  -9.1298  -9.0857  -9.0666  -9.0513
    -6.1719  -5.8259  -5.4595  -4.7553  -4.4103  -3.8221  10.6876  12.4324
    13.2408  13.6993  14.0234  14.1272  14.7817  15.6160  15.7563  16.2987
    16.6642  16.8397  17.3190  17.6517  17.7370  17.9029  18.2385  20.8377
    29.8281  29.9525  30.3507  30.4997  30.7487  30.9316  30.9849  31.4033
    31.4355  32.1703  33.8517  35.3009  36.4534  36.7713  37.1881  37.7507
    38.3829  38.9431  39.2918  39.7389  40.1615  40.6719  41.0261  41.2397
    41.4452  41.6150  42.2012  42.9234  43.2799  44.0726  45.0119  45.1215
    45.5404  46.3660  46.6884  47.0833  47.4303  47.6390  48.4518  49.0303
    49.5274  50.2247

          k = 0.4000 0.3333 0.2857 (  2651 PWs)   bands (ev):

   -41.7025 -41.7020  -9.3319  -9.2949  -9.1993  -9.1211  -9.0904  -9.0669
    -5.9465  -5.6776  -5.4247  -4.7391  -4.4479  -4.2734  11.9391  12.4764
    13.2360  13.8080  13.8637  14.3397  14.6726  15.6958  16.1180  16.3299
    16.5289  16.7421  17.1417  17.4720  17.6415  17.6891  18.2021  18.8885
    29.9562  30.1122  30.2456  30.6088  30.8715  30.9455  31.1179  31.2349
    31.3853  31.6286  34.0853  35.6539  36.6095  36.9006  37.5266  37.9304
    38.9326  39.4153  39.5402  40.1614  40.4975  40.8472  41.0871  41.5670
    41.8223  42.3658  42.4999  42.9434  43.3322  43.5662  44.0786  44.7269
    45.5909  45.7293  46.1224  46.3551  47.1377  47.4680  47.5715  48.9259
    49.3862  50.2097

          k = 0.4000 0.3333 0.4286 (  2646 PWs)   bands (ev):

   -41.7006 -41.6998  -9.3107  -9.2860  -9.2021  -9.1455  -9.1155  -9.0912
    -5.7033  -5.5099  -5.3265  -4.8621  -4.6948  -4.4592  12.5232  13.2716
    13.4727  13.6066  13.9019  14.6702  15.0390  15.7754  16.0569  16.1668
    16.3157  16.6298  16.9350  17.1777  17.3760  17.4555  17.5044  18.1471
    30.0624  30.1536  30.2136  30.6737  30.8480  31.0617  31.0899  31.2253
    31.2883  31.4882  34.8647  35.9643  36.4219  36.6100  37.4322  38.0307
    39.0355  39.6261  39.8110  39.8302  40.7426  40.8603  41.0501  41.4015
    42.1141  42.4367  43.0423  43.4761  43.6045  43.6262  44.5579  45.2188
    45.4110  45.8735  46.2830  46.8615  47.0141  47.3420  47.5425  48.1951
    49.1749  49.7136

          k = 0.4000-0.5000 0.0000 (  2650 PWs)   bands (ev):

   -41.7031 -41.7031  -9.4132  -9.3798  -9.0754  -9.0656  -9.0638  -9.0432
    -6.0950  -5.6960  -5.3294  -5.0942  -4.5779  -3.6564  10.2619  13.2810
    13.4344  13.7916  14.2014  14.7615  15.2625  15.3070  15.3242  15.4606
    16.1259  16.9430  17.0064  17.3369  17.8594  17.9392  18.0937  21.6583
    29.5624  29.7023  29.7039  30.3460  30.7640  30.7997  31.2873  31.6570
    31.6592  32.3308  34.9046  35.2286  35.8673  36.7197  37.0748  37.4497
    38.1717  39.1226  39.2065  39.2197  39.7914  40.1049  40.5395  40.9380
    41.7270  42.0077  43.3724  43.7881  43.9087  44.4825  45.0856  45.5377
    45.9886  47.0683  47.0701  47.5755  47.8663  48.2670  48.2882  48.5439
    48.6940  50.2188

          k = 0.4000-0.5000 0.1429 (  2650 PWs)   bands (ev):

   -41.7027 -41.7022  -9.3907  -9.3622  -9.1025  -9.0943  -9.0704  -9.0526
    -6.0141  -5.6539  -5.2814  -5.0837  -4.6137  -3.8330  10.7151  13.2444
    13.6934  13.7445  14.0463  14.6412  15.2833  15.2928  15.4379  15.6481
    16.1996  16.8416  17.0021  17.2929  17.7635  17.8087  17.9886  20.8187
    29.7022  29.7468  30.0326  30.3966  30.8367  30.8619  30.9036  31.5128
    31.5169  32.2480  34.9282  35.1974  36.1168  36.8103  37.3404  37.5891
    38.8459  38.9431  39.2040  40.2433  40.3618  40.4310  40.8350  40.8823
    41.4702  41.7022  42.6078  42.8390  44.0720  44.8077  45.0067  45.6898
    46.2335  46.3351  46.4997  46.6668  47.3135  48.0184  48.1422  48.7423
    49.2077  49.4487

          k = 0.4000-0.5000 0.2857 (  2640 PWs)   bands (ev):

   -41.6984 -41.6983  -9.3270  -9.3111  -9.1580  -9.1549  -9.0934  -9.0816
    -5.7715  -5.5533  -5.1751  -5.0773  -4.6844  -4.2808  11.9756  13.2648
    13.5690  13.7164  14.2614  14.5848  15.2850  15.4076  15.7258  15.9326
    16.3551  16.5989  16.9877  17.1332  17.4952  17.4982  17.6349  18.8614
    29.9919  30.1471  30.3057  30.3375  30.7271  31.0176  31.0854  31.2970
    31.3040  31.7664  35.1930  35.3301  36.4930  36.5979  37.2007  38.3736
    39.1233  39.8492  39.8748  40.0478  40.5465  40.8790  40.9722  41.0223
    41.5333  42.1837  42.6547  43.0125  44.1788  44.3209  44.5809  44.9352
    45.6802  45.9286  46.0594  46.7249  47.2300  47.9307  48.0006  48.1126
    48.6453  49.6912

          k = 0.4000-0.5000 0.4286 (  2640 PWs)   bands (ev):

   -41.6975 -41.6975  -9.2698  -9.2658  -9.1866  -9.1863  -9.1363  -9.1323
    -5.4543  -5.3827  -5.1137  -5.0964  -4.8221  -4.7199  13.3217  13.3588
    13.4717  13.8197  14.6564  14.6922  15.3430  15.4716  16.0253  16.1102
    16.3942  16.4780  16.8435  16.8589  17.0815  17.1254  17.1478  17.2197
    30.2537  30.2774  30.4913  30.5136  30.8967  31.1039  31.1665  31.1747
    31.2339  31.2524  35.8891  35.9369  36.5356  36.5928  37.2316  37.5682
    38.8340  38.8464  39.9175  40.0466  40.6481  40.6627  41.0447  41.1194
    42.7509  42.8292  43.4146  43.5070  44.6668  44.6747  44.8648  45.4284
    46.1779  46.2123  46.2337  46.4392  46.9222  47.0130  48.1624  48.4371
    48.5343  48.8976

     the Fermi energy is    44.3670 ev

!    total energy              =   -1177.21817221 Ry
     Harris-Foulkes estimate   =   -1177.21823586 Ry
     estimated scf accuracy    <       0.00007855 Ry

     The total energy is the sum of the following terms:

     one-electron contribution =     194.10319141 Ry
     hartree contribution      =      81.39205073 Ry
     xc contribution           =    -135.99875017 Ry
     ewald contribution        =   -1316.45296007 Ry
     smearing contrib. (-TS)   =      -0.26170410 Ry

     convergence has been achieved in   8 iterations

     Forces acting on atoms (Ry/au):

     atom    1 type  1   force =     0.00000000    0.00000000    0.00000000
     atom    2 type  1   force =     0.00000000    0.00000000    0.00000000
     atom    3 type  1   force =     0.00000000    0.00000000    0.00000000
     atom    4 type  1   force =     0.00000000    0.00000000    0.00000000
     atom    5 type  1   force =     0.00000000    0.00000000    0.00000000
     atom    6 type  1   force =     0.00000000    0.00000000    0.00000000
     atom    7 type  2   force =     0.00000000    0.00000000    0.00000000
     atom    8 type  2   force =     0.00000000    0.00000000    0.00000000

     Total force =     0.000000     Total SCF correction =     0.000000


     entering subroutine stress ...

          total   stress  (Ry/bohr**3)                   (kbar)     P= 5067.81
   0.03445030   0.00000000   0.00000000       5067.81      0.00      0.00
   0.00000000   0.03445030   0.00000000          0.00   5067.81      0.00
   0.00000000   0.00000000   0.03445030          0.00      0.00   5067.81


     BFGS Geometry Optimization

     number of scf cycles    =   1
     number of bfgs steps    =   0

     enthalpy new            =   -1177.2181722103 Ry

     new trust radius        =       0.5000000000 bohr
     new conv_thr            =       0.0001000000 Ry

     new unit-cell volume =    828.02266 a.u.^3 (   122.70030 Ang^3 )

CELL_PARAMETERS (alat=  8.53457320)
   1.100269143   0.000000000   0.000000000
   0.000000000   1.100269143   0.000000000
   0.000000000   0.000000000   1.100269143

ATOMIC_POSITIONS (crystal)
Cr       0.000000000   0.500000000   0.250000000
Cr       0.000000000   0.500000000   0.750000000
Cr       0.500000000   0.750000000   0.000000000
Cr       0.500000000   0.250000000   0.000000000
Cr       0.750000000   0.000000000   0.500000000
Cr       0.250000000   0.000000000   0.500000000
Si       0.500000000   0.500000000   0.500000000
Si       0.000000000   0.000000000   0.000000000



     Writing output data file Prototype-La-cP8-Cr3Si.save
     NEW-OLD atomic charge density approx. for the potential
     NEW k-points:
        k(    1) = (   0.0000000   0.0000000   0.0000000), wk =   0.0095238
        k(    2) = (   0.0000000   0.0000000   0.1298384), wk =   0.0190476
        k(    3) = (   0.0000000   0.0000000   0.2596767), wk =   0.0190476
        k(    4) = (   0.0000000   0.0000000   0.3895151), wk =   0.0190476
        k(    5) = (   0.0000000   0.1514781   0.0000000), wk =   0.0190476
        k(    6) = (   0.0000000   0.1514781   0.1298384), wk =   0.0380952
        k(    7) = (   0.0000000   0.1514781   0.2596767), wk =   0.0380952
        k(    8) = (   0.0000000   0.1514781   0.3895151), wk =   0.0380952
        k(    9) = (   0.0000000   0.3029562   0.0000000), wk =   0.0190476
        k(   10) = (   0.0000000   0.3029562   0.1298384), wk =   0.0380952
        k(   11) = (   0.0000000   0.3029562   0.2596767), wk =   0.0380952
        k(   12) = (   0.0000000   0.3029562   0.3895151), wk =   0.0380952
        k(   13) = (   0.0000000  -0.4544343   0.0000000), wk =   0.0095238
        k(   14) = (   0.0000000  -0.4544343   0.1298384), wk =   0.0190476
        k(   15) = (   0.0000000  -0.4544343   0.2596767), wk =   0.0190476
        k(   16) = (   0.0000000  -0.4544343   0.3895151), wk =   0.0190476
        k(   17) = (   0.1817737   0.0000000   0.0000000), wk =   0.0190476
        k(   18) = (   0.1817737   0.0000000   0.1298384), wk =   0.0380952
        k(   19) = (   0.1817737   0.0000000   0.2596767), wk =   0.0380952
        k(   20) = (   0.1817737   0.0000000   0.3895151), wk =   0.0380952
        k(   21) = (   0.1817737   0.1514781   0.0000000), wk =   0.0380952
        k(   22) = (   0.1817737   0.1514781   0.1298384), wk =   0.0761905
        k(   23) = (   0.1817737   0.1514781   0.2596767), wk =   0.0761905
        k(   24) = (   0.1817737   0.1514781   0.3895151), wk =   0.0761905
        k(   25) = (   0.1817737   0.3029562   0.0000000), wk =   0.0380952
        k(   26) = (   0.1817737   0.3029562   0.1298384), wk =   0.0761905
        k(   27) = (   0.1817737   0.3029562   0.2596767), wk =   0.0761905
        k(   28) = (   0.1817737   0.3029562   0.3895151), wk =   0.0761905
        k(   29) = (   0.1817737  -0.4544343   0.0000000), wk =   0.0190476
        k(   30) = (   0.1817737  -0.4544343   0.1298384), wk =   0.0380952
        k(   31) = (   0.1817737  -0.4544343   0.2596767), wk =   0.0380952
        k(   32) = (   0.1817737  -0.4544343   0.3895151), wk =   0.0380952
        k(   33) = (   0.3635474   0.0000000   0.0000000), wk =   0.0190476
        k(   34) = (   0.3635474   0.0000000   0.1298384), wk =   0.0380952
        k(   35) = (   0.3635474   0.0000000   0.2596767), wk =   0.0380952
        k(   36) = (   0.3635474   0.0000000   0.3895151), wk =   0.0380952
        k(   37) = (   0.3635474   0.1514781   0.0000000), wk =   0.0380952
        k(   38) = (   0.3635474   0.1514781   0.1298384), wk =   0.0761905
        k(   39) = (   0.3635474   0.1514781   0.2596767), wk =   0.0761905
        k(   40) = (   0.3635474   0.1514781   0.3895151), wk =   0.0761905
        k(   41) = (   0.3635474   0.3029562   0.0000000), wk =   0.0380952
        k(   42) = (   0.3635474   0.3029562   0.1298384), wk =   0.0761905
        k(   43) = (   0.3635474   0.3029562   0.2596767), wk =   0.0761905
        k(   44) = (   0.3635474   0.3029562   0.3895151), wk =   0.0761905
        k(   45) = (   0.3635474  -0.4544343   0.0000000), wk =   0.0190476
        k(   46) = (   0.3635474  -0.4544343   0.1298384), wk =   0.0380952
        k(   47) = (   0.3635474  -0.4544343   0.2596767), wk =   0.0380952
        k(   48) = (   0.3635474  -0.4544343   0.3895151), wk =   0.0380952

     total cpu time spent up to now is      203.4 secs

     Self-consistent Calculation

     iteration #  1     ecut=    40.00 Ry     beta=0.70
     CG style diagonalization
     c_bands:  3 eigenvalues not converged
     c_bands:  5 eigenvalues not converged
     c_bands:  4 eigenvalues not converged
     c_bands:  5 eigenvalues not converged
     c_bands:  4 eigenvalues not converged
     c_bands:  1 eigenvalues not converged
     c_bands:  1 eigenvalues not converged
     c_bands:  1 eigenvalues not converged
     c_bands:  1 eigenvalues not converged
     c_bands:  2 eigenvalues not converged
     c_bands:  5 eigenvalues not converged
     c_bands:  1 eigenvalues not converged
     c_bands:  1 eigenvalues not converged
     c_bands:  1 eigenvalues not converged
     c_bands:  1 eigenvalues not converged
     c_bands:  5 eigenvalues not converged
     c_bands:  1 eigenvalues not converged
     c_bands:  1 eigenvalues not converged
     ethr =  1.00E-06,  avg # of iterations = 19.6

     total cpu time spent up to now is      266.3 secs

     total energy              =   -1175.72885678 Ry
     Harris-Foulkes estimate   =   -1189.24295744 Ry
     estimated scf accuracy    <      17.70523022 Ry

     iteration #  2     ecut=    40.00 Ry     beta=0.70
     CG style diagonalization
     ethr =  1.00E-02,  avg # of iterations =  3.9

     total cpu time spent up to now is      279.2 secs

     total energy              =   -1178.20136488 Ry
     Harris-Foulkes estimate   =   -1182.35445831 Ry
     estimated scf accuracy    <       6.32548589 Ry

     iteration #  3     ecut=    40.00 Ry     beta=0.70
     CG style diagonalization
     ethr =  5.10E-03,  avg # of iterations =  3.6

     total cpu time spent up to now is      290.3 secs

     total energy              =   -1180.86670386 Ry
     Harris-Foulkes estimate   =   -1181.59434497 Ry
     estimated scf accuracy    <       1.48998324 Ry

     iteration #  4     ecut=    40.00 Ry     beta=0.70
     CG style diagonalization
     ethr =  1.20E-03,  avg # of iterations =  3.4

     total cpu time spent up to now is      301.1 secs

     total energy              =   -1181.01262125 Ry
     Harris-Foulkes estimate   =   -1181.07003684 Ry
     estimated scf accuracy    <       0.11927114 Ry

     iteration #  5     ecut=    40.00 Ry     beta=0.70
     CG style diagonalization
     ethr =  9.62E-05,  avg # of iterations =  3.8

     total cpu time spent up to now is      314.9 secs

     total energy              =   -1181.04539390 Ry
     Harris-Foulkes estimate   =   -1181.04599171 Ry
     estimated scf accuracy    <       0.00108850 Ry

     iteration #  6     ecut=    40.00 Ry     beta=0.70
     CG style diagonalization
     c_bands:  1 eigenvalues not converged
     c_bands:  1 eigenvalues not converged
     c_bands:  1 eigenvalues not converged
     c_bands:  1 eigenvalues not converged
     c_bands:  1 eigenvalues not converged
     c_bands:  1 eigenvalues not converged
     c_bands:  1 eigenvalues not converged
     ethr =  8.78E-07,  avg # of iterations =  5.2

     total cpu time spent up to now is      332.4 secs

     total energy              =   -1181.04630105 Ry
     Harris-Foulkes estimate   =   -1181.04645192 Ry
     estimated scf accuracy    <       0.00023254 Ry

     iteration #  7     ecut=    40.00 Ry     beta=0.70
     CG style diagonalization
     ethr =  1.88E-07,  avg # of iterations =  3.9

     total cpu time spent up to now is      344.3 secs

     End of self-consistent calculation

          k = 0.0000 0.0000 0.0000 (  2601 PWs)   bands (ev):

   -51.1061 -51.0396 -18.3367 -18.3367 -18.3367 -18.2914 -18.2914 -18.2914
   -16.7251 -16.2141 -16.2141 -15.0556 -15.0556 -15.0556   2.1668   2.1668
     2.7939   4.4372   4.4372   4.4372   5.9711   5.9711   5.9711   6.3280
     6.3280   6.3280   6.6722   6.6722   6.6722   8.8973   8.8973   8.8973
    21.4898  21.4898  22.2596  22.2597  22.3399  22.3399  22.3399  22.4606
    22.4606  22.4606  23.5473  24.6727  25.0627  25.0627  25.0627  26.9706
    27.1768  27.1979  27.1979  27.1979  27.6971  27.6971  30.7254  30.7254
    30.7254  30.9139  30.9139  31.9241  31.9241  31.9241  33.4333  33.4333
    33.4333  36.1069  36.1069  36.7920  36.7920  36.7921  37.0619  37.4847
    37.4848  37.4849

          k = 0.0000 0.0000 0.1298 (  2657 PWs)   bands (ev):

   -51.1528 -51.1126 -18.3503 -18.3473 -18.3437 -18.3437 -18.3387 -18.3387
   -16.6787 -16.2227 -16.1734 -15.1323 -15.0608 -15.0608   2.1658   2.2725
     2.8692   4.4286   4.4286   4.5362   5.8868   5.8868   5.9785   6.2219
     6.4320   6.4320   6.6098   6.6166   6.6166   8.4618   8.8852   8.8852
    21.4678  21.6116  22.1194  22.1747  22.1747  22.1891  22.3296  22.4242
    22.4242  22.4297  23.7684  24.1628  25.2495  25.2495  26.2203  26.7243
    27.2116  27.2974  27.4038  27.4038  27.6340  28.2318  30.2651  30.2651
    30.6008  30.6573  30.8666  31.8544  32.2720  32.2720  33.5173  33.5173
    33.8975  35.4756  35.5065  36.3308  36.3308  37.0158  37.0159  37.3606
    37.3716  37.9273

          k = 0.0000 0.0000 0.2597 (  2677 PWs)   bands (ev):

   -51.1649 -51.1431 -18.3932 -18.3810 -18.3499 -18.3499 -18.3422 -18.3422
   -16.5611 -16.2540 -16.0529 -15.3297 -15.0662 -15.0662   2.2087   2.3586
     3.4447   4.4150   4.4150   4.7933   5.8312   5.8312   5.9003   6.0685
     6.5035   6.5343   6.5343   6.6083   6.6083   7.3272   8.8704   8.8704
    21.3713  21.7598  21.7926  21.7926  22.0179  22.0515  22.3141  22.3687
    22.4152  22.4152  23.9748  24.2738  25.7112  25.7112  26.1928  27.2910
    27.4059  27.8457  27.8457  27.8723  28.0815  29.7566  29.7566  29.7807
    29.9022  30.3771  30.7412  31.5262  32.0599  32.0599  33.6403  33.6403
    34.3002  34.5900  34.7738  36.2708  36.2708  36.6495  36.6495  37.5844
    38.0043  38.0717

          k = 0.0000 0.0000 0.3895 (  2658 PWs)   bands (ev):

   -51.1353 -51.1330 -18.3876 -18.3825 -18.3457 -18.3457 -18.3343 -18.3343
   -16.4260 -16.3166 -15.8521 -15.5923 -15.0695 -15.0695   2.2646   2.3216
     4.4015   4.4015   4.5341   5.1612   5.4912   5.8215   5.8215   5.9574
     6.2060   6.3621   6.4784   6.4784   6.7385   6.7385   8.8686   8.8686
    21.3709  21.5128  21.5128  21.5722  22.0654  22.0791  22.3058  22.3219
    22.4157  22.4157  24.0379  24.2805  26.1526  26.1526  26.7796  27.2478
    27.3692  28.1862  28.1862  28.4489  28.7930  29.5062  29.5062  29.7260
    29.8901  30.5745  31.4455  31.4556  31.4556  31.9359  33.5817  33.6897
    33.6897  34.1461  34.2649  35.4683  35.9412  35.9413  37.5699  37.5703
    38.3631  38.4050

          k = 0.0000 0.1515 0.0000 (  2653 PWs)   bands (ev):

   -51.1456 -51.1125 -18.3498 -18.3485 -18.3413 -18.3413 -18.3381 -18.3381
   -16.6624 -16.2256 -16.1588 -15.1579 -15.0616 -15.0616   2.1717   2.3016
     2.9201   4.4289   4.4289   4.5759   5.8749   5.8749   5.9898   6.1812
     6.4614   6.4614   6.5964   6.6072   6.6072   8.3170   8.8857   8.8857
    21.4565  21.6461  22.0881  22.1172  22.1172  22.1657  22.3272  22.4204
    22.4211  22.4211  23.8486  24.1080  25.3130  25.3130  26.4904  26.6063
    27.2960  27.3056  27.4713  27.4713  27.6157  28.4384  30.1654  30.1654
    30.4997  30.6302  30.8495  31.8178  32.3032  32.3032  33.5482  33.5482
    34.0209  35.3176  35.3765  36.2571  36.2572  36.9141  36.9141  37.4804
    37.4910  38.0243

          k = 0.0000 0.1515 0.1298 (  2662 PWs)   bands (ev):

   -51.1621 -51.1162 -18.3713 -18.3548 -18.3495 -18.3477 -18.3421 -18.3340
   -16.6184 -16.2041 -16.1486 -15.1611 -15.1332 -15.0638   2.2317   2.4410
     2.9536   4.4369   4.5283   4.5667   5.7648   5.7822   6.0915   6.2767
     6.3800   6.4730   6.5219   6.5735   6.6840   8.2987   8.4542   8.8807
    21.5068  21.6873  21.9990  22.0644  22.0847  22.1106  22.1751  22.2814
    22.3658  22.4372  23.9347  24.0488  25.5010  25.7910  26.8103  26.9309
    27.0530  27.4122  27.5247  27.6859  28.0953  28.4248  29.7222  29.9495
    30.5537  30.5565  31.0058  31.5546  32.4960  32.5081  33.3701  33.7944
    33.9179  34.6754  35.2328  36.1500  36.4225  36.5144  36.9088  37.4217
    37.5894  37.8357

          k = 0.0000 0.1515 0.2597 (  2666 PWs)   bands (ev):

   -51.1517 -51.1360 -18.3855 -18.3755 -18.3574 -18.3442 -18.3414 -18.3413
   -16.5065 -16.2131 -16.0484 -15.3322 -15.1625 -15.0688   2.2681   2.6315
     3.4237   4.4519   4.5520   4.7803   5.6399   5.6839   6.1145   6.1159
     6.4079   6.4712   6.5155   6.6473   6.6960   7.3509   8.3004   8.8714
    21.4273  21.7162  21.7497  21.8231  21.9738  22.0147  22.0986  22.2031
    22.2990  22.4651  23.9228  24.4973  25.9757  26.2573  26.5139  27.2700
    27.4403  28.1059  28.1704  28.1822  28.3867  29.1230  29.6209  29.8457
    30.2397  30.3513  30.8044  31.3054  32.0887  32.3656  33.0873  33.6041
    33.9146  34.2758  35.2435  35.8689  36.1453  36.2105  36.7216  37.2663
    37.5833  37.8054

          k = 0.0000 0.1515 0.3895 (  2658 PWs)   bands (ev):

   -51.1408 -51.1292 -18.3947 -18.3846 -18.3490 -18.3432 -18.3377 -18.3369
   -16.3807 -16.2678 -15.8528 -15.5934 -15.1652 -15.0729   2.2861   2.6406
     4.3776   4.4625   4.6593   5.1016   5.4345   5.6812   5.8650   6.0189
     6.0235   6.4369   6.4436   6.6523   6.6640   6.7542   8.2964   8.8717
    21.3359  21.4677  21.4901  21.6865  22.0359  22.0579  22.0819  22.2047
    22.2527  22.4870  24.1469  24.4982  26.4453  26.6093  26.7759  27.1989
    27.9036  28.2742  28.4370  28.4401  29.0242  29.4488  29.7974  29.8766
    29.9431  30.0955  31.1511  31.3205  31.7517  32.4354  32.9336  33.2024
    33.4182  34.2890  35.1307  35.2456  35.4266  36.0713  36.6591  37.0995
    37.4952  37.8804

          k = 0.0000 0.3030 0.0000 (  2677 PWs)   bands (ev):

   -51.1650 -51.1423 -18.3898 -18.3839 -18.3513 -18.3513 -18.3463 -18.3463
   -16.5155 -16.2704 -15.9944 -15.4142 -15.0673 -15.0673   2.2266   2.3544
     3.7554   4.4085   4.4085   4.9033   5.7639   5.8236   5.8236   6.1106
     6.4632   6.5104   6.5104   6.6596   6.6596   6.8945   8.8620   8.8620
    21.3482  21.6753  21.6753  21.7281  22.0272  22.0475  22.3098  22.3504
    22.4149  22.4149  23.9718  24.3574  25.8815  25.8815  26.2461  27.2877
    27.3635  27.9847  27.9847  28.1599  28.7005  29.3967  29.6442  29.6442
    30.2055  30.6084  30.7200  31.4250  31.8443  31.8443  33.6510  33.6510
    34.1120  34.3778  34.5704  36.1700  36.1700  36.9187  36.9187  36.9757
    38.1658  38.1901

          k = 0.0000 0.3030 0.1298 (  2660 PWs)   bands (ev):

   -51.1416 -51.1330 -18.3894 -18.3747 -18.3565 -18.3418 -18.3378 -18.3339
   -16.4756 -16.2376 -15.9929 -15.4149 -15.1391 -15.0698   2.2718   2.5530
     3.7379   4.4455   4.5188   4.8942   5.6089   5.7044   6.0146   6.1145
     6.3945   6.4733   6.5577   6.6640   6.6884   6.9280   8.4460   8.8748
    21.3848  21.6253  21.6449  21.7832  22.0063  22.0188  22.1429  22.2493
    22.2911  22.4628  23.9663  24.5248  26.0838  26.2611  26.4426  27.2776
    27.6618  28.0264  28.1854  28.3745  28.8131  29.0234  29.5653  29.9999
    30.2227  30.5811  30.7382  31.1198  31.8429  32.2218  33.1165  33.5060
    33.8483  34.3066  35.1279  35.7787  36.2783  36.2952  36.6225  37.0241
    37.7589  37.9601

          k = 0.0000 0.3030 0.2597 (  2658 PWs)   bands (ev):

   -51.1466 -51.1260 -18.3984 -18.3896 -18.3461 -18.3426 -18.3393 -18.3390
   -16.3841 -16.1537 -15.9769 -15.4255 -15.3236 -15.0749   2.2864   3.2361
     3.7304   4.5275   4.7491   4.8535   5.4976   5.5592   5.8928   6.1426
     6.3609   6.4132   6.5581   6.7215   6.7802   6.9328   7.3910   8.8675
    21.3646  21.5021  21.5727  21.6982  21.8630  21.9291  22.0649  22.0852
    22.2274  22.5285  24.1501  24.8914  26.6232  26.6251  26.9829  27.2115
    27.4441  28.6325  28.6507  28.8529  29.1643  29.4704  29.7278  29.8111
    30.0306  30.2241  30.6349  31.3070  32.2183  32.3578  32.6218  33.1884
    33.2813  34.1763  35.3192  35.3400  35.5833  36.0785  36.3400  36.6760
    37.1323  37.4200

          k = 0.0000 0.3030 0.3895 (  2654 PWs)   bands (ev):

   -51.1337 -51.1287 -18.3981 -18.3928 -18.3476 -18.3460 -18.3444 -18.3372
   -16.3067 -16.0963 -15.8557 -15.6026 -15.4030 -15.0783   2.2939   3.6002
     4.3674   4.6022   4.8733   4.9669   5.4627   5.5156   5.6852   5.8338
     6.0893   6.3542   6.4868   6.6786   6.7636   6.8291   6.9752   8.8549
    21.2576  21.2886  21.3833  21.7156  21.7688  21.8462  22.1299  22.1452
    22.1886  22.5731  24.5761  24.9999  26.3952  27.0402  27.2340  27.3408
    28.1620  28.5196  28.8865  28.9378  29.3234  29.5839  29.6536  29.8549
    30.1364  30.5077  30.5730  32.0481  32.4530  32.5229  32.6776  32.7183
    33.1509  33.9642  34.7711  35.0905  35.2203  35.7323  36.3024  36.3860
    36.4136  36.9981

          k = 0.0000-0.4544 0.0000 (  2666 PWs)   bands (ev):

   -51.1417 -51.1417 -18.3908 -18.3908 -18.3463 -18.3463 -18.3403 -18.3403
   -16.3671 -16.3671 -15.7268 -15.7268 -15.0702 -15.0702   2.2894   2.2894
     4.3996   4.3996   5.1417   5.1417   5.3986   5.3986   5.8200   5.8200
     6.2825   6.2825   6.4657   6.4657   6.7542   6.7542   8.8671   8.8671
    21.4523  21.4523  21.4736  21.4736  22.0835  22.0835  22.3098  22.3098
    22.4158  22.4158  24.1439  24.1439  26.2255  26.2255  27.1253  27.1253
    27.7583  27.7583  28.2355  28.2355  29.2771  29.2771  29.4727  29.4727
    30.3913  30.3913  31.3459  31.3459  31.8216  31.8216  33.7062  33.7062
    34.1434  34.1434  34.2478  34.2478  35.8753  35.8753  37.7757  37.7757
    38.2753  38.2754

          k = 0.0000-0.4544 0.1298 (  2666 PWs)   bands (ev):

   -51.1423 -51.1421 -18.3928 -18.3924 -18.3533 -18.3468 -18.3445 -18.3395
   -16.3498 -16.3131 -15.7370 -15.7185 -15.1411 -15.0724   2.2912   2.5475
     4.4478   4.4522   5.1356   5.1547   5.2915   5.4146   5.7136   5.9220
     6.0561   6.4158   6.4355   6.6313   6.6823   6.7617   8.4372   8.8664
    21.3328  21.4410  21.4693  21.6285  22.0617  22.0672  22.1328  22.2498
    22.2576  22.4757  24.2393  24.3080  26.4456  26.5332  27.1156  27.1228
    27.9215  28.0391  28.3194  28.4220  29.3305  29.3853  29.5819  29.7261
    30.0135  30.3751  31.0851  31.2371  31.6743  32.6058  33.0319  33.5007
    33.6616  34.0929  34.4827  35.0525  35.3601  36.0172  36.9226  37.4044
    37.6050  37.8712

          k = 0.0000-0.4544 0.2597 (  2658 PWs)   bands (ev):

   -51.1351 -51.1348 -18.3961 -18.3919 -18.3506 -18.3481 -18.3466 -18.3387
   -16.3083 -16.1616 -15.7609 -15.7036 -15.3286 -15.0776   2.2906   3.2797
     4.5535   4.5665   5.0465   5.1923   5.2332   5.4741   5.5562   5.7399
     6.0465   6.3674   6.5265   6.6349   6.7439   6.8094   7.3810   8.8560
    21.2538  21.3167  21.4247  21.7227  21.8282  21.8654  22.1109  22.1434
    22.1971  22.5572  24.5899  24.7230  26.5491  27.0312  27.0739  27.3800
    28.1478  28.4077  28.7831  28.9215  29.3582  29.5670  29.6605  29.9208
    29.9434  30.2408  30.6363  32.0061  32.0424  32.5314  32.7447  33.1744
    33.5842  33.7491  34.4024  34.9848  35.3556  36.1121  36.1938  36.3320
    36.6932  37.2438

          k = 0.0000-0.4544 0.3895 (  2662 PWs)   bands (ev):

   -51.1393 -51.1393 -18.4115 -18.4047 -18.3518 -18.3466 -18.3463 -18.3426
   -16.2746 -15.9424 -15.7825 -15.7319 -15.5359 -15.0809   2.3009   4.3127
     4.6169   4.7009   4.9525   5.2298   5.2479   5.4710   5.4962   5.5487
     5.7846   6.3119   6.3492   6.3908   6.7777   6.7885   6.8666   8.8441
    21.1433  21.1901  21.2186  21.6894  21.7814  21.7932  22.1654  22.1868
    22.1896  22.6110  25.1119  25.1485  26.0299  26.9883  27.1564  27.9699
    28.4812  28.6636  29.0010  29.0519  29.3319  29.3926  29.4454  29.7184
    30.2590  30.2637  32.0898  32.2969  32.3530  32.4255  33.1644  33.2002
    33.2912  33.6870  34.1489  34.7701  34.9908  35.3724  35.4321  36.2679
    36.3318  36.4121

          k = 0.1818 0.0000 0.0000 (  2661 PWs)   bands (ev):

   -51.1638 -51.1119 -18.3657 -18.3535 -18.3481 -18.3481 -18.3373 -18.3373
   -16.6375 -16.2314 -16.1348 -15.1991 -15.0627 -15.0627   2.1810   2.3331
     3.0214   4.4255   4.4255   4.6304   5.8587   5.8587   6.0085   6.1082
     6.4987   6.4987   6.5746   6.5938   6.5938   8.0728   8.8786   8.8786
    21.4357  21.6931  22.0289  22.0289  22.0524  22.1296  22.3237  22.4063
    22.4182  22.4182  23.9697  24.0498  25.4134  25.4134  26.4445  26.8809
    27.3074  27.4330  27.5715  27.5715  27.5937  28.7817  30.0336  30.0336
    30.3358  30.5806  30.8220  31.7490  32.2988  32.2988  33.5888  33.5888
    34.1763  35.0972  35.1979  36.2079  36.2079  36.7773  36.7773  37.6416
    37.6743  38.1497

          k = 0.1818 0.0000 0.1298 (  2667 PWs)   bands (ev):

   -51.1562 -51.1325 -18.3710 -18.3699 -18.3534 -18.3492 -18.3404 -18.3380
   -16.5941 -16.2065 -16.1281 -15.2015 -15.1348 -15.0651   2.2405   2.4910
     3.0351   4.4381   4.5252   4.6192   5.7421   5.7487   6.1093   6.2302
     6.4171   6.4443   6.5492   6.5602   6.6849   8.0618   8.4481   8.8786
    21.4900  21.7260  21.9508  21.9994  22.0280  22.0704  22.1650  22.2643
    22.3501  22.4419  23.9102  24.1606  25.6028  25.9018  26.6826  27.1058
    27.2791  27.4060  27.6557  27.7898  28.1000  28.7377  29.5880  29.8563
    30.4720  30.5148  31.0341  31.4407  32.4559  32.5043  33.3243  33.7658
    34.0314  34.4800  35.1951  36.1369  36.2938  36.3919  36.9207  37.3954
    37.6914  38.0523

          k = 0.1818 0.0000 0.2597 (  2659 PWs)   bands (ev):

   -51.1423 -51.1319 -18.3863 -18.3756 -18.3520 -18.3437 -18.3376 -18.3368
   -16.4841 -16.1978 -16.0444 -15.3336 -15.2021 -15.0699   2.2739   2.7670
     3.4266   4.4663   4.6047   4.7751   5.6098   5.6474   6.0860   6.1574
     6.4313   6.4462   6.4901   6.6616   6.7188   7.3524   8.0739   8.8728
    21.4311  21.7073  21.7234  21.8112  21.9570  22.0215  22.0276  22.1401
    22.2827  22.4789  23.9370  24.5844  26.0851  26.4142  26.6470  27.2168
    27.3572  28.2184  28.2917  28.3808  28.5913  29.0707  29.5806  29.8274
    30.2236  30.3392  30.6378  31.5273  32.0138  32.3747  32.9604  33.5729
    33.7448  34.2510  35.3286  35.7411  36.0183  36.1088  36.7628  37.1111
    37.4903  37.7644

          k = 0.1818 0.0000 0.3895 (  2660 PWs)   bands (ev):

   -51.1427 -51.1313 -18.3926 -18.3884 -18.3510 -18.3439 -18.3437 -18.3378
   -16.3650 -16.2436 -15.8534 -15.5943 -15.2047 -15.0741   2.2871   2.7874
     4.3723   4.4857   4.6999   5.0757   5.4258   5.6418   5.8641   5.9540
     6.0426   6.4199   6.4924   6.6232   6.6965   6.7652   8.0663   8.8705
    21.3224  21.4446  21.4898  21.7026  22.0055  22.0057  22.0622  22.1553
    22.2373  22.5059  24.2037  24.5884  26.5696  26.7382  26.7954  27.1713
    27.9122  28.3620  28.5286  28.6553  29.1094  29.4445  29.7185  29.8900
    29.9258  30.0247  31.2201  31.3742  31.7703  32.5057  32.7979  33.1870
    33.2252  34.3767  34.9856  35.3125  35.4862  35.9581  36.4935  36.8413
    37.3378  37.7310

          k = 0.1818 0.1515 0.0000 (  2672 PWs)   bands (ev):

   -51.1549 -51.1455 -18.3769 -18.3740 -18.3586 -18.3479 -18.3461 -18.3377
   -16.5796 -16.2006 -16.1225 -15.2035 -15.1594 -15.0658   2.2462   2.5523
     3.0465   4.4433   4.5592   4.6161   5.7190   5.7224   6.1193   6.2518
     6.3972   6.4292   6.5408   6.5622   6.6941   8.0575   8.3062   8.8745
    21.4938  21.7414  21.9267  21.9806  22.0071  22.0647  22.1205  22.2244
    22.3382  22.4477  23.8921  24.2255  25.6672  26.0173  26.7527  27.0346
    27.3847  27.4060  27.7338  27.8585  28.2964  28.7292  29.4995  29.8061
    30.4448  30.4951  31.0732  31.3984  32.4534  32.5133  33.2558  33.8089
    33.9937  34.3379  35.2012  36.1098  36.1995  36.3741  36.9159  37.4327
    37.6003  37.9058

          k = 0.1818 0.1515 0.1298 (  2665 PWs)   bands (ev):

   -51.1541 -51.1319 -18.3816 -18.3634 -18.3562 -18.3483 -18.3439 -18.3413
   -16.5365 -16.1658 -16.1272 -15.2049 -15.1629 -15.1362   2.4666   2.5772
     3.0429   4.5422   4.5722   4.6235   5.4653   5.9652   6.0437   6.2755
     6.3698   6.4327   6.4881   6.6282   6.6697   8.0597   8.3002   8.4509
    21.6020  21.7164  21.8759  21.8961  21.9883  22.0403  22.0699  22.1998
    22.2548  22.3031  23.8425  24.4021  26.0622  26.1726  27.0021  27.2759
    27.4571  27.6937  27.9584  28.0035  28.2874  28.6537  29.3629  29.4880
    30.4942  30.7836  31.0372  31.5003  32.3454  32.4840  33.1727  33.2529
    33.7545  34.8496  35.0684  35.9444  36.0345  36.1466  36.2144  37.3664
    37.4882  37.7943

          k = 0.1818 0.1515 0.2597 (  2655 PWs)   bands (ev):

   -51.1489 -51.1155 -18.3903 -18.3674 -18.3530 -18.3463 -18.3422 -18.3346
   -16.4279 -16.1568 -16.0467 -15.3351 -15.2056 -15.1652   2.5987   2.7933
     3.3945   4.5956   4.6375   4.7931   5.2954   5.9277   6.0260   6.1385
     6.3292   6.4642   6.5587   6.6294   6.6964   7.3698   8.0727   8.3030
    21.5452  21.6152  21.7609  21.8519  21.8636  21.9473  21.9790  22.0827
    22.1966  22.2879  23.9654  24.7915  26.4648  26.6763  26.9471  27.5595
    27.7821  28.1727  28.4658  28.5003  28.7347  28.9837  29.1109  29.8292
    30.4729  30.6597  30.9948  31.3325  31.8326  32.3407  32.6307  32.7465
    34.0454  34.5101  35.1276  35.3937  35.6131  35.8123  35.9336  37.1247
    37.5092  37.6719

          k = 0.1818 0.1515 0.3895 (  2655 PWs)   bands (ev):

   -51.1337 -51.1283 -18.3917 -18.3887 -18.3527 -18.3507 -18.3384 -18.3335
   -16.3063 -16.2104 -15.8524 -15.5952 -15.2076 -15.1689   2.6351   2.7933
     4.3409   4.5967   4.7516   5.0728   5.2104   5.7916   5.8138   5.9411
     6.1392   6.2421   6.6157   6.6438   6.6743   6.7062   8.0692   8.2961
    21.3608  21.3762  21.6482  21.7302  21.8991  21.9478  21.9973  22.0413
    22.2221  22.3176  24.3324  24.7744  26.8454  26.9978  27.0422  27.5785
    28.1921  28.4382  28.5536  28.6240  29.2135  29.2773  29.8437  30.0175
    30.0830  30.5053  30.7245  31.2823  32.1762  32.2075  32.4212  32.6464
    33.5820  34.7971  34.8510  35.0141  35.1108  35.4177  35.9114  36.3979
    37.4193  37.7056

          k = 0.1818 0.3030 0.0000 (  2656 PWs)   bands (ev):

   -51.1444 -51.1231 -18.3931 -18.3759 -18.3485 -18.3421 -18.3375 -18.3361
   -16.4421 -16.2088 -15.9905 -15.4165 -15.2032 -15.0714   2.2814   2.7853
     3.7246   4.4741   4.6041   4.8774   5.5565   5.6395   6.0396   6.0843
     6.4460   6.4546   6.4869   6.6943   6.7254   6.9377   8.0717   8.8701
    21.3920  21.6079  21.6098  21.7799  21.9818  22.0174  22.0243  22.1418
    22.2640  22.4899  24.0062  24.6636  26.2684  26.4657  26.6804  27.2353
    27.5210  28.3565  28.4703  28.5520  28.8368  29.0722  29.5169  30.0113
[...]
    16.2367  16.3112  18.4233  18.6201  20.6480  20.9154  21.1327  21.1756
    21.4502  21.5334  21.7701  21.9753  22.3702  22.4944  22.5474  22.9170
    23.1724  23.6447  23.7516  24.0473  24.2899  24.4875  24.9173  25.0109
    26.3028  26.4811  26.8748  27.1370  27.2329  27.3574  27.4896  28.2992
    28.3942  28.7597

          k = 0.1683 0.2805 0.3607 (  4461 PWs)   bands (ev):

   -57.8258 -57.8247 -24.7727 -24.7708 -24.7591 -24.7549 -24.7491 -24.7479
   -23.1645 -23.0838 -22.9779 -22.8514 -22.7606 -22.6655  -3.1136  -2.6099
    -2.1362  -1.7934  -1.7777  -1.6888  -1.5600  -1.2935  -1.2604  -1.2423
    -1.0985  -1.0317  -0.9296  -0.8478  -0.8360  -0.8080  -0.6184   0.0035
    15.8088  15.8357  15.9293  16.0225  16.0725  16.1247  16.1304  16.1792
    16.1883  16.3253  18.6901  18.8287  20.5272  21.0724  21.2628  21.3454
    21.4993  21.7885  21.9558  22.0693  22.4366  22.7175  22.8382  23.1321
    23.3873  23.4594  23.7384  24.1418  24.3554  24.6672  24.8782  25.1186
    25.7721  26.4149  26.5157  26.7920  26.8490  27.3176  27.4085  27.6633
    27.9267  28.4078

          k = 0.1683-0.4208 0.0000 (  4440 PWs)   bands (ev):

   -57.8204 -57.8204 -24.7668 -24.7665 -24.7486 -24.7476 -24.7453 -24.7434
   -23.2247 -23.1799 -22.9190 -22.9094 -22.6634 -22.6022  -3.4167  -3.1113
    -1.9527  -1.9278  -1.6562  -1.6365  -1.5895  -1.4680  -1.3397  -1.1775
    -1.1773  -0.9629  -0.8938  -0.8619  -0.8157  -0.7874   0.0040   0.4330
    15.8052  15.8647  15.8687  16.0100  16.1706  16.1889  16.2121  16.2846
    16.3433  16.4383  18.3471  18.3605  20.4409  20.4530  20.6754  20.8423
    21.0332  21.3391  21.7156  21.8660  22.6032  22.7062  22.8892  23.0063
    23.0203  23.2801  23.7382  24.0701  24.3947  25.0248  25.4778  25.5847
    25.8269  25.8348  26.6885  27.0525  27.4515  27.6647  28.1974  28.2872
    28.6069  29.0561

          k = 0.1683-0.4208 0.1202 (  4440 PWs)   bands (ev):

   -57.8204 -57.8203 -24.7659 -24.7657 -24.7496 -24.7496 -24.7454 -24.7448
   -23.1969 -23.1751 -22.9168 -22.9124 -22.6640 -22.6347  -3.2600  -3.1120
    -1.9292  -1.9165  -1.6518  -1.6415  -1.5791  -1.5341  -1.2813  -1.2459
    -1.0919  -1.0329  -0.8599  -0.8457  -0.8304  -0.8167   0.0052   0.2083
    15.8187  15.8275  15.9532  16.0019  16.1426  16.1572  16.2070  16.2557
    16.2932  16.3612  18.4452  18.4513  20.5654  20.6606  20.8927  20.9901
    21.1303  21.4078  21.7741  21.8414  22.4436  22.6296  23.0153  23.1096
    23.1220  23.2387  23.7301  23.9785  24.6872  24.9195  25.1857  25.2173
    25.8869  25.9064  26.9127  27.0794  27.2386  27.3125  27.9302  27.9584
    28.7247  29.0580

          k = 0.1683-0.4208 0.2405 (  4450 PWs)   bands (ev):

   -57.8230 -57.8229 -24.7712 -24.7709 -24.7529 -24.7523 -24.7464 -24.7463
   -23.1641 -23.1186 -22.9196 -22.9122 -22.7232 -22.6652  -3.1122  -2.8118
    -1.9004  -1.8695  -1.6848  -1.6593  -1.5809  -1.5168  -1.2719  -1.2712
    -1.0887  -1.0464  -0.9065  -0.8474  -0.8369  -0.8128  -0.3835   0.0036
    15.8136  15.8229  15.9535  16.0316  16.0664  16.1211  16.1496  16.1845
    16.2188  16.3189  18.6941  18.7013  20.5917  20.9569  21.2291  21.2617
    21.4616  21.7714  22.0261  22.0748  22.2514  22.4259  23.0123  23.1816
    23.3049  23.3298  23.7855  24.0962  24.6438  24.7934  25.0284  25.1690
    25.7068  25.7803  26.6825  26.8252  26.9631  27.3600  27.4680  27.6482
    28.2451  28.8137

          k = 0.1683-0.4208 0.3607 (  4464 PWs)   bands (ev):

   -57.8261 -57.8261 -24.7746 -24.7741 -24.7562 -24.7549 -24.7513 -24.7511
   -23.1547 -23.0071 -22.9259 -22.9141 -22.8372 -22.6662  -3.1133  -2.1553
    -1.8956  -1.8003  -1.7477  -1.6747  -1.5984  -1.4079  -1.3653  -1.2923
    -1.2153  -1.0580  -0.9883  -0.9780  -0.8280  -0.8251  -0.8023   0.0035
    15.7655  15.8106  15.8348  16.0508  16.0601  16.0978  16.1521  16.1651
    16.1683  16.3406  18.9724  18.9746  20.3136  21.0253  21.3248  21.4959
    21.6088  22.1623  22.1642  22.3895  22.4171  22.7792  22.8069  23.0756
    23.3279  23.4452  23.7243  24.1378  24.8872  25.2061  25.2252  25.3234
    25.5701  25.7332  26.4311  26.4859  26.5969  26.8062  26.9227  27.5972
    27.7549  28.0251

          k = 0.3366 0.0000 0.0000 (  4440 PWs)   bands (ev):

   -57.8253 -57.8148 -24.7600 -24.7530 -24.7530 -24.7505 -24.7467 -24.7467
   -23.2670 -23.2069 -22.9997 -22.8206 -22.6010 -22.6010  -3.4428  -3.3900
    -2.2041  -1.9815  -1.9815  -1.6481  -1.3771  -1.2553  -1.2553  -1.0442
    -1.0403  -0.9397  -0.9190  -0.9190  -0.8148  -0.8148   0.4353   0.4353
    15.7985  15.9430  15.9631  15.9631  16.1785  16.2145  16.3130  16.3650
    16.4269  16.4269  18.1203  18.1615  20.0637  20.2626  20.2626  20.7458
    20.8153  21.4265  21.5175  21.5175  22.3506  22.6425  22.7880  22.7880
    23.1771  23.5969  23.8099  24.0338  24.0338  24.1520  25.8683  26.1831
    26.1831  26.6066  26.7090  27.2019  27.9137  27.9138  28.7448  28.7449
    29.3791  29.7802

          k = 0.3366 0.0000 0.1202 (  4454 PWs)   bands (ev):

   -57.8238 -57.8223 -24.7673 -24.7653 -24.7538 -24.7510 -24.7474 -24.7452
   -23.2515 -23.1895 -23.0002 -22.8213 -22.6335 -22.6016  -3.4213  -3.2561
    -2.2242  -1.9563  -1.9266  -1.6606  -1.4161  -1.3088  -1.2003  -1.0991
    -1.0562  -0.9405  -0.9369  -0.8402  -0.8370  -0.8090   0.2082   0.4338
    15.8073  15.9148  15.9355  16.0138  16.1626  16.1972  16.2584  16.3412
    16.3528  16.4299  18.2138  18.2337  20.1299  20.4190  20.4936  20.7787
    21.1122  21.3204  21.5171  21.6861  22.4444  22.5850  22.7291  22.9817
    23.2301  23.2896  23.8225  23.8919  24.0145  24.6595  25.6663  25.7215
    26.2069  26.4177  27.0868  27.1833  27.5497  27.9137  28.3165  28.4097
    29.0382  29.1868

          k = 0.3366 0.0000 0.2405 (  4458 PWs)   bands (ev):

   -57.8280 -57.8203 -24.7751 -24.7690 -24.7545 -24.7507 -24.7488 -24.7447
   -23.2262 -23.1265 -22.9995 -22.8238 -22.7211 -22.6027  -3.4192  -2.8136
    -2.2498  -1.8899  -1.8112  -1.6980  -1.4343  -1.3853  -1.2446  -1.1504
    -1.0814  -0.9780  -0.8893  -0.8530  -0.7970  -0.7730  -0.3871   0.4332
    15.7940  15.8399  15.8826  16.0383  16.1230  16.1502  16.1930  16.2306
    16.3512  16.4454  18.3889  18.5037  20.2176  20.6013  20.8532  21.0126
    21.1271  21.5746  22.0892  22.2233  22.3338  22.5582  22.7642  22.7739
    23.2073  23.2993  23.7471  23.9396  24.6011  24.9324  25.2665  25.5199
    25.5299  26.2816  26.7789  27.1329  27.2545  27.6866  27.8211  28.1436
    28.2418  28.7220

          k = 0.3366 0.0000 0.3607 (  4450 PWs)   bands (ev):

   -57.8235 -57.8222 -24.7762 -24.7712 -24.7550 -24.7480 -24.7449 -24.7444
   -23.2111 -23.0485 -22.9705 -22.8620 -22.8057 -22.6036  -3.4179  -2.3114
    -2.1139  -1.8170  -1.7225  -1.7093  -1.4239  -1.4174  -1.3668  -1.2803
    -1.1837  -1.0167  -0.9649  -0.9094  -0.7969  -0.7826  -0.7465   0.4332
    15.7338  15.7594  15.7910  16.0505  16.0868  16.1020  16.2237  16.2302
    16.3464  16.4648  18.6412  18.7268  20.0104  20.5118  21.1132  21.3920
    21.4516  21.8435  21.8951  22.4390  22.5381  22.5824  22.9061  23.0307
    23.1781  23.2710  23.9685  24.3441  25.0423  25.1061  25.1724  25.3290
    25.4374  25.5407  26.3142  26.8891  26.9109  27.1579  27.2748  28.0911
    28.2091  28.2858

          k = 0.3366 0.1403 0.0000 (  4456 PWs)   bands (ev):

   -57.8247 -57.8223 -24.7686 -24.7656 -24.7544 -24.7522 -24.7473 -24.7456
   -23.2470 -23.1825 -23.0003 -22.8215 -22.6448 -22.6017  -3.4205  -3.2006
    -2.2297  -1.9479  -1.9095  -1.6655  -1.4229  -1.3224  -1.1881  -1.1220
    -1.0600  -0.9427  -0.9254  -0.8483  -0.8253  -0.8066   0.1296   0.4331
    15.8080  15.9118  15.9246  16.0221  16.1586  16.1926  16.2392  16.3165
    16.3523  16.4314  18.2339  18.2714  20.1557  20.4741  20.5497  20.7886
    21.1540  21.3499  21.5421  21.7422  22.4747  22.5692  22.7152  22.9814
    23.2125  23.2440  23.8469  23.9621  23.9969  24.7195  25.6321  25.6341
    26.0875  26.4558  27.0465  27.2889  27.4422  27.8464  28.2638  28.2967
    28.9144  29.1209

          k = 0.3366 0.1403 0.1202 (  4441 PWs)   bands (ev):

   -57.8210 -57.8200 -24.7655 -24.7652 -24.7558 -24.7468 -24.7433 -24.7422
   -23.2261 -23.1706 -23.0008 -22.8219 -22.6454 -22.6341  -3.2692  -3.1939
    -2.2435  -1.9032  -1.8830  -1.6650  -1.5088  -1.2487  -1.2284  -1.0805
    -1.0701  -1.0279  -0.8578  -0.8473  -0.8287  -0.8229   0.1296   0.2081
    15.8279  15.8772  15.9809  16.0213  16.1319  16.1651  16.2209  16.2801
    16.3238  16.3556  18.2978  18.3838  20.2877  20.6554  20.7430  21.1274
    21.2096  21.3104  21.5236  21.7544  22.4247  22.5438  22.6697  23.1293
    23.2730  23.3703  23.6578  23.9075  24.1854  24.7802  25.2041  25.4534
    26.0871  26.8090  26.9311  27.0664  27.3894  27.5479  27.9041  28.1933
    28.8614  29.0882

          k = 0.3366 0.1403 0.2405 (  4450 PWs)   bands (ev):

   -57.8233 -57.8221 -24.7712 -24.7693 -24.7577 -24.7506 -24.7451 -24.7432
   -23.1911 -23.1170 -23.0008 -22.8238 -22.7224 -22.6465  -3.2056  -2.8122
    -2.2631  -1.8330  -1.8021  -1.6854  -1.5682  -1.2671  -1.2396  -1.1290
    -1.0883  -1.0132  -0.8925  -0.8394  -0.8277  -0.7998  -0.3838   0.1291
    15.8370  15.8387  15.9550  16.0297  16.0910  16.1362  16.1480  16.2086
    16.2369  16.3508  18.4946  18.6550  20.4868  21.0077  21.0539  21.1637
    21.3018  21.6274  21.9029  22.0417  22.3708  22.5841  22.7108  23.0498
    23.3108  23.4413  23.7953  24.0336  24.3440  24.6981  24.8696  25.1366
    25.9226  26.5620  26.7684  26.9366  27.0557  27.4055  27.5191  27.9935
    28.2494  28.7056

          k = 0.3366 0.1403 0.3607 (  4464 PWs)   bands (ev):

   -57.8260 -57.8258 -24.7772 -24.7719 -24.7564 -24.7540 -24.7512 -24.7486
   -23.1741 -23.0410 -22.9715 -22.8595 -22.8102 -22.6475  -3.2055  -2.3064
    -2.1290  -1.7644  -1.7524  -1.7305  -1.5109  -1.3420  -1.3107  -1.2527
    -1.1541  -1.0381  -0.9627  -0.9161  -0.8204  -0.8124  -0.7851   0.1283
    15.7662  15.8078  15.8504  16.0347  16.0797  16.1089  16.1712  16.1810
    16.2102  16.3716  18.7721  18.8766  20.3011  21.0735  21.0937  21.4198
    21.5221  21.9535  21.9740  22.3091  22.5026  22.7174  22.9626  23.0740
    23.3156  23.4228  23.8643  24.1247  24.3827  24.9320  25.0991  25.2586
    25.6027  26.2822  26.3866  26.7114  26.8530  26.9295  27.1634  27.6768
    27.9495  28.1238

          k = 0.3366 0.2805 0.0000 (  4452 PWs)   bands (ev):

   -57.8247 -57.8214 -24.7741 -24.7730 -24.7521 -24.7471 -24.7468 -24.7450
   -23.2197 -23.0971 -22.9968 -22.8268 -22.7571 -22.6031  -3.4187  -2.6165
    -2.2506  -1.8626  -1.7729  -1.7110  -1.4294  -1.4037  -1.2912  -1.1548
    -1.0926  -0.9924  -0.9040  -0.8283  -0.7908  -0.7608  -0.6247   0.4335
    15.7822  15.7987  15.8533  16.0384  16.1082  16.1272  16.2046  16.2236
    16.3496  16.4528  18.4719  18.5984  20.1679  20.5615  21.0374  21.0384
    21.2922  21.6470  22.0727  22.2404  22.5313  22.6260  22.7573  22.8564
    23.3055  23.3534  23.5661  23.9716  24.8918  25.0428  25.1655  25.3532
    25.4739  25.9784  26.7342  27.0945  27.1303  27.4811  27.7084  27.9512
    28.2519  28.5810

          k = 0.3366 0.2805 0.1202 (  4457 PWs)   bands (ev):

   -57.8254 -57.8230 -24.7731 -24.7727 -24.7552 -24.7536 -24.7478 -24.7444
   -23.1930 -23.0907 -22.9980 -22.8262 -22.7587 -22.6355  -3.2613  -2.6140
    -2.2621  -1.8196  -1.7752  -1.7086  -1.5398  -1.2920  -1.2781  -1.1433
    -1.0909  -1.0122  -0.9089  -0.8325  -0.8174  -0.7862  -0.6208   0.2072
    15.8069  15.8187  15.9052  16.0274  16.0930  16.1325  16.1655  16.1938
    16.2513  16.3823  18.5554  18.7114  20.3855  20.9594  21.0179  21.2271
    21.3595  21.7091  21.9645  22.0946  22.5807  22.6814  22.8271  22.9583
    23.3081  23.4183  23.6597  24.0348  24.5018  24.8013  24.9177  25.1645
    25.7587  26.3665  26.7332  26.9373  26.9436  27.4130  27.6103  27.7382
    28.0820  28.4855

          k = 0.3366 0.2805 0.2405 (  4459 PWs)   bands (ev):

   -57.8263 -57.8237 -24.7706 -24.7675 -24.7578 -24.7556 -24.7535 -24.7499
   -23.1214 -23.0703 -23.0019 -22.8252 -22.7625 -22.7242  -2.8135  -2.6086
    -2.2776  -1.8085  -1.7685  -1.6561  -1.5852  -1.2653  -1.1879  -1.1524
    -1.1131  -1.0111  -0.9248  -0.8742  -0.8480  -0.8389  -0.6155  -0.3823
    15.8512  15.8874  15.9869  15.9988  16.0490  16.0710  16.0759  16.1310
    16.1760  16.2281  18.8040  18.9984  20.8515  21.0796  21.4363  21.4925
    21.5842  21.9515  21.9926  22.2204  22.2511  22.7108  22.7785  23.2286
    23.4782  23.6145  24.0009  24.0383  24.1201  24.3715  24.7426  24.8827
    26.0533  26.4027  26.6626  26.7544  26.9500  27.0014  27.2247  27.6855
    27.9635  28.2722

          k = 0.3366 0.2805 0.3607 (  4460 PWs)   bands (ev):

   -57.8273 -57.8235 -24.7713 -24.7665 -24.7589 -24.7581 -24.7553 -24.7504
   -23.0727 -23.0206 -22.9772 -22.8540 -22.8198 -22.7640  -2.6078  -2.2940
    -2.1421  -1.8195  -1.8162  -1.6067  -1.5126  -1.3133  -1.2633  -1.1650
    -1.1236  -1.0464  -0.9666  -0.9344  -0.8883  -0.8824  -0.8689  -0.6152
    15.8556  15.8964  15.9645  15.9826  16.0223  16.0542  16.0664  16.0920
    16.1232  16.1744  19.1403  19.2575  20.8932  21.0756  21.5110  21.6034
    21.7592  21.9102  22.2039  22.2398  22.6134  22.7808  22.9872  23.0188
    23.4541  23.7804  24.0895  24.2004  24.3345  24.7129  24.7978  24.8598
    25.9038  26.3517  26.5424  26.7036  26.7563  26.9687  26.9983  27.1441
    27.5879  27.8401

          k = 0.3366-0.4208 0.0000 (  4452 PWs)   bands (ev):

   -57.8234 -57.8234 -24.7738 -24.7735 -24.7536 -24.7515 -24.7454 -24.7453
   -23.2091 -23.0389 -22.9294 -22.9101 -22.8105 -22.6038  -3.4181  -2.2947
    -1.9160  -1.8041  -1.7053  -1.6320  -1.5743  -1.4247  -1.4053  -1.3909
    -1.1956  -1.0233  -0.9867  -0.9173  -0.7904  -0.7788  -0.7437   0.4327
    15.7170  15.7519  15.7741  16.0613  16.0757  16.0969  16.2277  16.2348
    16.3454  16.4679  18.7234  18.7281  19.9580  20.5013  21.1292  21.4747
    21.5109  21.8119  21.9633  22.4025  22.5700  22.6732  22.9157  22.9458
    23.1879  23.2044  23.9826  24.9937  25.0157  25.0434  25.2146  25.3210
    25.4176  25.5216  25.7567  26.7879  26.8747  27.1150  27.2871  28.1007
    28.1351  28.1504

          k = 0.3366-0.4208 0.1202 (  4456 PWs)   bands (ev):

   -57.8243 -57.8242 -24.7720 -24.7715 -24.7534 -24.7516 -24.7506 -24.7505
   -23.1816 -23.0343 -22.9270 -22.9109 -22.8134 -22.6362  -3.2609  -2.2952
    -1.9049  -1.8069  -1.7198  -1.6348  -1.6154  -1.4348  -1.3640  -1.3253
    -1.1657  -1.0404  -0.9796  -0.9229  -0.8112  -0.8014  -0.7739   0.2057
    15.7452  15.7852  15.8195  16.0582  16.0600  16.1074  16.1876  16.1981
    16.2367  16.3984  18.8284  18.8332  20.1785  20.9349  21.0881  21.4516
    21.5320  21.9769  22.0113  22.4146  22.5682  22.8059  22.8073  23.0550
    23.1907  23.3353  23.9136  24.1551  24.8732  25.1449  25.1711  25.4075
    25.5884  25.6382  26.1502  26.7068  26.8339  26.9336  27.1331  27.8217
    27.8869  28.1649

          k = 0.3366-0.4208 0.2405 (  4466 PWs)   bands (ev):

   -57.8267 -57.8265 -24.7715 -24.7713 -24.7579 -24.7575 -24.7545 -24.7542
   -23.1037 -23.0228 -22.9217 -22.9141 -22.8195 -22.7255  -2.8110  -2.2924
    -1.8803  -1.8318  -1.7561  -1.7231  -1.5328  -1.4203  -1.2927  -1.2325
    -1.1104  -1.0760  -0.9681  -0.9445  -0.8676  -0.8616  -0.8514  -0.3827
    15.8237  15.8612  15.9200  16.0218  16.0248  16.0767  16.1000  16.1015
    16.1313  16.2292  19.1262  19.1282  20.6715  21.0425  21.5347  21.6128
    22.0023  22.0059  22.0729  22.2521  22.2828  22.8735  22.8952  23.0231
    23.4020  23.7913  23.7928  23.9917  24.6616  24.9423  25.0888  25.2002
    25.6177  25.8068  26.6073  26.7492  26.7844  26.8661  26.8673  27.3214
    27.4116  28.1164

          k = 0.3366-0.4208 0.3607 (  4466 PWs)   bands (ev):

   -57.8259 -57.8259 -24.7655 -24.7655 -24.7601 -24.7599 -24.7591 -24.7588
   -23.0120 -22.9888 -22.9189 -22.9176 -22.8492 -22.8239  -2.2885  -2.1457
    -1.8686  -1.8607  -1.7734  -1.7688  -1.5079  -1.4440  -1.2199  -1.1905
    -1.1077  -1.0934  -0.9894  -0.9772  -0.9538  -0.9379  -0.9342  -0.9066
    15.9015  15.9144  15.9712  15.9741  16.0084  16.0290  16.0496  16.0549
    16.0821  16.0952  19.4829  19.4833  21.0423  21.0978  21.5240  21.5303
    21.6210  21.6594  22.4468  22.4645  22.7366  22.7387  22.8604  22.9172
    23.8449  24.1095  24.3320  24.4707  24.6002  24.6715  25.0526  25.1296
    25.6840  25.7222  26.5534  26.6188  26.7235  26.8335  26.9245  27.1931
    27.2888  27.3590

     the Fermi energy is    25.0160 ev

!    total energy              =   -1183.44463871 Ry
     Harris-Foulkes estimate   =   -1183.44463907 Ry
     estimated scf accuracy    <       0.00000052 Ry

     The total energy is the sum of the following terms:

     one-electron contribution =     -88.28312550 Ry
     hartree contribution      =     140.52948093 Ry
     xc contribution           =    -127.35094183 Ry
     ewald contribution        =   -1107.95863804 Ry
     smearing contrib. (-TS)   =      -0.38141427 Ry

     convergence has been achieved in  10 iterations

     Forces acting on atoms (Ry/au):

     atom    1 type  1   force =     0.00000000    0.00000000    0.00000000
     atom    2 type  1   force =     0.00000000    0.00000000    0.00000000
     atom    3 type  1   force =     0.00000000    0.00000000    0.00000000
     atom    4 type  1   force =     0.00000000    0.00000000    0.00000000
     atom    5 type  1   force =     0.00000000    0.00000000    0.00000000
     atom    6 type  1   force =     0.00000000    0.00000000    0.00000000
     atom    7 type  2   force =     0.00000000    0.00000000    0.00000000
     atom    8 type  2   force =     0.00000000    0.00000000    0.00000000

     Total force =     0.000000     Total SCF correction =     0.000000


     entering subroutine stress ...

          total   stress  (Ry/bohr**3)                   (kbar)     P=  229.78
   0.00156198   0.00000000   0.00000000        229.78      0.00      0.00
   0.00000000   0.00156198   0.00000000          0.00    229.78      0.00
   0.00000000   0.00000000   0.00156198          0.00      0.00    229.78


     Writing output data file Prototype-La-cP8-Cr3Si.save
 
     init_run     :      6.25s CPU      8.07s WALL (       2 calls)
     electrons    :   1103.98s CPU   1276.27s WALL (       5 calls)
     update_pot   :      1.55s CPU      1.58s WALL (       3 calls)
     forces       :      4.49s CPU      4.95s WALL (       5 calls)
     stress       :     12.37s CPU     12.82s WALL (       5 calls)

     Called by init_run:
     wfcinit      :      5.61s CPU      7.41s WALL (       2 calls)
     potinit      :      0.24s CPU      0.24s WALL (       2 calls)

     Called by electrons:
     c_bands      :   1068.92s CPU   1214.06s WALL (      42 calls)
     sum_band     :     34.74s CPU     42.06s WALL (      42 calls)
     v_of_rho     :      0.06s CPU      0.07s WALL (      47 calls)
     mix_rho      :      0.06s CPU      0.07s WALL (      42 calls)

     Called by c_bands:
     init_us_2    :      2.73s CPU      3.45s WALL (    4608 calls)
     ccgdiagg     :    967.52s CPU   1078.40s WALL (    2305 calls)
     wfcrot       :    104.09s CPU    136.28s WALL (    2353 calls)

     Called by *cgdiagg:
     h_psi        :    760.59s CPU    880.82s WALL (  894989 calls)
     cdiaghg      :      4.91s CPU      5.21s WALL (    2353 calls)

     Called by h_psi:
     add_vuspsi   :     84.86s CPU     94.27s WALL (  894989 calls)

     General routines
     calbec       :    269.16s CPU    276.10s WALL ( 1788105 calls)
     fft          :      0.13s CPU      0.14s WALL (     211 calls)
     fftw         :    499.54s CPU    576.19s WALL ( 2282700 calls)
     davcio       :      1.89s CPU      5.73s WALL (    6624 calls)
 
     Parallel routines
     fft_scatter  :    230.14s CPU    263.35s WALL ( 2282911 calls)
 
     PWSCF        : 18m49.34s CPU    21m47.90s WALL

 
   This run was terminated on:  17:52:50  22Mar2018            

=------------------------------------------------------------------------------=
   JOB DONE.
=------------------------------------------------------------------------------=
