
     Program PWSCF v.5.0.2 starts on 22Mar2018 at 22:45:37 

     This program is part of the open-source Quantum ESPRESSO suite
     for quantum simulation of materials; please cite
         "P. Giannozzi et al., J. Phys.:Condens. Matter 21 395502 (2009);
          URL http://www.quantum-espresso.org", 
     in publications or presentations arising from this work. More details at
     http://www.quantum-espresso.org/quote.php

     Parallel version (MPI), running on     4 processors
     R & G space division:  proc/nbgrp/npool/nimage =       4

     Current dimensions of program PWSCF are:
     Max number of different atomic species (ntypx) = 10
     Max number of k-points (npk) =  40000
     Max angular momentum in pseudopotentials (lmaxx) =  3
     Waiting for input...
     Reading input from standard input

     Subspace diagonalization in iterative solution of the eigenvalue problem:
     a serial algorithm will be used

 
     Parallelization info
     --------------------
     sticks:   dense  smooth     PW     G-vecs:    dense   smooth      PW
     Min         396     396    112                10116    10116    1566
     Max         397     397    113                10119    10119    1567
     Sum        1585    1585    451                40467    40467    6267
 


     bravais-lattice index     =            0
     lattice parameter (alat)  =      12.0168  a.u.
     unit-cell volume          =    1187.3413 (a.u.)^3
     number of atoms/cell      =            8
     number of atomic types    =            2
     number of electrons       =       160.00
     number of Kohn-Sham states=           96
     kinetic-energy cutoff     =      40.0000  Ry
     charge density cutoff     =     160.0000  Ry
     convergence threshold     =      1.0E-04
     mixing beta               =       0.7000
     number of iterations used =            8  plain     mixing
     Exchange-correlation      = SLA-PZ-NOGX-NOGC ( 1 1 0 0 0)
     EXX-fraction              =        0.00
     nstep                     =           50


     celldm(1)=  12.016801  celldm(2)=   0.000000  celldm(3)=   0.000000
     celldm(4)=   0.000000  celldm(5)=   0.000000  celldm(6)=   0.000000

     crystal axes: (cart. coord. in units of alat)
               a(1) = (   1.000000   0.000000   0.000000 )  
               a(2) = (  -0.500000   0.866025   0.000000 )  
               a(3) = (   0.000000   0.000000   0.790093 )  

     reciprocal axes: (cart. coord. in units 2 pi/alat)
               b(1) = (  1.000000  0.577350  0.000000 )  
               b(2) = (  0.000000  1.154701  0.000000 )  
               b(3) = (  0.000000  0.000000  1.265674 )  


     PseudoPot. # 1 for Er read from file:
     /home/cwx6513/pp.La/Er.UPF
     MD5 check sum: e152ae21b84514339d8526f066caf99b
     Pseudo is Norm-conserving, Zval = 22.0
     Generated in analytical, separable form
     Using radial grid of 1267 points,  6 beta functions with: 
                l(1) =   0
                l(2) =   0
                l(3) =   1
                l(4) =   1
                l(5) =   2
                l(6) =   3

     PseudoPot. # 2 for Nd read from file:
     /home/cwx6513/pp.La/Nd.UPF
     MD5 check sum: c66c5b6abe7b5840ced9b1e244e3bed6
     Pseudo is Norm-conserving, Zval = 14.0
     Generated in analytical, separable form
     Using radial grid of 1257 points,  6 beta functions with: 
                l(1) =   0
                l(2) =   0
                l(3) =   1
                l(4) =   1
                l(5) =   2
                l(6) =   3

     atomic species   valence    mass     pseudopotential
        Mg            22.00    24.30500     Er( 1.00)
        Cd            14.00   112.41100     Nd( 1.00)

     24 Sym. Ops., with inversion, found (12 have fractional translation)



   Cartesian axes

     site n.     atom                  positions (alat units)
         1           Mg  tau(   1) = (   0.2478935   0.7204716   0.1975233  )
         2           Mg  tau(   2) = (   0.7478935   0.1455538   0.5925699  )
         3           Mg  tau(   3) = (   0.2521065   0.1455538   0.5925699  )
         4           Mg  tau(   4) = (  -0.2478935   0.7204716   0.1975233  )
         5           Mg  tau(   5) = (   0.0000000   0.2911075   0.1975233  )
         6           Mg  tau(   6) = (   0.5000000   0.5749179   0.5925699  )
         7           Cd  tau(   7) = (   0.5000005   0.2886748   0.1975233  )
         8           Cd  tau(   8) = (  -0.0000005   0.5773506   0.5925699  )

     number of k points=    64  gaussian smearing, width (Ry)=  0.1000
                       cart. coord. in units 2pi/alat
        k(    1) = (   0.0000000   0.0000000   0.0000000), wk =   0.0095238
        k(    2) = (   0.0000000   0.0000000   0.1808105), wk =   0.0190476
        k(    3) = (   0.0000000   0.0000000   0.3616210), wk =   0.0190476
        k(    4) = (   0.0000000   0.0000000   0.5424315), wk =   0.0190476
        k(    5) = (   0.0000000   0.1924501   0.0000000), wk =   0.0190476
        k(    6) = (   0.0000000   0.1924501   0.1808105), wk =   0.0380952
        k(    7) = (   0.0000000   0.1924501   0.3616210), wk =   0.0380952
        k(    8) = (   0.0000000   0.1924501   0.5424315), wk =   0.0380952
        k(    9) = (   0.0000000   0.3849002   0.0000000), wk =   0.0190476
        k(   10) = (   0.0000000   0.3849002   0.1808105), wk =   0.0380952
        k(   11) = (   0.0000000   0.3849002   0.3616210), wk =   0.0380952
        k(   12) = (   0.0000000   0.3849002   0.5424315), wk =   0.0380952
        k(   13) = (   0.0000000  -0.5773503   0.0000000), wk =   0.0095238
        k(   14) = (   0.0000000  -0.5773503   0.1808105), wk =   0.0190476
        k(   15) = (   0.0000000  -0.5773503   0.3616210), wk =   0.0190476
        k(   16) = (   0.0000000  -0.5773503   0.5424315), wk =   0.0190476
        k(   17) = (   0.2000000   0.1154701   0.0000000), wk =   0.0190476
        k(   18) = (   0.2000000   0.1154701   0.1808105), wk =   0.0380952
        k(   19) = (   0.2000000   0.1154701   0.3616210), wk =   0.0380952
        k(   20) = (   0.2000000   0.1154701   0.5424315), wk =   0.0380952
        k(   21) = (   0.2000000   0.3079201   0.0000000), wk =   0.0190476
        k(   22) = (   0.2000000   0.3079201   0.1808105), wk =   0.0380952
        k(   23) = (   0.2000000   0.3079201   0.3616210), wk =   0.0380952
        k(   24) = (   0.2000000   0.3079201   0.5424315), wk =   0.0380952
        k(   25) = (   0.2000000   0.5003702   0.0000000), wk =   0.0190476
        k(   26) = (   0.2000000   0.5003702   0.1808105), wk =   0.0380952
        k(   27) = (   0.2000000   0.5003702   0.3616210), wk =   0.0380952
        k(   28) = (   0.2000000   0.5003702   0.5424315), wk =   0.0380952
        k(   29) = (   0.2000000  -0.4618802   0.0000000), wk =   0.0190476
        k(   30) = (   0.2000000  -0.4618802   0.1808105), wk =   0.0380952
        k(   31) = (   0.2000000  -0.4618802   0.3616210), wk =   0.0380952
        k(   32) = (   0.2000000  -0.4618802   0.5424315), wk =   0.0380952
        k(   33) = (   0.2000000  -0.2694301   0.0000000), wk =   0.0190476
        k(   34) = (   0.2000000  -0.2694301   0.1808105), wk =   0.0380952
        k(   35) = (   0.2000000  -0.2694301   0.3616210), wk =   0.0380952
        k(   36) = (   0.2000000  -0.2694301   0.5424315), wk =   0.0380952
        k(   37) = (   0.2000000  -0.0769800   0.0000000), wk =   0.0190476
        k(   38) = (   0.2000000  -0.0769800   0.1808105), wk =   0.0380952
        k(   39) = (   0.2000000  -0.0769800   0.3616210), wk =   0.0380952
        k(   40) = (   0.2000000  -0.0769800   0.5424315), wk =   0.0380952
        k(   41) = (   0.4000000   0.2309401   0.0000000), wk =   0.0190476
        k(   42) = (   0.4000000   0.2309401   0.1808105), wk =   0.0380952
        k(   43) = (   0.4000000   0.2309401   0.3616210), wk =   0.0380952
        k(   44) = (   0.4000000   0.2309401   0.5424315), wk =   0.0380952
        k(   45) = (   0.4000000   0.4233902   0.0000000), wk =   0.0190476
        k(   46) = (   0.4000000   0.4233902   0.1808105), wk =   0.0380952
        k(   47) = (   0.4000000   0.4233902   0.3616210), wk =   0.0380952
        k(   48) = (   0.4000000   0.4233902   0.5424315), wk =   0.0380952
        k(   49) = (   0.4000000   0.6158403   0.0000000), wk =   0.0190476
        k(   50) = (   0.4000000   0.6158403   0.1808105), wk =   0.0380952
        k(   51) = (   0.4000000   0.6158403   0.3616210), wk =   0.0380952
        k(   52) = (   0.4000000   0.6158403   0.5424315), wk =   0.0380952
        k(   53) = (   0.4000000  -0.3464102   0.0000000), wk =   0.0190476
        k(   54) = (   0.4000000  -0.3464102   0.1808105), wk =   0.0380952
        k(   55) = (   0.4000000  -0.3464102   0.3616210), wk =   0.0380952
        k(   56) = (   0.4000000  -0.3464102   0.5424315), wk =   0.0380952
        k(   57) = (   0.4000000  -0.1539601   0.0000000), wk =   0.0190476
        k(   58) = (   0.4000000  -0.1539601   0.1808105), wk =   0.0380952
        k(   59) = (   0.4000000  -0.1539601   0.3616210), wk =   0.0380952
        k(   60) = (   0.4000000  -0.1539601   0.5424315), wk =   0.0380952
        k(   61) = (   0.4000000   0.0384900   0.0000000), wk =   0.0190476
        k(   62) = (   0.4000000   0.0384900   0.1808105), wk =   0.0380952
        k(   63) = (   0.4000000   0.0384900   0.3616210), wk =   0.0380952
        k(   64) = (   0.4000000   0.0384900   0.5424315), wk =   0.0380952

     Dense  grid:    40467 G-vectors     FFT dimensions: (  50,  50,  40)

     Largest allocated arrays     est. size (Mb)     dimensions
        Kohn-Sham Wavefunctions         1.90 Mb     (   1298,   96)
        NL pseudopotentials             3.17 Mb     (   1298,  160)
        Each V/rho on FFT grid          0.38 Mb     (  25000)
        Each G-vector array             0.08 Mb     (  10119)
        G-vector shells                 0.08 Mb     (  10119)
     Largest temporary arrays     est. size (Mb)     dimensions
        Each subspace H/S matrix        0.14 Mb     (  96,  96)
        Each <psi_i|beta_j> matrix      0.23 Mb     (    160,   96)
        Arrays for rho mixing           3.05 Mb     (  25000,   8)

     Initial potential from superposition of free atoms

     Starting from uniform charge
     Starting wfc are    0 randomized atomic wfcs

     total cpu time spent up to now is        9.4 secs

     Self-consistent Calculation

     iteration #  1     ecut=    40.00 Ry     beta=0.70
     CG style diagonalization
     c_bands:  1 eigenvalues not converged
     c_bands:  1 eigenvalues not converged
     c_bands:  2 eigenvalues not converged
     c_bands:  1 eigenvalues not converged
     ethr =  1.00E-02,  avg # of iterations = 13.3

     total cpu time spent up to now is      212.4 secs

     total energy              =   -1592.92488060 Ry
     Harris-Foulkes estimate   =   -2916.64610938 Ry
     estimated scf accuracy    <    1625.24777997 Ry

     iteration #  2     ecut=    40.00 Ry     beta=0.70
     CG style diagonalization
     c_bands:  2 eigenvalues not converged
     c_bands:  1 eigenvalues not converged
     c_bands:  1 eigenvalues not converged
     c_bands:  1 eigenvalues not converged
     c_bands:  3 eigenvalues not converged
     c_bands:  1 eigenvalues not converged
     c_bands:  4 eigenvalues not converged
     c_bands:  5 eigenvalues not converged
     c_bands:  2 eigenvalues not converged
     c_bands:  4 eigenvalues not converged
     c_bands:  5 eigenvalues not converged
     c_bands:  4 eigenvalues not converged
     c_bands:  4 eigenvalues not converged
     c_bands:  1 eigenvalues not converged
     c_bands:  5 eigenvalues not converged
     c_bands:  1 eigenvalues not converged
     c_bands:  1 eigenvalues not converged
     c_bands:  4 eigenvalues not converged
     c_bands:  1 eigenvalues not converged
     c_bands:  1 eigenvalues not converged
     c_bands:  5 eigenvalues not converged
     c_bands:  4 eigenvalues not converged
     c_bands:  4 eigenvalues not converged
     c_bands:  2 eigenvalues not converged
     c_bands:  3 eigenvalues not converged
     c_bands:  1 eigenvalues not converged
     c_bands:  2 eigenvalues not converged
     c_bands:  1 eigenvalues not converged
     c_bands:  1 eigenvalues not converged
     c_bands:  1 eigenvalues not converged
     c_bands:  2 eigenvalues not converged
     c_bands:  4 eigenvalues not converged
     c_bands:  2 eigenvalues not converged
     c_bands:  3 eigenvalues not converged
     c_bands:  2 eigenvalues not converged
     c_bands:  4 eigenvalues not converged
     c_bands:  2 eigenvalues not converged
     c_bands:  2 eigenvalues not converged
     c_bands:  3 eigenvalues not converged
     c_bands:  4 eigenvalues not converged
     c_bands:  4 eigenvalues not converged
     c_bands:  2 eigenvalues not converged
     c_bands:  2 eigenvalues not converged
     c_bands:  1 eigenvalues not converged
     c_bands:  2 eigenvalues not converged
     c_bands:  3 eigenvalues not converged
     c_bands:  2 eigenvalues not converged
     ethr =  1.00E-02,  avg # of iterations = 14.3

     total cpu time spent up to now is      412.8 secs

     total energy              =   -1659.60860511 Ry
     Harris-Foulkes estimate   =   -2650.88063964 Ry
     estimated scf accuracy    <    1908.69572950 Ry

     iteration #  3     ecut=    40.00 Ry     beta=0.70
     CG style diagonalization
     c_bands:  2 eigenvalues not converged
     c_bands:  2 eigenvalues not converged
     c_bands:  3 eigenvalues not converged
     c_bands:  1 eigenvalues not converged
     c_bands:  3 eigenvalues not converged
     c_bands:  1 eigenvalues not converged
     c_bands:  1 eigenvalues not converged
     c_bands:  1 eigenvalues not converged
     c_bands:  1 eigenvalues not converged
     c_bands:  2 eigenvalues not converged
     c_bands:  2 eigenvalues not converged
     c_bands:  3 eigenvalues not converged
     c_bands:  1 eigenvalues not converged
     c_bands:  2 eigenvalues not converged
     c_bands:  2 eigenvalues not converged
     c_bands:  1 eigenvalues not converged
     c_bands:  2 eigenvalues not converged
     c_bands:  2 eigenvalues not converged
     c_bands:  1 eigenvalues not converged
     c_bands:  1 eigenvalues not converged
     c_bands:  1 eigenvalues not converged
     c_bands:  2 eigenvalues not converged
     c_bands:  1 eigenvalues not converged
     c_bands:  1 eigenvalues not converged
     c_bands:  2 eigenvalues not converged
     c_bands:  1 eigenvalues not converged
     c_bands:  1 eigenvalues not converged
     c_bands:  1 eigenvalues not converged
     c_bands:  1 eigenvalues not converged
     c_bands:  1 eigenvalues not converged
     c_bands:  1 eigenvalues not converged
     c_bands:  1 eigenvalues not converged
     c_bands:  2 eigenvalues not converged
     c_bands:  2 eigenvalues not converged
     c_bands:  2 eigenvalues not converged
     c_bands:  4 eigenvalues not converged
     c_bands:  1 eigenvalues not converged
     c_bands:  1 eigenvalues not converged
     c_bands:  1 eigenvalues not converged
     c_bands:  2 eigenvalues not converged
     c_bands:  2 eigenvalues not converged
     c_bands:  4 eigenvalues not converged
     c_bands:  1 eigenvalues not converged
     c_bands:  2 eigenvalues not converged
     c_bands:  1 eigenvalues not converged
     c_bands:  1 eigenvalues not converged
     c_bands:  2 eigenvalues not converged
     c_bands:  1 eigenvalues not converged
     c_bands:  2 eigenvalues not converged
     c_bands:  2 eigenvalues not converged
     ethr =  1.00E-02,  avg # of iterations = 12.3

     total cpu time spent up to now is      587.5 secs

     total energy              =   -2128.47816238 Ry
     Harris-Foulkes estimate   =   -2294.95009321 Ry
     estimated scf accuracy    <     401.85052142 Ry

     iteration #  4     ecut=    40.00 Ry     beta=0.70
     CG style diagonalization
     ethr =  1.00E-02,  avg # of iterations =  7.3

     total cpu time spent up to now is      694.0 secs

     total energy              =   -2191.88636045 Ry
     Harris-Foulkes estimate   =   -2215.58553584 Ry
     estimated scf accuracy    <      58.24171964 Ry

     iteration #  5     ecut=    40.00 Ry     beta=0.70
     CG style diagonalization
     ethr =  1.00E-02,  avg # of iterations =  3.9

     total cpu time spent up to now is      748.5 secs

     total energy              =   -2195.70426902 Ry
     Harris-Foulkes estimate   =   -2199.11808486 Ry
     estimated scf accuracy    <       8.83698220 Ry

     iteration #  6     ecut=    40.00 Ry     beta=0.70
     CG style diagonalization
     ethr =  5.52E-03,  avg # of iterations =  3.3

     total cpu time spent up to now is      793.2 secs

     total energy              =   -2195.63928124 Ry
     Harris-Foulkes estimate   =   -2196.62930565 Ry
     estimated scf accuracy    <       1.81267266 Ry

     iteration #  7     ecut=    40.00 Ry     beta=0.70
     CG style diagonalization
     ethr =  1.13E-03,  avg # of iterations =  4.5

     total cpu time spent up to now is      855.5 secs

     total energy              =   -2196.16179569 Ry
     Harris-Foulkes estimate   =   -2196.41802533 Ry
     estimated scf accuracy    <       0.37046168 Ry

     iteration #  8     ecut=    40.00 Ry     beta=0.70
     CG style diagonalization
     c_bands:  1 eigenvalues not converged
     c_bands:  1 eigenvalues not converged
     c_bands:  1 eigenvalues not converged
     ethr =  2.32E-04,  avg # of iterations =  4.1

     total cpu time spent up to now is      910.2 secs

     total energy              =   -2196.28099155 Ry
     Harris-Foulkes estimate   =   -2196.40774989 Ry
     estimated scf accuracy    <       0.30344758 Ry

     iteration #  9     ecut=    40.00 Ry     beta=0.70
     CG style diagonalization
     ethr =  1.90E-04,  avg # of iterations =  3.2

     total cpu time spent up to now is      952.8 secs

     total energy              =   -2196.32876141 Ry
     Harris-Foulkes estimate   =   -2196.33018131 Ry
     estimated scf accuracy    <       0.00276246 Ry

     iteration # 10     ecut=    40.00 Ry     beta=0.70
     CG style diagonalization
     c_bands:  2 eigenvalues not converged
     c_bands:  1 eigenvalues not converged
     c_bands:  1 eigenvalues not converged
     c_bands:  2 eigenvalues not converged
     c_bands:  3 eigenvalues not converged
     c_bands:  1 eigenvalues not converged
     c_bands:  1 eigenvalues not converged
     c_bands:  1 eigenvalues not converged
     c_bands:  2 eigenvalues not converged
     c_bands:  2 eigenvalues not converged
     c_bands:  3 eigenvalues not converged
     c_bands:  1 eigenvalues not converged
     c_bands:  2 eigenvalues not converged
     c_bands:  1 eigenvalues not converged
     c_bands:  1 eigenvalues not converged
     c_bands:  1 eigenvalues not converged
     c_bands:  2 eigenvalues not converged
     c_bands:  1 eigenvalues not converged
     c_bands:  1 eigenvalues not converged
     c_bands:  2 eigenvalues not converged
     c_bands:  3 eigenvalues not converged
     c_bands:  1 eigenvalues not converged
     c_bands:  1 eigenvalues not converged
     c_bands:  1 eigenvalues not converged
     c_bands:  1 eigenvalues not converged
     c_bands:  2 eigenvalues not converged
     c_bands:  1 eigenvalues not converged
     c_bands:  1 eigenvalues not converged
     c_bands:  1 eigenvalues not converged
     c_bands:  2 eigenvalues not converged
     c_bands:  1 eigenvalues not converged
     c_bands:  3 eigenvalues not converged
     c_bands:  1 eigenvalues not converged
     c_bands:  3 eigenvalues not converged
     c_bands:  2 eigenvalues not converged
     c_bands:  1 eigenvalues not converged
     c_bands:  2 eigenvalues not converged
     c_bands:  1 eigenvalues not converged
     c_bands:  2 eigenvalues not converged
     c_bands:  4 eigenvalues not converged
     c_bands:  2 eigenvalues not converged
     c_bands:  1 eigenvalues not converged
     c_bands:  1 eigenvalues not converged
     ethr =  1.73E-06,  avg # of iterations =  5.8

     total cpu time spent up to now is     1035.6 secs

     total energy              =   -2196.33215466 Ry
     Harris-Foulkes estimate   =   -2196.33268685 Ry
     estimated scf accuracy    <       0.00150898 Ry

     iteration # 11     ecut=    40.00 Ry     beta=0.70
     CG style diagonalization
     c_bands:  1 eigenvalues not converged
     c_bands:  1 eigenvalues not converged
     c_bands:  1 eigenvalues not converged
     c_bands:  1 eigenvalues not converged
     c_bands:  1 eigenvalues not converged
     c_bands:  1 eigenvalues not converged
     c_bands:  1 eigenvalues not converged
     c_bands:  2 eigenvalues not converged
     c_bands:  1 eigenvalues not converged
     c_bands:  1 eigenvalues not converged
     c_bands:  1 eigenvalues not converged
     ethr =  9.43E-07,  avg # of iterations =  3.3

     total cpu time spent up to now is     1080.3 secs

     total energy              =   -2196.33230403 Ry
     Harris-Foulkes estimate   =   -2196.33234139 Ry
     estimated scf accuracy    <       0.00010007 Ry

     iteration # 12     ecut=    40.00 Ry     beta=0.70
     CG style diagonalization
     ethr =  6.25E-08,  avg # of iterations =  4.0

     total cpu time spent up to now is     1133.1 secs

     End of self-consistent calculation

          k = 0.0000 0.0000 0.0000 (  5047 PWs)   bands (ev):

   -76.4895 -76.4895 -76.4883 -76.4592 -76.4591 -76.4436 -38.5210 -38.4924
   -38.4826 -38.4654 -38.4653 -38.4400 -38.4400 -38.4167 -38.4166 -38.3951
   -38.3950 -38.3948 -38.3810 -38.3810 -38.3612 -38.3562 -38.3562 -38.3280
   -22.7778 -22.7738  -1.3048  -1.2743  -1.2743  -1.2648  -1.2351  -1.2351
     7.4788   7.5806   7.5806   7.6904   7.7747   7.9741   7.9742   7.9914
     7.9974   7.9974   8.0686   8.2018   8.2018   8.4860   8.5864   8.5865
     8.7021   8.7021   8.7056   8.7733   8.7733   8.8520   8.8520   9.0363
     9.0363   9.2256   9.2256   9.2607   9.3925   9.4297  11.6377  16.8645
    16.8859  16.8860  18.1345  18.6519  18.6520  19.8111  21.6176  21.8689
    21.8689  22.4405  22.4405  23.8880  23.8880  24.0778  24.0779  24.6915
    25.5344  25.5344  26.2131  26.2131  26.4727  26.5527  27.4687  27.4687
    28.6087  28.7197  28.8099  29.5745  29.5745  30.6887  30.6891  30.7752

          k = 0.0000 0.0000 0.1808 (  5065 PWs)   bands (ev):

   -76.4872 -76.4825 -76.4825 -76.4812 -76.4811 -76.4637 -38.5228 -38.5083
   -38.4781 -38.4710 -38.4709 -38.4412 -38.4412 -38.4245 -38.4245 -38.3956
   -38.3955 -38.3849 -38.3849 -38.3836 -38.3803 -38.3631 -38.3631 -38.3370
   -22.7775 -22.7739  -1.3037  -1.2737  -1.2737  -1.2695  -1.2361  -1.2361
     7.5021   7.6056   7.6056   7.6478   7.7764   7.9066   7.9066   7.9949
     7.9950   8.0518   8.1489   8.1836   8.1836   8.3873   8.6575   8.6575
     8.6972   8.6972   8.7087   8.7614   8.7615   8.8955   8.8955   8.9286
     8.9286   9.2332   9.3032   9.3033   9.3822   9.3885  11.8018  16.5558
    16.9970  16.9971  18.3477  18.6644  18.6645  19.3477  21.4779  21.4780
    21.8962  21.8962  22.4177  23.9980  23.9980  24.5466  24.6083  24.6083
    25.6859  25.6859  26.1954  26.1954  26.3852  26.7986  27.6702  27.8402
    27.8402  28.0233  29.3274  29.3274  29.5009  30.5458  31.0179  31.0180

          k = 0.0000 0.0000 0.3616 (  5047 PWs)   bands (ev):

   -76.4877 -76.4796 -76.4796 -76.4747 -76.4747 -76.4371 -38.5240 -38.4985
   -38.4669 -38.4669 -38.4535 -38.4535 -38.4344 -38.4129 -38.4011 -38.4010
   -38.3958 -38.3958 -38.3803 -38.3674 -38.3674 -38.3615 -38.3615 -38.3455
   -22.7768 -22.7743  -1.2982  -1.2781  -1.2647  -1.2647  -1.2404  -1.2404
     7.5637   7.6248   7.6730   7.6730   7.7629   7.8354   7.8354   7.9585
     7.9586   8.1109   8.1109   8.1567   8.2246   8.3053   8.6509   8.6510
     8.6627   8.6627   8.6818   8.8410   8.8410   8.8479   8.8479   9.0113
     9.0114   9.0697   9.3427   9.3563   9.3563   9.3778  12.3108  15.5631
    17.3277  17.3278  18.6333  18.6334  18.9086  19.2973  20.7794  20.7794
    21.1190  21.1191  23.0966  23.9962  24.2168  24.2169  25.0349  25.0349
    25.9673  25.9673  26.2295  26.3286  26.3286  26.5991  27.4847  28.0667
    28.7779  28.7779  29.1058  29.1058  30.2555  30.2921  31.0581  31.6925

          k = 0.0000 0.0000 0.5424 (  5041 PWs)   bands (ev):

   -76.4843 -76.4842 -76.4687 -76.4687 -76.4590 -76.4550 -38.5030 -38.5017
   -38.4686 -38.4686 -38.4591 -38.4591 -38.4196 -38.4024 -38.3985 -38.3984
   -38.3937 -38.3936 -38.3708 -38.3694 -38.3694 -38.3633 -38.3633 -38.3542
   -22.7758 -22.7749  -1.2942  -1.2888  -1.2546  -1.2546  -1.2460  -1.2460
     7.6438   7.6955   7.7295   7.7588   7.7589   7.8161   7.8161   7.9015
     7.9259   7.9259   7.9934   7.9935   8.4642   8.4844   8.5974   8.6142
     8.6143   8.6157   8.6158   8.7875   8.8552   8.8552   8.8777   8.8778
     9.1860   9.1860   9.3154   9.3154   9.3477   9.3626  13.1687  14.3004
    17.8369  17.8370  18.3582  18.3582  19.5130  19.6198  20.4042  20.4042
    20.5685  20.5686  22.9743  23.2098  24.5312  24.5312  24.8776  24.8776
    26.1295  26.1789  26.1946  26.1946  26.3666  26.3667  28.5452  29.3592
    29.5437  29.5437  29.7270  29.7271  29.8135  30.2616  30.6987  31.3389

          k = 0.0000 0.1925 0.0000 (  5083 PWs)   bands (ev):

   -76.5060 -76.5002 -76.4860 -76.4843 -76.4776 -76.4664 -38.5102 -38.5068
   -38.4832 -38.4757 -38.4673 -38.4495 -38.4433 -38.4305 -38.4245 -38.4103
   -38.4038 -38.4016 -38.3915 -38.3886 -38.3763 -38.3729 -38.3669 -38.3418
   -22.7774 -22.7739  -1.3037  -1.2820  -1.2797  -1.2689  -1.2459  -1.2388
     7.5391   7.6131   7.6605   7.7161   7.8341   7.8913   7.9769   8.0040
     8.0680   8.0692   8.1186   8.2016   8.2306   8.5098   8.5349   8.5729
     8.6839   8.7070   8.7208   8.7432   8.7784   8.8417   8.8472   9.0108
     9.0345   9.1116   9.1390   9.2630   9.3365   9.4115  11.8155  15.8386
    16.6399  16.7794  18.6293  18.9318  19.3883  19.7331  21.5202  21.6941
    21.8357  22.8583  22.9116  22.9724  23.2807  23.6831  23.8892  24.9916
    25.0286  25.7393  26.4629  26.4850  26.7988  27.4319  27.5387  27.8497
    28.1678  28.7171  28.9747  29.3946  29.4711  30.8308  31.0213  31.0415

          k = 0.0000 0.1925 0.1808 (  5077 PWs)   bands (ev):

   -76.5028 -76.4969 -76.4814 -76.4805 -76.4779 -76.4679 -38.5080 -38.5023
   -38.4793 -38.4763 -38.4699 -38.4554 -38.4451 -38.4254 -38.4176 -38.4061
   -38.3976 -38.3961 -38.3908 -38.3870 -38.3833 -38.3702 -38.3682 -38.3406
   -22.7772 -22.7740  -1.3027  -1.2781  -1.2764  -1.2741  -1.2464  -1.2393
     7.5589   7.6353   7.6828   7.6836   7.8354   7.8955   7.9212   8.0023
     8.0554   8.0722   8.1700   8.1962   8.2066   8.4102   8.6136   8.6438
     8.6747   8.7008   8.7112   8.7313   8.7742   8.8720   8.8820   8.9182
     8.9227   9.1585   9.2213   9.2826   9.3413   9.3535  11.9822  15.9843
    16.5261  16.8864  18.0844  18.9199  19.3890  20.1049  20.9833  21.0994
    22.1844  22.3246  22.3921  23.6119  23.6596  24.0908  24.3282  25.0544
    25.1342  25.6567  26.3385  26.3451  26.6865  27.4159  27.6698  28.0726
    28.2370  28.4128  28.8424  29.2491  30.0255  30.6322  30.9847  31.2112

          k = 0.0000 0.1925 0.3616 (  5061 PWs)   bands (ev):

   -76.4904 -76.4853 -76.4836 -76.4810 -76.4702 -76.4574 -38.5086 -38.5015
   -38.4689 -38.4672 -38.4531 -38.4510 -38.4470 -38.4124 -38.4107 -38.4060
   -38.3982 -38.3972 -38.3864 -38.3840 -38.3708 -38.3682 -38.3664 -38.3497
   -22.7765 -22.7742  -1.2999  -1.2831  -1.2695  -1.2688  -1.2477  -1.2421
     7.6096   7.6625   7.6970   7.7444   7.8207   7.8582   7.8684   7.9670
     8.0333   8.1075   8.1357   8.1887   8.1995   8.3400   8.6167   8.6466
     8.6518   8.6698   8.6825   8.8043   8.8072   8.8278   8.8508   8.9777
     9.0091   9.0550   9.2719   9.2720   9.2872   9.3676  12.4886  15.6729
    16.4137  17.2024  17.7829  18.7671  19.7518  20.1289  20.4112  20.5561
    21.3353  21.5717  23.0727  23.8823  23.9356  24.3291  24.8760  25.0019
    25.2270  25.7704  26.0544  26.3636  26.4666  27.6314  28.0170  28.1406
    28.4405  28.9250  29.2842  29.3824  30.3463  30.6852  30.7707  31.0962

          k = 0.0000 0.1925 0.5424 (  5050 PWs)   bands (ev):

   -76.4894 -76.4843 -76.4810 -76.4734 -76.4649 -76.4506 -38.5127 -38.5038
   -38.4738 -38.4713 -38.4621 -38.4617 -38.4151 -38.4051 -38.4027 -38.3996
   -38.3995 -38.3942 -38.3741 -38.3736 -38.3680 -38.3649 -38.3645 -38.3552
   -22.7756 -22.7748  -1.2971  -1.2920  -1.2594  -1.2582  -1.2518  -1.2484
     7.6739   7.7183   7.7512   7.8158   7.8177   7.8467   7.8529   7.9107
     7.9780   7.9968   8.0172   8.0343   8.4537   8.4929   8.5773   8.5909
     8.6135   8.6220   8.6328   8.7509   8.8216   8.8500   8.8518   8.8744
     9.1177   9.1777   9.2345   9.2616   9.2819   9.3323  13.3316  14.4463
    17.0023  17.5821  17.6991  18.2934  19.7972  20.1016  20.5167  20.6608
    20.8130  20.9151  23.0644  23.2028  24.3349  24.5083  24.7373  24.7753
    25.7237  25.9322  26.0852  26.1915  26.5649  27.2067  28.8790  28.9136
    29.2908  29.4520  30.0042  30.0329  30.2081  30.4406  30.6483  31.0703

          k = 0.0000 0.3849 0.0000 (  5079 PWs)   bands (ev):

   -76.5050 -76.4960 -76.4891 -76.4808 -76.4763 -76.4699 -38.4973 -38.4914
   -38.4787 -38.4623 -38.4570 -38.4508 -38.4472 -38.4218 -38.4201 -38.4097
   -38.4059 -38.4045 -38.4013 -38.3923 -38.3853 -38.3780 -38.3704 -38.3560
   -22.7765 -22.7742  -1.2966  -1.2925  -1.2870  -1.2744  -1.2674  -1.2434
     7.6163   7.7695   7.7792   7.8268   7.8781   7.8879   7.9992   8.1003
     8.1244   8.1802   8.2300   8.2384   8.2814   8.4093   8.5335   8.5721
     8.6139   8.6795   8.7253   8.7565   8.7794   8.8195   8.8603   8.9126
     8.9251   8.9514   9.0122   9.0783   9.3230   9.3755  12.3340  14.5488
    16.2323  16.6234  18.9749  19.5777  19.6194  20.6692  21.1662  21.3292
    21.6450  21.9070  22.3690  23.3558  23.5886  23.9006  24.0488  25.2063
    25.2601  25.8615  25.9979  26.6813  26.8486  27.2243  27.3936  27.5947
    28.2653  28.3212  30.0978  30.2574  30.4902  30.5765  30.8535  31.0199

          k = 0.0000 0.3849 0.1808 (  5090 PWs)   bands (ev):

   -76.5046 -76.5009 -76.4949 -76.4917 -76.4782 -76.4715 -38.4963 -38.4921
   -38.4761 -38.4704 -38.4675 -38.4544 -38.4461 -38.4294 -38.4220 -38.4116
   -38.4083 -38.4022 -38.4016 -38.3970 -38.3847 -38.3808 -38.3737 -38.3619
   -22.7763 -22.7742  -1.3035  -1.2848  -1.2844  -1.2825  -1.2634  -1.2443
     7.6329   7.7501   7.7861   7.8751   7.8865   7.8904   7.9764   8.0797
     8.1073   8.1384   8.2330   8.2573   8.2950   8.4599   8.4785   8.5930
     8.6116   8.6471   8.7250   8.7305   8.7925   8.7982   8.8419   8.8974
     8.9076   9.0295   9.0376   9.0849   9.2951   9.3507  12.4981  14.7102
    16.3285  16.7212  17.8355  19.4724  19.9585  20.4027  20.8139  21.3607
    22.0195  22.0537  22.5835  23.3567  23.6335  23.8946  24.3279  25.3542
    25.3693  25.4933  26.0363  26.3820  26.5422  26.9449  27.5411  28.1412
    28.6890  29.0324  29.1852  30.2003  30.2715  30.7563  30.9865  31.1971

          k = 0.0000 0.3849 0.3616 (  5078 PWs)   bands (ev):

   -76.4974 -76.4948 -76.4885 -76.4865 -76.4766 -76.4667 -38.4997 -38.4945
   -38.4730 -38.4690 -38.4600 -38.4519 -38.4446 -38.4230 -38.4185 -38.4142
   -38.4026 -38.4009 -38.3938 -38.3872 -38.3810 -38.3766 -38.3696 -38.3631
   -22.7758 -22.7743  -1.3066  -1.2940  -1.2756  -1.2734  -1.2598  -1.2475
     7.6712   7.7403   7.7795   7.8913   7.9008   7.9390   7.9946   8.0193
     8.1291   8.1397   8.2041   8.2256   8.2605   8.4185   8.5120   8.5903
     8.6142   8.6498   8.7168   8.7191   8.7299   8.7838   8.8402   8.9310
     8.9671   9.0458   9.0665   9.0770   9.1448   9.3781  12.9879  15.1724
    16.0010  16.9802  17.0180  18.8997  19.2184  20.3218  20.6852  21.7538
    21.7992  22.0095  23.0219  23.6001  23.8154  24.3086  24.4238  24.8613
    25.2571  25.6283  25.7751  26.2320  26.5353  27.3172  27.8536  28.7212
    29.0418  29.2767  29.4788  30.0035  30.1713  30.9679  30.9753  31.6561

          k = 0.0000 0.3849 0.5424 (  5051 PWs)   bands (ev):

   -76.4885 -76.4804 -76.4783 -76.4762 -76.4632 -76.4585 -38.4942 -38.4935
   -38.4693 -38.4635 -38.4564 -38.4457 -38.4197 -38.4181 -38.4126 -38.4081
   -38.4036 -38.3997 -38.3823 -38.3770 -38.3742 -38.3711 -38.3627 -38.3552
   -22.7751 -22.7746  -1.3053  -1.3016  -1.2642  -1.2639  -1.2597  -1.2540
     7.7107   7.7404   7.8092   7.8808   7.9046   7.9330   7.9593   8.0560
     8.0778   8.1194   8.1706   8.1918   8.3836   8.4751   8.5127   8.5651
     8.6143   8.6258   8.6587   8.6962   8.7481   8.8129   8.8165   8.8624
     8.9575   9.0374   9.0389   9.0480   9.2432   9.3432  13.7875  14.8435
    15.8679  16.6097  17.5045  18.1558  19.1509  19.7972  20.9318  21.3498
    21.9941  22.0996  23.1401  23.1462  24.0987  24.4544  24.5941  24.6836
    25.0617  25.7113  25.8455  26.1028  27.0643  27.6946  28.7247  28.7768
    29.0244  29.5204  29.6076  30.4010  30.5626  30.9912  31.0518  31.0590

          k = 0.0000-0.5774 0.0000 (  5068 PWs)   bands (ev):

   -76.4877 -76.4856 -76.4843 -76.4811 -76.4773 -76.4744 -38.5028 -38.4684
   -38.4660 -38.4614 -38.4610 -38.4350 -38.4322 -38.4220 -38.4097 -38.4079
   -38.4065 -38.4052 -38.4051 -38.4017 -38.3844 -38.3749 -38.3742 -38.3639
   -22.7758 -22.7745  -1.2967  -1.2932  -1.2906  -1.2794  -1.2767  -1.2437
     7.6480   7.7951   7.8038   7.8702   8.0186   8.0326   8.0499   8.1349
     8.1454   8.1470   8.1684   8.3000   8.3235   8.4272   8.5743   8.5820
     8.6229   8.6552   8.6889   8.7052   8.7529   8.7791   8.8006   8.8465
     8.8920   8.9135   8.9348   8.9778   9.3250   9.3581  12.8796  13.7453
    16.0469  16.5598  19.3456  19.5036  20.4043  20.4234  20.8621  21.0387
    21.1970  21.6665  23.0295  23.4483  23.5549  23.9496  24.5457  25.4857
    25.5785  25.5888  26.1265  26.5269  26.5805  26.6422  26.8574  27.3888
    28.4191  29.0151  29.3507  30.1543  31.0068  31.0514  31.1000  31.4306

          k = 0.0000-0.5774 0.1808 (  5072 PWs)   bands (ev):

   -76.4934 -76.4924 -76.4859 -76.4809 -76.4733 -76.4726 -38.5027 -38.4808
   -38.4741 -38.4670 -38.4541 -38.4396 -38.4363 -38.4295 -38.4108 -38.4084
   -38.4081 -38.4058 -38.3965 -38.3963 -38.3790 -38.3765 -38.3695 -38.3639
   -22.7757 -22.7745  -1.3039  -1.2895  -1.2875  -1.2836  -1.2685  -1.2463
     7.6623   7.7915   7.8674   7.8710   7.9114   8.0518   8.0631   8.0981
     8.1197   8.1805   8.2424   8.3062   8.3657   8.3927   8.4981   8.5628
     8.6281   8.6332   8.6739   8.6805   8.7476   8.7935   8.8047   8.8539
     8.9081   8.9453   8.9699   8.9715   9.2727   9.3541  13.0337  13.9205
    16.1926  16.6579  17.8902  19.7200  19.8242  20.3590  20.9150  21.2859
    21.7991  21.9901  23.2993  23.6000  23.6726  23.9106  24.1622  25.0231
    25.5139  25.6112  25.9227  26.2566  26.6591  27.1648  27.3010  27.3128
    28.6110  28.7703  29.8410  30.6329  30.6721  30.9375  31.0503  31.6351

          k = 0.0000-0.5774 0.3616 (  5090 PWs)   bands (ev):

   -76.5109 -76.4970 -76.4927 -76.4913 -76.4780 -76.4698 -38.5009 -38.4862
   -38.4774 -38.4710 -38.4615 -38.4505 -38.4464 -38.4433 -38.4205 -38.4174
   -38.4166 -38.3995 -38.3921 -38.3882 -38.3881 -38.3735 -38.3711 -38.3700
   -22.7753 -22.7745  -1.3106  -1.3018  -1.2789  -1.2745  -1.2645  -1.2503
     7.6963   7.7687   7.8256   7.9526   7.9681   7.9750   8.0264   8.0873
     8.1412   8.2813   8.2941   8.2975   8.3283   8.3525   8.4656   8.5433
     8.6122   8.6348   8.6443   8.6483   8.7383   8.7795   8.8273   8.8807
     8.8847   8.9536   8.9611   9.0477   9.1049   9.3826  13.4901  14.4229
    16.4182  16.4536  16.9466  18.8318  18.9175  20.2484  21.0500  21.4598
    22.4228  22.7526  22.9981  23.6856  23.8185  23.9943  24.4794  24.7133
    25.4604  25.5179  25.5661  26.0274  26.4751  27.0753  27.5916  28.3365
    29.2162  29.3329  29.7801  30.8311  31.0232  31.2550  31.3634  31.5529

          k = 0.0000-0.5774 0.5424 (  5080 PWs)   bands (ev):

   -76.5081 -76.4919 -76.4877 -76.4867 -76.4747 -76.4670 -38.4948 -38.4861
   -38.4709 -38.4605 -38.4578 -38.4566 -38.4450 -38.4327 -38.4230 -38.4199
   -38.4165 -38.4038 -38.3901 -38.3884 -38.3824 -38.3748 -38.3678 -38.3635
   -22.7749 -22.7746  -1.3116  -1.3085  -1.2682  -1.2668  -1.2644  -1.2570
     7.7275   7.7425   7.8423   7.8871   7.9432   7.9823   8.0208   8.1321
     8.2281   8.2840   8.3041   8.3310   8.3417   8.3712   8.4200   8.5756
     8.5957   8.6314   8.6658   8.6721   8.7225   8.7373   8.7915   8.8243
     8.8491   8.9099   8.9318   8.9512   9.2465   9.3491  14.2282  15.1516
    15.2634  16.0396  17.4262  18.0883  18.8601  19.5973  21.2342  21.4147
    22.7653  22.8949  23.0204  23.1137  24.2720  24.4051  24.4067  24.5105
    25.0223  25.2397  25.7305  26.1784  27.1572  27.3457  28.3195  28.5781
    29.3979  29.5188  29.9989  30.7135  30.9340  31.1620  31.2258  31.3497

          k = 0.2000 0.1155 0.0000 (  5087 PWs)   bands (ev):

   -76.5054 -76.4952 -76.4886 -76.4832 -76.4799 -76.4787 -38.5089 -38.5053
   -38.4869 -38.4718 -38.4639 -38.4476 -38.4455 -38.4259 -38.4245 -38.4084
   -38.4077 -38.4013 -38.3989 -38.3928 -38.3831 -38.3769 -38.3725 -38.3406
   -22.7773 -22.7739  -1.3026  -1.2841  -1.2808  -1.2696  -1.2516  -1.2396
     7.5587   7.6326   7.6946   7.7262   7.8529   7.8755   7.9790   8.0120
     8.0816   8.0988   8.1391   8.2002   8.2413   8.5126   8.5199   8.5665
     8.6743   8.7087   8.7278   8.7319   8.7800   8.8378   8.8471   9.0005
     9.0326   9.0749   9.1025   9.2410   9.3274   9.4047  11.8926  15.5688
    16.5569  16.7451  18.6797  19.0442  19.6907  19.7025  21.4351  21.6685
    21.8441  22.6652  22.9697  23.0196  23.1452  23.6992  23.8296  24.9974
    25.0269  25.8151  26.5441  26.6027  26.6202  27.4205  27.7680  27.9965
    28.1007  28.4475  29.1189  29.5307  29.5758  30.8829  31.0913  31.2245

          k = 0.2000 0.1155 0.1808 (  5078 PWs)   bands (ev):

   -76.4976 -76.4965 -76.4846 -76.4807 -76.4763 -76.4745 -38.5038 -38.5009
   -38.4761 -38.4743 -38.4696 -38.4531 -38.4409 -38.4237 -38.4209 -38.4092
   -38.3988 -38.3964 -38.3927 -38.3866 -38.3861 -38.3762 -38.3696 -38.3446
   -22.7770 -22.7740  -1.3026  -1.2798  -1.2779  -1.2756  -1.2500  -1.2396
     7.5775   7.6526   7.6970   7.7166   7.8538   7.8912   7.9279   8.0111
     8.0639   8.0973   8.1667   8.2119   8.2153   8.4195   8.5929   8.6370
     8.6647   8.6942   8.7162   8.7245   8.7786   8.8623   8.8792   8.9142
     8.9162   9.1341   9.1876   9.2527   9.3343   9.3483  12.0601  15.7186
    16.4985  16.8509  17.9876  19.0205  19.6239  20.2905  20.8774  21.0200
    22.1918  22.3898  22.4076  23.4679  23.5476  24.1553  24.2273  25.0766
    25.1383  25.6842  26.3212  26.3776  26.6278  27.3502  27.7005  28.3282
    28.4629  28.4836  28.7206  29.3097  30.2009  30.5723  30.9381  31.1569

          k = 0.2000 0.1155 0.3616 (  5067 PWs)   bands (ev):

   -76.4904 -76.4890 -76.4867 -76.4821 -76.4730 -76.4612 -38.5083 -38.5005
   -38.4700 -38.4682 -38.4536 -38.4536 -38.4523 -38.4159 -38.4126 -38.4066
   -38.3991 -38.3983 -38.3865 -38.3843 -38.3745 -38.3705 -38.3677 -38.3511
   -22.7763 -22.7742  -1.3016  -1.2850  -1.2707  -1.2700  -1.2502  -1.2431
     7.6244   7.6772   7.7101   7.7736   7.8388   7.8682   7.8852   7.9746
     8.0645   8.1062   8.1457   8.1892   8.2016   8.3540   8.6012   8.6402
     8.6524   8.6611   8.6894   8.7936   8.7946   8.8170   8.8496   8.9665
     9.0023   9.0547   9.2372   9.2439   9.2526   9.3698  12.5648  15.7197
    16.1616  17.1609  17.5985  18.8049  19.8010  20.1255  20.5421  20.6554
    21.4024  21.6711  23.0657  23.8353  23.8502  24.3544  24.8454  24.9269
    25.1479  25.7541  26.0016  26.3444  26.4933  27.7925  28.1605  28.1959
    28.2721  29.0972  29.3994  29.4786  30.2495  30.6854  30.7501  31.1094

          k = 0.2000 0.1155 0.5424 (  5053 PWs)   bands (ev):

   -76.4969 -76.4850 -76.4831 -76.4744 -76.4608 -76.4505 -38.5074 -38.5049
   -38.4730 -38.4702 -38.4641 -38.4633 -38.4151 -38.4066 -38.4024 -38.4021
   -38.4000 -38.3983 -38.3752 -38.3719 -38.3707 -38.3672 -38.3661 -38.3557
   -22.7755 -22.7747  -1.2983  -1.2939  -1.2607  -1.2594  -1.2533  -1.2500
     7.6826   7.7246   7.7612   7.8368   7.8392   7.8591   7.8682   7.9248
     7.9962   8.0277   8.0289   8.0534   8.4413   8.5041   8.5626   8.5804
     8.6163   8.6250   8.6388   8.7377   8.8091   8.8424   8.8459   8.8735
     9.0899   9.1650   9.2012   9.2261   9.2632   9.3337  13.4031  14.5080
    16.7658  17.3757  17.6561  18.2653  19.6712  20.0823  20.5847  20.9236
    21.0174  21.0340  23.0878  23.1963  24.2691  24.5011  24.6993  24.7460
    25.5836  25.9135  26.0803  26.1132  26.6885  27.4102  28.8134  28.8940
    29.2527  29.4956  29.8936  30.0618  30.3595  30.5123  30.6669  31.0076

          k = 0.2000 0.3079 0.0000 (  5075 PWs)   bands (ev):

   -76.5052 -76.5002 -76.4845 -76.4827 -76.4690 -76.4644 -38.5014 -38.4985
   -38.4825 -38.4656 -38.4595 -38.4529 -38.4414 -38.4236 -38.4183 -38.4104
   -38.4034 -38.4010 -38.3916 -38.3885 -38.3822 -38.3732 -38.3722 -38.3463
   -22.7766 -22.7741  -1.2972  -1.2914  -1.2874  -1.2737  -1.2626  -1.2446
     7.6647   7.6869   7.7492   7.8540   7.8709   7.9501   7.9985   8.0055
     8.1036   8.2086   8.2220   8.2566   8.2571   8.3908   8.5631   8.5635
     8.6500   8.6738   8.7284   8.7452   8.7531   8.8370   8.8428   8.9340
     8.9354   8.9571   9.0125   9.1968   9.2444   9.3779  12.2746  14.8607
    15.6042  17.2553  18.7647  19.3871  19.5872  20.6975  21.2575  21.5434
    21.5999  21.8563  22.9107  23.2397  23.4327  23.7500  24.0937  24.1940
    25.5346  26.0598  26.3125  26.5780  26.7842  27.0099  27.7802  27.9751
    28.0773  28.9047  29.7256  29.8950  30.0675  30.3354  30.9868  31.0497

          k = 0.2000 0.3079 0.1808 (  5088 PWs)   bands (ev):

   -76.5109 -76.5001 -76.4964 -76.4822 -76.4757 -76.4709 -38.5011 -38.4949
   -38.4804 -38.4704 -38.4691 -38.4521 -38.4506 -38.4265 -38.4253 -38.4082
   -38.4077 -38.4018 -38.4009 -38.3955 -38.3806 -38.3746 -38.3689 -38.3578
   -22.7764 -22.7742  -1.3027  -1.2883  -1.2814  -1.2809  -1.2595  -1.2462
     7.6783   7.6982   7.7503   7.8725   7.8805   7.9527   7.9754   8.0060
     8.0734   8.1571   8.2274   8.2523   8.2927   8.4569   8.4764   8.6128
     8.6311   8.6606   8.7027   8.7403   8.7728   8.8220   8.8367   8.8987
     8.9028   9.0167   9.0483   9.2073   9.2828   9.2986  12.4408  15.0177
    15.7427  17.1207  18.1712  18.7541  20.3130  20.5846  20.8342  21.0984
    22.0608  22.0742  22.9845  23.1845  23.5548  23.7321  24.3561  24.7500
    25.3717  25.5918  25.9672  26.2896  27.0106  27.3303  27.7712  28.2609
    28.5772  28.9423  29.3019  29.5041  30.2226  30.6260  30.7444  31.3488

          k = 0.2000 0.3079 0.3616 (  5068 PWs)   bands (ev):

   -76.4959 -76.4905 -76.4864 -76.4845 -76.4688 -76.4624 -38.4927 -38.4896
   -38.4702 -38.4666 -38.4575 -38.4532 -38.4455 -38.4197 -38.4166 -38.4090
   -38.4026 -38.4002 -38.3902 -38.3887 -38.3838 -38.3712 -38.3667 -38.3557
   -22.7758 -22.7743  -1.3050  -1.2927  -1.2775  -1.2707  -1.2563  -1.2498
     7.6993   7.7248   7.7647   7.8792   7.8973   7.9478   7.9651   8.0070
     8.0909   8.1442   8.1766   8.2407   8.2608   8.4158   8.5485   8.5734
     8.6069   8.6718   8.7031   8.7264   8.7532   8.7802   8.8296   8.9205
     9.0054   9.0283   9.0385   9.1359   9.2175   9.3231  12.9321  15.4715
    15.8961  16.3791  17.7056  18.4439  19.7854  20.1468  20.9466  21.1566
    21.9339  22.1066  23.1016  23.4075  23.8328  24.1872  24.5952  24.7152
    25.1037  25.1821  26.1316  26.2526  27.3008  27.4221  28.0337  28.5187
    28.6520  29.2770  29.3285  29.9670  30.1874  30.7893  30.9371  31.7643

          k = 0.2000 0.3079 0.5424 (  5058 PWs)   bands (ev):

   -76.4935 -76.4923 -76.4751 -76.4730 -76.4662 -76.4628 -38.4996 -38.4913
   -38.4684 -38.4668 -38.4614 -38.4517 -38.4231 -38.4191 -38.4179 -38.4039
   -38.4025 -38.4006 -38.3840 -38.3791 -38.3745 -38.3696 -38.3636 -38.3591
   -22.7751 -22.7746  -1.3047  -1.3002  -1.2678  -1.2634  -1.2560  -1.2553
     7.7239   7.7482   7.8112   7.8884   7.8989   7.9027   7.9546   8.0331
     8.0510   8.0535   8.1736   8.2053   8.3851   8.5207   8.5300   8.5482
     8.5784   8.6378   8.6658   8.6864   8.7600   8.8264   8.8309   8.8448
     8.9436   8.9895   9.1319   9.1477   9.2217   9.2957  13.7374  14.8012
    16.1344  16.6359  17.3370  17.7776  19.9265  20.3015  20.5405  20.7727
    22.0536  22.0836  23.1490  23.1709  23.7819  24.0664  24.7305  24.8546
    25.0433  25.3723  26.3291  26.8985  27.0231  27.4089  28.2228  28.9880
    29.4017  29.6207  29.7020  29.9937  30.5372  30.8355  30.9675  30.9813

          k = 0.2000 0.5004 0.0000 (  5072 PWs)   bands (ev):

   -76.4996 -76.4968 -76.4899 -76.4758 -76.4715 -76.4673 -38.4931 -38.4789
   -38.4727 -38.4629 -38.4574 -38.4523 -38.4459 -38.4243 -38.4142 -38.4090
   -38.4025 -38.4023 -38.3974 -38.3961 -38.3796 -38.3782 -38.3717 -38.3603
   -22.7757 -22.7746  -1.3010  -1.2910  -1.2867  -1.2801  -1.2741  -1.2516
     7.7271   7.7346   7.8613   7.8903   7.9781   8.0372   8.0736   8.1130
     8.1276   8.1839   8.2480   8.2554   8.2901   8.3227   8.5485   8.5690
     8.6259   8.6491   8.7193   8.7344   8.7790   8.8235   8.8338   8.8352
     8.8710   8.9016   8.9620   9.0191   9.2082   9.3551  12.8726  14.0972
    15.0165  17.5503  18.8089  19.4893  20.0418  20.5103  21.1566  21.1632
    21.4755  21.9213  23.0355  23.1191  23.7421  24.0007  24.6124  24.7128
    25.2263  25.4384  25.6093  26.1187  26.7195  27.2415  28.0095  28.0526
    28.7927  28.8419  29.5634  29.6758  30.0008  30.6938  31.0427  31.7657

          k = 0.2000 0.5004 0.1808 (  5079 PWs)   bands (ev):

   -76.5018 -76.4985 -76.4950 -76.4840 -76.4709 -76.4676 -38.4943 -38.4839
   -38.4748 -38.4662 -38.4614 -38.4576 -38.4461 -38.4287 -38.4125 -38.4103
   -38.4077 -38.4041 -38.3992 -38.3965 -38.3797 -38.3774 -38.3681 -38.3617
   -22.7755 -22.7745  -1.3013  -1.2957  -1.2889  -1.2778  -1.2678  -1.2533
     7.7357   7.7758   7.8395   7.9146   7.9736   7.9986   8.0612   8.1009
     8.1057   8.1649   8.2523   8.3144   8.3474   8.3546   8.4877   8.5416
     8.6152   8.6515   8.6776   8.7287   8.7469   8.7809   8.8024   8.8816
     8.9100   8.9256   8.9609   9.0583   9.2471   9.2692  13.0279  14.2663
    15.1783  17.4919  18.0335  18.7757  20.1430  20.6309  20.9919  21.5160
    21.8827  22.0761  23.0585  23.2418  23.8855  23.9940  24.2684  24.7594
    25.1301  25.4019  25.5052  26.0086  27.1707  27.3347  27.7240  28.0403
    28.7204  29.1725  29.5846  30.0541  30.4129  30.8251  31.0155  31.4714

          k = 0.2000 0.5004 0.3616 (  5085 PWs)   bands (ev):

   -76.5043 -76.5016 -76.4962 -76.4858 -76.4779 -76.4657 -38.4873 -38.4829
   -38.4746 -38.4679 -38.4632 -38.4597 -38.4472 -38.4367 -38.4214 -38.4133
   -38.4073 -38.4054 -38.3962 -38.3919 -38.3898 -38.3809 -38.3674 -38.3623
   -22.7752 -22.7745  -1.3074  -1.3012  -1.2866  -1.2686  -1.2638  -1.2559
     7.7517   7.7828   7.8513   7.9512   7.9749   7.9886   8.0207   8.0814
     8.1015   8.1799   8.2814   8.3108   8.3973   8.4096   8.4358   8.5450
     8.5763   8.6381   8.6513   8.7028   8.7189   8.7618   8.7851   8.8431
     8.9284   8.9744   9.0036   9.0459   9.1231   9.2904  13.4897  14.7540
    15.6212  16.4719  17.3654  18.1559  19.6797  20.5699  20.9537  21.5158
    22.4683  22.6525  23.0618  23.3309  23.5353  23.8838  24.4968  24.7804
    24.9979  25.2605  25.7128  26.4763  26.6965  27.4038  27.9893  28.4290
    29.0807  29.5941  29.9408  30.2624  30.7411  30.7607  31.3302  31.5047

          k = 0.2000 0.5004 0.5424 (  5080 PWs)   bands (ev):

   -76.5028 -76.4974 -76.4847 -76.4820 -76.4794 -76.4690 -38.4872 -38.4835
   -38.4674 -38.4656 -38.4599 -38.4503 -38.4389 -38.4304 -38.4268 -38.4159
   -38.4120 -38.4035 -38.3987 -38.3896 -38.3875 -38.3770 -38.3721 -38.3643
   -22.7748 -22.7746  -1.3097  -1.3075  -1.2764  -1.2677  -1.2608  -1.2578
     7.7594   7.7672   7.8754   7.9059   7.9606   7.9790   8.0067   8.0975
     8.1735   8.1865   8.3258   8.3616   8.4111   8.4254   8.4680   8.5116
     8.5550   8.6233   8.6784   8.7029   8.7105   8.7622   8.7771   8.7905
     8.8024   8.8695   9.0122   9.0346   9.2048   9.2756  14.2383  15.2365
    15.4864  16.0903  16.8027  17.3295  19.9461  20.5396  20.8687  21.1976
    22.6860  22.7115  23.0023  23.1059  23.4325  23.7764  24.5492  24.7747
    24.9450  25.1041  26.8737  26.9062  27.0756  27.5807  27.8475  28.9698
    29.2495  29.4924  30.1414  30.2027  30.7931  30.8115  31.0686  31.2090

          k = 0.2000-0.4619 0.0000 (  5078 PWs)   bands (ev):

   -76.5020 -76.4987 -76.4894 -76.4822 -76.4753 -76.4670 -38.4993 -38.4804
   -38.4735 -38.4649 -38.4616 -38.4554 -38.4427 -38.4258 -38.4145 -38.4089
   -38.4051 -38.4048 -38.4001 -38.3937 -38.3805 -38.3769 -38.3739 -38.3622
   -22.7758 -22.7745  -1.2999  -1.2923  -1.2874  -1.2793  -1.2725  -1.2507
     7.7205   7.7375   7.8247   7.8839   7.9735   8.0292   8.0686   8.0831
     8.1118   8.1915   8.2536   8.2557   8.2985   8.3243   8.5731   8.5856
     8.6215   8.6344   8.7054   8.7358   8.7687   8.8333   8.8365   8.8462
     8.8636   8.9098   8.9730   9.0610   9.2093   9.3580  12.7580  14.2354
    15.0765  17.5186  18.7960  19.5011  19.9160  20.5815  21.1693  21.2386
    21.4803  22.0199  22.8127  23.1151  23.7068  24.0568  24.4482  24.6653
    25.2689  25.5594  25.6802  26.2688  26.7652  27.1086  28.0002  28.1573
    28.5985  28.7658  29.6304  29.7349  30.1791  30.5396  31.0338  31.5459

          k = 0.2000-0.4619 0.1808 (  5075 PWs)   bands (ev):

   -76.5034 -76.4953 -76.4920 -76.4796 -76.4698 -76.4669 -38.4923 -38.4841
   -38.4729 -38.4672 -38.4596 -38.4552 -38.4448 -38.4281 -38.4128 -38.4093
   -38.4050 -38.4032 -38.3999 -38.3959 -38.3782 -38.3746 -38.3679 -38.3607
   -22.7757 -22.7745  -1.3010  -1.2956  -1.2869  -1.2783  -1.2663  -1.2518
     7.7301   7.7737   7.8141   7.9059   7.9764   7.9783   8.0560   8.0904
     8.1006   8.1447   8.2392   8.3304   8.3494   8.3637   8.4851   8.5574
     8.6256   8.6428   8.6801   8.7267   8.7467   8.7870   8.7999   8.8914
     8.9131   8.9217   8.9773   9.0906   9.2490   9.2728  12.9168  14.4026
    15.2375  17.4244  18.0923  18.7573  20.1886  20.5527  21.0335  21.4664
    21.9056  22.1365  22.9615  23.2402  23.7950  23.9008  24.2693  24.9318
    25.1425  25.4169  25.5309  26.0326  27.2168  27.2584  27.7408  28.2654
    28.6687  29.0205  29.3878  30.1430  30.4850  30.6536  30.9684  31.5600

          k = 0.2000-0.4619 0.3616 (  5078 PWs)   bands (ev):

   -76.5024 -76.5013 -76.4937 -76.4821 -76.4728 -76.4624 -38.4882 -38.4849
   -38.4735 -38.4664 -38.4622 -38.4586 -38.4465 -38.4344 -38.4184 -38.4105
   -38.4064 -38.4016 -38.3943 -38.3894 -38.3868 -38.3778 -38.3661 -38.3602
   -22.7753 -22.7744  -1.3072  -1.2996  -1.2851  -1.2691  -1.2619  -1.2553
     7.7472   7.7738   7.8368   7.9434   7.9653   7.9763   8.0201   8.0874
     8.0952   8.1476   8.2594   8.3047   8.3914   8.4229   8.4493   8.5392
     8.5767   8.6559   8.6649   8.7052   8.7059   8.7767   8.7812   8.8656
     8.9234   8.9878   9.0174   9.0527   9.1374   9.2927  13.3863  14.8826
    15.6719  16.4079  17.4478  18.1849  19.7124  20.4284  20.9971  21.5037
    22.4231  22.5745  23.0525  23.2776  23.6257  23.9279  24.5364  24.6866
    24.9589  25.2610  25.8759  26.4367  26.7101  27.5453  27.9546  28.4850
    29.0617  29.4211  29.7681  30.2307  30.5808  30.7999  31.4334  31.5527

          k = 0.2000-0.4619 0.5424 (  5069 PWs)   bands (ev):

   -76.4994 -76.4948 -76.4795 -76.4767 -76.4741 -76.4641 -38.4870 -38.4855
   -38.4666 -38.4615 -38.4591 -38.4471 -38.4370 -38.4264 -38.4244 -38.4126
   -38.4075 -38.4002 -38.3961 -38.3849 -38.3794 -38.3756 -38.3693 -38.3623
   -22.7749 -22.7746  -1.3088  -1.3065  -1.2750  -1.2664  -1.2595  -1.2574
     7.7548   7.7657   7.8650   7.9044   7.9518   7.9680   8.0038   8.0885
     8.1498   8.1521   8.3287   8.3416   8.3822   8.4464   8.4805   8.5151
     8.5582   8.6310   8.6759   8.6978   8.7131   8.7784   8.7902   8.8122
     8.8153   8.8700   9.0325   9.0564   9.2055   9.2767  14.1470  15.1581
    15.6003  16.1659  16.8857  17.3796  19.9704  20.5591  20.7243  21.1258
    22.6268  22.6942  23.0425  23.1361  23.4061  23.7687  24.6209  24.8161
    24.8988  25.1300  26.8093  26.9770  27.0775  27.5354  27.8408  29.0085
    29.2540  29.5946  30.0346  30.1080  30.6842  30.7711  31.0854  31.1776

          k = 0.2000-0.2694 0.0000 (  5077 PWs)   bands (ev):

   -76.5032 -76.5011 -76.4836 -76.4815 -76.4752 -76.4668 -38.5026 -38.5019
   -38.4847 -38.4661 -38.4619 -38.4526 -38.4408 -38.4266 -38.4216 -38.4090
   -38.4031 -38.4023 -38.3916 -38.3889 -38.3812 -38.3708 -38.3702 -38.3466
   -22.7767 -22.7741  -1.2983  -1.2893  -1.2874  -1.2724  -1.2599  -1.2429
     7.6350   7.6752   7.7479   7.8260   7.8523   7.9226   7.9928   8.0098
     8.1010   8.1991   8.2069   8.2222   8.2560   8.4240   8.5525   8.5596
     8.6558   8.6888   8.7215   8.7435   8.7661   8.8348   8.8442   8.9678
     8.9680   8.9707   9.0191   9.2055   9.2695   9.3840  12.1741  15.0067
    15.7982  17.1562  18.7595  19.2860  19.6134  20.5354  21.2868  21.5704
    21.6674  21.9532  22.9284  23.3342  23.4019  23.6003  23.9662  24.2618
    25.6156  26.1634  26.1758  26.5033  26.9122  27.1730  27.7555  27.8511
    28.0417  28.8961  29.6027  29.8280  29.8753  30.5114  31.0436  31.1007

          k = 0.2000-0.2694 0.1808 (  5087 PWs)   bands (ev):

   -76.5090 -76.5008 -76.4949 -76.4816 -76.4765 -76.4712 -38.5013 -38.4966
   -38.4818 -38.4723 -38.4709 -38.4552 -38.4488 -38.4277 -38.4250 -38.4090
   -38.4044 -38.4009 -38.3977 -38.3932 -38.3820 -38.3766 -38.3677 -38.3532
   -22.7765 -22.7741  -1.3030  -1.2858  -1.2811  -1.2794  -1.2582  -1.2442
     7.6498   7.6891   7.7390   7.8363   7.8794   7.9259   7.9597   8.0103
     8.0719   8.1595   8.2156   8.2274   8.2703   8.4487   8.5079   8.6183
     8.6395   8.6684   8.7058   8.7365   8.7784   8.8323   8.8517   8.9013
     8.9033   9.0535   9.0672   9.2187   9.3007   9.3075  12.3390  15.1626
    15.9247  17.0471  18.1174  18.8129  20.2916  20.6414  20.6742  21.0278
    22.0929  22.1164  22.8564  23.2678  23.5173  23.8317  24.3684  24.6671
    25.4550  25.6175  26.0685  26.3398  26.8739  27.3528  27.7810  28.2230
    28.5001  28.9757  29.0918  29.6978  30.0368  30.5746  30.7312  31.3318

          k = 0.2000-0.2694 0.3616 (  5068 PWs)   bands (ev):

   -76.4943 -76.4918 -76.4879 -76.4848 -76.4698 -76.4593 -38.4964 -38.4928
   -38.4699 -38.4683 -38.4551 -38.4547 -38.4493 -38.4182 -38.4158 -38.4077
   -38.4023 -38.4000 -38.3886 -38.3880 -38.3814 -38.3696 -38.3654 -38.3564
   -22.7759 -22.7743  -1.3040  -1.2908  -1.2759  -1.2708  -1.2552  -1.2481
     7.6797   7.7157   7.7491   7.8579   7.8850   7.9246   7.9505   7.9889
     8.0948   8.1535   8.1685   8.1979   8.2470   8.4005   8.5635   8.5914
     8.6199   8.6687   8.7021   8.7411   8.7666   8.7878   8.8365   8.9265
     9.0112   9.0396   9.0719   9.1616   9.2292   9.3369  12.8355  15.6100
    15.8755  16.5256  17.7022  18.5414  19.7526  20.2130  20.7692  21.1195
    21.7907  21.9753  23.0852  23.5175  23.8370  24.2539  24.6787  24.7359
    25.0928  25.2795  26.0687  26.2955  27.1712  27.5310  28.0429  28.4425
    28.5379  29.2221  29.5334  29.8505  30.1009  30.6074  30.9474  31.6859

          k = 0.2000-0.2694 0.5424 (  5058 PWs)   bands (ev):

   -76.4910 -76.4850 -76.4769 -76.4754 -76.4714 -76.4631 -38.4964 -38.4930
   -38.4697 -38.4681 -38.4641 -38.4549 -38.4196 -38.4181 -38.4127 -38.4038
   -38.4023 -38.4009 -38.3857 -38.3784 -38.3733 -38.3713 -38.3657 -38.3580
   -22.7752 -22.7746  -1.3035  -1.2989  -1.2659  -1.2626  -1.2559  -1.2537
     7.7139   7.7425   7.7982   7.8802   7.8865   7.8900   7.9322   8.0069
     8.0370   8.0454   8.1388   8.1608   8.3989   8.5286   8.5362   8.5463
     8.5935   8.6354   8.6587   8.6976   8.7715   8.8291   8.8350   8.8539
     8.9787   9.0385   9.1423   9.1704   9.2290   9.3060  13.6490  14.7231
    16.2634  16.7872  17.4425  17.9102  19.8116  20.3556  20.3941  20.8246
    21.8347  21.8713  23.1516  23.1638  23.9261  24.1892  24.7012  24.8299
    25.1616  25.4833  26.2019  26.7349  26.9486  27.4848  28.3894  28.9148
    29.3935  29.5877  29.6895  30.0412  30.5176  30.8073  30.9217  30.9611

          k = 0.2000-0.0770 0.0000 (  5083 PWs)   bands (ev):

   -76.5048 -76.4972 -76.4866 -76.4815 -76.4767 -76.4747 -38.5092 -38.5039
   -38.4848 -38.4733 -38.4653 -38.4478 -38.4441 -38.4285 -38.4256 -38.4084
   -38.4009 -38.3992 -38.3978 -38.3882 -38.3800 -38.3766 -38.3676 -38.3443
   -22.7773 -22.7739  -1.3028  -1.2831  -1.2805  -1.2693  -1.2490  -1.2391
     7.5514   7.6213   7.6802   7.7216   7.8458   7.8824   7.9782   8.0059
     8.0753   8.0869   8.1300   8.2018   8.2360   8.5150   8.5224   8.5699
     8.6797   8.7080   8.7232   8.7378   8.7789   8.8399   8.8467   9.0052
     9.0335   9.0913   9.1177   9.2558   9.3280   9.4077  11.8577  15.6962
    16.5064  16.8438  18.6552  18.9784  19.5707  19.7160  21.4751  21.6735
    21.8477  22.7392  22.9291  23.0634  23.1972  23.6853  23.8377  24.7761
    25.2530  25.7739  26.4146  26.6384  26.6969  27.4237  27.6612  27.9920
    28.0775  28.6116  29.0425  29.4611  29.4936  30.8670  31.0872  31.0987

          k = 0.2000-0.0770 0.1808 (  5080 PWs)   bands (ev):

   -76.5000 -76.4989 -76.4855 -76.4790 -76.4764 -76.4753 -38.5069 -38.5012
   -38.4782 -38.4752 -38.4717 -38.4529 -38.4446 -38.4258 -38.4221 -38.4071
   -38.3986 -38.3965 -38.3934 -38.3863 -38.3849 -38.3730 -38.3680 -38.3458
   -22.7771 -22.7740  -1.3029  -1.2792  -1.2773  -1.2749  -1.2481  -1.2399
     7.5705   7.6426   7.6906   7.7025   7.8468   7.8931   7.9249   8.0044
     8.0611   8.0862   8.1690   8.2047   8.2108   8.4153   8.6020   8.6404
     8.6699   8.6976   8.7127   8.7281   8.7763   8.8670   8.8799   8.9159
     8.9194   9.1447   9.2000   9.2728   9.3362   9.3480  12.0248  15.8439
    16.4756  16.8844  18.0562  18.9148  19.5740  20.2010  20.9267  21.0465
    22.1938  22.3312  22.4334  23.5213  23.6177  24.1099  24.2829  24.9183
    25.2671  25.6571  26.3087  26.3968  26.6588  27.4037  27.6973  28.1703
    28.3600  28.4494  28.8192  29.2542  30.1133  30.6159  30.9036  31.2268

          k = 0.2000-0.0770 0.3616 (  5063 PWs)   bands (ev):

   -76.4909 -76.4878 -76.4871 -76.4785 -76.4688 -76.4597 -38.5062 -38.5010
   -38.4690 -38.4680 -38.4540 -38.4527 -38.4505 -38.4134 -38.4104 -38.4081
   -38.3990 -38.3951 -38.3853 -38.3849 -38.3752 -38.3701 -38.3646 -38.3486
   -22.7764 -22.7742  -1.3007  -1.2843  -1.2699  -1.2691  -1.2492  -1.2429
     7.6187   7.6705   7.7032   7.7608   7.8317   7.8640   7.8772   7.9693
     8.0514   8.1074   8.1404   8.1937   8.1962   8.3478   8.6095   8.6392
     8.6552   8.6653   8.6859   8.7959   8.8027   8.8223   8.8498   8.9696
     9.0084   9.0535   9.2436   9.2569   9.2797   9.3660  12.5301  15.6993
    16.2796  17.1340  17.7293  18.7572  19.8349  20.1267  20.4892  20.5634
    21.3868  21.6224  23.0699  23.8579  23.8866  24.3393  24.8537  24.9788
    25.1656  25.7205  26.0144  26.3501  26.5632  27.7244  28.0702  28.1341
    28.4012  28.9810  29.3625  29.4503  30.3141  30.6340  30.7585  31.1540

          k = 0.2000-0.0770 0.5424 (  5055 PWs)   bands (ev):

   -76.4956 -76.4847 -76.4825 -76.4783 -76.4626 -76.4519 -38.5112 -38.5054
   -38.4729 -38.4711 -38.4661 -38.4620 -38.4156 -38.4068 -38.4031 -38.4012
   -38.4001 -38.3980 -38.3759 -38.3741 -38.3697 -38.3681 -38.3644 -38.3573
   -22.7755 -22.7748  -1.2983  -1.2930  -1.2603  -1.2590  -1.2524  -1.2496
     7.6794   7.7220   7.7568   7.8272   7.8294   7.8540   7.8609   7.9181
     7.9873   8.0112   8.0260   8.0451   8.4467   8.4991   8.5703   8.5847
     8.6143   8.6245   8.6356   8.7434   8.8146   8.8453   8.8500   8.8730
     9.1011   9.1738   9.2107   9.2490   9.2712   9.3301  13.3707  14.4800
    16.8768  17.4413  17.6923  18.2606  19.7634  20.1308  20.4825  20.7750
    20.9180  21.0367  23.0786  23.1995  24.2939  24.4914  24.7162  24.7663
    25.6396  25.9408  25.9795  26.2640  26.6306  27.3050  28.8525  28.8904
    29.2742  29.4703  29.9456  30.0652  30.2896  30.4784  30.6640  31.0461

          k = 0.4000 0.2309 0.0000 (  5085 PWs)   bands (ev):

   -76.5030 -76.5012 -76.4947 -76.4867 -76.4738 -76.4708 -38.5038 -38.4811
   -38.4717 -38.4668 -38.4650 -38.4507 -38.4450 -38.4245 -38.4214 -38.4133
   -38.4057 -38.4055 -38.4054 -38.3987 -38.3892 -38.3759 -38.3733 -38.3580
   -22.7761 -22.7743  -1.2966  -1.2948  -1.2894  -1.2777  -1.2734  -1.2440
     7.6354   7.7856   7.8122   7.8603   7.9008   7.9880   8.0160   8.1247
     8.1385   8.1625   8.2497   8.2840   8.2935   8.3933   8.5462   8.5789
     8.6041   8.6474   8.7391   8.7518   8.7760   8.8077   8.8099   8.8723
     8.8755   8.9290   8.9933   8.9950   9.3242   9.3646  12.6060  14.1123
    16.1150  16.5827  19.1639  19.5314  19.9668  20.6570  21.0848  21.1870
    21.3898  21.6558  22.6361  23.4812  23.4997  24.0906  24.2586  25.4349
    25.4362  25.7652  25.9085  26.3778  26.8812  26.8873  27.2511  27.3894
    28.3430  28.5923  29.7823  30.4085  30.5860  30.9534  31.0208  31.4108

          k = 0.4000 0.2309 0.1808 (  5088 PWs)   bands (ev):

   -76.5027 -76.4976 -76.4938 -76.4891 -76.4782 -76.4753 -38.4974 -38.4861
   -38.4718 -38.4681 -38.4640 -38.4534 -38.4357 -38.4305 -38.4199 -38.4147
   -38.4102 -38.4066 -38.4013 -38.3982 -38.3864 -38.3833 -38.3732 -38.3643
   -22.7759 -22.7743  -1.3045  -1.2880  -1.2865  -1.2837  -1.2670  -1.2454
     7.6508   7.7765   7.8492   7.8703   7.8865   7.9846   8.0194   8.0889
     8.1041   8.1754   8.2523   8.2990   8.3355   8.4145   8.4858   8.5816
     8.5839   8.6293   8.7205   8.7350   8.7467   8.7941   8.8179   8.8802
     8.9273   8.9703   8.9704   9.0250   9.2809   9.3529  12.7648  14.2780
    16.2457  16.6802  17.8582  19.6805  19.8332  20.3761  20.8117  21.6424
    21.6768  21.9999  22.8503  23.4767  23.7781  23.8832  24.2220  25.2546
    25.4984  25.5512  25.8901  26.3393  26.6157  26.8165  27.4012  27.8639
    28.6541  28.9326  29.4924  30.4106  30.4916  30.9738  31.2086  31.5452

          k = 0.4000 0.2309 0.3616 (  5084 PWs)   bands (ev):

   -76.5031 -76.4969 -76.4956 -76.4846 -76.4814 -76.4642 -38.4999 -38.4929
   -38.4748 -38.4715 -38.4583 -38.4520 -38.4479 -38.4313 -38.4203 -38.4153
   -38.4104 -38.4056 -38.3917 -38.3879 -38.3803 -38.3715 -38.3710 -38.3675
   -22.7755 -22.7744  -1.3090  -1.2980  -1.2781  -1.2742  -1.2633  -1.2488
     7.6865   7.7598   7.8082   7.9153   7.9382   7.9966   8.0061   8.0726
     8.1016   8.1996   8.2429   8.2860   8.2986   8.4236   8.4702   8.5538
     8.6060   8.6388   8.6750   8.6906   8.7308   8.7783   8.8346   8.9157
     8.9471   8.9720   8.9900   9.0599   9.1154   9.3809  13.2428  14.7596
    16.1657  16.7395  16.9715  18.9142  18.9793  20.2857  20.8503  21.6629
    22.1818  22.4012  22.9981  23.6622  23.8058  24.2092  24.3004  24.8487
    25.3839  25.5306  25.6652  26.1373  26.5579  27.0575  27.6931  28.6990
    29.2424  29.3162  29.3267  30.4333  30.7145  31.0511  31.3195  31.5481

          k = 0.4000 0.2309 0.5424 (  5068 PWs)   bands (ev):

   -76.4976 -76.4884 -76.4874 -76.4824 -76.4750 -76.4556 -38.4959 -38.4880
   -38.4709 -38.4599 -38.4554 -38.4514 -38.4369 -38.4289 -38.4208 -38.4168
   -38.4090 -38.4004 -38.3901 -38.3798 -38.3756 -38.3730 -38.3668 -38.3600
   -22.7750 -22.7746  -1.3089  -1.3058  -1.2666  -1.2658  -1.2627  -1.2556
     7.7205   7.7427   7.8291   7.8857   7.9277   7.9638   7.9970   8.1088
     8.1463   8.1923   8.2459   8.2759   8.3622   8.4186   8.4701   8.5915
     8.6058   8.6085   8.6605   8.7015   8.7117   8.7810   8.8168   8.8387
     8.8971   8.9610   8.9682   8.9838   9.2449   9.3468  14.0167  15.0371
    15.4928  16.2901  17.4542  18.1133  18.9688  19.6734  21.0975  21.4171
    22.4307  22.5560  23.1048  23.1376  24.1278  24.4222  24.5556  24.6191
    24.9341  25.4830  25.7868  26.1416  27.1079  27.5497  28.4834  28.6350
    29.3238  29.4479  29.8042  30.4160  30.9019  31.0339  31.1665  31.3666

          k = 0.4000 0.4234 0.0000 (  5078 PWs)   bands (ev):

   -76.5043 -76.4972 -76.4905 -76.4804 -76.4734 -76.4704 -38.4933 -38.4803
   -38.4746 -38.4634 -38.4582 -38.4534 -38.4430 -38.4242 -38.4152 -38.4080
   -38.4054 -38.4049 -38.4028 -38.4018 -38.3814 -38.3754 -38.3736 -38.3675
   -22.7756 -22.7746  -1.3017  -1.2910  -1.2871  -1.2809  -1.2765  -1.2501
     7.7081   7.7396   7.8810   7.8986   7.9944   8.0354   8.0404   8.1209
     8.1700   8.1787   8.2293   8.2671   8.2903   8.3418   8.5311   8.5557
     8.6329   8.6571   8.7209   8.7566   8.7788   8.8029   8.8246   8.8255
     8.8803   8.9024   8.9584   8.9605   9.2413   9.3542  12.9505  13.9031
    15.1723  17.3884  18.9604  19.4861  20.1687  20.4521  21.0185  21.1167
    21.5210  21.7554  23.2110  23.2426  23.7223  23.8363  24.6944  24.7183
    25.3488  25.5464  25.6741  26.1399  26.5686  27.2151  27.6253  27.9343
    28.8389  29.1130  29.5462  29.6455  29.8436  31.0505  31.0573  31.7664

          k = 0.4000 0.4234 0.1808 (  5071 PWs)   bands (ev):

   -76.4970 -76.4944 -76.4876 -76.4824 -76.4694 -76.4680 -38.4918 -38.4818
   -38.4761 -38.4633 -38.4557 -38.4488 -38.4427 -38.4248 -38.4140 -38.4070
   -38.4065 -38.4000 -38.3997 -38.3980 -38.3771 -38.3738 -38.3698 -38.3654
   -22.7755 -22.7746  -1.3019  -1.2933  -1.2902  -1.2779  -1.2687  -1.2522
     7.7184   7.7795   7.8655   7.9131   7.9493   8.0282   8.0711   8.0932
     8.0982   8.2034   8.2703   8.3007   8.3378   8.3544   8.4924   8.5310
     8.6059   8.6463   8.6895   8.7414   8.7512   8.7599   8.8032   8.8701
     8.9145   8.9331   8.9516   9.0092   9.2682   9.2766  13.1038  14.0773
    15.3335  17.4036  17.9481  18.9847  19.9987  20.7862  20.9164  21.4455
    21.8333  22.0061  23.1851  23.3937  23.9280  24.0147  24.2377  24.5570
    25.1604  25.3768  25.6577  26.2553  26.9990  27.4272  27.5020  27.6722
    28.7269  29.4037  29.5993  30.1344  30.3064  30.9901  31.1645  31.4083

          k = 0.4000 0.4234 0.3616 (  5075 PWs)   bands (ev):

   -76.4982 -76.4953 -76.4897 -76.4811 -76.4728 -76.4691 -38.4855 -38.4760
   -38.4714 -38.4665 -38.4607 -38.4558 -38.4422 -38.4367 -38.4163 -38.4118
   -38.4091 -38.4014 -38.3947 -38.3883 -38.3880 -38.3782 -38.3660 -38.3630
   -22.7751 -22.7745  -1.3078  -1.3015  -1.2854  -1.2686  -1.2649  -1.2538
     7.7400   7.7847   7.8558   7.9535   7.9766   7.9848   8.0369   8.0764
     8.1097   8.2284   8.2939   8.3067   8.3822   8.3928   8.4406   8.5492
     8.5732   8.6228   8.6445   8.7081   8.7249   8.7653   8.7902   8.8228
     8.9369   8.9602   8.9868   9.0436   9.1031   9.3149  13.5587  14.5762
    15.7640  16.5120  17.2197  18.3013  19.4455  20.7615  20.8907  21.4204
    22.4904  22.7328  23.0940  23.4682  23.4751  23.9456  24.4196  24.8177
    25.1426  25.2739  25.4841  26.6319  26.6755  27.2052  27.8219  28.3868
    28.9681  29.8767  30.0509  30.3379  30.7562  31.0244  31.1210  31.4987

          k = 0.4000 0.4234 0.5424 (  5077 PWs)   bands (ev):

   -76.5030 -76.5023 -76.4820 -76.4787 -76.4766 -76.4661 -38.4865 -38.4862
   -38.4697 -38.4648 -38.4588 -38.4517 -38.4377 -38.4326 -38.4257 -38.4174
   -38.4109 -38.3996 -38.3970 -38.3858 -38.3846 -38.3749 -38.3717 -38.3636
   -22.7748 -22.7746  -1.3104  -1.3077  -1.2759  -1.2672  -1.2617  -1.2573
     7.7557   7.7619   7.8735   7.9017   7.9586   7.9848   8.0129   8.1119
     8.1986   8.2314   8.3220   8.3469   8.4116   8.4124   8.4537   8.5315
     8.5543   8.6232   8.6622   8.7107   8.7229   8.7397   8.7666   8.7935
     8.8020   8.8693   8.9883   9.0071   9.2126   9.2944  14.2953  15.2737
    15.3418  16.0585  16.8390  17.4621  19.6860  20.3294  21.0793  21.2693
    22.7669  22.8082  22.9472  23.1016  23.5853  23.8373  24.4912  24.8118
    24.9371  25.0440  26.6984  26.8080  27.0970  27.4700  27.9127  28.9253
    29.2182  29.4368  30.3732  30.4200  30.8866  30.9783  31.0462  31.3441

          k = 0.4000 0.6158 0.0000 (  5071 PWs)   bands (ev):

   -76.5105 -76.4994 -76.4898 -76.4724 -76.4660 -76.4608 -38.4920 -38.4767
   -38.4697 -38.4658 -38.4596 -38.4581 -38.4489 -38.4199 -38.4141 -38.4073
   -38.4031 -38.4017 -38.4007 -38.3964 -38.3754 -38.3719 -38.3672 -38.3630
   -22.7753 -22.7748  -1.3033  -1.2890  -1.2832  -1.2828  -1.2767  -1.2541
     7.7233   7.7842   7.8625   7.9151   8.0063   8.0557   8.0962   8.0986
     8.1782   8.1920   8.2315   8.2388   8.2597   8.2964   8.5240   8.5413
     8.6356   8.6509   8.7014   8.7959   8.8079   8.8111   8.8278   8.8501
     8.8620   8.8936   8.9356   9.0261   9.1327   9.3510  13.0306  14.1341
    14.6244  17.8956  18.5418  19.4705  20.1595  20.4424  21.2123  21.2673
    21.3806  21.7993  22.9835  23.4776  23.8305  24.1104  24.7172  24.8448
    24.9397  24.9716  25.5326  25.7148  26.7928  27.7098  28.0640  28.4080
    28.8325  28.9000  29.2413  29.7601  29.9415  30.6293  31.0454  31.1121

          k = 0.4000 0.6158 0.1808 (  5066 PWs)   bands (ev):

   -76.4960 -76.4943 -76.4904 -76.4766 -76.4655 -76.4638 -38.4921 -38.4731
   -38.4680 -38.4627 -38.4598 -38.4540 -38.4468 -38.4226 -38.4136 -38.4057
   -38.4025 -38.4005 -38.3984 -38.3963 -38.3744 -38.3720 -38.3660 -38.3645
   -22.7752 -22.7747  -1.3002  -1.2960  -1.2914  -1.2743  -1.2687  -1.2559
     7.7729   7.7858   7.8402   7.9388   8.0130   8.0194   8.0507   8.0988
     8.1071   8.1909   8.2537   8.2970   8.3146   8.3619   8.4814   8.5249
     8.6066   8.6542   8.6633   8.7440   8.7458   8.8015   8.8188   8.8665
     8.8979   8.9195   8.9415   9.0768   9.1810   9.2644  13.1827  14.3059
    14.7916  17.7949  18.0730  18.4398  20.3440  20.6086  20.8802  21.6607
    21.9483  22.0819  22.8856  23.2132  24.1256  24.1424  24.4124  24.6906
    24.9260  25.3072  25.3958  25.5877  27.2566  27.5090  27.7973  28.2501
    28.7023  29.4379  29.7033  29.9970  30.1909  30.9040  31.0071  31.1169

          k = 0.4000 0.6158 0.3616 (  5090 PWs)   bands (ev):

   -76.5078 -76.5057 -76.4955 -76.4833 -76.4818 -76.4710 -38.4869 -38.4817
   -38.4788 -38.4692 -38.4654 -38.4628 -38.4484 -38.4323 -38.4232 -38.4143
   -38.4115 -38.4041 -38.3985 -38.3957 -38.3896 -38.3834 -38.3683 -38.3644
   -22.7750 -22.7746  -1.3063  -1.3029  -1.2899  -1.2667  -1.2639  -1.2602
     7.7811   7.7941   7.8729   7.9761   7.9878   7.9996   8.0212   8.0721
     8.0910   8.2216   8.2941   8.3024   8.3588   8.4288   8.4469   8.5558
     8.5882   8.6137   8.6286   8.6928   8.7156   8.7624   8.7936   8.8185
     8.9347   8.9613   8.9745   9.0409   9.1465   9.2362  13.6339  14.7951
    15.2613  16.5733  17.4397  17.8444  20.0836  20.5342  20.8263  21.7217
    22.5171  22.5937  23.1376  23.2743  23.3849  23.7108  24.5772  24.7767
    25.1889  25.2761  25.6192  26.0890  26.8833  27.2626  28.1957  28.6882
    29.2473  29.6062  29.7919  30.5023  30.6944  30.8825  31.2499  31.4069

          k = 0.4000 0.6158 0.5424 (  5076 PWs)   bands (ev):

   -76.5051 -76.4962 -76.4810 -76.4793 -76.4765 -76.4678 -38.4887 -38.4789
   -38.4673 -38.4647 -38.4565 -38.4481 -38.4333 -38.4296 -38.4285 -38.4152
   -38.4120 -38.3997 -38.3959 -38.3937 -38.3865 -38.3825 -38.3692 -38.3634
   -22.7747 -22.7746  -1.3090  -1.3080  -1.2786  -1.2697  -1.2597  -1.2589
     7.7741   7.7766   7.9028   7.9138   7.9827   7.9907   8.0043   8.0921
     8.1912   8.2190   8.3252   8.3657   8.4048   8.4667   8.4791   8.5023
     8.5416   8.6068   8.6732   8.7106   8.7285   8.7425   8.7503   8.7557
     8.7769   8.8750   9.0073   9.0204   9.2000   9.2392  14.3665  15.3500
    15.5246  15.8847  16.6896  17.0056  20.3827  20.7293  20.9085  21.1851
    22.4720  22.5966  22.9814  23.0589  23.4005  23.7935  24.4983  24.6157
    25.0738  25.1288  26.8079  26.9437  27.4155  27.7314  27.8997  29.0805
    29.1729  29.4430  29.8861  29.9701  30.8546  30.9549  31.1579  31.2836

          k = 0.4000-0.3464 0.0000 (  5079 PWs)   bands (ev):

   -76.5051 -76.4972 -76.4938 -76.4810 -76.4713 -76.4693 -38.4915 -38.4880
   -38.4773 -38.4662 -38.4594 -38.4481 -38.4372 -38.4266 -38.4173 -38.4110
   -38.4066 -38.4056 -38.4034 -38.4000 -38.3819 -38.3736 -38.3730 -38.3639
   -22.7758 -22.7745  -1.2989  -1.2925  -1.2889  -1.2794  -1.2757  -1.2473
     7.6674   7.7594   7.8475   7.8850   7.9514   8.0306   8.0800   8.0989
     8.1318   8.1629   8.2363   8.2860   8.3043   8.3785   8.5539   8.5854
     8.6225   8.6381   8.7050   8.7519   8.7583   8.7987   8.8120   8.8423
     8.8833   8.9127   8.9599   8.9761   9.2936   9.3580  12.8272  13.9030
    15.6028  17.0052  19.1604  19.5040  20.1333  20.5004  21.0148  21.0782
    21.5263  21.6058  22.9617  23.3941  23.6106  23.9361  24.5119  24.8816
    25.6197  25.7698  25.9592  26.4122  26.4725  26.7787  27.3604  27.6329
    28.6390  28.8850  29.5727  29.9455  30.2877  31.0686  31.1794  31.7828

          k = 0.4000-0.3464 0.1808 (  5074 PWs)   bands (ev):

   -76.4957 -76.4939 -76.4893 -76.4815 -76.4739 -76.4700 -38.4937 -38.4814
   -38.4752 -38.4635 -38.4553 -38.4508 -38.4389 -38.4305 -38.4128 -38.4094
   -38.4074 -38.4047 -38.4004 -38.3937 -38.3795 -38.3753 -38.3716 -38.3635
   -22.7757 -22.7745  -1.3034  -1.2915  -1.2885  -1.2807  -1.2684  -1.2477
     7.6808   7.7833   7.8652   7.8861   7.9162   8.0201   8.0680   8.0884
     8.1111   8.1783   8.2598   8.3077   8.3545   8.3771   8.4933   8.5522
     8.6150   8.6347   8.6779   8.7308   8.7474   8.7757   8.8030   8.8736
     8.9272   8.9360   8.9578   9.0024   9.2727   9.3249  12.9830  14.0755
    15.7562  17.0638  17.9111  19.3574  19.8572  20.7338  20.8135  21.3955
    21.8072  21.9969  23.1054  23.6390  23.6822  24.0234  24.1140  24.8260
    25.1585  25.7368  25.8167  26.3981  26.8132  27.1093  27.2789  27.6595
    28.7386  29.0194  29.6611  30.2533  30.5605  30.9146  31.1937  31.4950

          k = 0.4000-0.3464 0.3616 (  5081 PWs)   bands (ev):

   -76.5033 -76.5002 -76.4902 -76.4823 -76.4760 -76.4673 -38.4911 -38.4854
   -38.4720 -38.4675 -38.4617 -38.4545 -38.4480 -38.4375 -38.4185 -38.4147
   -38.4115 -38.4040 -38.3915 -38.3901 -38.3849 -38.3713 -38.3670 -38.3657
   -22.7753 -22.7745  -1.3091  -1.3005  -1.2824  -1.2712  -1.2646  -1.2508
     7.7112   7.7730   7.8336   7.9386   7.9637   7.9887   8.0261   8.0837
     8.1155   8.2231   8.2814   8.3012   8.3598   8.3833   8.4636   8.5458
     8.5785   8.6390   8.6537   8.6867   8.7243   8.7821   8.8096   8.8503
     8.9339   8.9614   8.9846   9.0491   9.1019   9.3566  13.4455  14.5696
    16.1091  16.4610  17.1250  18.6348  19.1099  20.5416  20.9057  21.4776
    22.4035  22.6858  23.0186  23.6099  23.6413  24.0980  24.4576  24.6462
    25.1429  25.4241  25.6857  26.2752  26.8575  27.0314  27.6417  28.4314
    28.9600  29.6891  29.7812  30.4745  30.9577  31.0060  31.2512  31.5165

          k = 0.4000-0.3464 0.5424 (  5079 PWs)   bands (ev):

   -76.5063 -76.4960 -76.4860 -76.4806 -76.4787 -76.4663 -38.4924 -38.4891
   -38.4673 -38.4607 -38.4598 -38.4533 -38.4428 -38.4328 -38.4246 -38.4185
   -38.4143 -38.4016 -38.3926 -38.3870 -38.3827 -38.3770 -38.3691 -38.3620
   -22.7749 -22.7746  -1.3106  -1.3072  -1.2725  -1.2655  -1.2632  -1.2570
     7.7373   7.7509   7.8506   7.8929   7.9437   7.9779   8.0140   8.1188
     8.1907   8.2224   8.3141   8.3433   8.3656   8.3912   8.4441   8.5689
     8.5756   8.6211   8.6672   8.6968   8.7115   8.7533   8.7974   8.8155
     8.8374   8.8817   8.9771   8.9910   9.2315   9.3273  14.1937  15.1846
    15.3305  16.1209  17.1478  17.8099  19.2519  19.9447  21.1185  21.3591
    22.6987  22.8178  23.0278  23.1292  23.8529  24.0650  24.5317  24.7507
    24.9527  25.1050  26.1957  26.5512  27.1181  27.4062  28.0935  28.7902
    29.3267  29.4753  30.1072  30.6631  30.7959  30.9996  31.2058  31.3819

          k = 0.4000-0.1540 0.0000 (  5078 PWs)   bands (ev):

   -76.5052 -76.4963 -76.4883 -76.4841 -76.4705 -76.4698 -38.4958 -38.4919
   -38.4734 -38.4638 -38.4617 -38.4533 -38.4440 -38.4218 -38.4211 -38.4101
   -38.4055 -38.4016 -38.3992 -38.3963 -38.3833 -38.3727 -38.3722 -38.3580
   -22.7763 -22.7743  -1.2951  -1.2949  -1.2886  -1.2761  -1.2704  -1.2443
     7.6373   7.7682   7.8164   7.8318   7.8985   7.9484   8.0090   8.1073
     8.1270   8.1774   8.2516   8.2752   8.2838   8.3769   8.5478   8.5878
     8.5989   8.6594   8.7354   8.7533   8.7637   8.8174   8.8633   8.8659
     8.8894   8.9374   9.0014   9.0442   9.3098   9.3684  12.4889  14.3344
    15.9046  16.8485  19.0332  19.5485  19.7551  20.7282  21.1308  21.2532
    21.6244  21.6955  22.5055  23.4636  23.5096  24.0770  24.1032  24.8534
    25.7964  25.8588  25.9180  26.2702  26.9087  27.0418  27.4843  27.5230
    28.3533  28.5091  29.9855  30.2941  30.3493  30.8249  30.9699  31.0442

          k = 0.4000-0.1540 0.1808 (  5082 PWs)   bands (ev):

   -76.5010 -76.4971 -76.4899 -76.4861 -76.4770 -76.4715 -38.4957 -38.4869
   -38.4748 -38.4682 -38.4633 -38.4529 -38.4410 -38.4243 -38.4202 -38.4107
   -38.4066 -38.4012 -38.3987 -38.3952 -38.3848 -38.3808 -38.3743 -38.3604
   -22.7761 -22.7743  -1.3035  -1.2884  -1.2844  -1.2824  -1.2650  -1.2454
     7.6527   7.7650   7.8138   7.8737   7.9000   7.9410   8.0054   8.0805
     8.1134   8.1410   8.2496   8.2867   8.3226   8.4308   8.4770   8.5844
     8.6022   8.6369   8.7166   8.7351   8.7738   8.7906   8.8229   8.8916
     8.9150   8.9781   9.0127   9.0637   9.2860   9.3391  12.6495  14.4986
    16.0403  16.9039  17.8809  19.3832  19.9721  20.5330  20.7739  21.5064
    21.8718  22.0206  22.7234  23.4340  23.7052  23.8815  24.2484  25.0974
    25.3696  25.6519  26.0279  26.1573  26.7417  27.0071  27.4648  27.9931
    28.7780  28.9953  29.3193  30.1235  30.4842  30.7540  31.1297  31.3958

          k = 0.4000-0.1540 0.3616 (  5080 PWs)   bands (ev):

   -76.4974 -76.4949 -76.4895 -76.4858 -76.4780 -76.4704 -38.4943 -38.4921
   -38.4720 -38.4661 -38.4604 -38.4520 -38.4459 -38.4266 -38.4197 -38.4181
   -38.4049 -38.4027 -38.3928 -38.3919 -38.3825 -38.3758 -38.3689 -38.3645
   -22.7756 -22.7744  -1.3077  -1.2958  -1.2790  -1.2724  -1.2617  -1.2492
     7.6877   7.7536   7.7986   7.9062   7.9247   7.9650   8.0132   8.0465
     8.1106   8.1558   8.2209   8.2767   8.2846   8.4322   8.4860   8.5670
     8.5973   8.6544   8.6917   8.7100   8.7224   8.7790   8.8323   8.9172
     8.9696   8.9760   9.0463   9.0694   9.1259   9.3684  13.1323  14.9693
    16.0703  16.6026  17.2090  18.7789  19.1793  20.4446  20.7009  21.6643
    22.0704  22.2538  23.0191  23.5522  23.8120  24.2663  24.3611  24.7691
    25.1957  25.4779  25.8976  26.1327  26.8305  27.1278  27.7517  28.8435
    29.0097  29.1473  29.6175  30.0613  30.4839  31.0012  31.1828  31.6799

          k = 0.4000-0.1540 0.5424 (  5062 PWs)   bands (ev):

   -76.4961 -76.4899 -76.4809 -76.4755 -76.4737 -76.4555 -38.4941 -38.4927
   -38.4681 -38.4617 -38.4561 -38.4474 -38.4285 -38.4236 -38.4192 -38.4098
   -38.4072 -38.4027 -38.3864 -38.3802 -38.3756 -38.3719 -38.3679 -38.3599
   -22.7750 -22.7746  -1.3072  -1.3039  -1.2682  -1.2641  -1.2609  -1.2551
     7.7213   7.7454   7.8244   7.8865   7.9189   7.9489   7.9837   8.0911
     8.1017   8.1411   8.2226   8.2558   8.3674   8.4510   8.4938   8.5768
     8.5963   8.6211   8.6672   8.6907   8.7313   8.7968   8.8175   8.8496
     8.9086   8.9544   9.0197   9.0444   9.2369   9.3356  13.9187  14.9559
    15.6825  16.4316  17.3615  18.0052  19.2087  19.8789  20.9485  21.3369
    22.2807  22.3902  23.1220  23.1495  23.9561  24.2770  24.6379  24.7190
    24.9571  25.4247  26.0012  26.3621  27.0981  27.5916  28.3527  28.8835
    29.2086  29.4740  29.7604  30.4193  30.5829  31.0429  31.0885  31.2160

          k = 0.4000 0.0385 0.0000 (  5079 PWs)   bands (ev):

   -76.5073 -76.5023 -76.4896 -76.4817 -76.4747 -76.4603 -38.4960 -38.4910
   -38.4812 -38.4654 -38.4613 -38.4563 -38.4444 -38.4199 -38.4193 -38.4117
   -38.4048 -38.4047 -38.3966 -38.3933 -38.3815 -38.3776 -38.3738 -38.3500
   -22.7764 -22.7742  -1.2956  -1.2939  -1.2877  -1.2758  -1.2662  -1.2461
     7.6749   7.7263   7.7492   7.8574   7.9174   7.9621   8.0052   8.0246
     8.1076   8.2048   8.2448   8.2597   8.2878   8.3563   8.5700   8.5754
     8.6344   8.6606   8.7367   8.7376   8.7467   8.8347   8.8478   8.9005
     8.9028   8.9449   9.0043   9.1562   9.2430   9.3718  12.3922  14.6704
    15.4757  17.3014  18.7959  19.5233  19.5613  20.7609  21.2205  21.4863
[...]

   -76.7157 -76.7130 -76.7125 -76.7098 -76.6942 -76.6940 -38.7077 -38.7065
   -38.6830 -38.6785 -38.6634 -38.6613 -38.6520 -38.6467 -38.6409 -38.6394
   -38.6298 -38.6212 -38.6129 -38.6085 -38.6014 -38.6000 -38.5819 -38.5801
   -23.0452 -23.0450  -1.5787  -1.5766  -1.5465  -1.5384  -1.5326  -1.5292
     7.5359   7.5535   7.6641   7.6957   7.8574   7.8807   7.8994   7.9582
     8.0402   8.0650   8.0946   8.1390   8.1700   8.2138   8.2189   8.3103
     8.3195   8.3862   8.4579   8.5052   8.5127   8.5229   8.5372   8.5595
     8.5727   8.6635   8.7904   8.7985   8.9911   9.0658  14.3362  14.9328
    15.2653  15.5822  16.7066  17.2537  19.5397  20.1460  20.8985  21.1303
    22.3815  22.4856  22.8002  22.8580  23.4409  23.6495  24.2078  24.5719
    24.6234  24.7256  26.5186  26.5777  26.6632  27.2463  27.6076  28.6305
    28.7990  28.9908  30.1684  30.2040  30.7303  30.7705  30.8706  31.1313

          k = 0.4027 0.6201 0.0000 (  5113 PWs)   bands (ev):

   -76.7247 -76.7126 -76.7081 -76.6873 -76.6763 -76.6741 -38.7051 -38.6982
   -38.6951 -38.6681 -38.6664 -38.6639 -38.6546 -38.6484 -38.6428 -38.6155
   -38.6134 -38.6111 -38.5931 -38.5911 -38.5902 -38.5865 -38.5855 -38.5734
   -23.0457 -23.0452  -1.5729  -1.5557  -1.5550  -1.5496  -1.5492  -1.5266
     7.5759   7.6116   7.6453   7.7838   7.8411   7.8542   7.9194   7.9296
     7.9704   8.0234   8.0346   8.0667   8.0947   8.1541   8.2986   8.3222
     8.4000   8.4060   8.5002   8.5588   8.5809   8.6075   8.6142   8.6188
     8.6388   8.6586   8.7127   8.8449   8.9432   9.0545  13.1735  13.8406
    14.3099  17.6433  18.2559  19.3025  19.7813  20.1585  20.8916  21.0313
    21.0623  21.6531  22.6218  23.4669  23.5545  23.9065  24.4675  24.5849
    24.6241  24.7903  25.2629  25.3991  26.6971  27.5458  27.9544  28.1700
    28.3297  28.5269  29.0037  29.4947  29.8890  30.4275  30.9702  30.9969

          k = 0.4027 0.6201 0.1769 (  5111 PWs)   bands (ev):

   -76.7122 -76.7078 -76.7044 -76.6900 -76.6864 -76.6764 -38.7004 -38.6979
   -38.6806 -38.6723 -38.6616 -38.6558 -38.6534 -38.6448 -38.6402 -38.6153
   -38.6110 -38.6101 -38.6084 -38.6036 -38.5939 -38.5861 -38.5803 -38.5778
   -23.0456 -23.0451  -1.5696  -1.5645  -1.5602  -1.5448  -1.5400  -1.5280
     7.5756   7.6273   7.6630   7.7645   7.8242   7.8658   7.8804   7.9597
     7.9836   8.0005   8.0225   8.0667   8.1403   8.1991   8.2986   8.3355
     8.3651   8.3973   8.4233   8.5251   8.5355   8.5785   8.5916   8.6365
     8.6874   8.7065   8.7329   8.8698   8.9707   8.9827  13.3177  14.0043
    14.4709  17.5128  17.8778  18.1677  20.0989  20.4180  20.6897  21.2790
    21.6542  21.8574  22.5480  23.1609  23.8320  23.8514  24.1529  24.4287
    24.6658  25.0695  25.1572  25.3696  27.0596  27.2305  27.5316  28.0448
    28.4484  29.2506  29.5070  29.8368  29.9022  30.6261  30.8907  30.9622

          k = 0.4027 0.6201 0.3538 (  5114 PWs)   bands (ev):

   -76.7075 -76.7055 -76.7025 -76.6954 -76.6861 -76.6823 -38.7030 -38.6994
   -38.6771 -38.6750 -38.6600 -38.6579 -38.6485 -38.6436 -38.6381 -38.6283
   -38.6241 -38.6127 -38.6008 -38.5994 -38.5959 -38.5871 -38.5773 -38.5763
   -23.0453 -23.0450  -1.5735  -1.5696  -1.5595  -1.5363  -1.5340  -1.5309
     7.5732   7.5953   7.7231   7.7562   7.7866   7.8773   7.9162   7.9398
     7.9527   8.0048   8.0752   8.1251   8.1683   8.2137   8.2653   8.3312
     8.3594   8.3832   8.3988   8.4794   8.4867   8.5408   8.5650   8.6026
     8.6900   8.7657   8.7711   8.8106   8.9204   9.0074  13.7432  14.4702
    14.9122  16.4905  17.1437  17.5405  19.9690  20.3707  20.6847  21.4680
    22.2234  22.3331  22.9883  23.0332  23.1102  23.3238  24.2914  24.5346
    24.8792  24.9856  25.3269  25.8287  26.6644  27.0199  27.9725  28.5012
    29.0016  29.4168  29.6805  30.2636  30.4612  30.7795  31.0492  31.1078

          k = 0.4027 0.6201 0.5307 (  5137 PWs)   bands (ev):

   -76.7159 -76.7120 -76.7085 -76.7061 -76.6974 -76.6903 -38.7051 -38.7003
   -38.6812 -38.6803 -38.6607 -38.6597 -38.6497 -38.6460 -38.6419 -38.6379
   -38.6324 -38.6156 -38.6129 -38.6078 -38.6032 -38.5981 -38.5835 -38.5813
   -23.0451 -23.0450  -1.5778  -1.5767  -1.5497  -1.5405  -1.5310  -1.5299
     7.5720   7.5770   7.6898   7.6985   7.8760   7.8814   7.8890   7.9381
     8.0183   8.0576   8.1012   8.1506   8.1966   8.2177   8.2542   8.3030
     8.3238   8.3885   8.4629   8.4887   8.4955   8.5086   8.5228   8.5355
     8.5668   8.6752   8.8042   8.8121   8.9714   9.0075  14.4244  15.1256
    15.3151  15.4737  16.4968  16.7663  20.2634  20.6243  20.7386  20.9769
    22.2736  22.3432  22.6537  22.6779  23.2887  23.5963  24.2489  24.3812
    24.7541  24.7892  26.4593  26.5699  27.2084  27.4923  27.6548  28.6920
    28.8222  29.1754  29.7041  29.7609  30.5926  30.6991  30.9499  31.0560

          k = 0.4027-0.3488 0.0000 (  5102 PWs)   bands (ev):

   -76.7190 -76.7051 -76.6932 -76.6836 -76.6821 -76.6734 -38.7018 -38.6899
   -38.6856 -38.6654 -38.6647 -38.6553 -38.6497 -38.6444 -38.6335 -38.6203
   -38.6162 -38.6101 -38.6011 -38.5979 -38.5857 -38.5847 -38.5757 -38.5746
   -23.0461 -23.0448  -1.5687  -1.5585  -1.5574  -1.5476  -1.5465  -1.5183
     7.4552   7.6393   7.6506   7.6838   7.7526   7.8590   7.9017   7.9319
     7.9679   8.0413   8.0997   8.1210   8.1659   8.1727   8.2622   8.3187
     8.3807   8.4312   8.4808   8.5072   8.5483   8.5629   8.6048   8.6483
     8.6672   8.6871   8.7608   8.7859   9.0634   9.1004  12.8879  13.6477
    15.2816  16.8586  18.7796  19.3257  19.8930  20.1763  20.7704  20.7904
    21.2289  21.3182  22.9175  23.0923  23.3284  23.6842  24.2047  24.6501
    25.4082  25.6065  25.8061  26.0047  26.2595  26.6182  27.2086  27.4556
    28.4223  28.5347  29.1766  29.7098  30.0555  30.9910  31.0005  31.7471

          k = 0.4027-0.3488 0.1769 (  5115 PWs)   bands (ev):

   -76.7126 -76.7112 -76.7003 -76.6936 -76.6876 -76.6803 -38.7032 -38.6996
   -38.6836 -38.6701 -38.6599 -38.6563 -38.6555 -38.6513 -38.6369 -38.6223
   -38.6155 -38.6113 -38.6073 -38.6044 -38.5902 -38.5865 -38.5787 -38.5783
   -23.0460 -23.0448  -1.5731  -1.5601  -1.5570  -1.5513  -1.5383  -1.5188
     7.4643   7.6210   7.6429   7.7080   7.7899   7.8516   7.9012   7.9242
     7.9515   8.0252   8.0934   8.1248   8.1475   8.2278   8.2854   8.3264
     8.3452   8.3753   8.4580   8.4862   8.5231   8.5644   8.6060   8.6362
     8.7073   8.7334   8.7701   8.7969   8.9922   9.1177  13.0389  13.8098
    15.4190  16.8925  17.6989  19.1113  19.5970  20.4537  20.5925  21.1954
    21.4801  21.6647  23.0141  23.3127  23.4030  23.7911  23.8378  24.5681
    24.9793  25.3430  25.5925  26.2581  26.5712  26.8981  27.0752  27.4794
    28.3576  28.9287  29.3457  29.9591  30.3319  30.7830  31.0025  31.3301

          k = 0.4027-0.3488 0.3538 (  5119 PWs)   bands (ev):

   -76.7109 -76.7075 -76.7031 -76.6972 -76.6932 -76.6795 -38.7048 -38.7027
   -38.6785 -38.6740 -38.6649 -38.6595 -38.6557 -38.6443 -38.6372 -38.6287
   -38.6247 -38.6111 -38.6045 -38.5948 -38.5941 -38.5884 -38.5833 -38.5753
   -23.0456 -23.0448  -1.5773  -1.5682  -1.5520  -1.5415  -1.5346  -1.5219
     7.4853   7.5660   7.6399   7.7637   7.8081   7.8500   7.9068   7.9360
     7.9844   8.0000   8.0904   8.1287   8.1640   8.1703   8.2681   8.3273
     8.3424   8.3943   8.4218   8.4625   8.5123   8.5521   8.5778   8.6324
     8.7066   8.7703   8.7720   8.8140   8.8942   9.1330  13.4822  14.2744
    15.6988  16.3524  16.9510  18.4059  18.9517  20.3045  20.7000  21.3507
    22.0426  22.3465  22.9037  23.3183  23.4215  23.8326  24.1359  24.3740
    24.8180  25.1467  25.4649  26.1457  26.5404  26.8333  27.3302  28.2106
    28.7118  29.5171  29.5575  30.2721  30.6998  30.7494  31.0846  31.2603

          k = 0.4027-0.3488 0.5307 (  5126 PWs)   bands (ev):

   -76.7117 -76.7080 -76.7065 -76.7006 -76.6916 -76.6855 -38.7071 -38.7041
   -38.6767 -38.6745 -38.6622 -38.6590 -38.6526 -38.6456 -38.6347 -38.6321
   -38.6305 -38.6214 -38.6092 -38.5991 -38.5968 -38.5942 -38.5769 -38.5756
   -23.0452 -23.0450  -1.5791  -1.5759  -1.5422  -1.5357  -1.5332  -1.5275
     7.5085   7.5320   7.6483   7.6903   7.8461   7.8710   7.8989   7.9669
     8.0165   8.0475   8.1154   8.1214   8.1604   8.1762   8.1989   8.3330
     8.3453   8.3838   8.4574   8.4939   8.5197   8.5469   8.5678   8.5813
     8.6012   8.6620   8.7831   8.7880   9.0142   9.1009  14.1879  14.9624
    15.1265  15.6952  17.0373  17.6360  19.0837  19.7264  20.9440  21.2189
    22.3132  22.5628  22.7560  22.9589  23.6830  23.8684  24.2500  24.4623
    24.6837  24.8367  26.0658  26.3505  26.6708  27.1392  27.7760  28.4586
    28.8759  29.0485  29.9073  30.3487  30.6336  30.8256  31.0070  31.1329

          k = 0.4027-0.1550 0.0000 (  5125 PWs)   bands (ev):

   -76.7227 -76.7149 -76.7053 -76.6985 -76.6872 -76.6820 -38.7144 -38.7000
   -38.6912 -38.6729 -38.6677 -38.6605 -38.6508 -38.6501 -38.6463 -38.6267
   -38.6182 -38.6154 -38.6006 -38.5987 -38.5944 -38.5921 -38.5809 -38.5744
   -23.0466 -23.0447  -1.5658  -1.5618  -1.5579  -1.5438  -1.5434  -1.5162
     7.4191   7.5865   7.6290   7.6603   7.7219   7.7594   7.8559   7.8662
     8.0016   8.0419   8.0536   8.1178   8.1676   8.1939   8.2869   8.3484
     8.3824   8.4419   8.4433   8.5328   8.5782   8.5807   8.6462   8.6509
     8.7004   8.7130   8.7916   8.8640   9.0762   9.1176  12.4634  14.1669
    15.5438  16.7351  18.6548  19.3586  19.5478  20.4350  20.8489  20.9843
    21.2573  21.5201  22.3707  23.1811  23.1819  23.8004  23.8244  24.6216
    25.6415  25.6475  25.7572  26.1749  26.4110  26.8187  27.2930  27.3344
    28.0090  28.3965  29.5207  30.1402  30.1620  30.6621  30.8414  30.9476

          k = 0.4027-0.1550 0.1769 (  5109 PWs)   bands (ev):

   -76.7096 -76.7040 -76.7027 -76.6953 -76.6861 -76.6735 -38.7055 -38.7010
   -38.6820 -38.6695 -38.6598 -38.6573 -38.6535 -38.6471 -38.6354 -38.6186
   -38.6148 -38.6099 -38.6050 -38.6006 -38.5935 -38.5828 -38.5771 -38.5724
   -23.0464 -23.0447  -1.5708  -1.5568  -1.5519  -1.5516  -1.5358  -1.5163
     7.4297   7.5717   7.6246   7.6776   7.7542   7.7647   7.8419   7.8783
     7.9639   8.0058   8.0666   8.1190   8.1514   8.2320   8.2868   8.3448
     8.3897   8.3946   8.4481   8.5048   8.5596   8.5904   8.6310   8.6595
     8.7021   8.7473   8.8323   8.8646   9.0078   9.1330  12.6206  14.3218
    15.6582  16.7760  17.6707  19.1602  19.7328  20.2494  20.5581  21.1879
    21.6545  21.7761  22.5216  23.1835  23.3800  23.5703  24.0229  24.8271
    25.1091  25.2984  25.8302  26.0178  26.4918  26.8058  27.2831  27.7437
    28.6439  28.6601  29.0718  29.9191  30.2778  30.5840  30.9107  31.1271

          k = 0.4027-0.1550 0.3538 (  5117 PWs)   bands (ev):

   -76.7105 -76.7062 -76.7028 -76.6966 -76.6902 -76.6797 -38.7091 -38.7050
   -38.6730 -38.6658 -38.6617 -38.6592 -38.6568 -38.6413 -38.6366 -38.6265
   -38.6236 -38.6162 -38.6068 -38.5971 -38.5903 -38.5885 -38.5855 -38.5731
   -23.0460 -23.0448  -1.5757  -1.5639  -1.5479  -1.5422  -1.5319  -1.5196
     7.4547   7.5445   7.6141   7.7050   7.7771   7.7902   7.8473   7.8994
     7.9418   8.0054   8.0488   8.0695   8.1222   8.2348   8.2509   8.3475
     8.3814   8.4325   8.4737   8.4866   8.5204   8.5407   8.6209   8.6805
     8.7477   8.7694   8.8370   8.8500   8.9192   9.1452  13.0836  14.7588
    15.6858  16.4486  17.0693  18.5648  19.0159  20.1959  20.5273  21.4933
    21.7943  22.0242  22.7659  23.3548  23.4279  23.9855  24.0512  24.4555
    24.8903  25.1962  25.7302  25.9344  26.6060  26.8712  27.4782  28.5886
    28.7555  28.9571  29.4525  29.8497  30.1572  30.7867  30.9395  31.4989

          k = 0.4027-0.1550 0.5307 (  5116 PWs)   bands (ev):

   -76.7063 -76.7041 -76.6987 -76.6949 -76.6939 -76.6831 -38.7089 -38.7078
   -38.6710 -38.6700 -38.6653 -38.6609 -38.6482 -38.6407 -38.6346 -38.6281
   -38.6264 -38.6152 -38.6016 -38.5952 -38.5932 -38.5920 -38.5763 -38.5737
   -23.0454 -23.0450  -1.5764  -1.5720  -1.5383  -1.5340  -1.5314  -1.5255
     7.4855   7.5176   7.6261   7.6781   7.8020   7.8066   7.8489   7.9217
     7.9392   7.9650   8.0237   8.0389   8.1982   8.2287   8.2683   8.3416
     8.3609   8.4087   8.4780   8.4999   8.5251   8.5824   8.5920   8.6415
     8.6671   8.7144   8.8285   8.8431   9.0220   9.1098  13.8285  14.7859
    15.4244  16.0919  17.2673  17.8478  19.0319  19.6485  20.7917  21.1882
    22.0000  22.2896  22.6314  22.8658  23.7748  24.0475  24.3681  24.4927
    24.6752  25.1704  25.8592  26.1607  26.6958  27.3120  28.0225  28.5661
    28.7858  29.1444  29.4982  30.0776  30.4126  30.7743  30.8873  30.9137

          k = 0.4027 0.0388 0.0000 (  5123 PWs)   bands (ev):

   -76.7212 -76.7180 -76.7100 -76.6951 -76.6859 -76.6755 -38.7146 -38.7023
   -38.6928 -38.6709 -38.6630 -38.6601 -38.6550 -38.6543 -38.6389 -38.6245
   -38.6171 -38.6126 -38.6022 -38.5995 -38.5963 -38.5879 -38.5774 -38.5754
   -23.0467 -23.0446  -1.5635  -1.5629  -1.5595  -1.5424  -1.5377  -1.5174
     7.4541   7.5037   7.6370   7.6828   7.7208   7.7475   7.7850   7.8672
     7.9848   8.0132   8.0781   8.1215   8.1223   8.1915   8.3309   8.3430
     8.4198   8.4382   8.4466   8.5296   8.5564   8.6057   8.6239   8.6884
     8.7147   8.7199   8.7950   8.9685   9.0516   9.0802  12.3565  14.5569
    15.1341  17.0850  18.5371  19.2199  19.3695  20.5009  20.9282  21.1850
    21.2141  21.7898  22.5229  22.9370  23.2295  23.6222  23.8411  24.0400
    25.2829  25.7354  26.1633  26.3957  26.4029  26.6542  27.5195  27.8220
    27.8580  28.6958  29.6746  29.7584  29.8102  30.2703  30.7641  30.8757

          k = 0.4027 0.0388 0.1769 (  5117 PWs)   bands (ev):

   -76.7173 -76.7072 -76.7049 -76.6975 -76.6906 -76.6740 -38.7141 -38.7039
   -38.6798 -38.6700 -38.6638 -38.6608 -38.6564 -38.6462 -38.6389 -38.6202
   -38.6127 -38.6107 -38.6061 -38.6005 -38.5939 -38.5889 -38.5784 -38.5748
   -23.0465 -23.0446  -1.5693  -1.5600  -1.5508  -1.5492  -1.5324  -1.5189
     7.4614   7.5105   7.6463   7.6769   7.7209   7.7634   7.7794   7.8647
     7.9740   8.0211   8.0377   8.0847   8.1492   8.2408   8.2799   8.3711
     8.4126   8.4164   8.4441   8.5039   8.5724   8.5963   8.6252   8.6761
     8.6870   8.7544   8.8426   8.9739   9.0132   9.0702  12.5145  14.7054
    15.2685  16.9362  17.9879  18.5519  20.0567  20.3035  20.6923  20.9071
    21.6935  22.0014  22.6733  23.0110  23.2876  23.4192  24.0349  24.5402
    25.0946  25.1257  25.6568  26.1589  26.8258  27.0665  27.4657  28.1109
    28.3995  28.7884  28.9683  29.5826  30.0928  30.4092  30.7077  31.0486

          k = 0.4027 0.0388 0.3538 (  5115 PWs)   bands (ev):

   -76.7095 -76.7046 -76.7018 -76.6985 -76.6887 -76.6789 -38.7108 -38.7040
   -38.6709 -38.6670 -38.6619 -38.6576 -38.6563 -38.6392 -38.6353 -38.6239
   -38.6213 -38.6174 -38.6049 -38.5989 -38.5913 -38.5886 -38.5851 -38.5733
   -23.0460 -23.0447  -1.5744  -1.5618  -1.5496  -1.5404  -1.5285  -1.5219
     7.4773   7.5250   7.6323   7.6887   7.7225   7.7492   7.8289   7.8906
     7.9308   8.0163   8.0246   8.0520   8.1193   8.2334   8.2756   8.3616
     8.3717   8.4598   8.4886   8.5004   8.5234   8.5363   8.6148   8.6862
     8.7429   8.8035   8.8257   8.9042   8.9777   9.0895  12.9832  15.1258
    15.4821  16.2122  17.4598  18.1410  19.5731  20.0656  20.7272  21.0967
    21.8433  22.0228  22.8561  23.1578  23.3863  23.8348  24.2773  24.3200
    24.7512  24.8778  25.9236  26.0630  26.8913  27.2717  27.6790  28.4434
    28.5874  28.9426  29.2736  29.7620  29.9670  30.7615  30.8030  31.4780

          k = 0.4027 0.0388 0.5307 (  5117 PWs)   bands (ev):

   -76.7065 -76.7026 -76.7012 -76.6986 -76.6898 -76.6843 -38.7121 -38.7048
   -38.6743 -38.6697 -38.6648 -38.6592 -38.6498 -38.6426 -38.6309 -38.6290
   -38.6241 -38.6168 -38.6061 -38.5938 -38.5933 -38.5860 -38.5789 -38.5762
   -23.0455 -23.0450  -1.5747  -1.5696  -1.5400  -1.5343  -1.5286  -1.5264
     7.5018   7.5278   7.6235   7.6648   7.7560   7.7736   7.8426   7.8938
     7.9015   7.9249   8.0225   8.0346   8.2048   8.2688   8.2958   8.3331
     8.3433   8.4441   8.4683   8.4840   8.5413   8.5956   8.6056   8.6253
     8.6872   8.7074   8.9045   8.9277   8.9929   9.0610  13.7348  14.7033
    15.7452  16.1797  17.1109  17.4877  19.7322  20.2531  20.3253  20.7484
    21.9485  22.2081  22.6393  22.8746  23.4930  23.7528  24.4908  24.6049
    24.6893  24.9819  26.2322  26.6837  26.7995  27.1474  27.7714  28.6455
    28.9893  29.3310  29.4226  29.9303  30.3021  30.5608  30.7358  30.7916

     the Fermi energy is    24.7673 ev

!    total energy              =   -2196.37993437 Ry
     Harris-Foulkes estimate   =   -2196.37995546 Ry
     estimated scf accuracy    <       0.00002423 Ry

     The total energy is the sum of the following terms:

     one-electron contribution =    -635.42673498 Ry
     hartree contribution      =     400.51600956 Ry
     xc contribution           =    -193.36894874 Ry
     ewald contribution        =   -1767.75370595 Ry
     smearing contrib. (-TS)   =      -0.34655427 Ry

     convergence has been achieved in  12 iterations

     Forces acting on atoms (Ry/au):

     atom    1 type  1   force =     0.01239510    0.00715632    0.00000000
     atom    2 type  1   force =     0.01239510   -0.00715632    0.00000000
     atom    3 type  1   force =    -0.01239510   -0.00715632    0.00000000
     atom    4 type  1   force =    -0.01239510    0.00715632    0.00000000
     atom    5 type  1   force =     0.00000000   -0.01431263    0.00000000
     atom    6 type  1   force =     0.00000000    0.01431263    0.00000000
     atom    7 type  2   force =     0.00000000    0.00000000    0.00000000
     atom    8 type  2   force =     0.00000000    0.00000000    0.00000000

     Total force =     0.035059     Total SCF correction =     0.000000


     entering subroutine stress ...

          total   stress  (Ry/bohr**3)                   (kbar)     P= -216.23
  -0.00155976   0.00000000   0.00000000       -229.45      0.00      0.00
   0.00000000  -0.00155976   0.00000000          0.00   -229.45      0.00
   0.00000000   0.00000000  -0.00129019          0.00      0.00   -189.79


     Writing output data file Prototype-La-hP8-Mg3Cd.save
 
     init_run     :     15.36s CPU     19.66s WALL (       2 calls)
     electrons    :   3620.34s CPU   4312.08s WALL (       5 calls)
     update_pot   :      2.60s CPU      2.62s WALL (       3 calls)
     forces       :     12.89s CPU     13.84s WALL (       5 calls)
     stress       :     40.08s CPU     41.42s WALL (       5 calls)

     Called by init_run:
     wfcinit      :     14.43s CPU     18.05s WALL (       2 calls)
     potinit      :      0.42s CPU      0.43s WALL (       2 calls)

     Called by electrons:
     c_bands      :   3517.08s CPU   4153.75s WALL (      47 calls)
     sum_band     :    102.83s CPU    139.19s WALL (      47 calls)
     v_of_rho     :      0.09s CPU      0.12s WALL (      52 calls)
     mix_rho      :      0.09s CPU      0.13s WALL (      47 calls)

     Called by c_bands:
     init_us_2    :      7.95s CPU      9.79s WALL (    6784 calls)
     ccgdiagg     :   3199.38s CPU   3746.70s WALL (    3332 calls)
     wfcrot       :    324.44s CPU    412.36s WALL (    3396 calls)

     Called by *cgdiagg:
     h_psi        :   2384.89s CPU   2954.61s WALL ( 1683549 calls)
     cdiaghg      :     13.32s CPU     14.25s WALL (    3396 calls)

     Called by h_psi:
     add_vuspsi   :    320.75s CPU    357.97s WALL ( 1683549 calls)

     General routines
     calbec       :    827.27s CPU    869.93s WALL ( 3364342 calls)
     fft          :      0.13s CPU      0.16s WALL (     231 calls)
     fftw         :   1507.68s CPU   1903.74s WALL ( 4301106 calls)
     davcio       :      4.37s CPU     10.46s WALL (    9792 calls)
 
     Parallel routines
     fft_scatter  :    540.86s CPU    710.98s WALL ( 4301337 calls)
 
     PWSCF        :     1h 1m CPU        1h13m WALL

 
   This run was terminated on:  23:58:51  22Mar2018            

=------------------------------------------------------------------------------=
   JOB DONE.
=------------------------------------------------------------------------------=
