
     Program PWSCF v.5.0.2 starts on 21Mar2018 at 22:59: 8 

     This program is part of the open-source Quantum ESPRESSO suite
     for quantum simulation of materials; please cite
         "P. Giannozzi et al., J. Phys.:Condens. Matter 21 395502 (2009);
          URL http://www.quantum-espresso.org", 
     in publications or presentations arising from this work. More details at
     http://www.quantum-espresso.org/quote.php

     Parallel version (MPI), running on    20 processors
     R & G space division:  proc/nbgrp/npool/nimage =      20

     Current dimensions of program PWSCF are:
     Max number of different atomic species (ntypx) = 10
     Max number of k-points (npk) =  40000
     Max angular momentum in pseudopotentials (lmaxx) =  3
     Waiting for input...
     Reading input from standard input

     Subspace diagonalization in iterative solution of the eigenvalue problem:
     scalapack distributed-memory algorithm (size of sub-group:  3*  3 procs)

 
     Parallelization info
     --------------------
     sticks:   dense  smooth     PW     G-vecs:    dense   smooth      PW
     Min          32      32      9                 1070     1070     175
     Max          33      33     10                 1075     1075     182
     Sum         649     649    199                21445    21445    3585
 


     bravais-lattice index     =            0
     lattice parameter (alat)  =       7.6546  a.u.
     unit-cell volume          =     624.6137 (a.u.)^3
     number of atoms/cell      =            2
     number of atomic types    =            1
     number of electrons       =        34.00
     number of Kohn-Sham states=           21
     kinetic-energy cutoff     =      40.0000  Ry
     charge density cutoff     =     160.0000  Ry
     convergence threshold     =      1.0E-04
     mixing beta               =       0.7000
     number of iterations used =            8  plain     mixing
     Exchange-correlation      = SLA-PZ-NOGX-NOGC ( 1 1 0 0 0)
     EXX-fraction              =        0.00
     nstep                     =           50


     celldm(1)=   7.654631  celldm(2)=   0.000000  celldm(3)=   0.000000
     celldm(4)=   0.000000  celldm(5)=   0.000000  celldm(6)=   0.000000

     crystal axes: (cart. coord. in units of alat)
               a(1) = (   1.000000   0.000000   0.000000 )  
               a(2) = (  -0.500000   0.866025   0.000000 )  
               a(3) = (   0.000000   0.000000   1.608082 )  

     reciprocal axes: (cart. coord. in units 2 pi/alat)
               b(1) = (  1.000000  0.577350  0.000000 )  
               b(2) = (  0.000000  1.154701  0.000000 )  
               b(3) = (  0.000000  0.000000  0.621859 )  


     PseudoPot. # 1 for Eu read from file:
     /home/cwx6513/pp.La/Eu.UPF
     MD5 check sum: 5efdbbfc50c6a10138933a6429836ad2
     Pseudo is Norm-conserving, Zval = 17.0
     Generated in analytical, separable form
     Using radial grid of 1261 points,  6 beta functions with: 
                l(1) =   0
                l(2) =   0
                l(3) =   1
                l(4) =   1
                l(5) =   2
                l(6) =   3

     atomic species   valence    mass     pseudopotential
        Eu            17.00   151.96400     Eu( 1.00)

     24 Sym. Ops., with inversion, found (12 have fractional translation)



   Cartesian axes

     site n.     atom                  positions (alat units)
         1           Eu  tau(   1) = (  -0.0000005   0.5773506   0.4020204  )
         2           Eu  tau(   2) = (   0.5000005   0.2886748   1.2060613  )

     number of k points=    64  gaussian smearing, width (Ry)=  0.1000
                       cart. coord. in units 2pi/alat
        k(    1) = (   0.0000000   0.0000000   0.0000000), wk =   0.0095238
        k(    2) = (   0.0000000   0.0000000   0.0888370), wk =   0.0190476
        k(    3) = (   0.0000000   0.0000000   0.1776740), wk =   0.0190476
        k(    4) = (   0.0000000   0.0000000   0.2665110), wk =   0.0190476
        k(    5) = (   0.0000000   0.1924501   0.0000000), wk =   0.0190476
        k(    6) = (   0.0000000   0.1924501   0.0888370), wk =   0.0380952
        k(    7) = (   0.0000000   0.1924501   0.1776740), wk =   0.0380952
        k(    8) = (   0.0000000   0.1924501   0.2665110), wk =   0.0380952
        k(    9) = (   0.0000000   0.3849002   0.0000000), wk =   0.0190476
        k(   10) = (   0.0000000   0.3849002   0.0888370), wk =   0.0380952
        k(   11) = (   0.0000000   0.3849002   0.1776740), wk =   0.0380952
        k(   12) = (   0.0000000   0.3849002   0.2665110), wk =   0.0380952
        k(   13) = (   0.0000000  -0.5773503   0.0000000), wk =   0.0095238
        k(   14) = (   0.0000000  -0.5773503   0.0888370), wk =   0.0190476
        k(   15) = (   0.0000000  -0.5773503   0.1776740), wk =   0.0190476
        k(   16) = (   0.0000000  -0.5773503   0.2665110), wk =   0.0190476
        k(   17) = (   0.2000000   0.1154701   0.0000000), wk =   0.0190476
        k(   18) = (   0.2000000   0.1154701   0.0888370), wk =   0.0380952
        k(   19) = (   0.2000000   0.1154701   0.1776740), wk =   0.0380952
        k(   20) = (   0.2000000   0.1154701   0.2665110), wk =   0.0380952
        k(   21) = (   0.2000000   0.3079201   0.0000000), wk =   0.0190476
        k(   22) = (   0.2000000   0.3079201   0.0888370), wk =   0.0380952
        k(   23) = (   0.2000000   0.3079201   0.1776740), wk =   0.0380952
        k(   24) = (   0.2000000   0.3079201   0.2665110), wk =   0.0380952
        k(   25) = (   0.2000000   0.5003702   0.0000000), wk =   0.0190476
        k(   26) = (   0.2000000   0.5003702   0.0888370), wk =   0.0380952
        k(   27) = (   0.2000000   0.5003702   0.1776740), wk =   0.0380952
        k(   28) = (   0.2000000   0.5003702   0.2665110), wk =   0.0380952
        k(   29) = (   0.2000000  -0.4618802   0.0000000), wk =   0.0190476
        k(   30) = (   0.2000000  -0.4618802   0.0888370), wk =   0.0380952
        k(   31) = (   0.2000000  -0.4618802   0.1776740), wk =   0.0380952
        k(   32) = (   0.2000000  -0.4618802   0.2665110), wk =   0.0380952
        k(   33) = (   0.2000000  -0.2694301   0.0000000), wk =   0.0190476
        k(   34) = (   0.2000000  -0.2694301   0.0888370), wk =   0.0380952
        k(   35) = (   0.2000000  -0.2694301   0.1776740), wk =   0.0380952
        k(   36) = (   0.2000000  -0.2694301   0.2665110), wk =   0.0380952
        k(   37) = (   0.2000000  -0.0769800   0.0000000), wk =   0.0190476
        k(   38) = (   0.2000000  -0.0769800   0.0888370), wk =   0.0380952
        k(   39) = (   0.2000000  -0.0769800   0.1776740), wk =   0.0380952
        k(   40) = (   0.2000000  -0.0769800   0.2665110), wk =   0.0380952
        k(   41) = (   0.4000000   0.2309401   0.0000000), wk =   0.0190476
        k(   42) = (   0.4000000   0.2309401   0.0888370), wk =   0.0380952
        k(   43) = (   0.4000000   0.2309401   0.1776740), wk =   0.0380952
        k(   44) = (   0.4000000   0.2309401   0.2665110), wk =   0.0380952
        k(   45) = (   0.4000000   0.4233902   0.0000000), wk =   0.0190476
        k(   46) = (   0.4000000   0.4233902   0.0888370), wk =   0.0380952
        k(   47) = (   0.4000000   0.4233902   0.1776740), wk =   0.0380952
        k(   48) = (   0.4000000   0.4233902   0.2665110), wk =   0.0380952
        k(   49) = (   0.4000000   0.6158403   0.0000000), wk =   0.0190476
        k(   50) = (   0.4000000   0.6158403   0.0888370), wk =   0.0380952
        k(   51) = (   0.4000000   0.6158403   0.1776740), wk =   0.0380952
        k(   52) = (   0.4000000   0.6158403   0.2665110), wk =   0.0380952
        k(   53) = (   0.4000000  -0.3464102   0.0000000), wk =   0.0190476
        k(   54) = (   0.4000000  -0.3464102   0.0888370), wk =   0.0380952
        k(   55) = (   0.4000000  -0.3464102   0.1776740), wk =   0.0380952
        k(   56) = (   0.4000000  -0.3464102   0.2665110), wk =   0.0380952
        k(   57) = (   0.4000000  -0.1539601   0.0000000), wk =   0.0190476
        k(   58) = (   0.4000000  -0.1539601   0.0888370), wk =   0.0380952
        k(   59) = (   0.4000000  -0.1539601   0.1776740), wk =   0.0380952
        k(   60) = (   0.4000000  -0.1539601   0.2665110), wk =   0.0380952
        k(   61) = (   0.4000000   0.0384900   0.0000000), wk =   0.0190476
        k(   62) = (   0.4000000   0.0384900   0.0888370), wk =   0.0380952
        k(   63) = (   0.4000000   0.0384900   0.1776740), wk =   0.0380952
        k(   64) = (   0.4000000   0.0384900   0.2665110), wk =   0.0380952

     Dense  grid:    21445 G-vectors     FFT dimensions: (  32,  32,  50)

     Largest allocated arrays     est. size (Mb)     dimensions
        Kohn-Sham Wavefunctions         0.05 Mb     (    141,   21)
        NL pseudopotentials             0.09 Mb     (    141,   40)
        Each V/rho on FFT grid          0.05 Mb     (   3072)
        Each G-vector array             0.01 Mb     (   1070)
        G-vector shells                 0.01 Mb     (   1070)
     Largest temporary arrays     est. size (Mb)     dimensions
        Each subspace H/S matrix        0.00 Mb     (   7,   7)
        Each <psi_i|beta_j> matrix      0.01 Mb     (     40,   21)
        Arrays for rho mixing           0.38 Mb     (   3072,   8)

     Initial potential from superposition of free atoms

     Starting from uniform charge
     Starting wfc are    0 randomized atomic wfcs

     total cpu time spent up to now is        1.6 secs

     Self-consistent Calculation

     iteration #  1     ecut=    40.00 Ry     beta=0.70
     CG style diagonalization
     ethr =  1.00E-02,  avg # of iterations = 11.1

     total cpu time spent up to now is        6.2 secs

     total energy              =    -323.76927892 Ry
     Harris-Foulkes estimate   =    -461.98745204 Ry
     estimated scf accuracy    <     180.55478685 Ry

     iteration #  2     ecut=    40.00 Ry     beta=0.70
     CG style diagonalization
     ethr =  1.00E-02,  avg # of iterations =  5.9

     total cpu time spent up to now is        8.5 secs

     total energy              =    -349.10098418 Ry
     Harris-Foulkes estimate   =    -351.92091974 Ry
     estimated scf accuracy    <       4.84740803 Ry

     iteration #  3     ecut=    40.00 Ry     beta=0.70
     CG style diagonalization
     ethr =  1.00E-02,  avg # of iterations =  3.9

     negative rho (up, down):  0.143E-02 0.000E+00

     total cpu time spent up to now is        9.9 secs

     total energy              =    -349.50533625 Ry
     Harris-Foulkes estimate   =    -350.17791938 Ry
     estimated scf accuracy    <       0.93904806 Ry

     iteration #  4     ecut=    40.00 Ry     beta=0.70
     CG style diagonalization
     ethr =  2.76E-03,  avg # of iterations =  4.2

     total cpu time spent up to now is       11.4 secs

     total energy              =    -349.24908196 Ry
     Harris-Foulkes estimate   =    -350.71527721 Ry
     estimated scf accuracy    <       3.20484408 Ry

     iteration #  5     ecut=    40.00 Ry     beta=0.70
     CG style diagonalization
     ethr =  2.76E-03,  avg # of iterations =  4.0

     total cpu time spent up to now is       12.8 secs

     total energy              =    -349.86255558 Ry
     Harris-Foulkes estimate   =    -349.86778677 Ry
     estimated scf accuracy    <       0.00803700 Ry

     iteration #  6     ecut=    40.00 Ry     beta=0.70
     CG style diagonalization
     ethr =  2.36E-05,  avg # of iterations =  5.0

     total cpu time spent up to now is       14.7 secs

     total energy              =    -349.87592531 Ry
     Harris-Foulkes estimate   =    -349.87566346 Ry
     estimated scf accuracy    <       0.00726763 Ry

     iteration #  7     ecut=    40.00 Ry     beta=0.70
     CG style diagonalization
     ethr =  2.14E-05,  avg # of iterations =  3.0

     total cpu time spent up to now is       16.1 secs

     total energy              =    -349.87155704 Ry
     Harris-Foulkes estimate   =    -349.87598849 Ry
     estimated scf accuracy    <       0.00845226 Ry

     iteration #  8     ecut=    40.00 Ry     beta=0.70
     CG style diagonalization
     ethr =  2.14E-05,  avg # of iterations =  3.5

     total cpu time spent up to now is       17.3 secs

     total energy              =    -349.87354480 Ry
     Harris-Foulkes estimate   =    -349.87364262 Ry
     estimated scf accuracy    <       0.00030204 Ry

     iteration #  9     ecut=    40.00 Ry     beta=0.70
     CG style diagonalization
     ethr =  8.88E-07,  avg # of iterations =  3.4

     total cpu time spent up to now is       18.5 secs

     End of self-consistent calculation

          k = 0.0000 0.0000 0.0000 (  2707 PWs)   bands (ev):

   -55.0176 -55.0160 -27.6699 -27.6398 -27.6398 -27.6301 -27.6301 -27.6178
     3.8433   4.5700   5.4056   5.4295   5.4295   5.5518   5.5518   5.6997
     5.6998   6.2976   6.2976   8.4620   9.3556

          k = 0.0000 0.0000 0.0888 (  2689 PWs)   bands (ev):

   -55.0172 -55.0145 -27.6551 -27.6340 -27.6340 -27.6279 -27.6252 -27.6252
     3.9313   4.5882   5.3886   5.4012   5.4012   5.5284   5.5284   5.7655
     5.7655   6.2889   6.2889   7.6207  10.3588

          k = 0.0000 0.0000 0.1777 (  2701 PWs)   bands (ev):

   -55.0183 -55.0148 -27.6475 -27.6401 -27.6331 -27.6331 -27.6329 -27.6329
     4.1768   4.6294   5.3643   5.3679   5.3679   5.4705   5.4705   5.9012
     5.9012   6.2508   6.2508   6.6297  11.8322

          k = 0.0000 0.0000 0.2665 (  2640 PWs)   bands (ev):

   -55.0137 -55.0125 -27.6271 -27.6214 -27.6197 -27.6197 -27.6185 -27.6185
     4.4863   4.6402   5.3709   5.3708   5.4100   5.4100   5.4438   5.8571
     6.0488   6.0488   6.1714   6.1714  13.4332

          k = 0.0000 0.1925 0.0000 (  2683 PWs)   bands (ev):

   -55.0171 -55.0133 -27.6550 -27.6332 -27.6314 -27.6307 -27.6300 -27.6279
     4.2234   4.7723   5.2673   5.4846   5.5080   5.5953   5.6352   5.6528
     5.7401   5.9535   6.3427   9.3191   9.4521

          k = 0.0000 0.1925 0.0888 (  2673 PWs)   bands (ev):

   -55.0162 -55.0130 -27.6536 -27.6347 -27.6307 -27.6276 -27.6237 -27.6225
     4.3005   4.7974   5.2727   5.4345   5.4602   5.5371   5.7037   5.7217
     5.7466   5.9457   6.3253   8.2540  10.6801

          k = 0.0000 0.1925 0.1777 (  2666 PWs)   bands (ev):

   -55.0155 -55.0130 -27.6438 -27.6314 -27.6301 -27.6294 -27.6254 -27.6222
     4.5142   4.8649   5.2921   5.3353   5.3674   5.5087   5.6498   5.7544
     5.8821   6.0040   6.2675   7.3305  12.1055

          k = 0.0000 0.1925 0.2665 (  2665 PWs)   bands (ev):

   -55.0149 -55.0135 -27.6406 -27.6338 -27.6313 -27.6261 -27.6252 -27.6237
     4.7878   4.9238   5.2081   5.2432   5.4202   5.5257   5.5794   5.6004
     6.0323   6.1673   6.2472   6.6626  13.6192

          k = 0.0000 0.3849 0.0000 (  2660 PWs)   bands (ev):

   -55.0141 -55.0120 -27.6467 -27.6422 -27.6358 -27.6279 -27.6277 -27.6232
     4.7409   4.7738   5.0591   5.4249   5.5590   5.6591   5.6990   6.0913
     6.1665   6.3957   6.4039   9.9604  10.9793

          k = 0.0000 0.3849 0.0888 (  2663 PWs)   bands (ev):

   -55.0144 -55.0119 -27.6490 -27.6393 -27.6357 -27.6298 -27.6274 -27.6260
     4.7068   4.7891   5.1461   5.3873   5.4584   5.5821   5.9807   6.1025
     6.1324   6.3707   6.3907   9.3371  11.1303

          k = 0.0000 0.3849 0.1777 (  2663 PWs)   bands (ev):

   -55.0144 -55.0119 -27.6481 -27.6404 -27.6337 -27.6316 -27.6284 -27.6252
     4.6819   4.8557   5.1375   5.2079   5.5552   5.7049   6.0271   6.1374
     6.1830   6.3133   6.4854   8.4247  11.4500

          k = 0.0000 0.3849 0.2665 (  2661 PWs)   bands (ev):

   -55.0134 -55.0129 -27.6489 -27.6420 -27.6320 -27.6287 -27.6283 -27.6251
     4.7351   4.8497   5.0477   5.1408   5.7013   5.8709   5.9152   6.0965
     6.1879   6.2490   6.9419   7.6043  11.9364

          k = 0.0000-0.5774 0.0000 (  2674 PWs)   bands (ev):

   -55.0140 -55.0126 -27.6551 -27.6463 -27.6443 -27.6327 -27.6317 -27.6292
     4.6454   4.7824   4.8618   5.3503   5.6189   5.6901   6.0079   6.3383
     6.4120   6.4242   8.2868   8.5233  11.5732

          k = 0.0000-0.5774 0.0888 (  2670 PWs)   bands (ev):

   -55.0140 -55.0122 -27.6516 -27.6444 -27.6402 -27.6363 -27.6315 -27.6294
     4.6591   4.6711   5.0105   5.3896   5.3925   5.7274   6.2137   6.3067
     6.3826   6.4211   8.3544   8.5482  11.0036

          k = 0.0000-0.5774 0.1777 (  2654 PWs)   bands (ev):

   -55.0124 -55.0119 -27.6521 -27.6474 -27.6307 -27.6283 -27.6256 -27.6240
     4.5899   4.7329   5.0916   5.0931   5.5153   5.8949   6.1521   6.3770
     6.4073   6.4122   8.5648   8.6284  10.1826

          k = 0.0000-0.5774 0.2665 (  2676 PWs)   bands (ev):

   -55.0140 -55.0127 -27.6592 -27.6520 -27.6359 -27.6349 -27.6303 -27.6295
     4.6214   4.7274   4.9653   5.0391   5.7030   5.9286   6.1689   6.3856
     6.3867   6.3992   8.7661   8.8126   9.7619

          k = 0.2000 0.1155 0.0000 (  2685 PWs)   bands (ev):

   -55.0171 -55.0132 -27.6532 -27.6376 -27.6337 -27.6323 -27.6317 -27.6289
     4.3656   4.8157   5.2724   5.4211   5.4750   5.5593   5.7173   5.7347
     5.8155   5.8816   6.3558   9.5065   9.6195

          k = 0.2000 0.1155 0.0888 (  2682 PWs)   bands (ev):

   -55.0165 -55.0135 -27.6570 -27.6361 -27.6331 -27.6307 -27.6295 -27.6260
     4.4324   4.8419   5.2760   5.4048   5.4314   5.5453   5.7466   5.7641
     5.7997   5.9053   6.3355   8.4467  10.8269

          k = 0.2000 0.1155 0.1777 (  2664 PWs)   bands (ev):

   -55.0154 -55.0127 -27.6444 -27.6329 -27.6291 -27.6290 -27.6252 -27.6249
     4.6127   4.9159   5.2579   5.3299   5.3838   5.5436   5.7180   5.7212
     5.8987   6.0354   6.2727   7.5167  12.2049

          k = 0.2000 0.1155 0.2665 (  2660 PWs)   bands (ev):

   -55.0142 -55.0135 -27.6416 -27.6360 -27.6281 -27.6264 -27.6245 -27.6235
     4.8387   4.9822   5.1592   5.2364   5.4563   5.5785   5.6009   5.6441
     6.0377   6.1695   6.3244   6.8048  13.6262

          k = 0.2000 0.3079 0.0000 (  2672 PWs)   bands (ev):

   -55.0152 -55.0123 -27.6478 -27.6414 -27.6378 -27.6334 -27.6330 -27.6263
     4.8658   4.9994   5.1249   5.2144   5.3899   5.5389   5.7430   5.8281
     6.1462   6.3564   6.5075   9.8944  10.8523

          k = 0.2000 0.3079 0.0888 (  2669 PWs)   bands (ev):

   -55.0147 -55.0125 -27.6499 -27.6399 -27.6348 -27.6343 -27.6285 -27.6276
     4.8688   4.9909   5.1459   5.1943   5.4758   5.5488   5.6816   5.8635
     6.1904   6.2607   6.5617   9.2429  11.4646

          k = 0.2000 0.3079 0.1777 (  2669 PWs)   bands (ev):

   -55.0145 -55.0127 -27.6480 -27.6401 -27.6352 -27.6321 -27.6308 -27.6289
     4.8746   4.9895   5.1392   5.3051   5.4688   5.5748   5.5795   6.0266
     6.1144   6.2669   6.6661   8.3510  12.1751

          k = 0.2000 0.3079 0.2665 (  2665 PWs)   bands (ev):

   -55.0140 -55.0128 -27.6435 -27.6414 -27.6331 -27.6316 -27.6307 -27.6290
     4.9031   4.9535   5.2268   5.3530   5.4127   5.4928   5.6650   5.8537
     6.2827   6.3161   6.9633   7.5636  12.7937

          k = 0.2000 0.5004 0.0000 (  2677 PWs)   bands (ev):

   -55.0134 -55.0130 -27.6503 -27.6439 -27.6424 -27.6417 -27.6340 -27.6315
     4.8816   4.9302   5.0249   5.3526   5.5665   5.5758   5.7264   6.1467
     6.3424   6.3676   7.9662   9.6491  11.1693

          k = 0.2000 0.5004 0.0888 (  2665 PWs)   bands (ev):

   -55.0129 -55.0123 -27.6483 -27.6435 -27.6399 -27.6347 -27.6312 -27.6286
     4.8406   4.9545   5.0932   5.2884   5.4371   5.7162   5.7767   6.1474
     6.2641   6.3913   8.0345   9.7504  10.7878

          k = 0.2000 0.5004 0.1777 (  2666 PWs)   bands (ev):

   -55.0130 -55.0125 -27.6497 -27.6444 -27.6388 -27.6343 -27.6320 -27.6294
     4.8050   5.0117   5.0979   5.2782   5.3626   5.7729   5.8904   6.0462
     6.2083   6.4247   8.2489   9.9331  10.0959

          k = 0.2000 0.5004 0.2665 (  2665 PWs)   bands (ev):

   -55.0128 -55.0127 -27.6494 -27.6470 -27.6374 -27.6334 -27.6323 -27.6291
     4.8297   4.9231   5.1419   5.2554   5.4923   5.7324   5.8759   5.9149
     6.3195   6.4084   8.6374   9.2180  10.5351

          k = 0.2000-0.4619 0.0000 (  2662 PWs)   bands (ev):

   -55.0130 -55.0120 -27.6417 -27.6412 -27.6400 -27.6370 -27.6311 -27.6280
     4.9114   4.9428   5.0277   5.3492   5.5031   5.6050   5.6982   6.0695
     6.3445   6.3665   7.6087  10.0265  11.1599

          k = 0.2000-0.4619 0.0888 (  2658 PWs)   bands (ev):

   -55.0129 -55.0117 -27.6441 -27.6436 -27.6376 -27.6328 -27.6278 -27.6274
     4.8662   4.9651   5.0962   5.2589   5.4789   5.6743   5.7439   6.0748
     6.2669   6.3933   7.6697  10.0671  10.6521

          k = 0.2000-0.4619 0.1777 (  2666 PWs)   bands (ev):

   -55.0133 -55.0124 -27.6492 -27.6442 -27.6367 -27.6353 -27.6319 -27.6290
     4.8270   5.0021   5.0971   5.2999   5.3926   5.7066   5.8422   6.0403
     6.1835   6.4339   7.8674   9.5790  10.5710

          k = 0.2000-0.4619 0.2665 (  2676 PWs)   bands (ev):

   -55.0135 -55.0134 -27.6536 -27.6510 -27.6378 -27.6356 -27.6341 -27.6305
     4.8428   4.9185   5.1624   5.2790   5.5064   5.7097   5.8169   5.8460
     6.3298   6.4248   8.2459   8.8316  11.0214

          k = 0.2000-0.2694 0.0000 (  2684 PWs)   bands (ev):

   -55.0160 -55.0132 -27.6514 -27.6425 -27.6395 -27.6359 -27.6338 -27.6303
     4.7728   4.9474   5.1912   5.2244   5.4191   5.5117   5.7723   5.7989
     6.0501   6.3111   6.3595   9.7734  10.5472

          k = 0.2000-0.2694 0.0888 (  2668 PWs)   bands (ev):

   -55.0152 -55.0123 -27.6480 -27.6387 -27.6335 -27.6324 -27.6288 -27.6272
     4.7876   4.9641   5.1785   5.2388   5.4352   5.5522   5.7085   5.8372
     6.1018   6.2119   6.4143   9.0369  11.3365

          k = 0.2000-0.2694 0.1777 (  2662 PWs)   bands (ev):

   -55.0147 -55.0122 -27.6435 -27.6383 -27.6321 -27.6305 -27.6280 -27.6274
     4.8286   5.0190   5.1236   5.3287   5.4075   5.5881   5.6054   6.0035
     6.0826   6.1894   6.4779   8.1251  12.3149

          k = 0.2000-0.2694 0.2665 (  2665 PWs)   bands (ev):

   -55.0141 -55.0131 -27.6439 -27.6421 -27.6310 -27.6300 -27.6290 -27.6284
     4.8985   4.9883   5.1821   5.3123   5.4163   5.5057   5.6799   5.8515
     6.2312   6.2577   6.7418   7.3392  13.0912

          k = 0.2000-0.0770 0.0000 (  2680 PWs)   bands (ev):

   -55.0169 -55.0130 -27.6534 -27.6359 -27.6317 -27.6304 -27.6296 -27.6264
     4.3047   4.8042   5.2573   5.4643   5.4800   5.5692   5.6771   5.6871
     5.7966   5.9142   6.3487   9.4809   9.4872

          k = 0.2000-0.0770 0.0888 (  2677 PWs)   bands (ev):

   -55.0162 -55.0133 -27.6547 -27.6340 -27.6328 -27.6297 -27.6278 -27.6234
     4.3770   4.8300   5.2624   5.4251   5.4367   5.5497   5.7121   5.7359
     5.7916   5.9210   6.3302   8.3633  10.7605

          k = 0.2000-0.0770 0.1777 (  2666 PWs)   bands (ev):

   -55.0153 -55.0130 -27.6450 -27.6318 -27.6303 -27.6285 -27.6257 -27.6240
     4.5754   4.9018   5.2697   5.3324   5.3603   5.5346   5.6910   5.7188
     5.9011   6.0148   6.2720   7.4360  12.1632

          k = 0.2000-0.0770 0.2665 (  2661 PWs)   bands (ev):

   -55.0145 -55.0135 -27.6409 -27.6347 -27.6285 -27.6264 -27.6251 -27.6230
     4.8284   4.9696   5.1765   5.2348   5.4177   5.5444   5.5980   5.6257
     6.0395   6.1657   6.2921   6.7429  13.6384

          k = 0.4000 0.2309 0.0000 (  2666 PWs)   bands (ev):

   -55.0143 -55.0118 -27.6483 -27.6432 -27.6427 -27.6309 -27.6291 -27.6278
     4.6870   4.7879   4.9349   5.3780   5.6386   5.6491   5.8766   6.2425
     6.3205   6.4062   7.0594   9.9402  10.7014

          k = 0.4000 0.2309 0.0888 (  2669 PWs)   bands (ev):

   -55.0141 -55.0123 -27.6519 -27.6470 -27.6387 -27.6309 -27.6286 -27.6285
     4.6819   4.7239   5.0594   5.3933   5.4175   5.6772   6.1155   6.2380
     6.2837   6.3896   7.0789   9.9215  10.1038

          k = 0.4000 0.2309 0.1777 (  2672 PWs)   bands (ev):

   -55.0144 -55.0123 -27.6551 -27.6470 -27.6354 -27.6321 -27.6319 -27.6281
     4.6282   4.7810   5.1075   5.1370   5.5316   5.8303   6.1163   6.2777
     6.3197   6.3627   7.2152   9.0369  10.3287

          k = 0.4000 0.2309 0.2665 (  2659 PWs)   bands (ev):

   -55.0132 -55.0120 -27.6500 -27.6457 -27.6317 -27.6296 -27.6278 -27.6251
     4.6651   4.7734   4.9970   5.0786   5.7062   5.9149   6.0839   6.2888
     6.3033   6.3334   7.6020   8.2277  10.7769

          k = 0.4000 0.4234 0.0000 (  2672 PWs)   bands (ev):

   -55.0138 -55.0120 -27.6534 -27.6413 -27.6413 -27.6349 -27.6340 -27.6324
     4.8449   4.8620   4.9658   5.3524   5.5715   5.7032   5.7271   6.2769
     6.3527   6.3561   8.4511   8.9005  11.4168

          k = 0.4000 0.4234 0.0888 (  2664 PWs)   bands (ev):

   -55.0133 -55.0117 -27.6500 -27.6411 -27.6370 -27.6342 -27.6325 -27.6307
     4.7846   4.8722   5.0854   5.3356   5.3701   5.7695   5.8684   6.2646
     6.2833   6.3776   8.5220   8.9858  11.0700

          k = 0.4000 0.4234 0.1777 (  2670 PWs)   bands (ev):

   -55.0135 -55.0124 -27.6521 -27.6470 -27.6387 -27.6348 -27.6320 -27.6313
     4.7357   4.9483   5.0984   5.2609   5.3171   5.8955   5.9873   6.0760
     6.2791   6.4078   8.7280   9.2478  10.3386

          k = 0.4000 0.4234 0.2665 (  2665 PWs)   bands (ev):

   -55.0129 -55.0126 -27.6510 -27.6495 -27.6349 -27.6328 -27.6308 -27.6302
     4.7701   4.8930   5.0634   5.1873   5.5212   5.7876   6.0229   6.0589
     6.3161   6.3859   9.0712   9.4958   9.8721

          k = 0.4000 0.6158 0.0000 (  2667 PWs)   bands (ev):

   -55.0125 -55.0124 -27.6465 -27.6430 -27.6387 -27.6380 -27.6355 -27.6289
     4.8535   5.0603   5.1076   5.3808   5.4640   5.5060   5.7995   6.1688
     6.3170   6.3208   8.6120   9.3826  10.6064

          k = 0.4000 0.6158 0.0888 (  2662 PWs)   bands (ev):

   -55.0125 -55.0119 -27.6480 -27.6412 -27.6408 -27.6324 -27.6312 -27.6301
     4.8771   5.0524   5.0985   5.3236   5.4525   5.5953   5.7997   6.1805
     6.2359   6.3360   8.6942   9.4843  10.7138

          k = 0.4000 0.6158 0.1777 (  2663 PWs)   bands (ev):

   -55.0127 -55.0122 -27.6488 -27.6439 -27.6411 -27.6349 -27.6316 -27.6278
     4.9027   5.0184   5.1438   5.2659   5.4689   5.6670   5.8066   6.0256
     6.2317   6.3628   8.9426   9.7789  10.6863

          k = 0.4000 0.6158 0.2665 (  2672 PWs)   bands (ev):

   -55.0134 -55.0129 -27.6511 -27.6483 -27.6430 -27.6385 -27.6334 -27.6295
     4.9136   4.9570   5.2540   5.2772   5.4965   5.6240   5.8157   5.8533
     6.3025   6.3556   9.3624   9.9187  10.3462

          k = 0.4000-0.3464 0.0000 (  2667 PWs)   bands (ev):

   -55.0135 -55.0121 -27.6497 -27.6427 -27.6424 -27.6340 -27.6303 -27.6281
     4.7321   4.8591   4.8800   5.3521   5.6122   5.6886   5.8394   6.3059
     6.3627   6.3866   7.8246   9.2569  11.2017

          k = 0.4000-0.3464 0.0888 (  2671 PWs)   bands (ev):

   -55.0138 -55.0123 -27.6527 -27.6466 -27.6396 -27.6355 -27.6304 -27.6291
     4.7207   4.7602   5.0557   5.3353   5.4094   5.7334   6.0267   6.2782
     6.3394   6.3835   7.8768   9.3302  10.6056

          k = 0.4000-0.3464 0.1777 (  2671 PWs)   bands (ev):

   -55.0138 -55.0124 -27.6539 -27.6488 -27.6362 -27.6344 -27.6311 -27.6299
     4.6573   4.8287   5.0929   5.1658   5.4351   5.8873   6.1112   6.1844
     6.3062   6.4259   8.0557   9.4611   9.8696

          k = 0.4000-0.3464 0.2665 (  2668 PWs)   bands (ev):

   -55.0133 -55.0126 -27.6525 -27.6513 -27.6340 -27.6318 -27.6311 -27.6288
     4.6913   4.8102   5.0011   5.1044   5.6272   5.8726   6.0865   6.2026
     6.3296   6.4086   8.4047   8.9381  10.0845

          k = 0.4000-0.1540 0.0000 (  2664 PWs)   bands (ev):

   -55.0143 -55.0118 -27.6450 -27.6443 -27.6412 -27.6306 -27.6282 -27.6260
     4.7517   4.8186   4.9874   5.3882   5.6058   5.6705   5.7070   6.1690
     6.2258   6.3916   6.8053  10.1152  10.9236

          k = 0.4000-0.1540 0.0888 (  2673 PWs)   bands (ev):

   -55.0145 -55.0126 -27.6507 -27.6442 -27.6401 -27.6338 -27.6301 -27.6293
     4.7304   4.7871   5.1065   5.3344   5.4697   5.6360   5.9644   6.1461
     6.2511   6.3398   6.8278   9.6647  10.6799

          k = 0.4000-0.1540 0.1777 (  2664 PWs)   bands (ev):

   -55.0140 -55.0120 -27.6482 -27.6454 -27.6338 -27.6311 -27.6285 -27.6275
     4.6831   4.8531   5.1081   5.1950   5.5127   5.7592   6.0518   6.1645
     6.2185   6.3326   6.9567   8.7826  10.9147

          k = 0.4000-0.1540 0.2665 (  2667 PWs)   bands (ev):

   -55.0137 -55.0127 -27.6490 -27.6475 -27.6340 -27.6317 -27.6291 -27.6280
     4.7230   4.8374   5.0298   5.1315   5.6782   5.8732   5.9423   6.0880
     6.2796   6.3500   7.3389   7.9717  11.3751

          k = 0.4000 0.0385 0.0000 (  2672 PWs)   bands (ev):

   -55.0146 -55.0124 -27.6445 -27.6412 -27.6404 -27.6369 -27.6328 -27.6283
     4.9103   4.9839   5.0549   5.3125   5.3716   5.5778   5.7064   5.8948
     6.2286   6.3565   6.7357  10.0402  11.1892

          k = 0.4000 0.0385 0.0888 (  2669 PWs)   bands (ev):

   -55.0142 -55.0126 -27.6485 -27.6415 -27.6370 -27.6349 -27.6289 -27.6287
     4.8918   4.9662   5.1255   5.2153   5.4849   5.6044   5.6724   5.9168
     6.2673   6.2765   6.7792   9.4849  11.4148

          k = 0.4000 0.0385 0.1777 (  2675 PWs)   bands (ev):

   -55.0144 -55.0130 -27.6533 -27.6448 -27.6361 -27.6328 -27.6326 -27.6292
     4.8575   4.9918   5.0991   5.3322   5.4524   5.5804   5.6829   6.0427
     6.1372   6.3365   6.9085   8.6198  11.7876

          k = 0.4000 0.0385 0.2665 (  2664 PWs)   bands (ev):

   -55.0134 -55.0129 -27.6449 -27.6428 -27.6325 -27.6322 -27.6313 -27.6289
     4.8726   4.9326   5.1845   5.3142   5.5094   5.5838   5.6760   5.8508
     6.3095   6.3701   7.2356   7.8352  12.2946

     the Fermi energy is     6.7124 ev

!    total energy              =    -349.87353383 Ry
     Harris-Foulkes estimate   =    -349.87358661 Ry
     estimated scf accuracy    <       0.00006583 Ry

     The total energy is the sum of the following terms:

     one-electron contribution =    -149.56959705 Ry
     hartree contribution      =      81.35256891 Ry
     xc contribution           =     -35.28179857 Ry
     ewald contribution        =    -246.04010084 Ry
     smearing contrib. (-TS)   =      -0.33460628 Ry

     convergence has been achieved in   9 iterations

     Forces acting on atoms (Ry/au):

     atom    1 type  1   force =     0.00000000    0.00000000    0.00000000
     atom    2 type  1   force =     0.00000000    0.00000000    0.00000000

     Total force =     0.000000     Total SCF correction =     0.000000


     entering subroutine stress ...

          total   stress  (Ry/bohr**3)                   (kbar)     P= -290.72
  -0.00196699   0.00000000   0.00000000       -289.35      0.00      0.00
   0.00000000  -0.00196699   0.00000000          0.00   -289.35      0.00
   0.00000000   0.00000000  -0.00199487          0.00      0.00   -293.46


     BFGS Geometry Optimization

     number of scf cycles    =   1
     number of bfgs steps    =   0

     enthalpy new            =    -349.8735338330 Ry

     new trust radius        =       0.2492819097 bohr
     new conv_thr            =       0.0001000000 Ry

     new unit-cell volume =    536.53126 a.u.^3 (    79.50573 Ang^3 )

CELL_PARAMETERS (alat=  7.65463088)
   0.950825141   0.000000000   0.000000000
  -0.475412571   0.823438727   0.000000000
   0.000000000   0.000000000   1.527883794

ATOMIC_POSITIONS (crystal)
Eu       0.333333000   0.666667000   0.250000000
Eu       0.666667000   0.333333000   0.750000000



     Writing output data file Element-Eu.q.save
     NEW-OLD atomic charge density approx. for the potential
     NEW k-points:
        k(    1) = (   0.0000000   0.0000000   0.0000000), wk =   0.0095238
        k(    2) = (   0.0000000   0.0000000   0.0935000), wk =   0.0190476
        k(    3) = (   0.0000000   0.0000000   0.1870000), wk =   0.0190476
        k(    4) = (   0.0000000   0.0000000   0.2805000), wk =   0.0190476
        k(    5) = (   0.0000000   0.2024032   0.0000000), wk =   0.0190476
        k(    6) = (   0.0000000   0.2024032   0.0935000), wk =   0.0380952
        k(    7) = (   0.0000000   0.2024032   0.1870000), wk =   0.0380952
        k(    8) = (   0.0000000   0.2024032   0.2805000), wk =   0.0380952
        k(    9) = (   0.0000000   0.4048065   0.0000000), wk =   0.0190476
        k(   10) = (   0.0000000   0.4048065   0.0935000), wk =   0.0380952
        k(   11) = (   0.0000000   0.4048065   0.1870000), wk =   0.0380952
        k(   12) = (   0.0000000   0.4048065   0.2805000), wk =   0.0380952
        k(   13) = (   0.0000000  -0.6072097   0.0000000), wk =   0.0095238
        k(   14) = (   0.0000000  -0.6072097   0.0935000), wk =   0.0190476
        k(   15) = (   0.0000000  -0.6072097   0.1870000), wk =   0.0190476
        k(   16) = (   0.0000000  -0.6072097   0.2805000), wk =   0.0190476
        k(   17) = (   0.2103436   0.1214419   0.0000000), wk =   0.0190476
        k(   18) = (   0.2103436   0.1214419   0.0935000), wk =   0.0380952
        k(   19) = (   0.2103436   0.1214419   0.1870000), wk =   0.0380952
        k(   20) = (   0.2103436   0.1214419   0.2805000), wk =   0.0380952
        k(   21) = (   0.2103436   0.3238452   0.0000000), wk =   0.0190476
        k(   22) = (   0.2103436   0.3238452   0.0935000), wk =   0.0380952
        k(   23) = (   0.2103436   0.3238452   0.1870000), wk =   0.0380952
        k(   24) = (   0.2103436   0.3238452   0.2805000), wk =   0.0380952
        k(   25) = (   0.2103436   0.5262484   0.0000000), wk =   0.0190476
        k(   26) = (   0.2103436   0.5262484   0.0935000), wk =   0.0380952
        k(   27) = (   0.2103436   0.5262484   0.1870000), wk =   0.0380952
        k(   28) = (   0.2103436   0.5262484   0.2805000), wk =   0.0380952
        k(   29) = (   0.2103436  -0.4857678   0.0000000), wk =   0.0190476
        k(   30) = (   0.2103436  -0.4857678   0.0935000), wk =   0.0380952
        k(   31) = (   0.2103436  -0.4857678   0.1870000), wk =   0.0380952
        k(   32) = (   0.2103436  -0.4857678   0.2805000), wk =   0.0380952
        k(   33) = (   0.2103436  -0.2833645   0.0000000), wk =   0.0190476
        k(   34) = (   0.2103436  -0.2833645   0.0935000), wk =   0.0380952
        k(   35) = (   0.2103436  -0.2833645   0.1870000), wk =   0.0380952
        k(   36) = (   0.2103436  -0.2833645   0.2805000), wk =   0.0380952
        k(   37) = (   0.2103436  -0.0809613   0.0000000), wk =   0.0190476
        k(   38) = (   0.2103436  -0.0809613   0.0935000), wk =   0.0380952
        k(   39) = (   0.2103436  -0.0809613   0.1870000), wk =   0.0380952
        k(   40) = (   0.2103436  -0.0809613   0.2805000), wk =   0.0380952
        k(   41) = (   0.4206872   0.2428839   0.0000000), wk =   0.0190476
        k(   42) = (   0.4206872   0.2428839   0.0935000), wk =   0.0380952
        k(   43) = (   0.4206872   0.2428839   0.1870000), wk =   0.0380952
        k(   44) = (   0.4206872   0.2428839   0.2805000), wk =   0.0380952
        k(   45) = (   0.4206872   0.4452871   0.0000000), wk =   0.0190476
        k(   46) = (   0.4206872   0.4452871   0.0935000), wk =   0.0380952
        k(   47) = (   0.4206872   0.4452871   0.1870000), wk =   0.0380952
        k(   48) = (   0.4206872   0.4452871   0.2805000), wk =   0.0380952
        k(   49) = (   0.4206872   0.6476904   0.0000000), wk =   0.0190476
        k(   50) = (   0.4206872   0.6476904   0.0935000), wk =   0.0380952
        k(   51) = (   0.4206872   0.6476904   0.1870000), wk =   0.0380952
        k(   52) = (   0.4206872   0.6476904   0.2805000), wk =   0.0380952
        k(   53) = (   0.4206872  -0.3643258   0.0000000), wk =   0.0190476
        k(   54) = (   0.4206872  -0.3643258   0.0935000), wk =   0.0380952
        k(   55) = (   0.4206872  -0.3643258   0.1870000), wk =   0.0380952
        k(   56) = (   0.4206872  -0.3643258   0.2805000), wk =   0.0380952
        k(   57) = (   0.4206872  -0.1619226   0.0000000), wk =   0.0190476
        k(   58) = (   0.4206872  -0.1619226   0.0935000), wk =   0.0380952
        k(   59) = (   0.4206872  -0.1619226   0.1870000), wk =   0.0380952
        k(   60) = (   0.4206872  -0.1619226   0.2805000), wk =   0.0380952
        k(   61) = (   0.4206872   0.0404806   0.0000000), wk =   0.0190476
        k(   62) = (   0.4206872   0.0404806   0.0935000), wk =   0.0380952
        k(   63) = (   0.4206872   0.0404806   0.1870000), wk =   0.0380952
        k(   64) = (   0.4206872   0.0404806   0.2805000), wk =   0.0380952

     total cpu time spent up to now is       19.0 secs

     Self-consistent Calculation

     iteration #  1     ecut=    40.00 Ry     beta=0.70
     CG style diagonalization
     c_bands:  1 eigenvalues not converged
     c_bands:  1 eigenvalues not converged
     c_bands:  3 eigenvalues not converged
     c_bands:  2 eigenvalues not converged
     c_bands:  1 eigenvalues not converged
     c_bands:  4 eigenvalues not converged
     c_bands:  1 eigenvalues not converged
     c_bands:  1 eigenvalues not converged
     c_bands:  1 eigenvalues not converged
     c_bands:  2 eigenvalues not converged
     c_bands:  4 eigenvalues not converged
     c_bands:  3 eigenvalues not converged
     c_bands:  2 eigenvalues not converged
     c_bands:  1 eigenvalues not converged
     c_bands:  5 eigenvalues not converged
     c_bands:  3 eigenvalues not converged
     c_bands:  5 eigenvalues not converged
     c_bands:  2 eigenvalues not converged
     c_bands:  5 eigenvalues not converged
     c_bands:  4 eigenvalues not converged
     c_bands:  4 eigenvalues not converged
     c_bands:  5 eigenvalues not converged
     c_bands:  1 eigenvalues not converged
     c_bands:  2 eigenvalues not converged
     c_bands:  1 eigenvalues not converged
     c_bands:  2 eigenvalues not converged
     c_bands:  1 eigenvalues not converged
     c_bands:  1 eigenvalues not converged
     c_bands:  3 eigenvalues not converged
     c_bands:  3 eigenvalues not converged
     c_bands:  3 eigenvalues not converged
     c_bands:  4 eigenvalues not converged
     c_bands:  4 eigenvalues not converged
     c_bands:  4 eigenvalues not converged
     c_bands:  4 eigenvalues not converged
     c_bands:  3 eigenvalues not converged
     c_bands:  3 eigenvalues not converged
     c_bands:  4 eigenvalues not converged
     c_bands:  1 eigenvalues not converged
     c_bands:  4 eigenvalues not converged
     c_bands:  4 eigenvalues not converged
     c_bands:  3 eigenvalues not converged
     c_bands:  4 eigenvalues not converged
     c_bands:  4 eigenvalues not converged
     c_bands:  1 eigenvalues not converged
     ethr =  1.00E-06,  avg # of iterations = 12.1

     total cpu time spent up to now is       23.6 secs

     total energy              =    -348.09103783 Ry
     Harris-Foulkes estimate   =    -351.47532375 Ry
     estimated scf accuracy    <       4.25838538 Ry

     iteration #  2     ecut=    40.00 Ry     beta=0.70
     CG style diagonalization
     ethr =  1.00E-02,  avg # of iterations =  4.2

     total cpu time spent up to now is       25.2 secs

     total energy              =    -349.43440947 Ry
     Harris-Foulkes estimate   =    -351.20626940 Ry
     estimated scf accuracy    <       3.46255508 Ry

     iteration #  3     ecut=    40.00 Ry     beta=0.70
     CG style diagonalization
     ethr =  1.00E-02,  avg # of iterations =  3.5

     total cpu time spent up to now is       26.4 secs

     total energy              =    -350.03808956 Ry
     Harris-Foulkes estimate   =    -350.04779756 Ry
     estimated scf accuracy    <       0.01886591 Ry

     iteration #  4     ecut=    40.00 Ry     beta=0.70
     CG style diagonalization
     ethr =  5.55E-05,  avg # of iterations =  4.3

     total cpu time spent up to now is       29.1 secs

     total energy              =    -350.05097485 Ry
     Harris-Foulkes estimate   =    -350.05383730 Ry
     estimated scf accuracy    <       0.00619355 Ry

     iteration #  5     ecut=    40.00 Ry     beta=0.70
     CG style diagonalization
     ethr =  1.82E-05,  avg # of iterations =  3.5

     total cpu time spent up to now is       30.3 secs

     total energy              =    -350.05187665 Ry
     Harris-Foulkes estimate   =    -350.05192906 Ry
     estimated scf accuracy    <       0.00012898 Ry

     iteration #  6     ecut=    40.00 Ry     beta=0.70
     CG style diagonalization
     ethr =  3.79E-07,  avg # of iterations =  4.3

     total cpu time spent up to now is       31.8 secs

     End of self-consistent calculation

          k = 0.0000 0.0000 0.0000 (  2707 PWs)   bands (ev):

   -53.1367 -53.1314 -25.8764 -25.8104 -25.8104 -25.7951 -25.7951 -25.7874
     5.2441   6.1053   7.2092   7.2345   7.2345   7.4011   7.4011   7.5957
     7.5957   8.3866   8.3866  10.2935  11.9534

          k = 0.0000 0.0000 0.0935 (  2689 PWs)   bands (ev):

   -53.1364 -53.1313 -25.8652 -25.8067 -25.8067 -25.7961 -25.7928 -25.7928
     5.3444   6.1275   7.1855   7.1979   7.1979   7.3692   7.3692   7.6823
     7.6823   8.3762   8.3762   9.5323  12.8880

          k = 0.0000 0.0000 0.1870 (  2701 PWs)   bands (ev):

   -53.1359 -53.1321 -25.8527 -25.8113 -25.8047 -25.8047 -25.7986 -25.7986
     5.6245   6.1760   7.1449   7.1551   7.1551   7.2918   7.2918   7.8631
     7.8631   8.3284   8.3284   8.4732  14.4666

          k = 0.0000 0.0000 0.2805 (  2640 PWs)   bands (ev):

   -53.1340 -53.1327 -25.8292 -25.8127 -25.7945 -25.7945 -25.7930 -25.7930
     5.9822   6.1793   7.1590   7.1590   7.2103   7.2108   7.2108   7.6357
     8.0597   8.0597   8.2235   8.2235  16.1908

          k = 0.0000 0.2024 0.0000 (  2683 PWs)   bands (ev):

   -53.1356 -53.1305 -25.8634 -25.8165 -25.8089 -25.8058 -25.7968 -25.7957
     5.6773   6.3573   7.0092   7.3042   7.3252   7.4545   7.5018   7.5282
     7.6461   7.8823   8.4503  11.4041  12.0194

          k = 0.0000 0.2024 0.0935 (  2673 PWs)   bands (ev):

   -53.1352 -53.1306 -25.8602 -25.8142 -25.8090 -25.8057 -25.7956 -25.7938
     5.7651   6.3888   7.0173   7.2408   7.2522   7.3754   7.5942   7.6113
     7.6545   7.8768   8.4276  10.4304  13.1759

          k = 0.0000 0.2024 0.1870 (  2666 PWs)   bands (ev):

   -53.1345 -53.1313 -25.8485 -25.8136 -25.8111 -25.8046 -25.7980 -25.7968
     6.0099   6.4711   7.0425   7.1076   7.1179   7.3374   7.5232   7.6198
     7.8344   7.9747   8.3516   9.4425  14.7253

          k = 0.0000 0.2024 0.2805 (  2665 PWs)   bands (ev):

   -53.1334 -53.1323 -25.8378 -25.8232 -25.8069 -25.8028 -25.8008 -25.8003
     6.3341   6.5272   6.9251   6.9671   7.1985   7.3594   7.4142   7.4297
     8.0358   8.2174   8.2734   8.7337  16.3581

          k = 0.0000 0.4048 0.0000 (  2660 PWs)   bands (ev):

   -53.1329 -53.1296 -25.8474 -25.8411 -25.8290 -25.8131 -25.8025 -25.7972
     6.3074   6.3594   6.7200   7.2277   7.3925   7.4405   7.5621   8.1081
     8.2106   8.4028   8.5244  12.4888  13.3371

          k = 0.0000 0.4048 0.0935 (  2663 PWs)   bands (ev):

   -53.1328 -53.1297 -25.8518 -25.8349 -25.8302 -25.8131 -25.8024 -25.8000
     6.2639   6.3848   6.8302   7.1290   7.2713   7.4125   7.8952   8.1242
     8.1631   8.3674   8.4906  11.6942  13.6310

          k = 0.0000 0.4048 0.1870 (  2663 PWs)   bands (ev):

   -53.1324 -53.1301 -25.8528 -25.8387 -25.8221 -25.8099 -25.8070 -25.8019
     6.2358   6.4678   6.8185   6.9218   7.3971   7.5490   8.0210   8.1710
     8.2224   8.3747   8.4127  10.6346  14.0115

          k = 0.0000 0.4048 0.2805 (  2661 PWs)   bands (ev):

   -53.1316 -53.1309 -25.8520 -25.8447 -25.8146 -25.8081 -25.8079 -25.8040
     6.3032   6.4484   6.7209   6.8428   7.5880   7.8118   7.8156   8.0626
     8.2406   8.3246   8.9308   9.6936  14.5591

          k = 0.0000-0.6072 0.0000 (  2674 PWs)   bands (ev):

   -53.1315 -53.1296 -25.8582 -25.8449 -25.8377 -25.8187 -25.8113 -25.8026
     6.1992   6.3705   6.4658   7.1297   7.4605   7.5669   7.9140   8.4460
     8.5469   8.5618  10.3724  10.8813  13.9489

          k = 0.0000-0.6072 0.0935 (  2670 PWs)   bands (ev):

   -53.1314 -53.1296 -25.8580 -25.8459 -25.8322 -25.8178 -25.8127 -25.8034
     6.2125   6.2319   6.6627   7.1462   7.1844   7.6069   8.2253   8.4034
     8.5045   8.5576  10.3949  10.8857  13.5880

          k = 0.0000-0.6072 0.1870 (  2654 PWs)   bands (ev):

   -53.1309 -53.1298 -25.8589 -25.8551 -25.8167 -25.8153 -25.8072 -25.8023
     6.1249   6.3090   6.7673   6.7784   7.3439   7.8100   8.1905   8.4968
     8.5285   8.5456  10.4992  10.8923  12.7630

          k = 0.0000-0.6072 0.2805 (  2676 PWs)   bands (ev):

   -53.1306 -53.1305 -25.8631 -25.8620 -25.8158 -25.8153 -25.8095 -25.8088
     6.1636   6.2955   6.6174   6.7150   7.5899   7.8894   8.1802   8.4999
     8.5105   8.5281  10.7108  10.8631  12.3763

          k = 0.2103 0.1214 0.0000 (  2685 PWs)   bands (ev):

   -53.1352 -53.1303 -25.8605 -25.8226 -25.8107 -25.8098 -25.7988 -25.7987
     5.8407   6.4137   7.0070   7.2036   7.2873   7.4065   7.6095   7.6312
     7.7449   7.7908   8.4687  11.7662  12.0620

          k = 0.2103 0.1214 0.0935 (  2682 PWs)   bands (ev):

   -53.1349 -53.1306 -25.8607 -25.8209 -25.8118 -25.8080 -25.7997 -25.7972
     5.9173   6.4471   7.0135   7.1835   7.2155   7.3866   7.6357   7.6714
     7.7248   7.8347   8.4421  10.6753  13.3149

          k = 0.2103 0.1214 0.1870 (  2664 PWs)   bands (ev):

   -53.1341 -53.1310 -25.8485 -25.8184 -25.8132 -25.8052 -25.7994 -25.7985
     6.1271   6.5388   6.9863   7.0958   7.1255   7.3829   7.5781   7.6159
     7.8554   8.0126   8.3586   9.6591  14.8184

          k = 0.2103 0.1214 0.2805 (  2660 PWs)   bands (ev):

   -53.1331 -53.1320 -25.8394 -25.8280 -25.8081 -25.8033 -25.8018 -25.7996
     6.4036   6.6035   6.8568   6.9566   7.2305   7.4163   7.4277   7.5136
     8.0422   8.2200   8.3550   8.8868  16.3523

          k = 0.2103 0.3238 0.0000 (  2672 PWs)   bands (ev):

   -53.1332 -53.1297 -25.8490 -25.8334 -25.8320 -25.8146 -25.8049 -25.8022
     6.4480   6.6466   6.8078   6.8946   7.1735   7.3635   7.6238   7.7624
     8.1754   8.4698   8.5722  12.4293  13.2068

          k = 0.2103 0.3238 0.0935 (  2669 PWs)   bands (ev):

   -53.1330 -53.1298 -25.8512 -25.8330 -25.8276 -25.8164 -25.8037 -25.8017
     6.4531   6.6391   6.8267   6.8939   7.2623   7.3693   7.5439   7.8043
     8.2349   8.3248   8.6535  11.6145  13.9666

          k = 0.2103 0.3238 0.1870 (  2669 PWs)   bands (ev):

   -53.1325 -53.1303 -25.8505 -25.8357 -25.8204 -25.8174 -25.8061 -25.8036
     6.4681   6.6343   6.8298   7.0235   7.2618   7.3905   7.4181   7.9849
     8.1432   8.3396   8.7469  10.5875  14.7764

          k = 0.2103 0.3238 0.2805 (  2665 PWs)   bands (ev):

   -53.1318 -53.1309 -25.8450 -25.8422 -25.8160 -25.8137 -25.8080 -25.8056
     6.5124   6.5829   6.9440   7.0966   7.1756   7.2757   7.5378   7.7788
     8.3676   8.4114   9.0184   9.6873  15.4853

          k = 0.2103 0.5262 0.0000 (  2677 PWs)   bands (ev):

   -53.1311 -53.1297 -25.8486 -25.8405 -25.8345 -25.8295 -25.8137 -25.8127
     6.4949   6.5592   6.6701   7.1215   7.3420   7.4042   7.6114   8.1829
     8.4509   8.4816  10.1772  12.0430  13.6310

          k = 0.2103 0.5262 0.0935 (  2665 PWs)   bands (ev):

   -53.1310 -53.1296 -25.8504 -25.8424 -25.8318 -25.8230 -25.8139 -25.8080
     6.4405   6.5911   6.7631   7.0202   7.2185   7.5734   7.6593   8.1834
     8.3418   8.5147  10.2478  12.1526  13.2485

          k = 0.2103 0.5262 0.1870 (  2666 PWs)   bands (ev):

   -53.1308 -53.1299 -25.8543 -25.8472 -25.8302 -25.8198 -25.8134 -25.8061
     6.3964   6.6698   6.7638   7.0110   7.1255   7.6512   7.7971   8.0445
     8.2657   8.5610  10.4679  12.2811  12.5541

          k = 0.2103 0.5262 0.2805 (  2665 PWs)   bands (ev):

   -53.1305 -53.1302 -25.8553 -25.8522 -25.8269 -25.8212 -25.8094 -25.8060
     6.4292   6.5493   6.8321   6.9841   7.2891   7.5949   7.8004   7.8507
     8.4135   8.5373  10.8747  11.5014  13.0285

          k = 0.2103-0.4858 0.0000 (  2662 PWs)   bands (ev):

   -53.1313 -53.1295 -25.8429 -25.8379 -25.8359 -25.8246 -25.8106 -25.8096
     6.5330   6.5752   6.6736   7.1169   7.2529   7.4430   7.5723   8.0802
     8.4536   8.4786   9.7894  12.5105  13.6002

          k = 0.2103-0.4858 0.0935 (  2658 PWs)   bands (ev):

   -53.1312 -53.1295 -25.8471 -25.8427 -25.8293 -25.8227 -25.8102 -25.8064
     6.4728   6.6051   6.7652   6.9812   7.2701   7.5188   7.6127   8.0867
     8.3455   8.5162   9.8519  12.6146  12.9756

          k = 0.2103-0.4858 0.1870 (  2666 PWs)   bands (ev):

   -53.1310 -53.1299 -25.8534 -25.8459 -25.8277 -25.8205 -25.8123 -25.8060
     6.4239   6.6551   6.7642   7.0379   7.1651   7.5655   7.7313   8.0326
     8.2320   8.5737  10.0498  11.9481  13.0095

          k = 0.2103-0.4858 0.2805 (  2676 PWs)   bands (ev):

   -53.1308 -53.1304 -25.8566 -25.8534 -25.8262 -25.8215 -25.8101 -25.8074
     6.4454   6.5427   6.8588   7.0148   7.3053   7.5593   7.7159   7.7729
     8.4273   8.5610  10.4422  11.0851  13.5471

          k = 0.2103-0.2834 0.0000 (  2684 PWs)   bands (ev):

   -53.1338 -53.1299 -25.8531 -25.8336 -25.8283 -25.8147 -25.8038 -25.8029
     6.3250   6.5822   6.8942   6.9208   7.2136   7.3291   7.6609   7.7228
     8.0464   8.3439   8.4742  12.3061  12.8555

          k = 0.2103-0.2834 0.0935 (  2668 PWs)   bands (ev):

   -53.1335 -53.1299 -25.8512 -25.8292 -25.8251 -25.8139 -25.8018 -25.8010
     6.3456   6.6058   6.8698   6.9514   7.2240   7.3719   7.5787   7.7682
     8.1142   8.2412   8.5136  11.3784  13.8295

          k = 0.2103-0.2834 0.1870 (  2662 PWs)   bands (ev):

   -53.1329 -53.1304 -25.8477 -25.8319 -25.8186 -25.8130 -25.8037 -25.8023
     6.4044   6.6757   6.8031   7.0531   7.1841   7.4308   7.4372   7.9456
     8.1008   8.2312   8.5537  10.3387  14.9230

          k = 0.2103-0.2834 0.2805 (  2665 PWs)   bands (ev):

   -53.1321 -53.1312 -25.8449 -25.8393 -25.8130 -25.8118 -25.8064 -25.8046
     6.5017   6.6248   6.8826   7.0488   7.1762   7.3000   7.5562   7.7725
     8.2958   8.3338   8.7798   9.4474  15.8001

          k = 0.2103-0.0810 0.0000 (  2680 PWs)   bands (ev):

   -53.1354 -53.1303 -25.8615 -25.8195 -25.8100 -25.8072 -25.7976 -25.7959
     5.7704   6.3980   6.9924   7.2636   7.2960   7.4187   7.5594   7.5702
     7.7180   7.8327   8.4587  11.6078  12.0418

          k = 0.2103-0.0810 0.0935 (  2677 PWs)   bands (ev):

   -53.1350 -53.1306 -25.8601 -25.8179 -25.8102 -25.8071 -25.7982 -25.7951
     5.8530   6.4307   7.0005   7.2132   7.2291   7.3907   7.5972   7.6328
     7.7124   7.8508   8.4344  10.5705  13.2518

          k = 0.2103-0.0810 0.1870 (  2666 PWs)   bands (ev):

   -53.1343 -53.1311 -25.8490 -25.8158 -25.8126 -25.8059 -25.7992 -25.7968
     6.0817   6.5192   7.0079   7.0970   7.1082   7.3706   7.5648   7.5882
     7.8572   7.9890   8.3567   9.5663  14.7801

          k = 0.2103-0.0810 0.2805 (  2661 PWs)   bands (ev):

   -53.1332 -53.1321 -25.8383 -25.8258 -25.8069 -25.8029 -25.8017 -25.7999
     6.3855   6.5851   6.8803   6.9565   7.1929   7.3703   7.4285   7.4860
     8.0442   8.2140   8.3228   8.8206  16.3717

          k = 0.4207 0.2429 0.0000 (  2666 PWs)   bands (ev):

   -53.1321 -53.1295 -25.8501 -25.8403 -25.8396 -25.8164 -25.8069 -25.8015
     6.2519   6.3737   6.5594   7.1661   7.4966   7.4985   7.7300   8.3145
     8.4192   8.5391   9.1146  12.4396  13.0873

          k = 0.4207 0.2429 0.0935 (  2669 PWs)   bands (ev):

   -53.1319 -53.1297 -25.8559 -25.8437 -25.8329 -25.8161 -25.8058 -25.8023
     6.2395   6.3000   6.7228   7.1453   7.2173   7.5402   8.0845   8.3099
     8.3666   8.5161   9.1027  12.2784  12.5520

          k = 0.4207 0.2429 0.1870 (  2672 PWs)   bands (ev):

   -53.1317 -53.1300 -25.8599 -25.8485 -25.8231 -25.8141 -25.8090 -25.8046
     6.1722   6.3713   6.7859   6.8329   7.3657   7.7215   8.1419   8.3604
     8.4085   8.4789   9.1718  11.2309  12.8435

          k = 0.4207 0.2429 0.2805 (  2659 PWs)   bands (ev):

   -53.1310 -53.1303 -25.8573 -25.8526 -25.8144 -25.8089 -25.8086 -25.8060
     6.2176   6.3530   6.6576   6.7650   7.5943   7.8706   8.0576   8.3569
     8.3961   8.4380   9.5929  10.3107  13.3238

          k = 0.4207 0.4453 0.0000 (  2672 PWs)   bands (ev):

   -53.1311 -53.1295 -25.8541 -25.8387 -25.8328 -25.8256 -25.8137 -25.8121
     6.4507   6.4689   6.5967   7.1240   7.3979   7.5232   7.6147   8.3572
     8.4624   8.4696  10.6852  11.2057  13.9226

          k = 0.4207 0.4453 0.0935 (  2664 PWs)   bands (ev):

   -53.1309 -53.1296 -25.8537 -25.8414 -25.8304 -25.8212 -25.8144 -25.8093
     6.3693   6.4859   6.7547   7.0871   7.1332   7.6652   7.7614   8.3413
     8.3667   8.4966  10.7618  11.2746  13.6213

          k = 0.4207 0.4453 0.1870 (  2670 PWs)   bands (ev):

   -53.1308 -53.1298 -25.8580 -25.8495 -25.8296 -25.8176 -25.8143 -25.8073
     6.3084   6.5834   6.7715   6.9888   7.0725   7.8205   7.9231   8.0871
     8.3605   8.5375  10.9801  11.4796  12.8855

          k = 0.4207 0.4453 0.2805 (  2665 PWs)   bands (ev):

   -53.1304 -53.1301 -25.8579 -25.8554 -25.8238 -25.8198 -25.8095 -25.8061
     6.3523   6.5069   6.7381   6.9005   7.3315   7.6821   7.9876   8.0377
     8.4101   8.5055  11.3145  11.6268  12.4719

          k = 0.4207 0.6477 0.0000 (  2667 PWs)   bands (ev):

   -53.1304 -53.1297 -25.8468 -25.8373 -25.8312 -25.8278 -25.8182 -25.8161
     6.4603   6.7208   6.7774   7.1540   7.2177   7.3131   7.7065   8.2148
     8.4143   8.4213  10.9023  11.7311  12.9258

          k = 0.4207 0.6477 0.0935 (  2662 PWs)   bands (ev):

   -53.1304 -53.1297 -25.8479 -25.8397 -25.8355 -25.8206 -25.8170 -25.8128
     6.4888   6.7138   6.7732   7.0570   7.2370   7.4080   7.7050   8.2298
     8.3035   8.4401  10.9940  11.8473  13.0717

          k = 0.4207 0.6477 0.1870 (  2663 PWs)   bands (ev):

   -53.1303 -53.1299 -25.8512 -25.8457 -25.8367 -25.8223 -25.8135 -25.8070
     6.5224   6.6773   6.8364   6.9770   7.2540   7.4970   7.7101   8.0183
     8.2974   8.4757  11.2678  12.1909  13.1552

          k = 0.4207 0.6477 0.2805 (  2672 PWs)   bands (ev):

   -53.1303 -53.1302 -25.8543 -25.8520 -25.8349 -25.8288 -25.8093 -25.8061
     6.5417   6.6000   6.9702   6.9926   7.2889   7.4453   7.7230   7.7838
     8.3910   8.4638  11.7325  12.3901  12.7418

          k = 0.4207-0.3643 0.0000 (  2667 PWs)   bands (ev):

   -53.1314 -53.1295 -25.8530 -25.8410 -25.8364 -25.8216 -25.8101 -25.8042
     6.3089   6.4640   6.4901   7.1284   7.4513   7.5645   7.6934   8.3980
     8.4740   8.5118   9.9759  11.6127  13.6804

          k = 0.4207-0.3643 0.0935 (  2671 PWs)   bands (ev):

   -53.1314 -53.1296 -25.8567 -25.8454 -25.8316 -25.8205 -25.8103 -25.8055
     6.2887   6.3449   6.7179   7.0901   7.1870   7.6164   7.9709   8.3602
     8.4433   8.5031  10.0141  11.6548  13.0769

          k = 0.4207-0.3643 0.1870 (  2671 PWs)   bands (ev):

   -53.1311 -53.1299 -25.8604 -25.8516 -25.8249 -25.8157 -25.8118 -25.8061
     6.2092   6.4304   6.7662   6.8719   7.2306   7.8061   8.1333   8.1999
     8.3970   8.5623  10.1670  11.6006  12.4490

          k = 0.4207-0.3643 0.2805 (  2668 PWs)   bands (ev):

   -53.1307 -53.1302 -25.8599 -25.8577 -25.8172 -25.8157 -25.8098 -25.8073
     6.2513   6.3988   6.6632   6.7974   7.4806   7.8074   8.0703   8.2322
     8.4286   8.5377  10.5112  11.0545  12.6243

          k = 0.4207-0.1619 0.0000 (  2664 PWs)   bands (ev):

   -53.1324 -53.1295 -25.8450 -25.8428 -25.8360 -25.8165 -25.8050 -25.8006
     6.3336   6.4074   6.6276   7.1772   7.4541   7.5065   7.5267   8.2091
     8.2838   8.5188   8.8667  12.6813  13.3081

          k = 0.4207-0.1619 0.0935 (  2673 PWs)   bands (ev):

   -53.1323 -53.1297 -25.8532 -25.8399 -25.8339 -25.8173 -25.8054 -25.8035
     6.2977   6.3811   6.7790   7.0803   7.2690   7.4857   7.8802   8.1782
     8.3176   8.4392   8.8785  12.0567  13.1346

          k = 0.4207-0.1619 0.1870 (  2664 PWs)   bands (ev):

   -53.1319 -53.1300 -25.8543 -25.8447 -25.8228 -25.8131 -25.8072 -25.8032
     6.2397   6.4636   6.7817   6.9077   7.3355   7.6303   8.0495   8.1744
     8.2695   8.4276   8.9650  11.0109  13.4379

          k = 0.4207-0.1619 0.2805 (  2667 PWs)   bands (ev):

   -53.1313 -53.1306 -25.8545 -25.8506 -25.8160 -25.8124 -25.8083 -25.8063
     6.2896   6.4328   6.6993   6.8316   7.5528   7.8019   7.8781   8.0662
     8.3611   8.4593   9.3580  10.0781  13.9552

          k = 0.4207 0.0405 0.0000 (  2672 PWs)   bands (ev):

   -53.1327 -53.1296 -25.8446 -25.8371 -25.8345 -25.8185 -25.8063 -25.8055
     6.5190   6.6216   6.7169   7.0075   7.1488   7.4130   7.5763   7.8493
     8.2875   8.4701   8.8292  12.5860  13.5906

          k = 0.4207 0.0405 0.0935 (  2669 PWs)   bands (ev):

   -53.1325 -53.1298 -25.8496 -25.8367 -25.8298 -25.8189 -25.8059 -25.8031
     6.4937   6.6081   6.7947   6.9241   7.2722   7.4368   7.5235   7.8758
     8.3406   8.3542   8.8823  11.8887  13.9093

          k = 0.4207 0.0405 0.1870 (  2675 PWs)   bands (ev):

   -53.1322 -53.1302 -25.8542 -25.8414 -25.8213 -25.8197 -25.8076 -25.8051
     6.4560   6.6351   6.7734   7.0683   7.2439   7.4119   7.5247   8.0146
     8.1726   8.4365   9.0011  10.8806  14.3547

          k = 0.4207 0.0405 0.2805 (  2664 PWs)   bands (ev):

   -53.1314 -53.1307 -25.8486 -25.8442 -25.8178 -25.8152 -25.8083 -25.8060
     6.4781   6.5560   6.8904   7.0594   7.2914   7.3965   7.5468   7.7769
     8.4022   8.4868   9.3140   9.9796  14.9406

     the Fermi energy is     8.6694 ev

!    total energy              =    -350.05193735 Ry
     Harris-Foulkes estimate   =    -350.05193771 Ry
     estimated scf accuracy    <       0.00000121 Ry

     The total energy is the sum of the following terms:

     one-electron contribution =    -128.76027019 Ry
     hartree contribution      =      73.15925319 Ry
     xc contribution           =     -35.31931147 Ry
     ewald contribution        =    -258.82717768 Ry
     smearing contrib. (-TS)   =      -0.30443120 Ry

     convergence has been achieved in   6 iterations

     Forces acting on atoms (Ry/au):

     atom    1 type  1   force =     0.00000000    0.00000000    0.00000000
     atom    2 type  1   force =     0.00000000    0.00000000    0.00000000

     Total force =     0.000000     Total SCF correction =     0.000000


     entering subroutine stress ...

          total   stress  (Ry/bohr**3)                   (kbar)     P= -295.29
  -0.00199411   0.00000000   0.00000000       -293.34      0.00      0.00
   0.00000000  -0.00199411   0.00000000          0.00   -293.34      0.00
   0.00000000   0.00000000  -0.00203376          0.00      0.00   -299.18


     number of scf cycles    =   2
     number of bfgs steps    =   1

     enthalpy old            =    -349.8735338330 Ry
     enthalpy new            =    -350.0519373521 Ry

     CASE: enthalpy_new < enthalpy_old


     WARNING: bfgs curvature condition failed, Theta= 0.872
     small trust_radius: resetting bfgs history

     new trust radius        =       0.2355414396 bohr
     new conv_thr            =       0.0000010000 Ry

     new unit-cell volume =    459.74241 a.u.^3 (    68.12680 Ang^3 )

CELL_PARAMETERS (alat=  7.65463088)
   0.903424011   0.000000000   0.000000000
  -0.451712006   0.782388144   0.000000000
   0.000000000   0.000000000   1.450200051

ATOMIC_POSITIONS (crystal)
Eu       0.333333000   0.666667000   0.250000000
Eu       0.666667000   0.333333000   0.750000000



     Writing output data file Element-Eu.q.save
     NEW-OLD atomic charge density approx. for the potential
     NEW k-points:
        k(    1) = (   0.0000000   0.0000000   0.0000000), wk =   0.0095238
        k(    2) = (   0.0000000   0.0000000   0.0985086), wk =   0.0190476
        k(    3) = (   0.0000000   0.0000000   0.1970172), wk =   0.0190476
        k(    4) = (   0.0000000   0.0000000   0.2955257), wk =   0.0190476
        k(    5) = (   0.0000000   0.2130230   0.0000000), wk =   0.0190476
        k(    6) = (   0.0000000   0.2130230   0.0985086), wk =   0.0380952
        k(    7) = (   0.0000000   0.2130230   0.1970172), wk =   0.0380952
        k(    8) = (   0.0000000   0.2130230   0.2955257), wk =   0.0380952
        k(    9) = (   0.0000000   0.4260460   0.0000000), wk =   0.0190476
        k(   10) = (   0.0000000   0.4260460   0.0985086), wk =   0.0380952
        k(   11) = (   0.0000000   0.4260460   0.1970172), wk =   0.0380952
        k(   12) = (   0.0000000   0.4260460   0.2955257), wk =   0.0380952
        k(   13) = (   0.0000000  -0.6390690   0.0000000), wk =   0.0095238
        k(   14) = (   0.0000000  -0.6390690   0.0985086), wk =   0.0190476
        k(   15) = (   0.0000000  -0.6390690   0.1970172), wk =   0.0190476
        k(   16) = (   0.0000000  -0.6390690   0.2955257), wk =   0.0190476
        k(   17) = (   0.2213800   0.1278138   0.0000000), wk =   0.0190476
        k(   18) = (   0.2213800   0.1278138   0.0985086), wk =   0.0380952
        k(   19) = (   0.2213800   0.1278138   0.1970172), wk =   0.0380952
        k(   20) = (   0.2213800   0.1278138   0.2955257), wk =   0.0380952
        k(   21) = (   0.2213800   0.3408368   0.0000000), wk =   0.0190476
        k(   22) = (   0.2213800   0.3408368   0.0985086), wk =   0.0380952
        k(   23) = (   0.2213800   0.3408368   0.1970172), wk =   0.0380952
        k(   24) = (   0.2213800   0.3408368   0.2955257), wk =   0.0380952
        k(   25) = (   0.2213800   0.5538598   0.0000000), wk =   0.0190476
        k(   26) = (   0.2213800   0.5538598   0.0985086), wk =   0.0380952
        k(   27) = (   0.2213800   0.5538598   0.1970172), wk =   0.0380952
        k(   28) = (   0.2213800   0.5538598   0.2955257), wk =   0.0380952
        k(   29) = (   0.2213800  -0.5112552   0.0000000), wk =   0.0190476
        k(   30) = (   0.2213800  -0.5112552   0.0985086), wk =   0.0380952
        k(   31) = (   0.2213800  -0.5112552   0.1970172), wk =   0.0380952
        k(   32) = (   0.2213800  -0.5112552   0.2955257), wk =   0.0380952
        k(   33) = (   0.2213800  -0.2982322   0.0000000), wk =   0.0190476
        k(   34) = (   0.2213800  -0.2982322   0.0985086), wk =   0.0380952
        k(   35) = (   0.2213800  -0.2982322   0.1970172), wk =   0.0380952
        k(   36) = (   0.2213800  -0.2982322   0.2955257), wk =   0.0380952
        k(   37) = (   0.2213800  -0.0852092   0.0000000), wk =   0.0190476
        k(   38) = (   0.2213800  -0.0852092   0.0985086), wk =   0.0380952
        k(   39) = (   0.2213800  -0.0852092   0.1970172), wk =   0.0380952
        k(   40) = (   0.2213800  -0.0852092   0.2955257), wk =   0.0380952
        k(   41) = (   0.4427600   0.2556276   0.0000000), wk =   0.0190476
        k(   42) = (   0.4427600   0.2556276   0.0985086), wk =   0.0380952
        k(   43) = (   0.4427600   0.2556276   0.1970172), wk =   0.0380952
        k(   44) = (   0.4427600   0.2556276   0.2955257), wk =   0.0380952
        k(   45) = (   0.4427600   0.4686506   0.0000000), wk =   0.0190476
        k(   46) = (   0.4427600   0.4686506   0.0985086), wk =   0.0380952
        k(   47) = (   0.4427600   0.4686506   0.1970172), wk =   0.0380952
        k(   48) = (   0.4427600   0.4686506   0.2955257), wk =   0.0380952
        k(   49) = (   0.4427600   0.6816736   0.0000000), wk =   0.0190476
        k(   50) = (   0.4427600   0.6816736   0.0985086), wk =   0.0380952
        k(   51) = (   0.4427600   0.6816736   0.1970172), wk =   0.0380952
        k(   52) = (   0.4427600   0.6816736   0.2955257), wk =   0.0380952
        k(   53) = (   0.4427600  -0.3834414   0.0000000), wk =   0.0190476
        k(   54) = (   0.4427600  -0.3834414   0.0985086), wk =   0.0380952
        k(   55) = (   0.4427600  -0.3834414   0.1970172), wk =   0.0380952
        k(   56) = (   0.4427600  -0.3834414   0.2955257), wk =   0.0380952
        k(   57) = (   0.4427600  -0.1704184   0.0000000), wk =   0.0190476
        k(   58) = (   0.4427600  -0.1704184   0.0985086), wk =   0.0380952
        k(   59) = (   0.4427600  -0.1704184   0.1970172), wk =   0.0380952
        k(   60) = (   0.4427600  -0.1704184   0.2955257), wk =   0.0380952
        k(   61) = (   0.4427600   0.0426046   0.0000000), wk =   0.0190476
        k(   62) = (   0.4427600   0.0426046   0.0985086), wk =   0.0380952
        k(   63) = (   0.4427600   0.0426046   0.1970172), wk =   0.0380952
        k(   64) = (   0.4427600   0.0426046   0.2955257), wk =   0.0380952

     total cpu time spent up to now is       32.2 secs

     Self-consistent Calculation

     iteration #  1     ecut=    40.00 Ry     beta=0.70
     CG style diagonalization
     c_bands:  1 eigenvalues not converged
     c_bands:  3 eigenvalues not converged
     c_bands:  2 eigenvalues not converged
     c_bands:  2 eigenvalues not converged
     c_bands:  1 eigenvalues not converged
     c_bands:  1 eigenvalues not converged
     c_bands:  1 eigenvalues not converged
     c_bands:  3 eigenvalues not converged
     c_bands:  2 eigenvalues not converged
     c_bands:  1 eigenvalues not converged
     c_bands:  1 eigenvalues not converged
     c_bands:  3 eigenvalues not converged
     c_bands:  3 eigenvalues not converged
     c_bands:  2 eigenvalues not converged
     c_bands:  1 eigenvalues not converged
     c_bands:  3 eigenvalues not converged
     c_bands:  3 eigenvalues not converged
     c_bands:  4 eigenvalues not converged
     c_bands:  3 eigenvalues not converged
     c_bands:  3 eigenvalues not converged
     c_bands:  2 eigenvalues not converged
     c_bands:  1 eigenvalues not converged
     c_bands:  1 eigenvalues not converged
     c_bands:  1 eigenvalues not converged
     c_bands:  3 eigenvalues not converged
     c_bands:  2 eigenvalues not converged
     c_bands:  2 eigenvalues not converged
     c_bands:  2 eigenvalues not converged
     c_bands:  2 eigenvalues not converged
     c_bands:  4 eigenvalues not converged
     c_bands:  4 eigenvalues not converged
     c_bands:  3 eigenvalues not converged
     c_bands:  1 eigenvalues not converged
     c_bands:  4 eigenvalues not converged
     c_bands:  1 eigenvalues not converged
     c_bands:  4 eigenvalues not converged
     c_bands:  3 eigenvalues not converged
     c_bands:  2 eigenvalues not converged
     c_bands:  3 eigenvalues not converged
     c_bands:  1 eigenvalues not converged
     c_bands:  3 eigenvalues not converged
     c_bands:  2 eigenvalues not converged
     c_bands:  2 eigenvalues not converged
     ethr =  1.00E-06,  avg # of iterations = 12.1

     total cpu time spent up to now is       36.7 secs

     total energy              =    -348.53831985 Ry
     Harris-Foulkes estimate   =    -351.57284965 Ry
     estimated scf accuracy    <       3.83002790 Ry

     iteration #  2     ecut=    40.00 Ry     beta=0.70
     CG style diagonalization
     ethr =  1.00E-02,  avg # of iterations =  4.1

     total cpu time spent up to now is       38.2 secs

     total energy              =    -349.72869569 Ry
     Harris-Foulkes estimate   =    -351.04558288 Ry
     estimated scf accuracy    <       2.49294632 Ry

     iteration #  3     ecut=    40.00 Ry     beta=0.70
     CG style diagonalization
     ethr =  7.33E-03,  avg # of iterations =  3.5

     total cpu time spent up to now is       39.4 secs

     total energy              =    -350.19651166 Ry
     Harris-Foulkes estimate   =    -350.20102440 Ry
     estimated scf accuracy    <       0.00900534 Ry

     iteration #  4     ecut=    40.00 Ry     beta=0.70
     CG style diagonalization
     ethr =  2.65E-05,  avg # of iterations =  4.5

     total cpu time spent up to now is       41.0 secs

     total energy              =    -350.20521668 Ry
     Harris-Foulkes estimate   =    -350.20666969 Ry
     estimated scf accuracy    <       0.00295268 Ry

     iteration #  5     ecut=    40.00 Ry     beta=0.70
     CG style diagonalization
     ethr =  8.68E-06,  avg # of iterations =  3.5

     total cpu time spent up to now is       42.2 secs

     total energy              =    -350.20565176 Ry
     Harris-Foulkes estimate   =    -350.20568148 Ry
     estimated scf accuracy    <       0.00006269 Ry

     iteration #  6     ecut=    40.00 Ry     beta=0.70
     CG style diagonalization
     ethr =  1.84E-07,  avg # of iterations =  4.5

     total cpu time spent up to now is       43.9 secs

     total energy              =    -350.20569046 Ry
     Harris-Foulkes estimate   =    -350.20569104 Ry
     estimated scf accuracy    <       0.00000100 Ry

     iteration #  7     ecut=    40.00 Ry     beta=0.70
     CG style diagonalization
     ethr =  2.95E-09,  avg # of iterations =  5.2

     total cpu time spent up to now is       45.8 secs

     End of self-consistent calculation

          k = 0.0000 0.0000 0.0000 (  2707 PWs)   bands (ev):

   -50.9103 -50.8978 -23.7254 -23.5966 -23.5966 -23.5702 -23.5702 -23.5642
     6.9535   7.9081   9.3347   9.3580   9.3580   9.5832   9.5832   9.8363
     9.8364  10.8786  10.8786  12.5250  15.0959

          k = 0.0000 0.0000 0.0985 (  2689 PWs)   bands (ev):

   -50.9097 -50.8984 -23.7143 -23.5939 -23.5939 -23.5743 -23.5700 -23.5700
     7.0688   7.9366   9.3019   9.3110   9.3110   9.5402   9.5402   9.9502
     9.9502  10.8671  10.8671  11.8115  15.9897

          k = 0.0000 0.0000 0.1970 (  2701 PWs)   bands (ev):

   -50.9079 -50.9001 -23.6921 -23.5982 -23.5903 -23.5903 -23.5755 -23.5755
     7.3887   8.0002   9.2408   9.2565   9.2565   9.4371   9.4371  10.1902
    10.1903  10.6834  10.8085  10.8085  17.6561

          k = 0.0000 0.0000 0.2955 (  2640 PWs)   bands (ev):

   -50.9054 -50.9026 -23.6572 -23.6229 -23.5816 -23.5816 -23.5766 -23.5766
     7.7925   8.0117   9.2617   9.2617   9.2977   9.3298   9.3298   9.7613
    10.4520  10.4520  10.6707  10.6707  19.4533

          k = 0.0000 0.2130 0.0000 (  2683 PWs)   bands (ev):

   -50.9078 -50.8968 -23.7099 -23.6192 -23.6025 -23.5959 -23.5742 -23.5734
     7.4484   8.2162   9.0517   9.4482   9.4590   9.6468   9.7024   9.7442
     9.9001  10.1567  10.9695  13.9691  15.1175

          k = 0.0000 0.2130 0.0985 (  2673 PWs)   bands (ev):

   -50.9073 -50.8973 -23.7040 -23.6165 -23.6011 -23.5998 -23.5753 -23.5744
     7.5480   8.2560   9.0633   9.3553   9.3690   9.5404   9.8270   9.8398
     9.9098  10.1608  10.9403  13.0599  16.2220

          k = 0.0000 0.2130 0.1970 (  2666 PWs)   bands (ev):

   -50.9057 -50.8988 -23.6862 -23.6156 -23.6097 -23.5962 -23.5814 -23.5795
     7.8255   8.3600   9.0942   9.1741   9.1912   9.4903   9.7338   9.8212
    10.1474  10.3162  10.8407  12.0075  17.8654

          k = 0.0000 0.2130 0.2955 (  2665 PWs)   bands (ev):

   -50.9035 -50.9011 -23.6635 -23.6371 -23.6013 -23.5907 -23.5905 -23.5855
     8.1961   8.4278   8.9341   8.9928   9.2953   9.5187   9.5599   9.6106
    10.4171  10.6611  10.6942  11.2322  19.5506

          k = 0.0000 0.4260 0.0000 (  2660 PWs)   bands (ev):

   -50.9024 -50.8952 -23.6796 -23.6704 -23.6473 -23.6172 -23.5898 -23.5826
     8.1522   8.2255   8.6601   9.3475   9.5376   9.5566   9.7597  10.5027
    10.6440  10.8049  11.0739  15.4904  16.2093

          k = 0.0000 0.4260 0.0985 (  2663 PWs)   bands (ev):

   -50.9020 -50.8955 -23.6885 -23.6581 -23.6501 -23.6158 -23.5899 -23.5853
     8.1025   8.2493   8.8028   9.1780   9.4038   9.5700  10.1479  10.5250
    10.5784  10.7556  11.0278  14.5232  16.6426

          k = 0.0000 0.4260 0.1970 (  2663 PWs)   bands (ev):

   -50.9010 -50.8965 -23.6927 -23.6663 -23.6339 -23.6105 -23.5943 -23.5900
     8.0643   8.3519   8.7878   8.9364   9.5666   9.7213  10.3865  10.5889
    10.6006  10.6882  10.9216  13.3088  17.0836

          k = 0.0000 0.4260 0.2955 (  2661 PWs)   bands (ev):

   -50.8996 -50.8980 -23.6900 -23.6794 -23.6159 -23.6042 -23.6014 -23.5964
     8.1441   8.3228   8.6791   8.8380   9.8146  10.0510  10.1083  10.3708
    10.6848  10.8005  11.3519  12.2305  17.7015

          k = 0.0000-0.6391 0.0000 (  2674 PWs)   bands (ev):

   -50.8991 -50.8950 -23.6983 -23.6747 -23.6580 -23.6260 -23.6063 -23.5892
     8.0076   8.2407   8.3360   9.2200   9.6317   9.7859  10.1457  10.9654
    11.1052  11.1215  12.9340  13.7205  16.7836

          k = 0.0000-0.6391 0.0985 (  2670 PWs)   bands (ev):

   -50.8989 -50.8952 -23.7026 -23.6796 -23.6482 -23.6241 -23.6052 -23.5910
     8.0325   8.0490   8.5981   9.2101   9.2905   9.8271  10.5951  10.9085
    11.0432  11.1157  12.8906  13.6955  16.5534

          k = 0.0000-0.6391 0.1970 (  2654 PWs)   bands (ev):

   -50.8983 -50.8957 -23.7086 -23.6936 -23.6274 -23.6189 -23.6008 -23.5945
     7.9217   8.1468   8.7300   8.7546   9.4963  10.0683  10.6160  11.0319
    11.0595  11.0994  12.8370  13.5988  15.8872

          k = 0.0000-0.6391 0.2955 (  2676 PWs)   bands (ev):

   -50.8975 -50.8966 -23.7108 -23.7064 -23.6148 -23.6131 -23.6042 -23.6035
     7.9686   8.1305   8.5479   8.6755   9.8165  10.2117  10.5558  11.0221
    11.0512  11.0758  13.0246  13.3707  15.5259

          k = 0.2214 0.1278 0.0000 (  2685 PWs)   bands (ev):

   -50.9068 -50.8964 -23.7047 -23.6297 -23.6061 -23.6053 -23.5771 -23.5764
     7.6338   8.2857   9.0414   9.2928   9.4231   9.5831   9.8425   9.8752
    10.0289  10.0434  10.9955  14.4028  15.1410

          k = 0.2214 0.1278 0.0985 (  2682 PWs)   bands (ev):

   -50.9063 -50.8969 -23.7012 -23.6268 -23.6104 -23.6033 -23.5789 -23.5775
     7.7199   8.3282   9.0510   9.2586   9.3285   9.5555   9.8634   9.9246
    10.0025  10.1214  10.9607  13.3673  16.3415

          k = 0.2214 0.1278 0.1970 (  2664 PWs)   bands (ev):

   -50.9049 -50.8984 -23.6853 -23.6251 -23.6163 -23.5988 -23.5842 -23.5814
     7.9567   8.4443   9.0090   9.1635   9.1870   9.5492   9.7737   9.8536
    10.1735  10.3635  10.8502  12.2605  17.9358

          k = 0.2214 0.1278 0.2955 (  2660 PWs)   bands (ev):

   -50.9028 -50.9005 -23.6664 -23.6445 -23.6058 -23.5935 -23.5932 -23.5865
     8.2750   8.5201   8.8446   8.9777   9.3259   9.5620   9.6066   9.7186
    10.4241  10.6639  10.7858  11.4027  19.5084

          k = 0.2214 0.3408 0.0000 (  2672 PWs)   bands (ev):

   -50.9028 -50.8953 -23.6822 -23.6545 -23.6503 -23.6149 -23.5918 -23.5897
     8.3364   8.5742   8.7738   8.8720   9.2677   9.5137   9.8454  10.0534
    10.5859  10.9978  11.0491  15.4532  16.0821

          k = 0.2214 0.3408 0.0985 (  2669 PWs)   bands (ev):

   -50.9024 -50.8956 -23.6856 -23.6529 -23.6448 -23.6178 -23.5937 -23.5873
     8.3402   8.5653   8.7947   8.8836   9.3669   9.5176   9.7420  10.1031
    10.6660  10.7824  11.1745  14.4710  16.9644

          k = 0.2214 0.3408 0.1970 (  2669 PWs)   bands (ev):

   -50.9014 -50.8967 -23.6866 -23.6598 -23.6295 -23.6198 -23.5978 -23.5888
     8.3532   8.5568   8.8082   9.0419   9.3701   9.5326   9.5858  10.3052
    10.5575  10.8088  11.2628  13.2967  17.8451

          k = 0.2214 0.3408 0.2955 (  2665 PWs)   bands (ev):

   -50.8999 -50.8982 -23.6806 -23.6717 -23.6180 -23.6159 -23.6003 -23.5942
     8.4037   8.4899   8.9583   9.1434   9.2530   9.3758   9.7456  10.0542
    10.8555  10.9127  11.5056  12.2604  18.6515

          k = 0.2214 0.5539 0.0000 (  2677 PWs)   bands (ev):

   -50.8984 -50.8951 -23.6830 -23.6650 -23.6525 -23.6412 -23.6109 -23.6106
     8.3736   8.4635   8.6070   9.1987   9.4272   9.5587   9.8384  10.6058
    10.9726  11.0078  12.8564  14.9016  16.5439

          k = 0.2214 0.5539 0.0985 (  2665 PWs)   bands (ev):

   -50.8983 -50.8952 -23.6872 -23.6717 -23.6490 -23.6336 -23.6144 -23.6026
     8.3095   8.5046   8.7219   9.0504   9.3139   9.7556   9.8877  10.6054
    10.8205  11.0542  12.9312  15.0025  16.2396

          k = 0.2214 0.5539 0.1970 (  2666 PWs)   bands (ev):

   -50.8978 -50.8957 -23.6947 -23.6823 -23.6469 -23.6259 -23.6128 -23.5964
     8.2574   8.6099   8.7146   9.0407   9.1971   9.8611  10.0483  10.4152
    10.7165  11.1190  13.1564  14.9912  15.6478

          k = 0.2214 0.5539 0.2955 (  2665 PWs)   bands (ev):

   -50.8971 -50.8964 -23.6971 -23.6922 -23.6404 -23.6314 -23.6021 -23.5957
     8.3001   8.4523   8.8113   9.0112   9.3967   9.7825  10.0723  10.1424
    10.9125  11.0844  13.5744  14.2301  16.0812

          k = 0.2214-0.5113 0.0000 (  2662 PWs)   bands (ev):

   -50.8991 -50.8950 -23.6773 -23.6638 -23.6572 -23.6351 -23.6077 -23.6058
     8.4223   8.4859   8.6097   9.1923   9.3103   9.6097   9.7852  10.4698
    10.9761  11.0015  12.4355  15.4460  16.5390

          k = 0.2214-0.5113 0.0985 (  2658 PWs)   bands (ev):

   -50.8989 -50.8952 -23.6835 -23.6722 -23.6458 -23.6344 -23.6100 -23.5996
     8.3507   8.5243   8.7219   8.9991   9.3774   9.6879   9.8244  10.4772
    10.8255  11.0547  12.5025  15.5828  15.8577

          k = 0.2214-0.5113 0.1970 (  2666 PWs)   bands (ev):

   -50.8983 -50.8957 -23.6928 -23.6804 -23.6425 -23.6268 -23.6113 -23.5951
     8.2921   8.5913   8.7150   9.0743   9.2487   9.7524   9.9603  10.3953
    10.6716  11.1363  12.7019  14.7545  15.9983

          k = 0.2214-0.5113 0.2955 (  2676 PWs)   bands (ev):

   -50.8975 -50.8966 -23.6961 -23.6910 -23.6376 -23.6297 -23.6029 -23.5960
     8.3203   8.4435   8.8458   9.0511   9.4153   9.7327   9.9568  10.0517
    10.9312  11.1186  13.1017  13.7943  16.6088

          k = 0.2214-0.2982 0.0000 (  2684 PWs)   bands (ev):

   -50.9038 -50.8955 -23.6885 -23.6513 -23.6413 -23.6121 -23.5885 -23.5863
     8.1904   8.4941   8.8852   8.9130   9.3215   9.4707   9.8922  10.0006
    10.4137  10.7738  11.0036  15.3360  15.6780

          k = 0.2214-0.2982 0.0985 (  2668 PWs)   bands (ev):

   -50.9034 -50.8959 -23.6879 -23.6458 -23.6402 -23.6133 -23.5893 -23.5848
     8.2117   8.5254   8.8505   8.9575   9.3291   9.5194   9.7866  10.0548
    10.5030  10.6575  11.0341  14.2037  16.8288

          k = 0.2214-0.2982 0.1970 (  2662 PWs)   bands (ev):

   -50.9022 -50.8970 -23.6847 -23.6523 -23.6280 -23.6135 -23.5935 -23.5872
     8.2757   8.6137   8.7694   9.0807   9.2742   9.5916   9.6091  10.2487
    10.5010  10.6593  11.0536  13.0241  17.9948

          k = 0.2214-0.2982 0.2955 (  2665 PWs)   bands (ev):

   -50.9006 -50.8987 -23.6777 -23.6658 -23.6149 -23.6109 -23.5977 -23.5935
     8.3899   8.5419   8.8791   9.0892   9.2496   9.4135   9.7692  10.0433
    10.7554  10.8102  11.2418  12.0035  18.9634

          k = 0.2214-0.0852 0.0000 (  2680 PWs)   bands (ev):

   -50.9073 -50.8966 -23.7069 -23.6245 -23.6060 -23.5993 -23.5753 -23.5749
     7.5542   8.2662   9.0266   9.3742   9.4358   9.5980   9.7821   9.7938
     9.9921  10.0967  10.9811  14.2144  15.1295

          k = 0.2214-0.0852 0.0985 (  2677 PWs)   bands (ev):

   -50.9067 -50.8971 -23.7023 -23.6219 -23.6073 -23.6008 -23.5772 -23.5763
     7.6475   8.3077   9.0384   9.3005   9.3503   9.5597   9.8192   9.8739
     9.9848  10.1358  10.9497  13.2370  16.2873

          k = 0.2214-0.0852 0.1970 (  2666 PWs)   bands (ev):

   -50.9053 -50.8986 -23.6859 -23.6206 -23.6134 -23.5983 -23.5833 -23.5800
     7.9063   8.4196   9.0428   9.1505   9.1852   9.5328   9.7630   9.8089
    10.1751  10.3351  10.8468  12.1532  17.9085

          k = 0.2214-0.0852 0.2955 (  2661 PWs)   bands (ev):

   -50.9031 -50.9007 -23.6648 -23.6410 -23.6035 -23.5937 -23.5909 -23.5861
     8.2547   8.4976   8.8751   8.9790   9.2859   9.5170   9.5960   9.6809
    10.4265  10.6543  10.7525  11.3295  19.5456

          k = 0.4428 0.2556 0.0000 (  2666 PWs)   bands (ev):

   -50.9005 -50.8949 -23.6868 -23.6667 -23.6647 -23.6226 -23.5986 -23.5871
     8.0744   8.2459   8.4549   9.2673   9.6792   9.6907   9.9034  10.7840
    10.9255  11.0943  11.6084  15.4197  15.9768

          k = 0.4428 0.2556 0.0985 (  2669 PWs)   bands (ev):

   -50.9002 -50.8952 -23.6959 -23.6713 -23.6530 -23.6210 -23.5972 -23.5889
     8.0654   8.1402   8.6715   9.2041   9.3334   9.7395  10.3987  10.7803
    10.8502  11.0621  11.5606  15.0156  15.6194

          k = 0.4428 0.2556 0.1970 (  2672 PWs)   bands (ev):

   -50.8994 -50.8960 -23.7033 -23.6830 -23.6332 -23.6161 -23.5987 -23.5939
     7.9820   8.2271   8.7516   8.8238   9.5252   9.9502  10.5499  10.8441
    10.8949  11.0100  11.5198  13.8662  15.9139

          k = 0.4428 0.2556 0.2955 (  2659 PWs)   bands (ev):

   -50.8983 -50.8971 -23.7021 -23.6944 -23.6152 -23.6078 -23.6030 -23.6003
     8.0363   8.2028   8.5990   8.7393   9.8226  10.1862  10.3835  10.8083
    10.8942  10.9528  11.9900  12.8250  16.4254

          k = 0.4428 0.4687 0.0000 (  2672 PWs)   bands (ev):

   -50.8982 -50.8951 -23.6903 -23.6657 -23.6501 -23.6393 -23.6119 -23.6070
[...]

          k = 0.0000 0.0000 0.0000 (  1725 PWs)   bands (ev):

   -48.3256 -48.2970 -21.0711 -20.8499 -20.8499 -20.8047 -20.8047 -20.8016
     9.0316  10.0328  11.8449  11.8650  11.8650  12.1678  12.1678  12.4955
    12.4955  13.8630  13.8630  15.2658  18.8787

          k = 0.0000 0.0000 0.1038 (  1719 PWs)   bands (ev):

   -48.3245 -48.2972 -21.0566 -20.8393 -20.8393 -20.8146 -20.8097 -20.8097
     9.1655  10.0708  11.8021  11.8054  11.8054  12.1097  12.1097  12.6438
    12.6438  13.8518  13.8519  14.5636  19.7629

          k = 0.0000 0.0000 0.2076 (  1701 PWs)   bands (ev):

   -48.3196 -48.2993 -21.0026 -20.8492 -20.8276 -20.8276 -20.8106 -20.8106
     9.5332  10.1598  11.7159  11.7362  11.7362  11.9738  11.9738  12.9618
    12.9618  13.3509  13.7827  13.7827  21.5203

          k = 0.0000 0.0000 0.3115 (  1684 PWs)   bands (ev):

   -48.3108 -48.3048 -20.9450 -20.8823 -20.8194 -20.8194 -20.8093 -20.8093
     9.9828  10.2000  11.7432  11.7432  11.7741  11.8326  11.8326  12.3124
    13.3102  13.3102  13.6019  13.6019  23.3238

          k = 0.0000 0.2243 0.0000 (  1689 PWs)   bands (ev):

   -48.3185 -48.2905 -21.0350 -20.8695 -20.8475 -20.8406 -20.8123 -20.8036
     9.6018  10.4085  11.4577  11.9784  11.9848  12.2427  12.3082  12.3718
    12.5772  12.8597  13.9940  17.1358  18.8491

          k = 0.0000 0.2243 0.1038 (  1701 PWs)   bands (ev):

   -48.3177 -48.2933 -21.0324 -20.8724 -20.8510 -20.8493 -20.8167 -20.8164
     9.7148  10.4591  11.4735  11.8427  11.8790  12.1008  12.4752  12.4814
    12.5864  12.8804  13.9563  16.2524  19.9310

          k = 0.0000 0.2243 0.2076 (  1687 PWs)   bands (ev):

   -48.3125 -48.2964 -21.0017 -20.8648 -20.8599 -20.8425 -20.8200 -20.8171
    10.0290  10.5943  11.5116  11.6082  11.6465  12.0357  12.3540  12.4391
    12.8994  13.1101  13.8268  15.1195  21.6517

          k = 0.0000 0.2243 0.3115 (  1676 PWs)   bands (ev):

   -48.3062 -48.3005 -20.9508 -20.9004 -20.8474 -20.8312 -20.8270 -20.8211
    10.4451  10.6964  11.3010  11.3809  11.7786  12.0730  12.1120  12.1930
    13.2597  13.5877  13.5950  14.2453  23.3602

          k = 0.0000 0.4486 0.0000 (  1694 PWs)   bands (ev):

   -48.3058 -48.2887 -20.9906 -20.9803 -20.9367 -20.8758 -20.8379 -20.8229
    10.3234  10.4444  10.9391  11.8498  12.0326  12.1199  12.3670  13.3604
    13.5550  13.6899  14.1406  19.0834  19.7259

          k = 0.0000 0.4486 0.1038 (  1671 PWs)   bands (ev):

   -48.3035 -48.2871 -20.9980 -20.9436 -20.9292 -20.8641 -20.8302 -20.8234
    10.2804  10.4413  11.1327  11.6049  11.9228  12.1277  12.8284  13.3909
    13.4670  13.6315  14.0794  17.9471  20.2823

          k = 0.0000 0.4486 0.2076 (  1671 PWs)   bands (ev):

   -48.3007 -48.2899 -21.0078 -20.9582 -20.9028 -20.8593 -20.8336 -20.8263
    10.2249  10.5655  11.1160  11.3135  12.1331  12.3002  13.2070  13.3341
    13.4785  13.5810  13.9349  16.5571  20.7937

          k = 0.0000 0.4486 0.3115 (  1678 PWs)   bands (ev):

   -48.2971 -48.2947 -21.0084 -20.9840 -20.8751 -20.8541 -20.8460 -20.8367
    10.3157  10.5327  10.9827  11.1883  12.4549  12.7053  12.8382  13.1059
    13.6098  13.7685  14.2963  15.3128  21.5001

          k = 0.0000-0.6730 0.0000 (  1654 PWs)   bands (ev):

   -48.2954 -48.2842 -21.0074 -20.9594 -20.9348 -20.8813 -20.8497 -20.8226
    10.1217  10.4560  10.5297  11.6856  12.2092  12.4220  12.7910  13.9932
    14.1849  14.2035  16.0919  17.1449  20.2592

          k = 0.0000-0.6730 0.1038 (  1678 PWs)   bands (ev):

   -48.2972 -48.2865 -21.0318 -20.9834 -20.9272 -20.8817 -20.8531 -20.8350
    10.1739  10.1739  10.8800  11.6526  11.7754  12.4640  13.4057  13.9158
    14.0946  14.1952  15.9671  17.0801  20.0639

          k = 0.0000-0.6730 0.2076 (  1684 PWs)   bands (ev):

   -48.2968 -48.2878 -21.0449 -21.0108 -20.9000 -20.8668 -20.8580 -20.8452
    10.0323  10.3001  11.0441  11.0808  12.0398  12.7489  13.5159  14.0788
    14.0888  14.1738  15.7066  16.8605  19.6587

          k = 0.0000-0.6730 0.3115 (  1670 PWs)   bands (ev):

   -48.2923 -48.2898 -21.0386 -21.0279 -20.8709 -20.8546 -20.8516 -20.8478
    10.0900  10.2889  10.8137  10.9785  12.4560  12.9760  13.3785  14.0420
    14.1071  14.1421  15.8789  16.4321  19.3330

          k = 0.2331 0.1346 0.0000 (  1689 PWs)   bands (ev):

   -48.3157 -48.2904 -21.0276 -20.8927 -20.8601 -20.8556 -20.8083 -20.8068
     9.8116  10.4913  11.4395  11.7568  11.9501  12.1588  12.4893  12.5396
    12.7212  12.7446  14.0305  17.6518  18.8483

          k = 0.2331 0.1346 0.1038 (  1689 PWs)   bands (ev):

   -48.3145 -48.2916 -21.0235 -20.8881 -20.8611 -20.8492 -20.8161 -20.8137
     9.9072  10.5457  11.4526  11.7092  11.8259  12.1208  12.5066  12.5985
    12.7097  12.8454  13.9857  16.6316  20.0250

          k = 0.2331 0.1346 0.2076 (  1684 PWs)   bands (ev):

   -48.3101 -48.2953 -20.9994 -20.8826 -20.8748 -20.8462 -20.8206 -20.8176
    10.1692  10.6955  11.3936  11.5974  11.6349  12.1118  12.3839  12.5089
    12.9322  13.1697  13.8398  15.4163  21.6876

          k = 0.2331 0.1346 0.3115 (  1688 PWs)   bands (ev):

   -48.3057 -48.3003 -20.9617 -20.9191 -20.8640 -20.8417 -20.8362 -20.8282
    10.5231  10.8035  11.1861  11.3621  11.8107  12.1123  12.1855  12.3314
    13.2671  13.5898  13.7014  14.4400  23.2784

          k = 0.2331 0.3589 0.0000 (  1690 PWs)   bands (ev):

   -48.3062 -48.2885 -20.9950 -20.9454 -20.9343 -20.8740 -20.8346 -20.8341
    10.6063  10.8446  11.0834  11.2094  11.7385  12.0602  12.4848  12.7763
    13.4637  14.0271  14.0336  19.0829  19.6075

          k = 0.2331 0.3589 0.1038 (  1681 PWs)   bands (ev):

   -48.3048 -48.2885 -20.9915 -20.9357 -20.9253 -20.8775 -20.8375 -20.8297
    10.6032  10.8305  11.1122  11.2295  11.8595  12.0632  12.3518  12.8364
    13.5718  13.7226  14.2158  17.9294  20.5967

          k = 0.2331 0.3589 0.2076 (  1675 PWs)   bands (ev):

   -48.3013 -48.2912 -20.9992 -20.9443 -20.8964 -20.8822 -20.8416 -20.8200
    10.5977  10.8187  11.1376  11.4320  11.8657  12.0749  12.1523  13.0692
    13.4439  13.7654  14.3023  16.5836  21.5434

          k = 0.2331 0.3589 0.3115 (  1679 PWs)   bands (ev):

   -48.2984 -48.2947 -20.9906 -20.9673 -20.8767 -20.8745 -20.8489 -20.8354
    10.6405  10.7359  11.3371  11.5706  11.7097  11.8652  12.3599  12.7565
    13.8390  13.9134  14.5140  15.3773  22.4665

          k = 0.2331 0.5832 0.0000 (  1677 PWs)   bands (ev):

   -48.2944 -48.2881 -20.9895 -20.9562 -20.9406 -20.9237 -20.8639 -20.8589
    10.5711  10.7028  10.9066  11.6506  11.9033  12.1131  12.4825  13.5021
    14.0000  14.0411  16.1106  18.3492  20.0354

          k = 0.2331 0.5832 0.1038 (  1681 PWs)   bands (ev):

   -48.2950 -48.2881 -21.0005 -20.9714 -20.9316 -20.9098 -20.8765 -20.8519
    10.5030  10.7552  11.0372  11.4477  11.7933  12.3436  12.5374  13.4993
    13.7891  14.1060  16.1928  18.4296  19.8764

          k = 0.2331 0.5832 0.2076 (  1676 PWs)   bands (ev):

   -48.2938 -48.2882 -21.0126 -20.9921 -20.9256 -20.8899 -20.8693 -20.8379
    10.4447  10.8931  11.0148  11.4342  11.6457  12.4809  12.7265  13.2397
    13.6489  14.1969  16.4259  18.3071  19.3730

          k = 0.2331 0.5832 0.3115 (  1675 PWs)   bands (ev):

   -48.2919 -48.2899 -21.0169 -21.0100 -20.9152 -20.8997 -20.8492 -20.8324
    10.5002  10.6919  11.1424  11.4011  11.8865  12.3722  12.7716  12.8696
    13.9082  14.1465  16.8532  17.5350  19.8023

          k = 0.2331-0.5384 0.0000 (  1678 PWs)   bands (ev):

   -48.2961 -48.2878 -20.9842 -20.9584 -20.9458 -20.9153 -20.8596 -20.8530
    10.6336  10.7349  10.9069  11.6416  11.7549  12.1798  12.4111  13.3219
    14.0045  14.0299  15.6498  18.9590  20.1032

          k = 0.2331-0.5384 0.1038 (  1684 PWs)   bands (ev):

   -48.2966 -48.2882 -20.9980 -20.9725 -20.9260 -20.9141 -20.8723 -20.8471
    10.5563  10.7839  11.0341  11.3803  11.8722  12.2608  12.4533  13.3291
    13.7957  14.1049  15.7252  19.0458  19.4707

          k = 0.2331-0.5384 0.2076 (  1679 PWs)   bands (ev):

   -48.2949 -48.2889 -21.0108 -20.9886 -20.9218 -20.8925 -20.8650 -20.8370
    10.4889  10.8733  11.0122  11.4770  11.7118  12.3436  12.6111  13.2090
    13.5894  14.2208  15.9295  18.1277  19.6477

          k = 0.2331-0.5384 0.3115 (  1681 PWs)   bands (ev):

   -48.2933 -48.2908 -21.0142 -21.0099 -20.9117 -20.8974 -20.8508 -20.8352
    10.5253  10.6806  11.1872  11.4536  11.9085  12.3076  12.6185  12.7580
    13.9338  14.1953  16.3338  17.0751  20.3350

          k = 0.2331-0.3141 0.0000 (  1687 PWs)   bands (ev):

   -48.3084 -48.2885 -21.0006 -20.9376 -20.9126 -20.8667 -20.8291 -20.8274
    10.4427  10.7440  11.2271  11.2643  11.8090  12.0064  12.5444  12.7068
    13.2350  13.6873  14.0419  18.9785  19.1425

          k = 0.2331-0.3141 0.1038 (  1687 PWs)   bands (ev):

   -48.3073 -48.2898 -20.9993 -20.9299 -20.9154 -20.8725 -20.8335 -20.8245
    10.4574  10.7836  11.1839  11.3234  11.8174  12.0642  12.4087  12.7724
    13.3528  13.5488  14.0661  17.6269  20.4649

          k = 0.2331-0.3141 0.2076 (  1672 PWs)   bands (ev):

   -48.3027 -48.2919 -20.9976 -20.9289 -20.8956 -20.8685 -20.8312 -20.8174
    10.5108  10.8954  11.0878  11.4830  11.7457  12.1524  12.1847  12.9938
    13.3694  13.5615  14.0654  16.2836  21.6911

          k = 0.2331-0.3141 0.3115 (  1680 PWs)   bands (ev):

   -48.2999 -48.2961 -20.9851 -20.9562 -20.8722 -20.8667 -20.8417 -20.8369
    10.6280  10.8028  11.2388  11.5057  11.7045  11.9186  12.3915  12.7415
    13.6996  13.7787  14.2135  15.1005  22.7619

          k = 0.2331-0.0897 0.0000 (  1693 PWs)   bands (ev):

   -48.3169 -48.2912 -21.0346 -20.8827 -20.8574 -20.8463 -20.8108 -20.8108
     9.7224  10.4684  11.4225  11.8645  11.9666  12.1770  12.4140  12.4325
    12.6961  12.7881  14.0099  17.4285  18.8479

          k = 0.2331-0.0897 0.1038 (  1689 PWs)   bands (ev):

   -48.3153 -48.2921 -21.0261 -20.8795 -20.8555 -20.8482 -20.8155 -20.8081
     9.8274  10.5218  11.4389  11.7664  11.8548  12.1260  12.4528  12.5339
    12.6849  12.8575  13.9699  16.4728  19.9825

          k = 0.2331-0.0897 0.2076 (  1685 PWs)   bands (ev):

   -48.3113 -48.2956 -20.9990 -20.8747 -20.8682 -20.8435 -20.8212 -20.8183
    10.1175  10.6662  11.4402  11.5784  11.6376  12.0904  12.3712  12.4482
    12.9337  13.1346  13.8347  15.2916  21.6779

          k = 0.2331-0.0897 0.3115 (  1681 PWs)   bands (ev):

   -48.3058 -48.3002 -20.9560 -20.9100 -20.8557 -20.8399 -20.8306 -20.8225
    10.5074  10.7791  11.2248  11.3633  11.7642  12.0618  12.1674  12.2818
    13.2705  13.5741  13.6676  14.3571  23.3362

          k = 0.4662 0.2692 0.0000 (  1670 PWs)   bands (ev):

   -48.2995 -48.2861 -20.9990 -20.9619 -20.9563 -20.8752 -20.8399 -20.8208
    10.2068  10.4690  10.6795  11.7467  12.2672  12.2926  12.4870  13.7431
    13.9353  14.1695  14.6310  19.0002  19.4996

          k = 0.4662 0.2692 0.1038 (  1680 PWs)   bands (ev):

   -48.2998 -48.2875 -21.0153 -20.9719 -20.9396 -20.8766 -20.8452 -20.8291
    10.2124  10.3009  10.9703  11.6415  11.8311  12.3498  13.1433  13.7415
    13.8273  14.1248  14.5476  18.3641  19.3136

          k = 0.4662 0.2692 0.2076 (  1673 PWs)   bands (ev):

   -48.2977 -48.2881 -21.0232 -20.9889 -20.8999 -20.8654 -20.8451 -20.8370
    10.1119  10.4037  11.0722  11.1699  12.0782  12.5969  13.4264  13.8227
    13.8603  14.0535  14.3637  17.0761  19.6380

          k = 0.4662 0.2692 0.3115 (  1676 PWs)   bands (ev):

   -48.2948 -48.2915 -21.0307 -21.0143 -20.8722 -20.8541 -20.8531 -20.8409
    10.1762  10.3798  10.8793  11.0613  12.4646  12.9411  13.1443  13.7225
    13.8921  13.9740  14.9047  15.8877  20.1907

          k = 0.4662 0.4935 0.0000 (  1667 PWs)   bands (ev):

   -48.2937 -48.2867 -20.9999 -20.9554 -20.9302 -20.9173 -20.8600 -20.8509
    10.5244  10.5302  10.7979  11.6604  12.1016  12.1943  12.4970  13.8114
    14.0104  14.0358  16.6139  17.4398  20.3093

          k = 0.4662 0.4935 0.1038 (  1670 PWs)   bands (ev):

   -48.2937 -48.2870 -21.0091 -20.9682 -20.9298 -20.9001 -20.8687 -20.8437
    10.3972  10.5807  11.0264  11.5616  11.6635  12.5656  12.6386  13.7838
    13.8317  14.0760  16.6857  17.4694  20.2960

          k = 0.4662 0.4935 0.2076 (  1677 PWs)   bands (ev):

   -48.2930 -48.2888 -21.0241 -20.9979 -20.9224 -20.8809 -20.8768 -20.8335
    10.3089  10.7359  11.0489  11.4096  11.5564  12.7978  12.9114  13.3238
    13.8166  14.1511  16.8923  17.5286  19.7173

          k = 0.4662 0.4935 0.3115 (  1683 PWs)   bands (ev):

   -48.2922 -48.2904 -21.0272 -21.0153 -20.9111 -20.8993 -20.8573 -20.8389
    10.3793  10.6205  11.0003  11.2721  11.9639  12.5482  13.0765  13.1704
    13.9052  14.0828  17.2065  17.4787  19.3845

          k = 0.4662 0.7178 0.0000 (  1675 PWs)   bands (ev):

   -48.2921 -48.2882 -20.9872 -20.9486 -20.9361 -20.9180 -20.8897 -20.8759
    10.5129  10.9687  11.0683  11.6988  11.7151  11.9603  12.6373  13.5651
    13.9237  13.9444  16.9886  17.9071  19.0806

          k = 0.4662 0.7178 0.1038 (  1681 PWs)   bands (ev):

   -48.2925 -48.2886 -20.9893 -20.9705 -20.9510 -20.8975 -20.8923 -20.8682
    10.5627  10.9649  11.0573  11.4877  11.8210  12.0732  12.6298  13.5875
    13.7179  13.9714  17.1113  18.0487  19.3333

          k = 0.4662 0.7178 0.2076 (  1675 PWs)   bands (ev):

   -48.2918 -48.2883 -21.0011 -20.9886 -20.9508 -20.9076 -20.8594 -20.8453
    10.6378  10.9100  11.1460  11.3475  11.8401  12.2027  12.6284  13.1957
    13.7050  14.0339  17.4500  18.4413  19.8502

          k = 0.4662 0.7178 0.3115 (  1672 PWs)   bands (ev):

   -48.2902 -48.2890 -21.0060 -21.0006 -20.9404 -20.9220 -20.8405 -20.8332
    10.6847  10.7841  11.3413  11.3720  11.8891  12.1209  12.6515  12.7781
    13.8673  14.0027  17.9945  18.6211  19.5362

          k = 0.4662-0.4038 0.0000 (  1666 PWs)   bands (ev):

   -48.2962 -48.2856 -21.0050 -20.9612 -20.9424 -20.8893 -20.8538 -20.8335
    10.2971  10.5664  10.5987  11.6764  12.1914  12.4131  12.4495  13.8904
    14.0254  14.1170  15.7619  17.9252  20.1580

          k = 0.4662-0.4038 0.1038 (  1666 PWs)   bands (ev):

   -48.2957 -48.2859 -21.0151 -20.9728 -20.9234 -20.8878 -20.8532 -20.8317
    10.2849  10.3570  10.9670  11.5750  11.7550  12.4828  12.9771  13.8209
    13.9741  14.0827  15.7537  17.8537  19.6774

          k = 0.4662-0.4038 0.2076 (  1678 PWs)   bands (ev):

   -48.2953 -48.2883 -21.0315 -20.9986 -20.9047 -20.8798 -20.8587 -20.8388
    10.1607  10.4919  11.0424  11.2318  11.8277  12.7650  13.3738  13.4369
    13.8833  14.1980  15.7996  17.4465  19.2858

          k = 0.4662-0.4038 0.3115 (  1686 PWs)   bands (ev):

   -48.2938 -48.2911 -21.0365 -21.0243 -20.8902 -20.8739 -20.8598 -20.8465
    10.2238  10.4482  10.8871  11.1114  12.2395  12.8030  13.2048  13.4945
    13.9393  14.1473  16.1144  16.7352  19.4861

          k = 0.4662-0.1795 0.0000 (  1679 PWs)   bands (ev):

   -48.3016 -48.2872 -20.9861 -20.9736 -20.9483 -20.8782 -20.8415 -20.8236
    10.3383  10.5255  10.7890  11.7595  12.1364  12.2235  12.3146  13.5363
    13.6644  14.1302  14.3818  19.3119  19.8187

          k = 0.4662-0.1795 0.1038 (  1674 PWs)   bands (ev):

   -48.3009 -48.2870 -21.0036 -20.9580 -20.9348 -20.8771 -20.8398 -20.8260
    10.3128  10.4298  11.0547  11.5470  11.8950  12.2557  12.8157  13.4808
    13.7243  13.9436  14.4090  18.3266  19.7911

          k = 0.4662-0.1795 0.2076 (  1673 PWs)   bands (ev):

   -48.2986 -48.2891 -21.0141 -20.9757 -20.9048 -20.8686 -20.8426 -20.8302
    10.2195  10.5525  11.0617  11.2903  12.0123  12.4561  13.2198  13.3458
    13.6429  13.9175  14.4187  16.9518  20.2018

          k = 0.4662-0.1795 0.3115 (  1679 PWs)   bands (ev):

   -48.2961 -48.2927 -21.0214 -21.0005 -20.8744 -20.8612 -20.8514 -20.8412
    10.2888  10.5043  10.9480  11.1697  12.3765  12.7539  12.9092  13.1603
    13.8180  14.0091  14.7866  15.7228  20.8539

          k = 0.4662 0.0449 0.0000 (  1687 PWs)   bands (ev):

   -48.3036 -48.2879 -20.9827 -20.9588 -20.9425 -20.8855 -20.8418 -20.8369
    10.6944  10.8036  10.9340  11.3771  11.6968  12.1410  12.4053  12.9229
    13.6686  14.0346  14.3931  19.2335  20.1020

          k = 0.4662 0.0449 0.1038 (  1683 PWs)   bands (ev):

   -48.3026 -48.2884 -20.9890 -20.9498 -20.9314 -20.8905 -20.8464 -20.8335
    10.6384  10.7867  11.0587  11.2824  11.8696  12.1650  12.3070  12.9609
    13.7674  13.7985  14.4975  18.2599  20.5135

          k = 0.4662 0.0449 0.2076 (  1674 PWs)   bands (ev):

   -48.2995 -48.2900 -20.9987 -20.9590 -20.9015 -20.8866 -20.8468 -20.8254
    10.5602  10.8300  11.0398  11.5150  11.8423  12.1223  12.2799  13.1335
    13.4935  13.9503  14.6169  16.9250  21.1032

          k = 0.4662 0.0449 0.3115 (  1680 PWs)   bands (ev):

   -48.2968 -48.2936 -21.0000 -20.9831 -20.8851 -20.8779 -20.8499 -20.8360
    10.5813  10.6958  11.2492  11.5319  11.8701  12.0534  12.3688  12.7561
    13.8962  14.0597  14.8870  15.7173  21.8918

     the Fermi energy is    13.8777 ev

!    total energy              =    -350.18751822 Ry
     Harris-Foulkes estimate   =    -350.18752075 Ry
     estimated scf accuracy    <       0.00000039 Ry

     The total energy is the sum of the following terms:

     one-electron contribution =     -84.47070550 Ry
     hartree contribution      =      57.09037045 Ry
     xc contribution           =     -35.54435356 Ry
     ewald contribution        =    -287.03004174 Ry
     smearing contrib. (-TS)   =      -0.23278788 Ry

     convergence has been achieved in  12 iterations

     Forces acting on atoms (Ry/au):

     atom    1 type  1   force =     0.00000000    0.00000000    0.00000000
     atom    2 type  1   force =     0.00000000    0.00000000    0.00000000

     Total force =     0.000000     Total SCF correction =     0.000000


     entering subroutine stress ...

          total   stress  (Ry/bohr**3)                   (kbar)     P= -527.21
  -0.00357327   0.00000000   0.00000000       -525.65      0.00      0.00
   0.00000000  -0.00357327   0.00000000          0.00   -525.65      0.00
   0.00000000   0.00000000  -0.00360517          0.00      0.00   -530.34


     Writing output data file Element-Eu.q.save
 
     init_run     :      1.00s CPU      1.32s WALL (       2 calls)
     electrons    :     85.55s CPU     89.90s WALL (       5 calls)
     update_pot   :      0.17s CPU      0.19s WALL (       3 calls)
     forces       :      0.23s CPU      0.28s WALL (       5 calls)
     stress       :      0.56s CPU      0.61s WALL (       5 calls)

     Called by init_run:
     wfcinit      :      0.73s CPU      0.87s WALL (       2 calls)
     potinit      :      0.05s CPU      0.08s WALL (       2 calls)

     Called by electrons:
     c_bands      :     82.00s CPU     85.32s WALL (      41 calls)
     sum_band     :      3.37s CPU      3.53s WALL (      41 calls)
     v_of_rho     :      0.02s CPU      0.02s WALL (      46 calls)
     mix_rho      :      0.02s CPU      0.04s WALL (      41 calls)

     Called by c_bands:
     init_us_2    :      0.30s CPU      0.29s WALL (    6016 calls)
     ccgdiagg     :     64.92s CPU     67.31s WALL (    2689 calls)
     wfcrot       :     17.51s CPU     18.10s WALL (    2753 calls)

     Called by *cgdiagg:
     h_psi        :     49.57s CPU     53.03s WALL (  254688 calls)
     cdiaghg      :      2.99s CPU      3.10s WALL (    2753 calls)

     Called by h_psi:
     add_vuspsi   :      1.38s CPU      1.63s WALL (  254688 calls)

     General routines
     calbec       :      9.70s CPU     12.91s WALL (  507263 calls)
     fft          :      0.05s CPU      0.16s WALL (     207 calls)
     fftw         :     42.89s CPU     43.49s WALL (  674600 calls)
     davcio       :      0.23s CPU      0.66s WALL (    8640 calls)
 
     Parallel routines
     fft_scatter  :     32.74s CPU     30.73s WALL (  674807 calls)
 
     PWSCF        :  1m28.18s CPU     1m34.37s WALL

 
   This run was terminated on:  23: 0:42  21Mar2018            

=------------------------------------------------------------------------------=
   JOB DONE.
=------------------------------------------------------------------------------=
