
     Program PWSCF v.5.0.2 starts on 22Mar2018 at 16:18:53 

     This program is part of the open-source Quantum ESPRESSO suite
     for quantum simulation of materials; please cite
         "P. Giannozzi et al., J. Phys.:Condens. Matter 21 395502 (2009);
          URL http://www.quantum-espresso.org", 
     in publications or presentations arising from this work. More details at
     http://www.quantum-espresso.org/quote.php

     Parallel version (MPI), running on     4 processors
     R & G space division:  proc/nbgrp/npool/nimage =       4

     Current dimensions of program PWSCF are:
     Max number of different atomic species (ntypx) = 10
     Max number of k-points (npk) =  40000
     Max angular momentum in pseudopotentials (lmaxx) =  3
     Waiting for input...
     Reading input from standard input

     Subspace diagonalization in iterative solution of the eigenvalue problem:
     a serial algorithm will be used

 
     Parallelization info
     --------------------
     sticks:   dense  smooth     PW     G-vecs:    dense   smooth      PW
     Min         162     162     52                 2693     2693     497
     Max         163     163     54                 2695     2695     498
     Sum         649     649    211                10777    10777    1989
 


     bravais-lattice index     =            0
     lattice parameter (alat)  =       7.6055  a.u.
     unit-cell volume          =     311.0722 (a.u.)^3
     number of atoms/cell      =            2
     number of atomic types    =            2
     number of electrons       =        34.00
     number of Kohn-Sham states=           21
     kinetic-energy cutoff     =      40.0000  Ry
     charge density cutoff     =     160.0000  Ry
     convergence threshold     =      1.0E-04
     mixing beta               =       0.7000
     number of iterations used =            8  plain     mixing
     Exchange-correlation      = SLA-PZ-NOGX-NOGC ( 1 1 0 0 0)
     EXX-fraction              =        0.00
     nstep                     =           50


     celldm(1)=   7.605458  celldm(2)=   0.000000  celldm(3)=   0.000000
     celldm(4)=   0.000000  celldm(5)=   0.000000  celldm(6)=   0.000000

     crystal axes: (cart. coord. in units of alat)
               a(1) = (   1.000000   0.000000   0.000000 )  
               a(2) = (   0.500000   0.866025   0.000000 )  
               a(3) = (   0.500000   0.288675   0.816497 )  

     reciprocal axes: (cart. coord. in units 2 pi/alat)
               b(1) = (  1.000000 -0.577350 -0.408248 )  
               b(2) = (  0.000000  1.154701 -0.408248 )  
               b(3) = (  0.000000  0.000000  1.224745 )  


     PseudoPot. # 1 for Pr read from file:
     /home/cwx6513/pp.La/Pr.UPF
     MD5 check sum: 70e2b4b153859e92c8c91247dfc63203
     Pseudo is Norm-conserving, Zval = 13.0
     Generated in analytical, separable form
     Using radial grid of 1255 points,  6 beta functions with: 
                l(1) =   0
                l(2) =   0
                l(3) =   1
                l(4) =   1
                l(5) =   2
                l(6) =   3

     PseudoPot. # 2 for Ho read from file:
     /home/cwx6513/pp.La/Ho.UPF
     MD5 check sum: f307ee11bce99f5b724fa279e3790763
     Pseudo is Norm-conserving, Zval = 21.0
     Generated in analytical, separable form
     Using radial grid of 1265 points,  6 beta functions with: 
                l(1) =   0
                l(2) =   0
                l(3) =   1
                l(4) =   1
                l(5) =   2
                l(6) =   3

     atomic species   valence    mass     pseudopotential
        Na            13.00    22.98970     Pr( 1.00)
        Cl            21.00    35.45300     Ho( 1.00)

     12 Sym. Ops., with inversion, found



   Cartesian axes

     site n.     atom                  positions (alat units)
         1           Na  tau(   1) = (   0.0000000   0.0000000   0.0000000  )
         2           Cl  tau(   2) = (   1.0000000   0.5773503   0.4082483  )

     number of k points=   496  gaussian smearing, width (Ry)=  0.1000

     Number of k-points >= 100: set verbosity='high' to print them.

     Dense  grid:    10777 G-vectors     FFT dimensions: (  32,  32,  32)

     Largest allocated arrays     est. size (Mb)     dimensions
        Kohn-Sham Wavefunctions         0.11 Mb     (    343,   21)
        NL pseudopotentials             0.21 Mb     (    343,   40)
        Each V/rho on FFT grid          0.12 Mb     (   8192)
        Each G-vector array             0.02 Mb     (   2694)
        G-vector shells                 0.02 Mb     (   2694)
     Largest temporary arrays     est. size (Mb)     dimensions
        Each subspace H/S matrix        0.01 Mb     (  21,  21)
        Each <psi_i|beta_j> matrix      0.01 Mb     (     40,   21)
        Arrays for rho mixing           1.00 Mb     (   8192,   8)

     Initial potential from superposition of free atoms

     starting charge   12.99054, renormalised to   34.00000

     negative rho (up, down):  0.208E-03 0.000E+00
     Starting wfc are   20 randomized atomic wfcs

     total cpu time spent up to now is        4.3 secs

     Self-consistent Calculation

     iteration #  1     ecut=    40.00 Ry     beta=0.70
     CG style diagonalization
     c_bands:  2 eigenvalues not converged
     c_bands:  3 eigenvalues not converged
     c_bands:  5 eigenvalues not converged
     c_bands:  4 eigenvalues not converged
     c_bands:  5 eigenvalues not converged
     c_bands:  5 eigenvalues not converged
     c_bands:  5 eigenvalues not converged
     c_bands:  4 eigenvalues not converged
     c_bands:  5 eigenvalues not converged
     c_bands:  5 eigenvalues not converged
     c_bands:  4 eigenvalues not converged
     c_bands:  5 eigenvalues not converged
     c_bands:  5 eigenvalues not converged
     c_bands:  5 eigenvalues not converged
     c_bands:  5 eigenvalues not converged
     c_bands:  5 eigenvalues not converged
     c_bands:  5 eigenvalues not converged
     c_bands:  4 eigenvalues not converged
     c_bands:  4 eigenvalues not converged
     c_bands:  5 eigenvalues not converged
     c_bands:  5 eigenvalues not converged
     c_bands:  5 eigenvalues not converged
     ethr =  1.00E-02,  avg # of iterations = 20.1

     negative rho (up, down):  0.615E-04 0.000E+00

     total cpu time spent up to now is       80.5 secs

     total energy              =    -178.31635506 Ry
     Harris-Foulkes estimate   =    -799.72138359 Ry
     estimated scf accuracy    <     744.68089841 Ry

     iteration #  2     ecut=    40.00 Ry     beta=0.70
     CG style diagonalization
     c_bands:  1 eigenvalues not converged
     ethr =  1.00E-02,  avg # of iterations = 11.5

     negative rho (up, down):  0.291E-04 0.000E+00

     total cpu time spent up to now is      126.1 secs

     total energy              =    -314.87867616 Ry
     Harris-Foulkes estimate   =    -490.04273992 Ry
     estimated scf accuracy    <     271.43133432 Ry

     iteration #  3     ecut=    40.00 Ry     beta=0.70
     CG style diagonalization
     ethr =  1.00E-02,  avg # of iterations = 10.7

     negative rho (up, down):  0.143E-04 0.000E+00

     total cpu time spent up to now is      170.5 secs

     total energy              =    -387.31781369 Ry
     Harris-Foulkes estimate   =    -394.55422852 Ry
     estimated scf accuracy    <      17.99284372 Ry

     iteration #  4     ecut=    40.00 Ry     beta=0.70
     CG style diagonalization
     ethr =  1.00E-02,  avg # of iterations =  3.7

     negative rho (up, down):  0.965E-06 0.000E+00

     total cpu time spent up to now is      187.7 secs

     total energy              =    -386.12121354 Ry
     Harris-Foulkes estimate   =    -388.34579801 Ry
     estimated scf accuracy    <       4.66837190 Ry

     iteration #  5     ecut=    40.00 Ry     beta=0.70
     CG style diagonalization
     ethr =  1.00E-02,  avg # of iterations =  3.5

     total cpu time spent up to now is      201.8 secs

     total energy              =    -386.09418348 Ry
     Harris-Foulkes estimate   =    -386.55865112 Ry
     estimated scf accuracy    <       0.61849625 Ry

     iteration #  6     ecut=    40.00 Ry     beta=0.70
     CG style diagonalization
     ethr =  1.82E-03,  avg # of iterations =  4.5

     total cpu time spent up to now is      222.9 secs

     total energy              =    -386.43638133 Ry
     Harris-Foulkes estimate   =    -386.42799514 Ry
     estimated scf accuracy    <       0.16165313 Ry

     iteration #  7     ecut=    40.00 Ry     beta=0.70
     CG style diagonalization
     ethr =  4.75E-04,  avg # of iterations =  3.2

     total cpu time spent up to now is      236.9 secs

     total energy              =    -386.35692594 Ry
     Harris-Foulkes estimate   =    -386.44605712 Ry
     estimated scf accuracy    <       0.19336092 Ry

     iteration #  8     ecut=    40.00 Ry     beta=0.70
     CG style diagonalization
     ethr =  4.75E-04,  avg # of iterations =  3.4

     total cpu time spent up to now is      254.9 secs

     total energy              =    -386.38238977 Ry
     Harris-Foulkes estimate   =    -386.38492456 Ry
     estimated scf accuracy    <       0.01700156 Ry

     iteration #  9     ecut=    40.00 Ry     beta=0.70
     CG style diagonalization
     c_bands:  1 eigenvalues not converged
     c_bands:  1 eigenvalues not converged
     c_bands:  1 eigenvalues not converged
     c_bands:  1 eigenvalues not converged
     c_bands:  1 eigenvalues not converged
     c_bands:  1 eigenvalues not converged
     c_bands:  1 eigenvalues not converged
     c_bands:  1 eigenvalues not converged
     c_bands:  1 eigenvalues not converged
     c_bands:  1 eigenvalues not converged
     c_bands:  1 eigenvalues not converged
     ethr =  5.00E-05,  avg # of iterations =  3.7

     total cpu time spent up to now is      269.6 secs

     total energy              =    -386.38166706 Ry
     Harris-Foulkes estimate   =    -386.38395872 Ry
     estimated scf accuracy    <       0.01005297 Ry

     iteration # 10     ecut=    40.00 Ry     beta=0.70
     CG style diagonalization
     ethr =  2.96E-05,  avg # of iterations =  3.1

     total cpu time spent up to now is      285.2 secs

     total energy              =    -386.38096855 Ry
     Harris-Foulkes estimate   =    -386.38225941 Ry
     estimated scf accuracy    <       0.00401402 Ry

     iteration # 11     ecut=    40.00 Ry     beta=0.70
     CG style diagonalization
     c_bands:  1 eigenvalues not converged
     c_bands:  1 eigenvalues not converged
     c_bands:  1 eigenvalues not converged
     ethr =  1.18E-05,  avg # of iterations =  3.6

     total cpu time spent up to now is      302.3 secs

     total energy              =    -386.38150060 Ry
     Harris-Foulkes estimate   =    -386.38154062 Ry
     estimated scf accuracy    <       0.00066189 Ry

     iteration # 12     ecut=    40.00 Ry     beta=0.70
     CG style diagonalization
     c_bands:  1 eigenvalues not converged
     c_bands:  1 eigenvalues not converged
     c_bands:  1 eigenvalues not converged
     c_bands:  1 eigenvalues not converged
     ethr =  1.95E-06,  avg # of iterations =  3.6

     total cpu time spent up to now is      319.2 secs

     total energy              =    -386.38138037 Ry
     Harris-Foulkes estimate   =    -386.38155843 Ry
     estimated scf accuracy    <       0.00050079 Ry

     iteration # 13     ecut=    40.00 Ry     beta=0.70
     CG style diagonalization
     ethr =  1.47E-06,  avg # of iterations =  3.0

     total cpu time spent up to now is      333.3 secs

     End of self-consistent calculation

     Number of k-points >= 100: set verbosity='high' to print the bands.

     the Fermi energy is    21.2343 ev

!    total energy              =    -386.38135695 Ry
     Harris-Foulkes estimate   =    -386.38141157 Ry
     estimated scf accuracy    <       0.00006473 Ry

     The total energy is the sum of the following terms:

     one-electron contribution =    -104.10205135 Ry
     hartree contribution      =      70.67711277 Ry
     xc contribution           =     -37.50671114 Ry
     ewald contribution        =    -315.34412133 Ry
     smearing contrib. (-TS)   =      -0.10558590 Ry

     convergence has been achieved in  13 iterations

     Forces acting on atoms (Ry/au):

     atom    1 type  1   force =     0.00000000    0.00000000    0.00000000
     atom    2 type  2   force =     0.00000000    0.00000000    0.00000000

     Total force =     0.000000     Total SCF correction =     0.000000


     entering subroutine stress ...

          total   stress  (Ry/bohr**3)                   (kbar)     P=   61.78
   0.00041914   0.00000000   0.00000000         61.66      0.00      0.00
   0.00000000   0.00041914   0.00000000          0.00     61.66      0.00
   0.00000000   0.00000000   0.00042170          0.00      0.00     62.03


     BFGS Geometry Optimization

     number of scf cycles    =   1
     number of bfgs steps    =   0

     enthalpy new            =    -386.3813569455 Ry

     new trust radius        =       0.0371881972 bohr
     new conv_thr            =       0.0001000000 Ry

     new unit-cell volume =    320.97410 a.u.^3 (    47.56345 Ang^3 )

CELL_PARAMETERS (alat=  7.60545813)
   1.010478616   0.000000000   0.000000000
   0.505239308   0.875100151   0.000000000
   0.505239308   0.291700050   0.825104515

ATOMIC_POSITIONS (crystal)
Na       0.000000000   0.000000000   0.000000000
Cl       0.500000000   0.500000000   0.500000000



     Writing output data file Prototype-La-cF8-NaCl.save
     NEW-OLD atomic charge density approx. for the potential
     NEW k-points: (use verbosity='high' to print them)
     Check: negative starting charge=   -0.000153

     negative rho (up, down):  0.731E-04 0.000E+00
     extrapolated charge   34.40075, renormalised to   34.00000

     total cpu time spent up to now is      339.3 secs

     Self-consistent Calculation

     iteration #  1     ecut=    40.00 Ry     beta=0.70
     CG style diagonalization
     c_bands:  1 eigenvalues not converged
     c_bands:  1 eigenvalues not converged
     c_bands:  1 eigenvalues not converged
     c_bands:  1 eigenvalues not converged
     c_bands:  1 eigenvalues not converged
     c_bands:  1 eigenvalues not converged
     c_bands:  1 eigenvalues not converged
     c_bands:  1 eigenvalues not converged
     ethr =  1.00E-06,  avg # of iterations =  7.7

     negative rho (up, down):  0.202E-04 0.000E+00

     total cpu time spent up to now is      372.9 secs

     total energy              =    -386.24185173 Ry
     Harris-Foulkes estimate   =    -385.42502505 Ry
     estimated scf accuracy    <       0.36917808 Ry

     iteration #  2     ecut=    40.00 Ry     beta=0.70
     CG style diagonalization
     ethr =  1.09E-03,  avg # of iterations =  3.8

     negative rho (up, down):  0.107E-04 0.000E+00

     total cpu time spent up to now is      391.7 secs

     total energy              =    -386.33813833 Ry
     Harris-Foulkes estimate   =    -386.44585781 Ry
     estimated scf accuracy    <       0.17727743 Ry

     iteration #  3     ecut=    40.00 Ry     beta=0.70
     CG style diagonalization
     ethr =  5.21E-04,  avg # of iterations =  3.5

     negative rho (up, down):  0.420E-06 0.000E+00

     total cpu time spent up to now is      406.9 secs

     total energy              =    -386.38243630 Ry
     Harris-Foulkes estimate   =    -386.38290073 Ry
     estimated scf accuracy    <       0.00073947 Ry

     iteration #  4     ecut=    40.00 Ry     beta=0.70
     CG style diagonalization
     ethr =  2.17E-06,  avg # of iterations =  4.9

     total cpu time spent up to now is      428.1 secs

     total energy              =    -386.38331552 Ry
     Harris-Foulkes estimate   =    -386.38340889 Ry
     estimated scf accuracy    <       0.00018838 Ry

     iteration #  5     ecut=    40.00 Ry     beta=0.70
     CG style diagonalization
     ethr =  5.54E-07,  avg # of iterations =  3.4

     total cpu time spent up to now is      442.9 secs

     End of self-consistent calculation

     Number of k-points >= 100: set verbosity='high' to print the bands.

     the Fermi energy is    20.4781 ev

!    total energy              =    -386.38332665 Ry
     Harris-Foulkes estimate   =    -386.38334295 Ry
     estimated scf accuracy    <       0.00001830 Ry

     The total energy is the sum of the following terms:

     one-electron contribution =    -109.03807904 Ry
     hartree contribution      =      72.26343134 Ry
     xc contribution           =     -37.43250305 Ry
     ewald contribution        =    -312.06743891 Ry
     smearing contrib. (-TS)   =      -0.10873698 Ry

     convergence has been achieved in   5 iterations

     Forces acting on atoms (Ry/au):

     atom    1 type  1   force =     0.00000000    0.00000000    0.00000000
     atom    2 type  2   force =     0.00000000    0.00000000    0.00000000

     Total force =     0.000000     Total SCF correction =     0.000000


     entering subroutine stress ...

          total   stress  (Ry/bohr**3)                   (kbar)     P=  -16.86
  -0.00011502   0.00000000   0.00000000        -16.92      0.00      0.00
   0.00000000  -0.00011502   0.00000000          0.00    -16.92      0.00
   0.00000000   0.00000000  -0.00011372          0.00      0.00    -16.73


     number of scf cycles    =   2
     number of bfgs steps    =   1

     enthalpy old            =    -386.3813569455 Ry
     enthalpy new            =    -386.3833266459 Ry

     CASE: enthalpy_new < enthalpy_old

     small trust_radius: resetting bfgs history

     new trust radius        =       0.0103036280 bohr
     new conv_thr            =       0.0000010000 Ry

     new unit-cell volume =    318.22352 a.u.^3 (    47.15586 Ang^3 )

CELL_PARAMETERS (alat=  7.60545813)
   1.007572906   0.000000000   0.000000000
   0.503786453   0.872583733   0.000000000
   0.503786453   0.290861244   0.822758808

ATOMIC_POSITIONS (crystal)
Na       0.000000000   0.000000000   0.000000000
Cl       0.500000000   0.500000000   0.500000000



     Writing output data file Prototype-La-cF8-NaCl.save
     Check: negative starting charge=   -0.000153
     NEW-OLD atomic charge density approx. for the potential
     NEW k-points: (use verbosity='high' to print them)
     Check: negative starting charge=   -0.000132
     extrapolated charge   33.88772, renormalised to   34.00000

     total cpu time spent up to now is      447.3 secs

     Self-consistent Calculation

     iteration #  1     ecut=    40.00 Ry     beta=0.70
     CG style diagonalization
     c_bands:  1 eigenvalues not converged
     c_bands:  1 eigenvalues not converged
     ethr =  1.00E-06,  avg # of iterations =  6.0

     total cpu time spent up to now is      471.7 secs

     total energy              =    -386.37059942 Ry
     Harris-Foulkes estimate   =    -386.70947020 Ry
     estimated scf accuracy    <       0.03224813 Ry

     iteration #  2     ecut=    40.00 Ry     beta=0.70
     CG style diagonalization
     ethr =  9.48E-05,  avg # of iterations =  3.8

     total cpu time spent up to now is      486.8 secs

     total energy              =    -386.37971598 Ry
     Harris-Foulkes estimate   =    -386.38934677 Ry
     estimated scf accuracy    <       0.01594301 Ry

     iteration #  3     ecut=    40.00 Ry     beta=0.70
     CG style diagonalization
     ethr =  4.69E-05,  avg # of iterations =  3.5

     total cpu time spent up to now is      504.5 secs

     total energy              =    -386.38336586 Ry
     Harris-Foulkes estimate   =    -386.38338050 Ry
     estimated scf accuracy    <       0.00002746 Ry

     iteration #  4     ecut=    40.00 Ry     beta=0.70
     CG style diagonalization
     ethr =  8.08E-08,  avg # of iterations =  5.2

     total cpu time spent up to now is      528.9 secs

     total energy              =    -386.38346003 Ry
     Harris-Foulkes estimate   =    -386.38347499 Ry
     estimated scf accuracy    <       0.00003250 Ry

     iteration #  5     ecut=    40.00 Ry     beta=0.70
     CG style diagonalization
     ethr =  8.08E-08,  avg # of iterations =  3.4

     total cpu time spent up to now is      543.9 secs

     total energy              =    -386.38346229 Ry
     Harris-Foulkes estimate   =    -386.38346397 Ry
     estimated scf accuracy    <       0.00000287 Ry

     iteration #  6     ecut=    40.00 Ry     beta=0.70
     CG style diagonalization
     ethr =  8.44E-09,  avg # of iterations =  3.9

     total cpu time spent up to now is      562.7 secs

     End of self-consistent calculation

     Number of k-points >= 100: set verbosity='high' to print the bands.

     the Fermi energy is    20.6831 ev

!    total energy              =    -386.38346329 Ry
     Harris-Foulkes estimate   =    -386.38346343 Ry
     estimated scf accuracy    <       0.00000016 Ry

     The total energy is the sum of the following terms:

     one-electron contribution =    -107.68875662 Ry
     hartree contribution      =      71.83076975 Ry
     xc contribution           =     -37.45362263 Ry
     ewald contribution        =    -312.96398461 Ry
     smearing contrib. (-TS)   =      -0.10786919 Ry

     convergence has been achieved in   6 iterations

     Forces acting on atoms (Ry/au):

     atom    1 type  1   force =     0.00000000    0.00000000    0.00000000
     atom    2 type  2   force =     0.00000000    0.00000000    0.00000000

     Total force =     0.000000     Total SCF correction =     0.000000


     entering subroutine stress ...

          total   stress  (Ry/bohr**3)                   (kbar)     P=    7.22
   0.00004869   0.00000000   0.00000000          7.16      0.00      0.00
   0.00000000   0.00004869   0.00000000          0.00      7.16      0.00
   0.00000000   0.00000000   0.00004984          0.00      0.00      7.33


     number of scf cycles    =   3
     number of bfgs steps    =   2

     enthalpy old            =    -386.3833266459 Ry
     enthalpy new            =    -386.3834632890 Ry

     CASE: enthalpy_new < enthalpy_old

     Message from routine bfgs:
     history already reset at previous step: stopping
     small trust_radius: resetting bfgs history

     new trust radius        =       0.0044451157 bohr
     new conv_thr            =       0.0000010000 Ry

     new unit-cell volume =    319.39613 a.u.^3 (    47.32962 Ang^3 )

CELL_PARAMETERS (alat=  7.60545813)
   1.008799352   0.000000000   0.000000000
   0.504399676   0.873645866   0.000000000
   0.504399676   0.291215289   0.823783892

ATOMIC_POSITIONS (crystal)
Na       0.000000000   0.000000000   0.000000000
Cl       0.500000000   0.500000000   0.500000000



     Writing output data file Prototype-La-cF8-NaCl.save
     Check: negative starting charge=   -0.000132
     NEW-OLD atomic charge density approx. for the potential
     NEW k-points: (use verbosity='high' to print them)
     Check: negative starting charge=   -0.000141

     negative rho (up, down):  0.696E-05 0.000E+00
     extrapolated charge   34.04769, renormalised to   34.00000

     total cpu time spent up to now is      566.7 secs

     Self-consistent Calculation

     iteration #  1     ecut=    40.00 Ry     beta=0.70
     CG style diagonalization
     ethr =  1.00E-06,  avg # of iterations =  4.8

     negative rho (up, down):  0.427E-06 0.000E+00

     total cpu time spent up to now is      586.1 secs

     total energy              =    -386.38150516 Ry
     Harris-Foulkes estimate   =    -386.25256201 Ry
     estimated scf accuracy    <       0.00511432 Ry

     iteration #  2     ecut=    40.00 Ry     beta=0.70
     CG style diagonalization
     ethr =  1.50E-05,  avg # of iterations =  3.8

     total cpu time spent up to now is      601.2 secs

     total energy              =    -386.38288211 Ry
     Harris-Foulkes estimate   =    -386.38434543 Ry
     estimated scf accuracy    <       0.00238805 Ry

     iteration #  3     ecut=    40.00 Ry     beta=0.70
     CG style diagonalization
     ethr =  7.02E-06,  avg # of iterations =  3.6

     total cpu time spent up to now is      619.0 secs

     total energy              =    -386.38345462 Ry
     Harris-Foulkes estimate   =    -386.38345735 Ry
     estimated scf accuracy    <       0.00000508 Ry

     iteration #  4     ecut=    40.00 Ry     beta=0.70
     CG style diagonalization
     ethr =  1.49E-08,  avg # of iterations =  4.9

     total cpu time spent up to now is      639.5 secs

     total energy              =    -386.38346755 Ry
     Harris-Foulkes estimate   =    -386.38346931 Ry
     estimated scf accuracy    <       0.00000369 Ry

     iteration #  5     ecut=    40.00 Ry     beta=0.70
     CG style diagonalization
     ethr =  1.08E-08,  avg # of iterations =  3.3

     total cpu time spent up to now is      654.3 secs

     End of self-consistent calculation

     Number of k-points >= 100: set verbosity='high' to print the bands.

     the Fermi energy is    20.5942 ev

!    total energy              =    -386.38346781 Ry
     Harris-Foulkes estimate   =    -386.38346805 Ry
     estimated scf accuracy    <       0.00000027 Ry

     The total energy is the sum of the following terms:

     one-electron contribution =    -108.25896956 Ry
     hartree contribution      =      72.00859236 Ry
     xc contribution           =     -37.44428582 Ry
     ewald contribution        =    -312.58051438 Ry
     smearing contrib. (-TS)   =      -0.10829041 Ry

     convergence has been achieved in   5 iterations

     Forces acting on atoms (Ry/au):

     atom    1 type  1   force =     0.00000000    0.00000000    0.00000000
     atom    2 type  2   force =     0.00000000    0.00000000    0.00000000

     Total force =     0.000000     Total SCF correction =     0.000000


     entering subroutine stress ...

          total   stress  (Ry/bohr**3)                   (kbar)     P=   -4.10
  -0.00002819   0.00000000   0.00000000         -4.15      0.00      0.00
   0.00000000  -0.00002819   0.00000000          0.00     -4.15      0.00
   0.00000000   0.00000000  -0.00002717          0.00      0.00     -4.00


     The maximum number of steps has been reached.

     End of BFGS Geometry Optimization
Begin final coordinates
     new unit-cell volume =    319.39613 a.u.^3 (    47.32962 Ang^3 )

CELL_PARAMETERS (alat=  7.60545813)
   1.008799352   0.000000000   0.000000000
   0.504399676   0.873645866   0.000000000
   0.504399676   0.291215289   0.823783892

ATOMIC_POSITIONS (crystal)
Na       0.000000000   0.000000000   0.000000000
Cl       0.500000000   0.500000000   0.500000000
End final coordinates



     A final scf calculation at the relaxed structure.
     The G-vectors are recalculated for the final unit cell
     Results may differ from those at the preceding step.
 
     Parallelization info
     --------------------
     sticks:   dense  smooth     PW     G-vecs:    dense   smooth      PW
     Min         162     162     52                 2741     2741     520
     Max         163     163     53                 2745     2745     522
     Sum         649     649    211                10969    10969    2085
 


     bravais-lattice index     =            0
     lattice parameter (alat)  =       7.6055  a.u.
     unit-cell volume          =     319.3961 (a.u.)^3
     number of atoms/cell      =            2
     number of atomic types    =            2
     number of electrons       =        34.00
     number of Kohn-Sham states=           21
     kinetic-energy cutoff     =      40.0000  Ry
     charge density cutoff     =     160.0000  Ry
     convergence threshold     =      1.0E-06
     mixing beta               =       0.7000
     number of iterations used =            8  plain     mixing
     Exchange-correlation      = SLA-PZ-NOGX-NOGC ( 1 1 0 0 0)
     EXX-fraction              =        0.00

     celldm(1)=   7.605458  celldm(2)=   0.000000  celldm(3)=   0.000000
     celldm(4)=   0.000000  celldm(5)=   0.000000  celldm(6)=   0.000000

     crystal axes: (cart. coord. in units of alat)
               a(1) = (   1.008799   0.000000   0.000000 )  
               a(2) = (   0.504400   0.873646   0.000000 )  
               a(3) = (   0.504400   0.291215   0.823784 )  

     reciprocal axes: (cart. coord. in units 2 pi/alat)
               b(1) = (  0.991277 -0.572314 -0.404637 )  
               b(2) = (  0.000000  1.144629 -0.404637 )  
               b(3) = (  0.000000  0.000000  1.213911 )  


     PseudoPot. # 1 for Pr read from file:
     /home/cwx6513/pp.La/Pr.UPF
     MD5 check sum: 70e2b4b153859e92c8c91247dfc63203
     Pseudo is Norm-conserving, Zval = 13.0
     Generated in analytical, separable form
     Using radial grid of 1255 points,  6 beta functions with: 
                l(1) =   0
                l(2) =   0
                l(3) =   1
                l(4) =   1
                l(5) =   2
                l(6) =   3

     PseudoPot. # 2 for Ho read from file:
     /home/cwx6513/pp.La/Ho.UPF
     MD5 check sum: f307ee11bce99f5b724fa279e3790763
     Pseudo is Norm-conserving, Zval = 21.0
     Generated in analytical, separable form
     Using radial grid of 1265 points,  6 beta functions with: 
                l(1) =   0
                l(2) =   0
                l(3) =   1
                l(4) =   1
                l(5) =   2
                l(6) =   3

     atomic species   valence    mass     pseudopotential
        Na            13.00    22.98970     Pr( 1.00)
        Cl            21.00    35.45300     Ho( 1.00)

     12 Sym. Ops., with inversion, found



   Cartesian axes

     site n.     atom                  positions (alat units)
         1           Na  tau(   1) = (   0.0000000   0.0000000   0.0000000  )
         2           Cl  tau(   2) = (   1.0087994   0.5824306   0.4118919  )

     number of k points=   496  gaussian smearing, width (Ry)=  0.1000

     Number of k-points >= 100: set verbosity='high' to print them.

     Dense  grid:    10969 G-vectors     FFT dimensions: (  32,  32,  32)

     Largest allocated arrays     est. size (Mb)     dimensions
        Kohn-Sham Wavefunctions         0.11 Mb     (    348,   21)
        NL pseudopotentials             0.21 Mb     (    348,   40)
        Each V/rho on FFT grid          0.12 Mb     (   8192)
        Each G-vector array             0.02 Mb     (   2742)
        G-vector shells                 0.01 Mb     (    818)
     Largest temporary arrays     est. size (Mb)     dimensions
        Each subspace H/S matrix        0.01 Mb     (  21,  21)
        Each <psi_i|beta_j> matrix      0.01 Mb     (     40,   21)
        Arrays for rho mixing           1.00 Mb     (   8192,   8)

     Initial potential from superposition of free atoms
     Check: negative starting charge=   -0.000101

     starting charge   12.99054, renormalised to   34.00000

     negative rho (up, down):  0.263E-03 0.000E+00
     Starting wfc are   20 randomized atomic wfcs

     Writing output data file Prototype-La-cF8-NaCl.save

     total cpu time spent up to now is      662.1 secs

     Self-consistent Calculation

     iteration #  1     ecut=    40.00 Ry     beta=0.70
     CG style diagonalization
     c_bands:  2 eigenvalues not converged
     c_bands:  1 eigenvalues not converged
     c_bands:  1 eigenvalues not converged
     c_bands:  1 eigenvalues not converged
     c_bands:  1 eigenvalues not converged
     c_bands:  1 eigenvalues not converged
     c_bands:  1 eigenvalues not converged
     c_bands:  2 eigenvalues not converged
     c_bands:  1 eigenvalues not converged
     c_bands:  1 eigenvalues not converged
     c_bands:  1 eigenvalues not converged
     c_bands:  1 eigenvalues not converged
     c_bands:  1 eigenvalues not converged
     c_bands:  1 eigenvalues not converged
     c_bands:  4 eigenvalues not converged
     c_bands:  1 eigenvalues not converged
     c_bands:  2 eigenvalues not converged
     c_bands:  1 eigenvalues not converged
     c_bands:  1 eigenvalues not converged
     c_bands:  1 eigenvalues not converged
     c_bands:  1 eigenvalues not converged
     c_bands:  1 eigenvalues not converged
     c_bands:  1 eigenvalues not converged
     c_bands:  1 eigenvalues not converged
     c_bands:  1 eigenvalues not converged
     c_bands:  1 eigenvalues not converged
     c_bands:  1 eigenvalues not converged
     c_bands:  1 eigenvalues not converged
     c_bands:  1 eigenvalues not converged
     c_bands:  1 eigenvalues not converged
     c_bands:  1 eigenvalues not converged
     c_bands:  1 eigenvalues not converged
     c_bands:  1 eigenvalues not converged
     c_bands:  1 eigenvalues not converged
     c_bands:  1 eigenvalues not converged
     c_bands:  4 eigenvalues not converged
     c_bands:  1 eigenvalues not converged
     c_bands:  1 eigenvalues not converged
     c_bands:  1 eigenvalues not converged
     c_bands:  1 eigenvalues not converged
     c_bands:  1 eigenvalues not converged
     c_bands:  1 eigenvalues not converged
     c_bands:  1 eigenvalues not converged
     c_bands:  1 eigenvalues not converged
     c_bands:  2 eigenvalues not converged
     c_bands:  1 eigenvalues not converged
     c_bands:  4 eigenvalues not converged
     c_bands:  1 eigenvalues not converged
     c_bands:  3 eigenvalues not converged
     c_bands:  1 eigenvalues not converged
     c_bands:  1 eigenvalues not converged
     c_bands:  1 eigenvalues not converged
     c_bands:  1 eigenvalues not converged
     c_bands:  1 eigenvalues not converged
     c_bands:  1 eigenvalues not converged
     c_bands:  1 eigenvalues not converged
     c_bands:  1 eigenvalues not converged
     c_bands:  1 eigenvalues not converged
     c_bands:  1 eigenvalues not converged
     c_bands:  2 eigenvalues not converged
     c_bands:  3 eigenvalues not converged
     c_bands:  1 eigenvalues not converged
     c_bands:  1 eigenvalues not converged
     c_bands:  1 eigenvalues not converged
     c_bands:  1 eigenvalues not converged
     c_bands:  1 eigenvalues not converged
     c_bands:  1 eigenvalues not converged
     c_bands:  1 eigenvalues not converged
     c_bands:  1 eigenvalues not converged
     c_bands:  1 eigenvalues not converged
     c_bands:  1 eigenvalues not converged
     c_bands:  1 eigenvalues not converged
     c_bands:  1 eigenvalues not converged
     c_bands:  1 eigenvalues not converged
     c_bands:  1 eigenvalues not converged
     c_bands:  1 eigenvalues not converged
     c_bands:  1 eigenvalues not converged
     c_bands:  1 eigenvalues not converged
     c_bands:  1 eigenvalues not converged
     c_bands:  1 eigenvalues not converged
     c_bands:  1 eigenvalues not converged
     c_bands:  1 eigenvalues not converged
     c_bands:  1 eigenvalues not converged
     c_bands:  1 eigenvalues not converged
     c_bands:  1 eigenvalues not converged
     c_bands:  1 eigenvalues not converged
     c_bands:  1 eigenvalues not converged
     c_bands:  1 eigenvalues not converged
     c_bands:  1 eigenvalues not converged
     c_bands:  2 eigenvalues not converged
     c_bands:  1 eigenvalues not converged
     c_bands:  4 eigenvalues not converged
     c_bands:  1 eigenvalues not converged
     c_bands:  1 eigenvalues not converged
     c_bands:  2 eigenvalues not converged
     c_bands:  1 eigenvalues not converged
     c_bands:  1 eigenvalues not converged
     c_bands:  3 eigenvalues not converged
     c_bands:  1 eigenvalues not converged
     c_bands:  1 eigenvalues not converged
     c_bands:  1 eigenvalues not converged
     c_bands:  1 eigenvalues not converged
     c_bands:  1 eigenvalues not converged
     c_bands:  1 eigenvalues not converged
     c_bands:  1 eigenvalues not converged
     c_bands:  2 eigenvalues not converged
     c_bands:  1 eigenvalues not converged
     c_bands:  2 eigenvalues not converged
     c_bands:  1 eigenvalues not converged
     c_bands:  1 eigenvalues not converged
     c_bands:  1 eigenvalues not converged
     c_bands:  1 eigenvalues not converged
     c_bands:  1 eigenvalues not converged
     c_bands:  1 eigenvalues not converged
     c_bands:  1 eigenvalues not converged
     c_bands:  1 eigenvalues not converged
     c_bands:  1 eigenvalues not converged
     c_bands:  1 eigenvalues not converged
     c_bands:  1 eigenvalues not converged
     c_bands:  1 eigenvalues not converged
     c_bands:  1 eigenvalues not converged
     c_bands:  1 eigenvalues not converged
     c_bands:  1 eigenvalues not converged
     c_bands:  1 eigenvalues not converged
     c_bands:  1 eigenvalues not converged
     c_bands:  1 eigenvalues not converged
     c_bands:  2 eigenvalues not converged
     c_bands:  1 eigenvalues not converged
     c_bands:  1 eigenvalues not converged
     c_bands:  3 eigenvalues not converged
     c_bands:  1 eigenvalues not converged
     c_bands:  1 eigenvalues not converged
     c_bands:  1 eigenvalues not converged
     c_bands:  1 eigenvalues not converged
     c_bands:  1 eigenvalues not converged
     c_bands:  1 eigenvalues not converged
     c_bands:  1 eigenvalues not converged
     c_bands:  1 eigenvalues not converged
     c_bands:  1 eigenvalues not converged
     c_bands:  1 eigenvalues not converged
     c_bands:  1 eigenvalues not converged
     c_bands:  1 eigenvalues not converged
     c_bands:  1 eigenvalues not converged
     c_bands:  1 eigenvalues not converged
     c_bands:  1 eigenvalues not converged
     c_bands:  3 eigenvalues not converged
     c_bands:  1 eigenvalues not converged
     c_bands:  1 eigenvalues not converged
     c_bands:  1 eigenvalues not converged
     c_bands:  1 eigenvalues not converged
     c_bands:  2 eigenvalues not converged
     c_bands:  1 eigenvalues not converged
     c_bands:  1 eigenvalues not converged
     c_bands:  1 eigenvalues not converged
     c_bands:  1 eigenvalues not converged
     c_bands:  1 eigenvalues not converged
     c_bands:  1 eigenvalues not converged
     c_bands:  1 eigenvalues not converged
     c_bands:  1 eigenvalues not converged
     c_bands:  1 eigenvalues not converged
     c_bands:  2 eigenvalues not converged
     c_bands:  3 eigenvalues not converged
     c_bands:  2 eigenvalues not converged
     c_bands:  1 eigenvalues not converged
     c_bands:  1 eigenvalues not converged
     c_bands:  1 eigenvalues not converged
     c_bands:  1 eigenvalues not converged
     c_bands:  1 eigenvalues not converged
     c_bands:  1 eigenvalues not converged
     c_bands:  1 eigenvalues not converged
     c_bands:  1 eigenvalues not converged
     c_bands:  1 eigenvalues not converged
     c_bands:  1 eigenvalues not converged
     c_bands:  1 eigenvalues not converged
     c_bands:  1 eigenvalues not converged
     c_bands:  1 eigenvalues not converged
     c_bands:  1 eigenvalues not converged
     c_bands:  1 eigenvalues not converged
     c_bands:  1 eigenvalues not converged
     c_bands:  1 eigenvalues not converged
     c_bands:  3 eigenvalues not converged
     c_bands:  1 eigenvalues not converged
     c_bands:  1 eigenvalues not converged
     c_bands:  1 eigenvalues not converged
     c_bands:  4 eigenvalues not converged
     c_bands:  3 eigenvalues not converged
     c_bands:  1 eigenvalues not converged
     c_bands:  1 eigenvalues not converged
     c_bands:  1 eigenvalues not converged
     c_bands:  1 eigenvalues not converged
     c_bands:  1 eigenvalues not converged
     c_bands:  1 eigenvalues not converged
     c_bands:  1 eigenvalues not converged
     c_bands:  1 eigenvalues not converged
     c_bands:  1 eigenvalues not converged
     c_bands:  4 eigenvalues not converged
     c_bands:  1 eigenvalues not converged
     c_bands:  1 eigenvalues not converged
     c_bands:  1 eigenvalues not converged
     c_bands:  1 eigenvalues not converged
     c_bands:  1 eigenvalues not converged
     c_bands:  1 eigenvalues not converged
     c_bands:  1 eigenvalues not converged
     c_bands:  1 eigenvalues not converged
     c_bands:  1 eigenvalues not converged
     c_bands:  1 eigenvalues not converged
     c_bands:  1 eigenvalues not converged
     c_bands:  1 eigenvalues not converged
     c_bands:  1 eigenvalues not converged
     c_bands:  3 eigenvalues not converged
     c_bands:  1 eigenvalues not converged
     c_bands:  1 eigenvalues not converged
     c_bands:  1 eigenvalues not converged
     c_bands:  1 eigenvalues not converged
     c_bands:  1 eigenvalues not converged
     c_bands:  1 eigenvalues not converged
     c_bands:  1 eigenvalues not converged
     c_bands:  1 eigenvalues not converged
     c_bands:  2 eigenvalues not converged
     c_bands:  3 eigenvalues not converged
     c_bands:  1 eigenvalues not converged
     c_bands:  1 eigenvalues not converged
     c_bands:  2 eigenvalues not converged
     c_bands:  1 eigenvalues not converged
     c_bands:  1 eigenvalues not converged
     c_bands:  1 eigenvalues not converged
     c_bands:  4 eigenvalues not converged
     c_bands:  1 eigenvalues not converged
     c_bands:  1 eigenvalues not converged
     c_bands:  1 eigenvalues not converged
     c_bands:  1 eigenvalues not converged
     c_bands:  1 eigenvalues not converged
     c_bands:  1 eigenvalues not converged
     c_bands:  1 eigenvalues not converged
     c_bands:  1 eigenvalues not converged
     c_bands:  1 eigenvalues not converged
     c_bands:  1 eigenvalues not converged
     c_bands:  1 eigenvalues not converged
     c_bands:  1 eigenvalues not converged
     c_bands:  1 eigenvalues not converged
     c_bands:  1 eigenvalues not converged
     c_bands:  1 eigenvalues not converged
     c_bands:  1 eigenvalues not converged
     c_bands:  1 eigenvalues not converged
     c_bands:  1 eigenvalues not converged
     c_bands:  1 eigenvalues not converged
     c_bands:  5 eigenvalues not converged
     c_bands:  1 eigenvalues not converged
     c_bands:  1 eigenvalues not converged
     c_bands:  1 eigenvalues not converged
     c_bands:  1 eigenvalues not converged
     c_bands:  1 eigenvalues not converged
     c_bands:  1 eigenvalues not converged
     c_bands:  4 eigenvalues not converged
     c_bands:  1 eigenvalues not converged
     c_bands:  1 eigenvalues not converged
     c_bands:  1 eigenvalues not converged
     c_bands:  1 eigenvalues not converged
     c_bands:  1 eigenvalues not converged
     c_bands:  1 eigenvalues not converged
     c_bands:  1 eigenvalues not converged
     c_bands:  1 eigenvalues not converged
     c_bands:  5 eigenvalues not converged
     c_bands:  1 eigenvalues not converged
     c_bands:  1 eigenvalues not converged
     c_bands:  2 eigenvalues not converged
     c_bands:  1 eigenvalues not converged
     c_bands:  1 eigenvalues not converged
     c_bands:  1 eigenvalues not converged
     c_bands:  1 eigenvalues not converged
     c_bands:  1 eigenvalues not converged
     c_bands:  1 eigenvalues not converged
     c_bands:  1 eigenvalues not converged
     c_bands:  1 eigenvalues not converged
     c_bands:  1 eigenvalues not converged
     c_bands:  1 eigenvalues not converged
     c_bands:  1 eigenvalues not converged
     c_bands:  1 eigenvalues not converged
     c_bands:  1 eigenvalues not converged
     c_bands:  1 eigenvalues not converged
     c_bands:  1 eigenvalues not converged
     c_bands:  1 eigenvalues not converged
     c_bands:  1 eigenvalues not converged
     c_bands:  1 eigenvalues not converged
     c_bands:  1 eigenvalues not converged
     c_bands:  1 eigenvalues not converged
     c_bands:  1 eigenvalues not converged
     c_bands:  1 eigenvalues not converged
     c_bands:  1 eigenvalues not converged
     c_bands:  1 eigenvalues not converged
     c_bands:  1 eigenvalues not converged
     c_bands:  1 eigenvalues not converged
     c_bands:  1 eigenvalues not converged
     c_bands:  1 eigenvalues not converged
     c_bands:  1 eigenvalues not converged
     c_bands:  4 eigenvalues not converged
     c_bands:  1 eigenvalues not converged
     c_bands:  1 eigenvalues not converged
     c_bands:  1 eigenvalues not converged
     c_bands:  1 eigenvalues not converged
     c_bands:  5 eigenvalues not converged
     c_bands:  1 eigenvalues not converged
     c_bands:  1 eigenvalues not converged
     c_bands:  1 eigenvalues not converged
     c_bands:  1 eigenvalues not converged
     c_bands:  1 eigenvalues not converged
     c_bands:  1 eigenvalues not converged
     c_bands:  1 eigenvalues not converged
     c_bands:  4 eigenvalues not converged
     c_bands:  3 eigenvalues not converged
     c_bands:  1 eigenvalues not converged
     c_bands:  1 eigenvalues not converged
     c_bands:  1 eigenvalues not converged
     c_bands:  1 eigenvalues not converged
     c_bands:  1 eigenvalues not converged
     c_bands:  1 eigenvalues not converged
     c_bands:  1 eigenvalues not converged
     c_bands:  1 eigenvalues not converged
     c_bands:  1 eigenvalues not converged
     c_bands:  2 eigenvalues not converged
     c_bands:  1 eigenvalues not converged
     c_bands:  1 eigenvalues not converged
     c_bands:  2 eigenvalues not converged
     c_bands:  1 eigenvalues not converged
     c_bands:  1 eigenvalues not converged
     c_bands:  1 eigenvalues not converged
     c_bands:  1 eigenvalues not converged
     c_bands:  1 eigenvalues not converged
     c_bands:  1 eigenvalues not converged
     c_bands:  1 eigenvalues not converged
     c_bands:  1 eigenvalues not converged
     c_bands:  1 eigenvalues not converged
     c_bands:  1 eigenvalues not converged
     c_bands:  1 eigenvalues not converged
     c_bands:  1 eigenvalues not converged
     c_bands:  1 eigenvalues not converged
     c_bands:  1 eigenvalues not converged
     c_bands:  1 eigenvalues not converged
     c_bands:  1 eigenvalues not converged
     c_bands:  1 eigenvalues not converged
     c_bands:  1 eigenvalues not converged
     c_bands:  3 eigenvalues not converged
     c_bands:  1 eigenvalues not converged
     c_bands:  1 eigenvalues not converged
     c_bands:  1 eigenvalues not converged
     c_bands:  1 eigenvalues not converged
     c_bands:  1 eigenvalues not converged
     c_bands:  1 eigenvalues not converged
     c_bands:  1 eigenvalues not converged
     c_bands:  1 eigenvalues not converged
     c_bands:  1 eigenvalues not converged
     c_bands:  1 eigenvalues not converged
     c_bands:  1 eigenvalues not converged
     c_bands:  1 eigenvalues not converged
     c_bands:  1 eigenvalues not converged
     c_bands:  1 eigenvalues not converged
     c_bands:  1 eigenvalues not converged
     c_bands:  1 eigenvalues not converged
     c_bands:  1 eigenvalues not converged
     c_bands:  3 eigenvalues not converged
     c_bands:  1 eigenvalues not converged
     c_bands:  1 eigenvalues not converged
     c_bands:  1 eigenvalues not converged
     c_bands:  1 eigenvalues not converged
     c_bands:  1 eigenvalues not converged
     c_bands:  1 eigenvalues not converged
     c_bands:  1 eigenvalues not converged
     c_bands:  1 eigenvalues not converged
     c_bands:  2 eigenvalues not converged
     c_bands:  1 eigenvalues not converged
     c_bands:  1 eigenvalues not converged
     c_bands:  1 eigenvalues not converged
     c_bands:  1 eigenvalues not converged
     c_bands:  1 eigenvalues not converged
     c_bands:  1 eigenvalues not converged
     c_bands:  1 eigenvalues not converged
     c_bands:  1 eigenvalues not converged
     c_bands:  1 eigenvalues not converged
     c_bands:  1 eigenvalues not converged
     c_bands:  1 eigenvalues not converged
     c_bands:  4 eigenvalues not converged
     c_bands:  1 eigenvalues not converged
     c_bands:  1 eigenvalues not converged
     c_bands:  1 eigenvalues not converged
     c_bands:  1 eigenvalues not converged
     c_bands:  1 eigenvalues not converged
     c_bands:  1 eigenvalues not converged
     c_bands:  1 eigenvalues not converged
     c_bands:  1 eigenvalues not converged
     c_bands:  1 eigenvalues not converged
     c_bands:  1 eigenvalues not converged
     c_bands:  1 eigenvalues not converged
     c_bands:  1 eigenvalues not converged
     c_bands:  3 eigenvalues not converged
     c_bands:  1 eigenvalues not converged
     c_bands:  1 eigenvalues not converged
     c_bands:  1 eigenvalues not converged
     c_bands:  1 eigenvalues not converged
     c_bands:  1 eigenvalues not converged
     c_bands:  1 eigenvalues not converged
     c_bands:  1 eigenvalues not converged
     c_bands:  2 eigenvalues not converged
     c_bands:  1 eigenvalues not converged
     c_bands:  1 eigenvalues not converged
     c_bands:  1 eigenvalues not converged
     c_bands:  1 eigenvalues not converged
     c_bands:  1 eigenvalues not converged
     c_bands:  1 eigenvalues not converged
     c_bands:  1 eigenvalues not converged
     c_bands:  1 eigenvalues not converged
     c_bands:  1 eigenvalues not converged
     c_bands:  1 eigenvalues not converged
     c_bands:  3 eigenvalues not converged
     c_bands:  1 eigenvalues not converged
     c_bands:  1 eigenvalues not converged
     c_bands:  1 eigenvalues not converged
     c_bands:  1 eigenvalues not converged
     c_bands:  1 eigenvalues not converged
     c_bands:  1 eigenvalues not converged
     c_bands:  2 eigenvalues not converged
     c_bands:  1 eigenvalues not converged
     c_bands:  1 eigenvalues not converged
     c_bands:  1 eigenvalues not converged
     c_bands:  1 eigenvalues not converged
     c_bands:  1 eigenvalues not converged
     ethr =  1.00E-06,  avg # of iterations = 46.0

     negative rho (up, down):  0.787E-04 0.000E+00

     total cpu time spent up to now is      843.0 secs

     total energy              =    -174.81815547 Ry
     Harris-Foulkes estimate   =    -804.64918866 Ry
     estimated scf accuracy    <     754.54342520 Ry

     iteration #  2     ecut=    40.00 Ry     beta=0.70
     CG style diagonalization
     c_bands:  1 eigenvalues not converged
     c_bands:  1 eigenvalues not converged
     c_bands:  1 eigenvalues not converged
     c_bands:  1 eigenvalues not converged
     ethr =  1.00E-02,  avg # of iterations = 11.3

     negative rho (up, down):  0.380E-04 0.000E+00

     total cpu time spent up to now is      885.9 secs

     total energy              =    -313.31869162 Ry
     Harris-Foulkes estimate   =    -492.64402343 Ry
     estimated scf accuracy    <     278.11113090 Ry

     iteration #  3     ecut=    40.00 Ry     beta=0.70
     CG style diagonalization
     ethr =  1.00E-02,  avg # of iterations = 10.8

     negative rho (up, down):  0.211E-04 0.000E+00

     total cpu time spent up to now is      927.2 secs

     total energy              =    -387.89013669 Ry
     Harris-Foulkes estimate   =    -394.99513135 Ry
     estimated scf accuracy    <      18.94131555 Ry

     iteration #  4     ecut=    40.00 Ry     beta=0.70
     CG style diagonalization
     ethr =  1.00E-02,  avg # of iterations =  3.6

     negative rho (up, down):  0.403E-05 0.000E+00

     total cpu time spent up to now is      942.7 secs

     total energy              =    -386.07300631 Ry
     Harris-Foulkes estimate   =    -388.82871175 Ry
     estimated scf accuracy    <       5.67253430 Ry

     iteration #  5     ecut=    40.00 Ry     beta=0.70
     CG style diagonalization
     ethr =  1.00E-02,  avg # of iterations =  3.7

     total cpu time spent up to now is      958.1 secs

     total energy              =    -386.10241967 Ry
     Harris-Foulkes estimate   =    -386.61572214 Ry
     estimated scf accuracy    <       0.68588245 Ry

     iteration #  6     ecut=    40.00 Ry     beta=0.70
     CG style diagonalization
     ethr =  2.02E-03,  avg # of iterations =  4.4

     total cpu time spent up to now is      979.1 secs

     total energy              =    -386.46736700 Ry
     Harris-Foulkes estimate   =    -386.45542867 Ry
     estimated scf accuracy    <       0.16742427 Ry

     iteration #  7     ecut=    40.00 Ry     beta=0.70
     CG style diagonalization
     ethr =  4.92E-04,  avg # of iterations =  3.2

     total cpu time spent up to now is      992.4 secs

     total energy              =    -386.36379994 Ry
     Harris-Foulkes estimate   =    -386.47832532 Ry
     estimated scf accuracy    <       0.21115863 Ry

     iteration #  8     ecut=    40.00 Ry     beta=0.70
     CG style diagonalization
     ethr =  4.92E-04,  avg # of iterations =  3.5

     total cpu time spent up to now is     1007.6 secs

     total energy              =    -386.40775436 Ry
     Harris-Foulkes estimate   =    -386.41057088 Ry
     estimated scf accuracy    <       0.01041989 Ry

     iteration #  9     ecut=    40.00 Ry     beta=0.70
     CG style diagonalization
     c_bands:  1 eigenvalues not converged
     c_bands:  1 eigenvalues not converged
     c_bands:  1 eigenvalues not converged
     c_bands:  1 eigenvalues not converged
     c_bands:  1 eigenvalues not converged
     c_bands:  1 eigenvalues not converged
     c_bands:  1 eigenvalues not converged
     c_bands:  1 eigenvalues not converged
     c_bands:  1 eigenvalues not converged
     c_bands:  1 eigenvalues not converged
     c_bands:  1 eigenvalues not converged
     c_bands:  1 eigenvalues not converged
     c_bands:  1 eigenvalues not converged
     c_bands:  1 eigenvalues not converged
     c_bands:  1 eigenvalues not converged
     ethr =  3.06E-05,  avg # of iterations =  4.3

     total cpu time spent up to now is     1025.6 secs

     total energy              =    -386.40917379 Ry
     Harris-Foulkes estimate   =    -386.41043808 Ry
     estimated scf accuracy    <       0.00716832 Ry

     iteration # 10     ecut=    40.00 Ry     beta=0.70
     CG style diagonalization
     ethr =  2.11E-05,  avg # of iterations =  3.0

     total cpu time spent up to now is     1041.3 secs

     total energy              =    -386.40740101 Ry
     Harris-Foulkes estimate   =    -386.40934157 Ry
     estimated scf accuracy    <       0.00415460 Ry

     iteration # 11     ecut=    40.00 Ry     beta=0.70
     CG style diagonalization
     ethr =  1.22E-05,  avg # of iterations =  3.5

     total cpu time spent up to now is     1055.2 secs

     total energy              =    -386.40813163 Ry
     Harris-Foulkes estimate   =    -386.40811184 Ry
     estimated scf accuracy    <       0.00013130 Ry

     iteration # 12     ecut=    40.00 Ry     beta=0.70
     CG style diagonalization
     c_bands:  1 eigenvalues not converged
     c_bands:  1 eigenvalues not converged
     c_bands:  1 eigenvalues not converged
     c_bands:  1 eigenvalues not converged
     ethr =  3.86E-07,  avg # of iterations =  4.3

     total cpu time spent up to now is     1073.1 secs

     total energy              =    -386.40817569 Ry
     Harris-Foulkes estimate   =    -386.40817845 Ry
     estimated scf accuracy    <       0.00019045 Ry

     iteration # 13     ecut=    40.00 Ry     beta=0.70
     CG style diagonalization
     ethr =  3.86E-07,  avg # of iterations =  3.1

     total cpu time spent up to now is     1087.6 secs

     total energy              =    -386.40807400 Ry
     Harris-Foulkes estimate   =    -386.40818455 Ry
     estimated scf accuracy    <       0.00021273 Ry

     iteration # 14     ecut=    40.00 Ry     beta=0.70
     CG style diagonalization
     ethr =  3.86E-07,  avg # of iterations =  3.5

     total cpu time spent up to now is     1104.6 secs

     total energy              =    -386.40810214 Ry
     Harris-Foulkes estimate   =    -386.40809728 Ry
     estimated scf accuracy    <       0.00000234 Ry

     iteration # 15     ecut=    40.00 Ry     beta=0.70
     CG style diagonalization
     ethr =  6.88E-09,  avg # of iterations =  4.4

     total cpu time spent up to now is     1122.6 secs

     total energy              =    -386.40809913 Ry
     Harris-Foulkes estimate   =    -386.40810346 Ry
     estimated scf accuracy    <       0.00000580 Ry

     iteration # 16     ecut=    40.00 Ry     beta=0.70
     CG style diagonalization
     ethr =  6.88E-09,  avg # of iterations =  3.5

     total cpu time spent up to now is     1137.2 secs

     End of self-consistent calculation

     Number of k-points >= 100: set verbosity='high' to print the bands.

     the Fermi energy is    20.5911 ev

!    total energy              =    -386.40809781 Ry
     Harris-Foulkes estimate   =    -386.40809983 Ry
     estimated scf accuracy    <       0.00000025 Ry

     The total energy is the sum of the following terms:

     one-electron contribution =    -108.28874871 Ry
     hartree contribution      =      72.01620213 Ry
     xc contribution           =     -37.44668016 Ry
     ewald contribution        =    -312.58051437 Ry
     smearing contrib. (-TS)   =      -0.10835669 Ry

     convergence has been achieved in  16 iterations

     Forces acting on atoms (Ry/au):

     atom    1 type  1   force =     0.00000000    0.00000000    0.00000000
     atom    2 type  2   force =     0.00000000    0.00000000    0.00000000

     Total force =     0.000000     Total SCF correction =     0.000000


     entering subroutine stress ...

          total   stress  (Ry/bohr**3)                   (kbar)     P=   21.18
   0.00014366   0.00000000   0.00000000         21.13      0.00      0.00
   0.00000000   0.00014366   0.00000000          0.00     21.13      0.00
   0.00000000   0.00000000   0.00014456          0.00      0.00     21.27


     Writing output data file Prototype-La-cF8-NaCl.save
 
     init_run     :      6.17s CPU      7.99s WALL (       2 calls)
     electrons    :    861.89s CPU   1110.68s WALL (       5 calls)
     update_pot   :      0.76s CPU      0.78s WALL (       3 calls)
     forces       :      2.64s CPU      2.77s WALL (       5 calls)
     stress       :      9.75s CPU      9.91s WALL (       5 calls)

     Called by init_run:
     wfcinit      :      5.67s CPU      7.47s WALL (       2 calls)
     potinit      :      0.16s CPU      0.16s WALL (       2 calls)

     Called by electrons:
     c_bands      :    810.97s CPU   1043.29s WALL (      45 calls)
     sum_band     :     50.69s CPU     66.18s WALL (      45 calls)
     v_of_rho     :      0.04s CPU      0.04s WALL (      50 calls)
     mix_rho      :      0.03s CPU      0.04s WALL (      45 calls)

     Called by c_bands:
     init_us_2    :      9.11s CPU      9.66s WALL (   50592 calls)
     ccgdiagg     :    653.37s CPU    821.12s WALL (   23790 calls)
     wfcrot       :    156.66s CPU    200.91s WALL (   24286 calls)

     Called by *cgdiagg:
     h_psi        :    652.13s CPU    835.60s WALL ( 2256188 calls)
     cdiaghg      :      4.08s CPU      5.16s WALL (   24286 calls)

     Called by h_psi:
     add_vuspsi   :     22.49s CPU     31.54s WALL ( 2256188 calls)

     General routines
     calbec       :     83.91s CPU    101.03s WALL ( 4493050 calls)
     fft          :      0.07s CPU      0.08s WALL (     223 calls)
     fftw         :    567.67s CPU    724.25s WALL ( 5952536 calls)
     davcio       :      3.30s CPU     25.43s WALL (   72912 calls)
 
     Parallel routines
     fft_scatter  :    294.28s CPU    362.79s WALL ( 5952759 calls)
 
     PWSCF        : 14m44.28s CPU    19m 0.62s WALL

 
   This run was terminated on:  16:37:54  22Mar2018            

=------------------------------------------------------------------------------=
   JOB DONE.
=------------------------------------------------------------------------------=
