
     Program PWSCF v.5.0.2 starts on 22Mar2018 at 22:44:10 

     This program is part of the open-source Quantum ESPRESSO suite
     for quantum simulation of materials; please cite
         "P. Giannozzi et al., J. Phys.:Condens. Matter 21 395502 (2009);
          URL http://www.quantum-espresso.org", 
     in publications or presentations arising from this work. More details at
     http://www.quantum-espresso.org/quote.php

     Parallel version (MPI), running on     4 processors
     R & G space division:  proc/nbgrp/npool/nimage =       4

     Current dimensions of program PWSCF are:
     Max number of different atomic species (ntypx) = 10
     Max number of k-points (npk) =  40000
     Max angular momentum in pseudopotentials (lmaxx) =  3
     Waiting for input...
     Reading input from standard input

     Subspace diagonalization in iterative solution of the eigenvalue problem:
     a serial algorithm will be used

 
     Parallelization info
     --------------------
     sticks:   dense  smooth     PW     G-vecs:    dense   smooth      PW
     Min         233     233     69                 5311     5311     851
     Max         234     234     70                 5314     5314     854
     Sum         933     933    277                21247    21247    3407
 


     bravais-lattice index     =            0
     lattice parameter (alat)  =       8.5346  a.u.
     unit-cell volume          =     621.6493 (a.u.)^3
     number of atoms/cell      =            8
     number of atomic types    =            2
     number of electrons       =       168.00
     number of Kohn-Sham states=          101
     kinetic-energy cutoff     =      40.0000  Ry
     charge density cutoff     =     160.0000  Ry
     convergence threshold     =      1.0E-04
     mixing beta               =       0.7000
     number of iterations used =            8  plain     mixing
     Exchange-correlation      = SLA-PZ-NOGX-NOGC ( 1 1 0 0 0)
     EXX-fraction              =        0.00
     nstep                     =           50


     celldm(1)=   8.534573  celldm(2)=   0.000000  celldm(3)=   0.000000
     celldm(4)=   0.000000  celldm(5)=   0.000000  celldm(6)=   0.000000

     crystal axes: (cart. coord. in units of alat)
               a(1) = (   1.000000   0.000000   0.000000 )  
               a(2) = (   0.000000   1.000000   0.000000 )  
               a(3) = (   0.000000   0.000000   1.000000 )  

     reciprocal axes: (cart. coord. in units 2 pi/alat)
               b(1) = (  1.000000  0.000000  0.000000 )  
               b(2) = (  0.000000  1.000000  0.000000 )  
               b(3) = (  0.000000  0.000000  1.000000 )  


     PseudoPot. # 1 for Er read from file:
     /home/cwx6513/pp.La/Er.UPF
     MD5 check sum: e152ae21b84514339d8526f066caf99b
     Pseudo is Norm-conserving, Zval = 22.0
     Generated in analytical, separable form
     Using radial grid of 1267 points,  6 beta functions with: 
                l(1) =   0
                l(2) =   0
                l(3) =   1
                l(4) =   1
                l(5) =   2
                l(6) =   3

     PseudoPot. # 2 for Gd read from file:
     /home/cwx6513/pp.La/Gd.UPF
     MD5 check sum: 09a8be538722f05520810cb6aac0efd2
     Pseudo is Norm-conserving, Zval = 18.0
     Generated in analytical, separable form
     Using radial grid of 1263 points,  6 beta functions with: 
                l(1) =   0
                l(2) =   0
                l(3) =   1
                l(4) =   1
                l(5) =   2
                l(6) =   3

     atomic species   valence    mass     pseudopotential
        Cr            22.00    51.99610     Er( 1.00)
        Si            18.00    28.08550     Gd( 1.00)

     48 Sym. Ops., with inversion, found (24 have fractional translation)



   Cartesian axes

     site n.     atom                  positions (alat units)
         1           Cr  tau(   1) = (   0.0000000   0.5000000   0.2500000  )
         2           Cr  tau(   2) = (   0.0000000   0.5000000   0.7500000  )
         3           Cr  tau(   3) = (   0.5000000   0.7500000   0.0000000  )
         4           Cr  tau(   4) = (   0.5000000   0.2500000   0.0000000  )
         5           Cr  tau(   5) = (   0.7500000   0.0000000   0.5000000  )
         6           Cr  tau(   6) = (   0.2500000   0.0000000   0.5000000  )
         7           Si  tau(   7) = (   0.5000000   0.5000000   0.5000000  )
         8           Si  tau(   8) = (   0.0000000   0.0000000   0.0000000  )

     number of k points=    48  gaussian smearing, width (Ry)=  0.1000
                       cart. coord. in units 2pi/alat
        k(    1) = (   0.0000000   0.0000000   0.0000000), wk =   0.0095238
        k(    2) = (   0.0000000   0.0000000   0.1428571), wk =   0.0190476
        k(    3) = (   0.0000000   0.0000000   0.2857143), wk =   0.0190476
        k(    4) = (   0.0000000   0.0000000   0.4285714), wk =   0.0190476
        k(    5) = (   0.0000000   0.1666667   0.0000000), wk =   0.0190476
        k(    6) = (   0.0000000   0.1666667   0.1428571), wk =   0.0380952
        k(    7) = (   0.0000000   0.1666667   0.2857143), wk =   0.0380952
        k(    8) = (   0.0000000   0.1666667   0.4285714), wk =   0.0380952
        k(    9) = (   0.0000000   0.3333333   0.0000000), wk =   0.0190476
        k(   10) = (   0.0000000   0.3333333   0.1428571), wk =   0.0380952
        k(   11) = (   0.0000000   0.3333333   0.2857143), wk =   0.0380952
        k(   12) = (   0.0000000   0.3333333   0.4285714), wk =   0.0380952
        k(   13) = (   0.0000000  -0.5000000   0.0000000), wk =   0.0095238
        k(   14) = (   0.0000000  -0.5000000   0.1428571), wk =   0.0190476
        k(   15) = (   0.0000000  -0.5000000   0.2857143), wk =   0.0190476
        k(   16) = (   0.0000000  -0.5000000   0.4285714), wk =   0.0190476
        k(   17) = (   0.2000000   0.0000000   0.0000000), wk =   0.0190476
        k(   18) = (   0.2000000   0.0000000   0.1428571), wk =   0.0380952
        k(   19) = (   0.2000000   0.0000000   0.2857143), wk =   0.0380952
        k(   20) = (   0.2000000   0.0000000   0.4285714), wk =   0.0380952
        k(   21) = (   0.2000000   0.1666667   0.0000000), wk =   0.0380952
        k(   22) = (   0.2000000   0.1666667   0.1428571), wk =   0.0761905
        k(   23) = (   0.2000000   0.1666667   0.2857143), wk =   0.0761905
        k(   24) = (   0.2000000   0.1666667   0.4285714), wk =   0.0761905
        k(   25) = (   0.2000000   0.3333333   0.0000000), wk =   0.0380952
        k(   26) = (   0.2000000   0.3333333   0.1428571), wk =   0.0761905
        k(   27) = (   0.2000000   0.3333333   0.2857143), wk =   0.0761905
        k(   28) = (   0.2000000   0.3333333   0.4285714), wk =   0.0761905
        k(   29) = (   0.2000000  -0.5000000   0.0000000), wk =   0.0190476
        k(   30) = (   0.2000000  -0.5000000   0.1428571), wk =   0.0380952
        k(   31) = (   0.2000000  -0.5000000   0.2857143), wk =   0.0380952
        k(   32) = (   0.2000000  -0.5000000   0.4285714), wk =   0.0380952
        k(   33) = (   0.4000000   0.0000000   0.0000000), wk =   0.0190476
        k(   34) = (   0.4000000   0.0000000   0.1428571), wk =   0.0380952
        k(   35) = (   0.4000000   0.0000000   0.2857143), wk =   0.0380952
        k(   36) = (   0.4000000   0.0000000   0.4285714), wk =   0.0380952
        k(   37) = (   0.4000000   0.1666667   0.0000000), wk =   0.0380952
        k(   38) = (   0.4000000   0.1666667   0.1428571), wk =   0.0761905
        k(   39) = (   0.4000000   0.1666667   0.2857143), wk =   0.0761905
        k(   40) = (   0.4000000   0.1666667   0.4285714), wk =   0.0761905
        k(   41) = (   0.4000000   0.3333333   0.0000000), wk =   0.0380952
        k(   42) = (   0.4000000   0.3333333   0.1428571), wk =   0.0761905
        k(   43) = (   0.4000000   0.3333333   0.2857143), wk =   0.0761905
        k(   44) = (   0.4000000   0.3333333   0.4285714), wk =   0.0761905
        k(   45) = (   0.4000000  -0.5000000   0.0000000), wk =   0.0190476
        k(   46) = (   0.4000000  -0.5000000   0.1428571), wk =   0.0380952
        k(   47) = (   0.4000000  -0.5000000   0.2857143), wk =   0.0380952
        k(   48) = (   0.4000000  -0.5000000   0.4285714), wk =   0.0380952

     Dense  grid:    21247 G-vectors     FFT dimensions: (  36,  36,  36)

     Largest allocated arrays     est. size (Mb)     dimensions
        Kohn-Sham Wavefunctions         1.05 Mb     (    683,  101)
        NL pseudopotentials             1.67 Mb     (    683,  160)
        Each V/rho on FFT grid          0.18 Mb     (  11664)
        Each G-vector array             0.04 Mb     (   5314)
        G-vector shells                 0.04 Mb     (   5314)
     Largest temporary arrays     est. size (Mb)     dimensions
        Each subspace H/S matrix        0.16 Mb     ( 101, 101)
        Each <psi_i|beta_j> matrix      0.25 Mb     (    160,  101)
        Arrays for rho mixing           1.42 Mb     (  11664,   8)

     Initial potential from superposition of free atoms

     Starting from uniform charge
     Starting wfc are    0 randomized atomic wfcs

     total cpu time spent up to now is        4.4 secs

     Self-consistent Calculation

     iteration #  1     ecut=    40.00 Ry     beta=0.70
     CG style diagonalization
     c_bands:  4 eigenvalues not converged
     c_bands:  3 eigenvalues not converged
     c_bands:  2 eigenvalues not converged
     c_bands:  1 eigenvalues not converged
     c_bands:  5 eigenvalues not converged
     c_bands:  4 eigenvalues not converged
     c_bands:  2 eigenvalues not converged
     c_bands:  4 eigenvalues not converged
     c_bands:  3 eigenvalues not converged
     c_bands:  2 eigenvalues not converged
     c_bands:  5 eigenvalues not converged
     c_bands:  2 eigenvalues not converged
     c_bands:  3 eigenvalues not converged
     c_bands:  4 eigenvalues not converged
     c_bands:  2 eigenvalues not converged
     c_bands:  1 eigenvalues not converged
     c_bands:  1 eigenvalues not converged
     c_bands:  1 eigenvalues not converged
     c_bands:  3 eigenvalues not converged
     c_bands:  3 eigenvalues not converged
     c_bands:  1 eigenvalues not converged
     c_bands:  2 eigenvalues not converged
     c_bands:  1 eigenvalues not converged
     c_bands:  2 eigenvalues not converged
     c_bands:  3 eigenvalues not converged
     c_bands:  2 eigenvalues not converged
     c_bands:  2 eigenvalues not converged
     c_bands:  2 eigenvalues not converged
     c_bands:  1 eigenvalues not converged
     c_bands:  5 eigenvalues not converged
     c_bands:  3 eigenvalues not converged
     ethr =  1.00E-02,  avg # of iterations = 13.3

     total cpu time spent up to now is       73.7 secs

     total energy              =   -2026.84669782 Ry
     Harris-Foulkes estimate   =   -2740.61806546 Ry
     estimated scf accuracy    <     893.67560183 Ry

     iteration #  2     ecut=    40.00 Ry     beta=0.70
     CG style diagonalization
     c_bands:  1 eigenvalues not converged
     c_bands:  1 eigenvalues not converged
     c_bands:  1 eigenvalues not converged
     c_bands:  3 eigenvalues not converged
     c_bands:  2 eigenvalues not converged
     c_bands:  1 eigenvalues not converged
     c_bands:  1 eigenvalues not converged
     c_bands:  2 eigenvalues not converged
     c_bands:  1 eigenvalues not converged
     c_bands:  2 eigenvalues not converged
     c_bands:  1 eigenvalues not converged
     c_bands:  1 eigenvalues not converged
     c_bands:  1 eigenvalues not converged
     c_bands:  1 eigenvalues not converged
     c_bands:  1 eigenvalues not converged
     c_bands:  1 eigenvalues not converged
     c_bands:  2 eigenvalues not converged
     c_bands:  1 eigenvalues not converged
     c_bands:  3 eigenvalues not converged
     c_bands:  3 eigenvalues not converged
     ethr =  1.00E-02,  avg # of iterations = 12.4

     total cpu time spent up to now is      135.9 secs

     total energy              =   -2121.56840476 Ry
     Harris-Foulkes estimate   =   -2556.36896994 Ry
     estimated scf accuracy    <     768.19094303 Ry

     iteration #  3     ecut=    40.00 Ry     beta=0.70
     CG style diagonalization
     c_bands:  1 eigenvalues not converged
     c_bands:  1 eigenvalues not converged
     c_bands:  1 eigenvalues not converged
     ethr =  1.00E-02,  avg # of iterations =  9.0

     total cpu time spent up to now is      181.9 secs

     total energy              =   -2353.78651808 Ry
     Harris-Foulkes estimate   =   -2404.11669577 Ry
     estimated scf accuracy    <     105.74522018 Ry

     iteration #  4     ecut=    40.00 Ry     beta=0.70
     CG style diagonalization
     ethr =  1.00E-02,  avg # of iterations =  4.4

     total cpu time spent up to now is      205.2 secs

     total energy              =   -2367.79881223 Ry
     Harris-Foulkes estimate   =   -2368.94147070 Ry
     estimated scf accuracy    <       2.87457803 Ry

     iteration #  5     ecut=    40.00 Ry     beta=0.70
     CG style diagonalization
     ethr =  1.71E-03,  avg # of iterations =  3.9

     total cpu time spent up to now is      224.8 secs

     total energy              =   -2367.94893244 Ry
     Harris-Foulkes estimate   =   -2368.23626614 Ry
     estimated scf accuracy    <       0.47148045 Ry

     iteration #  6     ecut=    40.00 Ry     beta=0.70
     CG style diagonalization
     c_bands:  1 eigenvalues not converged
     c_bands:  1 eigenvalues not converged
     c_bands:  1 eigenvalues not converged
     c_bands:  1 eigenvalues not converged
     c_bands:  1 eigenvalues not converged
     c_bands:  1 eigenvalues not converged
     c_bands:  1 eigenvalues not converged
     c_bands:  1 eigenvalues not converged
     c_bands:  1 eigenvalues not converged
     ethr =  2.81E-04,  avg # of iterations =  4.2

     total cpu time spent up to now is      246.0 secs

     total energy              =   -2368.09800670 Ry
     Harris-Foulkes estimate   =   -2368.13217301 Ry
     estimated scf accuracy    <       0.06484777 Ry

     iteration #  7     ecut=    40.00 Ry     beta=0.70
     CG style diagonalization
     c_bands:  1 eigenvalues not converged
     c_bands:  2 eigenvalues not converged
     c_bands:  1 eigenvalues not converged
     c_bands:  1 eigenvalues not converged
     c_bands:  1 eigenvalues not converged
     c_bands:  1 eigenvalues not converged
     ethr =  3.86E-05,  avg # of iterations =  3.9

     total cpu time spent up to now is      265.8 secs

     total energy              =   -2368.11295896 Ry
     Harris-Foulkes estimate   =   -2368.11352970 Ry
     estimated scf accuracy    <       0.00086129 Ry

     iteration #  8     ecut=    40.00 Ry     beta=0.70
     CG style diagonalization
     c_bands:  1 eigenvalues not converged
     c_bands:  1 eigenvalues not converged
     c_bands:  1 eigenvalues not converged
     c_bands:  1 eigenvalues not converged
     c_bands:  1 eigenvalues not converged
     c_bands:  1 eigenvalues not converged
     c_bands:  1 eigenvalues not converged
     c_bands:  1 eigenvalues not converged
     c_bands:  1 eigenvalues not converged
     c_bands:  1 eigenvalues not converged
     c_bands:  1 eigenvalues not converged
     ethr =  5.13E-07,  avg # of iterations =  5.3

     total cpu time spent up to now is      292.7 secs

     total energy              =   -2368.11385295 Ry
     Harris-Foulkes estimate   =   -2368.11419813 Ry
     estimated scf accuracy    <       0.00080955 Ry

     iteration #  9     ecut=    40.00 Ry     beta=0.70
     CG style diagonalization
     ethr =  4.82E-07,  avg # of iterations =  3.3

     total cpu time spent up to now is      308.3 secs

     End of self-consistent calculation

          k = 0.0000 0.0000 0.0000 (  2601 PWs)   bands (ev):

   -52.9325 -52.9325 -52.8710 -52.4811 -52.4811 -52.4811 -21.5005 -21.4535
   -16.7769 -16.7769 -16.5719 -15.2227 -15.2227 -15.2227 -14.7595 -14.7595
   -14.7595 -14.6786 -14.6786 -14.6786 -14.5637 -14.5637 -14.5637 -14.1180
   -14.1180 -14.1180   6.8430   6.8430   6.8430   6.8646   6.8646   6.8646
    25.5396  25.5396  25.6305  26.9423  26.9423  26.9423  28.9432  29.3039
    29.3039  29.3039  29.9114  29.9114  29.9371  29.9371  29.9371  29.9579
    30.0875  32.1484  32.1484  32.1484  33.3745  33.3745  33.4329  33.4329
    33.4329  33.4433  33.4433  33.4433  33.9984  33.9984  33.9984  36.2205
    36.2205  40.5356  40.5356  40.5356  40.7583  40.7583  41.3899  41.3899
    41.3899  42.8423  42.8423  42.8423  47.6741  48.8962  48.8962  50.0998
    50.0998  50.0998  51.6655  51.9637  51.9637  51.9637  53.1323  53.1323
    55.2666  55.2666  55.2666  55.2796  55.2796  55.2796  55.5176  55.5176
    55.5176  56.1003  56.6729  56.6730  56.6730

          k = 0.0000 0.0000 0.1429 (  2657 PWs)   bands (ev):

   -52.9443 -52.9085 -52.8864 -52.5865 -52.5605 -52.5605 -21.5013 -21.4697
   -16.8121 -16.7670 -16.5576 -15.2214 -15.2214 -15.1938 -14.8013 -14.8013
   -14.7514 -14.7186 -14.6986 -14.6986 -14.6191 -14.6191 -14.6125 -14.2599
   -14.1343 -14.1343   6.8164   6.8283   6.8283   6.8544   6.8656   6.8656
    25.5450  25.6081  25.9876  26.8523  27.0463  27.0463  28.9449  29.0097
    29.2447  29.2447  29.9249  29.9360  29.9412  29.9412  29.9725  30.2809
    30.2882  32.0311  32.0700  32.0700  33.0075  33.0075  33.0306  33.1433
    33.4547  33.4547  33.6160  33.6193  33.7231  34.2615  34.2615  36.3333
    36.3913  40.4381  40.4381  40.4946  40.6250  41.1288  41.1393  41.1393
    41.4111  41.4990  43.5823  43.5823  47.8214  48.4201  49.2801  49.8666
    50.3320  50.3320  51.3245  51.6852  52.2575  52.2575  53.4306  53.5223
    53.5223  54.0146  54.7596  54.7596  55.0876  55.6845  55.7766  56.6434
    56.6434  56.7205  56.8714  57.0850  57.0850

          k = 0.0000 0.0000 0.2857 (  2677 PWs)   bands (ev):

   -52.9491 -52.9312 -52.8736 -52.6353 -52.5748 -52.5748 -21.5035 -21.4823
   -16.8041 -16.7377 -16.2803 -15.2058 -15.2058 -15.1149 -14.8402 -14.8402
   -14.8274 -14.7049 -14.6865 -14.6786 -14.6786 -14.6478 -14.6478 -14.6346
   -14.1450 -14.1450   6.7979   6.8202   6.8353   6.8353   6.8708   6.8708
    25.5640  25.6276  26.7746  27.1493  27.2973  27.2973  28.2160  29.1231
    29.1231  29.1971  29.8632  29.9896  29.9986  29.9986  30.0350  30.6814
    31.1759  31.8051  31.8882  31.8882  32.2320  32.2320  32.5649  32.7101
    32.8681  33.5348  33.5348  33.7898  33.9101  34.6438  34.6438  36.0274
    36.7923  39.4462  39.5454  39.5454  40.3773  40.8605  41.4326  41.8025
    41.8025  41.9708  44.8619  44.8619  47.1163  47.2692  48.8119  50.2329
    50.9017  50.9017  51.5731  51.5731  51.8859  52.2139  52.9105  52.9105
    53.7953  53.7953  54.3836  54.9046  54.9239  56.0032  56.0745  56.7365
    57.0228  57.0230  58.0449  58.4051  58.4111

          k = 0.0000 0.0000 0.4286 (  2658 PWs)   bands (ev):

   -52.9331 -52.9106 -52.7837 -52.7005 -52.5633 -52.5633 -21.4996 -21.4901
   -16.7851 -16.7569 -15.7844 -15.2130 -15.1946 -15.1946 -14.9823 -14.8896
   -14.8437 -14.8437 -14.6786 -14.6718 -14.6718 -14.6516 -14.6271 -14.6271
   -14.1386 -14.1386   6.7926   6.8069   6.8424   6.8424   6.8780   6.8780
    25.5997  25.6275  26.9436  27.4252  27.5159  27.5159  28.9304  29.0113
    29.0113  29.4560  29.7042  30.0195  30.0890  30.2918  30.2918  30.8410
    31.1391  31.1708  31.1708  31.3679  32.0214  32.0214  32.5688  32.6441
    32.7714  33.6276  33.6276  33.9136  33.9651  34.5334  34.9150  34.9150
    37.3559  38.1817  38.9071  38.9071  41.1414  41.1737  41.3536  42.2185
    42.3454  42.3454  46.1516  46.3063  46.3063  46.5501  48.9454  49.4789
    49.4926  49.4926  51.9542  51.9542  52.6992  52.6992  53.3178  53.4942
    53.6250  53.6250  54.6649  54.8945  55.2149  55.9053  55.9178  55.9961
    57.4653  57.4654  58.6197  58.7142  59.2389

          k = 0.0000 0.1667 0.0000 (  2653 PWs)   bands (ev):

   -52.9333 -52.9044 -52.8774 -52.5932 -52.5613 -52.5613 -21.5013 -21.4705
   -16.8108 -16.7542 -16.5320 -15.2145 -15.2145 -15.1721 -14.8077 -14.8077
   -14.7574 -14.7166 -14.6912 -14.6912 -14.6223 -14.6223 -14.6150 -14.3032
   -14.1318 -14.1318   6.8159   6.8307   6.8307   6.8514   6.8667   6.8667
    25.5477  25.6125  26.1337  26.8303  27.0815  27.0815  28.8361  29.0335
    29.2268  29.2268  29.9195  29.9440  29.9440  29.9441  29.9845  30.3499
    30.3972  31.9940  32.0479  32.0479  32.8851  32.8851  32.9698  33.0975
    33.4637  33.4637  33.4853  33.6505  33.7636  34.3261  34.3261  36.3483
    36.4471  40.3083  40.3083  40.4145  40.6567  41.1617  41.2132  41.2132
    41.2546  41.4176  43.7772  43.7772  47.7632  48.2507  49.1687  50.1803
    50.4224  50.4224  51.1335  51.7267  52.3413  52.3413  53.2224  53.2224
    53.5781  54.2018  54.5897  54.5897  55.0447  55.7330  55.8809  56.7385
    56.7385  56.7466  57.1388  57.2799  57.2800

          k = 0.0000 0.1667 0.1429 (  2662 PWs)   bands (ev):

   -52.9279 -52.9055 -52.8981 -52.5900 -52.5871 -52.5655 -21.5024 -21.4768
   -16.7929 -16.6857 -16.5148 -15.2034 -15.1883 -15.1744 -14.8324 -14.8322
   -14.7502 -14.7212 -14.7035 -14.6691 -14.6484 -14.6343 -14.5990 -14.3266
   -14.2748 -14.1342   6.8155   6.8229   6.8344   6.8518   6.8567   6.8697
    25.5872  25.9948  26.1401  26.9277  27.0076  27.1950  28.8213  28.9616
    29.0762  29.2402  29.6222  29.8293  30.0176  30.1037  30.2185  30.5364
    30.5830  31.7409  31.9383  32.0974  32.5573  32.8188  32.9797  33.1373
    33.1469  33.3900  33.4565  33.5131  33.8206  34.2145  34.5244  36.4881
    36.5981  39.9584  39.9989  40.2578  40.7187  41.0270  41.2277  41.2533
    41.4272  42.1070  42.8851  44.2186  47.8293  48.8546  49.0710  49.4342
    49.8832  50.6539  51.6737  51.7822  52.2393  52.4485  52.9065  53.3259
    53.4529  54.5561  54.8085  54.8697  55.2406  55.8326  56.0476  56.1865
    56.8951  57.1181  57.2069  57.3237  57.7521

          k = 0.0000 0.1667 0.2857 (  2666 PWs)   bands (ev):

   -52.9322 -52.9089 -52.8513 -52.6389 -52.5954 -52.5694 -21.5047 -21.4853
   -16.7874 -16.6097 -16.2836 -15.1813 -15.1657 -15.1079 -14.8651 -14.8594
   -14.7835 -14.7277 -14.6984 -14.6598 -14.6587 -14.6494 -14.6482 -14.6041
   -14.3290 -14.1366   6.8027   6.8276   6.8310   6.8469   6.8567   6.8706
    25.6096  26.1528  26.9159  27.1150  27.2355  27.4724  28.2786  28.9010
    29.0263  29.2932  29.5833  29.7054  30.0858  30.1746  30.3855  30.9081
    31.2009  31.5712  31.7213  31.8547  31.9735  32.3720  32.6297  32.6698
    32.8955  33.2435  33.3709  33.5433  33.9522  34.2541  34.7916  36.2537
    36.9275  39.0498  39.4215  39.4621  40.7201  41.2641  41.5186  41.8058
    41.8811  42.1241  43.4381  45.2394  47.0110  47.6965  48.1904  49.8229
    50.7898  50.8204  51.3413  51.7294  52.2308  53.1673  53.4133  53.4560
    53.5958  53.9396  54.8314  55.0457  55.5284  55.9723  56.1794  56.7545
    56.8628  57.2535  57.5979  57.6489  58.2983

          k = 0.0000 0.1667 0.4286 (  2658 PWs)   bands (ev):

   -52.9126 -52.9040 -52.7816 -52.6969 -52.5868 -52.5785 -21.5012 -21.4944
   -16.7886 -16.6123 -15.7853 -15.2262 -15.1630 -15.1363 -14.9887 -14.8943
   -14.8676 -14.8064 -14.7500 -14.6929 -14.6559 -14.6459 -14.6319 -14.6167
   -14.3296 -14.1266   6.7946   6.8128   6.8326   6.8526   6.8665   6.8787
    25.6301  26.1653  27.0529  27.4018  27.5537  27.7202  28.8533  28.8597
    29.0480  29.4602  29.6953  29.7424  30.0078  30.3133  30.5662  30.8374
    31.1376  31.1581  31.2625  31.4746  31.6219  31.9898  32.3691  32.6940
    32.8328  33.4208  33.4655  33.6792  33.9781  34.2992  34.9604  34.9865
    37.4073  38.1435  38.9942  39.1190  41.3525  41.4113  41.5843  41.9423
    42.3106  42.4313  44.6646  45.9718  46.4167  46.5221  47.7395  49.2004
    50.0665  51.1267  51.8792  52.1203  52.5451  52.9751  53.7456  53.7457
    53.8620  54.0620  54.9226  55.2033  55.3677  55.9010  56.2027  56.2948
    57.1703  57.8381  58.0056  58.2884  58.6331

          k = 0.0000 0.3333 0.0000 (  2677 PWs)   bands (ev):

   -52.9500 -52.9456 -52.8344 -52.6820 -52.5627 -52.5627 -21.5030 -21.4860
   -16.7998 -16.7363 -16.1521 -15.2047 -15.2047 -15.0759 -14.8892 -14.8462
   -14.8462 -14.7962 -14.6965 -14.6796 -14.6796 -14.6432 -14.6432 -14.6333
   -14.1538 -14.1538   6.7920   6.8176   6.8370   6.8370   6.8713   6.8713
    25.5741  25.6302  26.7971  27.3847  27.3847  27.6143  28.0203  29.0802
    29.0802  29.2789  29.8225  30.0069  30.0558  30.0624  30.0624  30.8043
    31.4441  31.7006  31.7006  31.8745  32.0813  32.0882  32.0882  32.6385
    32.7831  33.5697  33.5697  33.8372  33.9423  34.7549  34.7549  35.6297
    36.9602  38.9606  39.2782  39.2782  40.5166  40.9543  41.4217  42.0310
    42.0310  42.1972  45.3462  45.3462  46.6585  47.0379  48.7937  49.9473
    50.6275  50.6275  51.4713  51.4713  52.5114  52.5323  52.9653  52.9653
    53.6190  53.6190  54.6074  54.9632  55.0637  56.0293  56.0295  56.5654
    57.1951  57.1955  58.1604  58.2895  58.8584

          k = 0.0000 0.3333 0.1429 (  2660 PWs)   bands (ev):

   -52.9184 -52.9031 -52.8294 -52.6555 -52.5898 -52.5722 -21.5036 -21.4868
   -16.7885 -16.6535 -16.1351 -15.1784 -15.1685 -15.0615 -14.8851 -14.8584
   -14.8400 -14.7679 -14.7259 -14.6846 -14.6625 -14.6470 -14.6381 -14.6116
   -14.2763 -14.1288   6.7976   6.8256   6.8337   6.8486   6.8616   6.8739
    25.6133  26.0147  26.9001  27.2948  27.5230  27.6296  28.0744  28.9802
    28.9964  29.3400  29.6292  29.7216  30.0756  30.2071  30.3727  30.9597
    31.3169  31.5582  31.6326  31.8385  31.8670  32.0965  32.3710  32.5764
    32.8332  33.3299  33.4823  33.6112  33.9575  34.4061  34.8427  35.8360
    37.0700  38.8024  39.2518  39.2677  40.7486  41.2397  41.5077  41.9191
    42.0887  42.2504  44.0637  45.5786  46.6558  47.3495  48.1818  49.8876
    50.3595  50.8316  51.5466  51.6617  52.4801  53.2840  53.3114  53.4452
    53.5897  53.6218  54.8714  55.1240  55.7345  55.9640  56.1136  56.5134
    56.8739  57.5751  57.8464  57.8594  58.3490

          k = 0.0000 0.3333 0.2857 (  2658 PWs)   bands (ev):

   -52.9042 -52.8666 -52.8202 -52.6560 -52.6346 -52.5844 -21.5052 -21.4946
   -16.7920 -16.3224 -16.1342 -15.1404 -15.0957 -15.0655 -14.8951 -14.8902
   -14.8448 -14.7855 -14.7620 -14.6921 -14.6769 -14.6459 -14.6336 -14.6270
   -14.6022 -14.1295   6.7973   6.8193   6.8286   6.8506   6.8618   6.8743
    25.6417  27.0194  27.1568  27.2512  27.6778  27.8829  28.3072  28.5842
    28.7111  29.4183  29.5368  29.8535  29.9855  30.2689  30.6140  31.0062
    31.3197  31.3615  31.3985  31.4064  31.7875  32.1620  32.3175  32.7467
    32.7671  33.0427  33.0534  33.5055  33.6009  34.0076  34.9433  36.1583
    36.8136  38.2661  39.1960  39.6074  41.3035  41.5697  41.9364  41.9539
    42.2825  42.3186  43.0300  46.0231  46.1846  46.2948  47.1407  49.4917
    50.5234  51.8125  51.9003  52.4709  52.7653  53.5529  53.6423  53.8552
    54.3303  54.4090  55.0768  55.2821  55.5594  55.6471  56.0840  56.2704
    56.8603  57.2993  57.7989  57.9506  58.5346

          k = 0.0000 0.3333 0.4286 (  2654 PWs)   bands (ev):

   -52.9041 -52.8339 -52.7854 -52.6955 -52.6525 -52.5746 -21.5055 -21.5011
   -16.7958 -16.1569 -15.7891 -15.2360 -15.1094 -15.0472 -15.0096 -14.9050
   -14.8849 -14.8597 -14.8448 -14.7204 -14.7000 -14.6806 -14.6237 -14.6193
   -14.6057 -14.1404   6.7925   6.8164   6.8275   6.8486   6.8678   6.8767
    25.6636  27.1112  27.2184  27.6953  28.1000  28.2459  28.4786  28.7891
    28.9055  29.4533  29.6255  29.7114  30.1583  30.3599  30.5452  30.6508
    30.9123  30.9706  31.2704  31.4504  31.7390  31.8360  31.9144  32.4266
    32.4622  32.8220  33.1813  33.6843  33.9409  33.9935  34.9791  35.2601
    37.0810  37.6564  39.1559  40.3141  41.5770  41.7238  41.8547  42.1570
    42.1715  42.8361  43.6137  44.7576  45.6021  46.2689  47.0064  48.3774
    51.2944  52.4030  52.4499  52.8688  53.1909  53.1937  53.6072  54.2863
    54.4000  54.8159  55.0777  55.4201  55.6864  55.7631  55.8806  56.6950
    56.7418  57.6548  57.6614  58.4635  58.8872

          k = 0.0000-0.5000 0.0000 (  2666 PWs)   bands (ev):

   -52.9309 -52.9309 -52.7471 -52.7471 -52.5658 -52.5658 -21.4957 -21.4957
   -16.7778 -16.7778 -15.5060 -15.5060 -15.1932 -15.1932 -14.9441 -14.9441
   -14.8469 -14.8469 -14.6842 -14.6842 -14.6667 -14.6667 -14.6219 -14.6219
   -14.1394 -14.1394   6.7948   6.7948   6.8409   6.8409   6.8776   6.8776
    25.6158  25.6158  27.1479  27.1479  27.5490  27.5490  28.9922  28.9922
    29.5872  29.5872  29.8050  29.8050  30.1769  30.1769  30.4393  30.4393
    30.9423  30.9423  31.2252  31.2252  32.0148  32.0148  32.5818  32.5818
    33.6288  33.6288  33.6433  33.6433  33.9505  33.9505  34.9548  34.9548
    37.7259  37.7259  38.8157  38.8157  41.2621  41.2621  41.7797  41.7797
    42.4178  42.4178  46.2332  46.2332  46.6729  46.6729  49.0696  49.0696
    49.1752  49.1752  52.2555  52.2555  52.4205  52.4205  53.6461  53.6461
    53.7892  53.7892  54.5296  54.5296  55.5573  55.5573  55.8924  55.8925
    57.5148  57.5149  59.0148  59.0149  59.1736

          k = 0.0000-0.5000 0.1429 (  2666 PWs)   bands (ev):

   -52.9250 -52.9183 -52.7489 -52.7459 -52.5833 -52.5718 -21.4986 -21.4985
   -16.7820 -16.6571 -15.5127 -15.5089 -15.1677 -15.1566 -14.9600 -14.9319
   -14.8621 -14.8264 -14.7437 -14.6926 -14.6595 -14.6454 -14.6343 -14.6187
   -14.2856 -14.1351   6.7948   6.8025   6.8345   6.8504   6.8697   6.8795
    25.6285  26.0244  27.1507  27.3197  27.4650  27.7037  28.8724  28.9762
    29.4988  29.7007  29.7240  29.7655  29.9493  30.2406  30.3636  30.6706
    30.8878  31.0661  31.2886  31.3238  31.6829  31.9891  32.3949  32.7794
    32.9702  33.5290  33.7177  33.7430  33.9712  34.1041  34.6886  34.9784
    37.6685  37.8594  38.9058  38.9719  41.3974  41.5051  41.7835  41.9198
    42.0912  42.4824  45.4538  45.7522  46.1999  46.8188  47.8888  48.8759
    49.8722  50.8544  51.9783  52.3908  52.4085  52.6193  53.6894  53.7879
    54.0261  54.1938  54.8272  54.9252  55.2616  55.8417  56.1205  56.2448
    57.6044  57.7335  57.9611  58.4416  59.1255

          k = 0.0000-0.5000 0.2857 (  2658 PWs)   bands (ev):

   -52.9018 -52.8574 -52.7446 -52.7435 -52.6307 -52.5842 -21.5028 -21.5024
   -16.7985 -16.3093 -15.5200 -15.5057 -15.1225 -15.0777 -14.9720 -14.9009
   -14.8999 -14.8288 -14.7872 -14.7071 -14.6654 -14.6353 -14.6309 -14.6270
   -14.6212 -14.1411   6.7934   6.8200   6.8200   6.8559   6.8620   6.8769
    25.6579  27.0307  27.2875  27.2929  27.8307  28.1298  28.5460  28.9589
    29.3958  29.4235  29.6008  29.8322  30.0812  30.4046  30.4503  30.6951
    30.7551  30.8463  31.2712  31.4018  31.7061  31.8561  31.9476  32.4164
    32.7246  33.0900  33.2318  33.7087  33.9479  34.4519  34.6051  34.9886
    37.3679  37.5784  39.0920  40.0391  41.6474  41.6673  41.7958  42.0400
    42.1409  42.7528  44.3509  44.5324  45.7649  46.5054  47.1632  48.2999
    51.1392  52.0969  52.6147  52.7052  52.7489  52.8349  53.8512  54.4612
    54.5797  54.6639  54.9639  55.2519  55.3948  55.5941  56.0068  56.5167
    57.2555  57.2700  58.3519  58.3597  58.4427

          k = 0.0000-0.5000 0.4286 (  2662 PWs)   bands (ev):

   -52.9188 -52.7998 -52.7514 -52.7471 -52.6927 -52.5707 -21.5075 -21.5073
   -16.7935 -15.8169 -15.5306 -15.5123 -15.2359 -15.0646 -15.0079 -14.9790
   -14.9168 -14.9092 -14.8975 -14.7369 -14.7256 -14.7108 -14.6133 -14.6067
   -14.6023 -14.1500   6.7832   6.8097   6.8279   6.8419   6.8759   6.8774
    25.6799  27.1321  27.1543  28.3049  28.5159  28.5799  28.6369  29.0343
    29.1660  29.3938  29.6710  29.9171  30.0234  30.1793  30.3825  30.4427
    30.5911  30.9829  31.3734  31.4504  31.5704  31.5812  31.6802  31.8077
    31.8784  32.5679  33.4131  33.7223  33.7931  34.7147  34.7521  34.9668
    37.1960  37.2420  39.2367  41.1995  41.4262  41.8502  41.9134  42.0167
    42.3095  43.3162  43.9056  44.1203  44.8620  45.4867  47.4513  47.6188
    52.1048  52.5086  52.8943  53.0213  53.1614  53.8056  53.8755  54.1485
    54.1600  54.3518  55.0570  55.5076  55.7914  56.5368  56.7217  56.8837
    57.1122  57.9787  58.0370  58.2736  59.0984

          k = 0.2000 0.0000 0.0000 (  2661 PWs)   bands (ev):

   -52.9346 -52.9194 -52.8869 -52.6036 -52.5621 -52.5621 -21.5012 -21.4753
   -16.8086 -16.7414 -16.4816 -15.2119 -15.2119 -15.1550 -14.8218 -14.8218
   -14.7828 -14.7133 -14.6853 -14.6853 -14.6269 -14.6269 -14.6191 -14.3972
   -14.1404 -14.1404   6.8086   6.8309   6.8309   6.8467   6.8682   6.8682
    25.5513  25.6171  26.3727  26.8030  27.1370  27.1370  28.6700  29.0722
    29.1995  29.1995  29.9092  29.9498  29.9498  29.9560  29.9986  30.4416
    30.5836  31.9378  32.0151  32.0151  32.7010  32.7010  32.8882  33.0327
    33.2720  33.4795  33.4795  33.6924  33.8142  34.4173  34.4173  36.3389
    36.5333  40.0981  40.0981  40.2748  40.7072  40.7257  41.3593  41.3593
    41.4255  41.4489  44.0628  44.0628  47.6464  47.9697  49.0156  50.5538
    50.5538  50.6594  50.8576  51.8169  52.3971  52.3971  52.8583  52.8583
    53.8036  54.3497  54.3497  54.4295  54.9905  55.7980  55.9903  56.7780
    56.8247  56.8247  57.5007  57.5896  57.5898

          k = 0.2000 0.0000 0.1429 (  2667 PWs)   bands (ev):

   -52.9262 -52.9181 -52.8906 -52.6026 -52.5852 -52.5747 -21.5040 -21.4784
   -16.7931 -16.6666 -16.4716 -15.2000 -15.1854 -15.1604 -14.8449 -14.8435
   -14.7555 -14.7214 -14.7002 -14.6707 -14.6567 -14.6352 -14.6022 -14.4131
   -14.2802 -14.1347   6.8140   6.8248   6.8371   6.8423   6.8557   6.8689
    25.5922  25.9991  26.3774  26.9064  27.0593  27.2543  28.6788  28.9539
    29.0922  29.2367  29.5903  29.8037  30.0359  30.1215  30.2569  30.6240
    30.7374  31.6852  31.8934  32.0576  32.4284  32.6916  32.9284  33.0382
    33.0662  33.4060  33.4143  33.4759  33.8590  34.2446  34.5947  36.4843
    36.6775  39.7361  39.8498  40.0609  40.6741  41.0749  41.3716  41.3808
    41.4702  42.0315  43.0542  44.4507  47.6751  48.5560  48.8395  49.5521
    50.2092  50.7887  51.6575  51.8082  51.9480  52.6048  52.9995  53.2761
    53.5435  54.4314  54.7593  55.0105  55.0978  55.9154  56.0881  56.4392
    57.0447  57.0594  57.2043  57.4340  58.0809

          k = 0.2000 0.0000 0.2857 (  2659 PWs)   bands (ev):

   -52.9173 -52.8965 -52.8451 -52.6327 -52.6041 -52.5727 -21.5049 -21.4864
   -16.7874 -16.5422 -16.2770 -15.1726 -15.1492 -15.1045 -14.8699 -14.8586
   -14.7674 -14.7309 -14.6964 -14.6604 -14.6578 -14.6492 -14.6465 -14.6027
   -14.4028 -14.1323   6.8040   6.8261   6.8340   6.8525   6.8547   6.8701
    25.6164  26.3868  26.9719  27.0931  27.2314  27.5441  28.3131  28.7925
    28.9753  29.3054  29.6020  29.6657  30.0997  30.1761  30.4516  30.9975
    31.2177  31.5097  31.6562  31.8282  31.8824  32.4226  32.6226  32.6294
    32.9279  33.1515  33.2260  33.5408  33.9757  34.0967  34.8299  36.3450
    36.9058  38.9113  39.3775  39.4254  40.8547  41.3672  41.5993  41.7945
    41.9166  42.2301  43.1374  45.3922  46.9129  47.4811  47.9592  49.9125
    50.5916  50.9625  51.4158  51.8854  52.3476  53.2986  53.5681  53.6044
    53.6675  54.0683  54.9095  55.0010  55.5599  55.8011  56.3431  56.5881
    56.9125  57.3217  57.5830  57.7204  58.2311

          k = 0.2000 0.0000 0.4286 (  2660 PWs)   bands (ev):

   -52.9099 -52.8971 -52.7820 -52.7021 -52.5966 -52.5811 -21.5022 -21.4957
   -16.7912 -16.5453 -15.7909 -15.2275 -15.1537 -15.1206 -14.9914 -14.8998
   -14.8763 -14.7987 -14.7688 -14.6997 -14.6530 -14.6498 -14.6297 -14.6107
   -14.4092 -14.1259   6.7959   6.8142   6.8271   6.8556   6.8620   6.8780
    25.6364  26.3970  27.0874  27.3638  27.6242  27.8062  28.7808  28.8389
    29.0407  29.4702  29.6094  29.8091  29.9597  30.3281  30.6223  30.8448
    31.0915  31.1245  31.3152  31.5047  31.5437  31.9591  32.2780  32.6304
    32.8961  33.2517  33.4695  33.6735  33.9832  34.1271  34.9700  35.0678
    37.3618  38.0692  39.0259  39.3013  41.4119  41.4838  41.7010  41.8655
    42.3062  42.4744  44.3624  45.7576  46.2760  46.6086  47.4290  49.0721
    50.3241  51.5160  51.9540  52.1775  52.5736  53.0092  53.8208  53.9286
    54.0216  54.2177  54.9829  55.1008  55.4336  55.8759  56.2880  56.3135
    56.9455  57.7892  58.0531  58.1735  58.7366

          k = 0.2000 0.1667 0.0000 (  2672 PWs)   bands (ev):

   -52.9358 -52.9192 -52.8798 -52.6097 -52.6025 -52.5749 -21.5056 -21.4795
   -16.7960 -16.6348 -16.4739 -15.1934 -15.1768 -15.1598 -14.8536 -14.8508
   -14.7505 -14.7260 -14.7001 -14.6737 -14.6586 -14.6518 -14.6017 -14.4161
   -14.3256 -14.1392   6.8116   6.8243   6.8401   6.8429   6.8501   6.8647
    25.5957  26.1445  26.3791  26.9391  27.0425  27.2941  28.6807  28.8710
    29.0923  29.2441  29.5575  29.7823  30.0517  30.1333  30.2993  30.6823
    30.8053  31.6386  31.8564  32.0373  32.3549  32.6807  32.8976  32.9950
    33.0552  33.3272  33.3840  33.4748  33.8840  34.2025  34.6367  36.5231
    36.7068  39.6166  39.7766  39.9449  40.7301  41.1669  41.3890  41.3921
    41.4943  42.1793  42.8649  44.5766  47.6046  48.5367  48.6760  49.5449
    50.2533  50.8726  51.6953  51.7582  51.8691  52.6924  53.1060  53.3795
    53.5214  54.4533  54.7927  55.0462  55.0779  55.8100  56.2404  56.4870
    57.0386  57.1151  57.2557  57.3891  58.1721

          k = 0.2000 0.1667 0.1429 (  2665 PWs)   bands (ev):

   -52.9146 -52.9056 -52.8908 -52.6076 -52.5998 -52.5736 -21.5047 -21.4828
   -16.6816 -16.6277 -16.4696 -15.1723 -15.1663 -15.1557 -14.8956 -14.7894
   -14.7733 -14.6994 -14.6939 -14.6817 -14.6725 -14.6331 -14.6159 -14.4127
   -14.3300 -14.2741   6.8166   6.8284   6.8324   6.8469   6.8535   6.8586
    26.0079  26.1547  26.3877  27.0501  27.1588  27.2270  28.7098  28.8668
    28.9667  29.1824  29.5342  29.6539  30.1296  30.1616  30.2895  30.8518
    30.9892  31.4788  31.4915  32.3238  32.3529  32.4661  32.8596  32.9191
    33.0637  33.2184  33.4119  33.4590  33.5272  34.3349  34.4758  36.7013
    36.8211  39.5111  39.5920  39.6881  40.9871  41.2556  41.3766  41.4164
    41.5246  42.4877  43.1498  43.5311  48.2074  48.4007  49.1140  49.7083
    49.9539  50.0816  50.1148  52.2463  52.9438  53.2589  53.3879  53.4247
    53.6915  54.2423  54.8760  55.1041  55.8573  55.8991  56.1611  56.4640
    56.6347  56.9465  57.5753  58.0638  58.1703

          k = 0.2000 0.1667 0.2857 (  2655 PWs)   bands (ev):

   -52.8925 -52.8851 -52.8446 -52.6375 -52.5976 -52.5895 -21.5044 -21.4908
   -16.6285 -16.5363 -16.2882 -15.1450 -15.1335 -15.0950 -14.9090 -14.7998
   -14.7776 -14.7273 -14.7040 -14.6902 -14.6611 -14.6322 -14.6303 -14.6155
   -14.4009 -14.3217   6.8104   6.8319   6.8369   6.8385   6.8560   6.8642
    26.1736  26.4057  27.1343  27.1524  27.3562  27.4653  28.3548  28.7945
    28.9746  29.2162  29.3738  29.6431  30.0668  30.2139  30.4522  31.0706
    31.1267  31.1981  31.5439  31.9949  32.1442  32.3411  32.4864  32.6110
    32.9999  33.0338  33.2549  33.3890  33.6066  34.1511  34.4815  36.6216
    37.1147  38.8828  39.0891  39.4458  41.1678  41.4765  41.5611  41.6417
    42.0264  42.5045  43.3881  43.8258  47.1993  47.5358  48.7809  48.9137
    50.1583  50.2658  50.9683  52.7680  53.2863  53.4650  53.5728  54.0110
    54.0488  54.3488  54.7121  55.1972  56.1038  56.1759  56.2007  56.4697
    57.2254  57.4336  57.8095  57.9708  58.1168

          k = 0.2000 0.1667 0.4286 (  2655 PWs)   bands (ev):

   -52.8933 -52.8845 -52.7762 -52.7055 -52.5987 -52.5853 -21.5043 -21.4985
   -16.6198 -16.5454 -15.7955 -15.2334 -15.1259 -15.1068 -14.9870 -14.9228
   -14.8339 -14.8178 -14.7397 -14.7228 -14.6512 -14.6437 -14.6305 -14.6185
   -14.4023 -14.3252   6.8054   6.8135   6.8367   6.8442   6.8646   6.8674
    26.1925  26.4207  27.2646  27.5806  27.6656  27.7207  28.8442  28.8911
    29.1234  29.3123  29.3830  29.7194  29.8220  30.2519  30.6173  30.6563
    30.8211  31.2886  31.3941  31.5965  31.8371  31.9619  32.1557  32.5014
    32.8145  32.9288  33.2822  33.4757  34.0437  34.1877  34.5437  35.4728
    37.6053  38.2493  38.9739  39.2510  41.5823  41.6108  41.6879  41.9655
    42.2821  42.4157  44.4237  44.7787  45.8174  46.2496  48.0174  48.3061
    50.5905  50.7976  52.0716  52.8898  52.9280  53.2212  53.8986  54.3216
    54.4893  54.5812  55.3115  55.5768  55.6783  56.0757  56.2026  56.5760
    57.1423  57.3148  57.9340  58.4080  58.7238

          k = 0.2000 0.3333 0.0000 (  2656 PWs)   bands (ev):

   -52.9153 -52.8962 -52.8218 -52.6549 -52.5965 -52.5696 -21.5037 -21.4898
   -16.7847 -16.5367 -16.1342 -15.1660 -15.1461 -15.0652 -14.8824 -14.8717
   -14.8367 -14.7601 -14.7441 -14.6837 -14.6538 -14.6515 -14.6389 -14.6021
   -14.4042 -14.1324   6.7988   6.8262   6.8297   6.8535   6.8589   6.8747
    25.6242  26.3900  26.9879  27.2346  27.6452  27.6479  28.1368  28.8510
    28.8985  29.3578  29.6217  29.6737  30.0708  30.2252  30.4957  31.1052
    31.2360  31.4511  31.5594  31.6694  31.8445  32.1507  32.4761  32.5232
    32.9017  33.1633  33.2395  33.5857  33.9892  34.0944  34.8907  35.9952
    37.0407  38.6177  39.2309  39.3383  40.9512  41.4116  41.6456  41.8882
    42.1465  42.2888  43.5011  45.7854  46.5055  47.0326  47.7472  50.0726
    50.0812  51.1753  51.6641  51.9269  52.5664  53.4885  53.6047  53.6797
    53.7565  53.8486  54.9755  55.1368  55.8051  55.8379  56.1980  56.5295
    56.6502  57.6789  57.7406  57.9839  58.1497

          k = 0.2000 0.3333 0.1429 (  2657 PWs)   bands (ev):

   -52.9015 -52.8898 -52.8218 -52.6624 -52.5942 -52.5861 -21.5046 -21.4926
   -16.6670 -16.5369 -16.1415 -15.1475 -15.1370 -15.0572 -14.9133 -14.8417
   -14.8179 -14.7755 -14.7326 -14.7062 -14.6655 -14.6503 -14.6316 -14.6160
   -14.4058 -14.2754   6.8043   6.8285   6.8320   6.8445   6.8588   6.8665
    26.0359  26.4063  27.1104  27.3817  27.5642  27.6656  28.1674  28.8325
    29.0648  29.1826  29.3798  29.7157  30.0003  30.2433  30.5255  30.9880
    31.0735  31.2448  31.7247  31.8266  31.9704  32.1497  32.3072  32.5788
    32.9121  33.1126  33.2018  33.4578  33.7300  34.1312  34.5925  36.2371
    37.2210  38.7215  38.9754  39.3910  41.1776  41.5210  41.5877  41.7605
    42.2710  42.3665  43.6412  44.3502  46.7073  47.2300  48.4272  48.8226
    50.3277  50.5024  51.4376  52.7635  53.1639  53.3511  53.4867  53.9265
    54.1113  54.4372  54.8824  55.3639  55.9738  56.1362  56.4149  56.4667
    57.0758  57.3305  57.6810  58.0660  58.2005

          k = 0.2000 0.3333 0.2857 (  2656 PWs)   bands (ev):

   -52.8803 -52.8594 -52.8295 -52.6541 -52.6238 -52.6009 -21.5071 -21.4993
   -16.5545 -16.3168 -16.1447 -15.1061 -15.0820 -15.0484 -14.9441 -14.8512
   -14.8054 -14.7881 -14.7594 -14.7122 -14.6812 -14.6556 -14.6367 -14.6317
   -14.6210 -14.4027   6.8111   6.8285   6.8330   6.8450   6.8474   6.8600
    26.4369  27.1630  27.4099  27.4573  27.6866  27.7927  28.3267  28.5997
    28.9795  29.0538  29.4403  29.6323  29.9884  30.1145  30.5765  30.6065
    30.8052  31.4768  31.5796  31.7790  31.8611  32.0832  32.3425  32.4409
    32.7238  32.8865  33.0795  33.2135  33.5321  34.0804  34.2875  36.7603
    37.2409  38.5506  38.6992  39.5418  41.6070  41.6150  41.7690  41.9866
    42.3349  42.6892  43.1364  43.9842  46.0618  46.7395  47.4507  48.4696
    50.2787  51.0089  51.4241  53.4736  53.6090  53.8109  54.0237  54.3545
    54.3916  54.7539  55.2961  55.5992  56.1227  56.2765  56.4912  56.6585
    56.9392  57.7969  57.9690  58.2813  58.6321

          k = 0.2000 0.3333 0.4286 (  2643 PWs)   bands (ev):

   -52.8612 -52.8329 -52.7712 -52.6920 -52.6307 -52.6013 -21.5081 -21.5039
   -16.5548 -16.1546 -15.7957 -15.2392 -15.0620 -15.0197 -14.9973 -14.9350
   -14.8618 -14.8310 -14.8005 -14.7275 -14.7071 -14.6774 -14.6486 -14.6336
   -14.6220 -14.3952   6.8092   6.8272   6.8283   6.8471   6.8554   6.8646
    26.4607  27.4394  27.5554  27.7301  28.0953  28.1736  28.7279  28.8332
    28.9629  29.2226  29.4888  29.6264  29.7785  30.0231  30.1879  30.4440
    30.7613  31.3147  31.4063  31.4910  31.7030  31.9924  32.0210  32.2162
    32.5519  32.6134  32.8768  33.0221  33.2155  34.2821  34.9941  36.1274
    37.5291  38.1105  38.8498  39.9338  41.7275  41.7941  41.9972  42.0912
    42.3973  42.7367  43.6102  44.5418  44.7272  46.0052  46.8873  47.4053
    50.7888  51.3006  52.3207  53.3707  53.9209  54.2128  54.2977  54.6792
    54.9864  55.2788  55.4459  55.5895  55.8472  56.3533  56.6424  56.9234
    57.3099  57.6714  57.9878  58.3586  58.9759

          k = 0.2000-0.5000 0.0000 (  2658 PWs)   bands (ev):

   -52.9135 -52.8893 -52.7427 -52.7424 -52.5987 -52.5715 -21.4998 -21.4992
   -16.7876 -16.5440 -15.5148 -15.5069 -15.1516 -15.1260 -14.9669 -14.9170
   -14.8710 -14.8062 -14.7747 -14.6983 -14.6541 -14.6458 -14.6261 -14.6068
   -14.4032 -14.1281   6.7943   6.8090   6.8301   6.8570   6.8648   6.8805
    25.6392  26.3997  27.1590  27.3892  27.4945  27.8471  28.7514  28.9606
    29.5071  29.5949  29.6477  29.8489  29.8799  30.2997  30.3736  30.8003
    30.8390  30.9954  31.3620  31.4491  31.4752  31.9536  32.2331  32.6937
    32.8991  33.2530  33.7016  33.7153  33.9748  34.2529  34.5593  34.9886
    37.5742  37.8003  38.9763  39.2985  41.5036  41.7133  41.7835  41.8832
    42.0221  42.5529  45.0321  45.1665  46.0866  46.9457  47.3436  48.6896
    50.3750  51.6091  51.9920  52.4800  52.5115  52.6452  53.9011  53.9732
    54.2339  54.4712  55.0117  55.0356  55.0370  55.9064  56.2801  56.2880
    57.2638  57.5677  58.2076  58.2801  58.8782

          k = 0.2000-0.5000 0.1429 (  2658 PWs)   bands (ev):

   -52.8995 -52.8871 -52.7426 -52.7421 -52.5984 -52.5852 -21.5019 -21.5015
   -16.6659 -16.5489 -15.5127 -15.5080 -15.1340 -15.1224 -14.9540 -14.9340
   -14.8523 -14.8257 -14.7445 -14.7196 -14.6476 -14.6398 -14.6302 -14.6231
   -14.4027 -14.2770   6.8032   6.8102   6.8351   6.8459   6.8645   6.8709
    26.0506  26.4173  27.3264  27.4762  27.5727  27.7754  28.8675  28.9743
    29.4479  29.4888  29.6333  29.7079  29.8365  29.9433  30.5577  30.6236
    30.8848  30.9335  31.4116  31.4728  31.7611  31.9352  32.3063  32.4820
    32.8002  32.9813  33.3179  33.6048  34.0786  34.3755  34.7824  34.8322
    37.8362  37.8960  38.9839  39.2390  41.5798  41.6513  41.9413  42.0533
    42.0574  42.3230  44.9987  45.2701  45.3888  45.9661  47.8313  48.3764
    50.5928  51.0269  52.3379  52.4642  52.8435  52.9843  54.2392  54.2647
    54.5464  54.5564  55.1910  55.2750  55.6785  55.8065  56.3798  56.4995
    57.1495  57.3774  58.0616  58.3011  59.1542

          k = 0.2000-0.5000 0.2857 (  2648 PWs)   bands (ev):

   -52.8702 -52.8565 -52.7381 -52.7359 -52.6121 -52.5984 -21.5058 -21.5054
   -16.5521 -16.3142 -15.5183 -15.5124 -15.0820 -15.0571 -14.9672 -14.9403
   -14.8437 -14.8272 -14.7502 -14.7238 -14.6634 -14.6497 -14.6427 -14.6323
   -14.6183 -14.3995   6.8092   6.8204   6.8303   6.8505   6.8539   6.8655
    26.4532  27.1771  27.5112  27.6163  27.8315  28.0321  28.8230  29.0316
    29.3547  29.3914  29.4473  29.5943  29.7395  29.7834  30.3507  30.4654
    30.8996  30.9822  31.4341  31.4706  31.8900  31.9371  31.9751  32.0772
    32.7046  32.7383  32.8459  33.2770  33.4836  34.2464  35.3103  35.3545
    37.9046  37.9143  38.9467  39.6400  41.7279  41.7327  42.0626  42.1035
    42.2965  42.5103  44.4196  44.5042  44.8891  45.5213  47.2491  47.6417
    50.8216  50.9015  52.8312  52.9310  53.6139  53.9793  54.5845  54.7113
    54.9768  54.9984  55.4068  55.4626  55.5756  56.1727  56.5097  57.0408
    57.1756  57.5255  58.2531  58.4006  59.0565

          k = 0.2000-0.5000 0.4286 (  2646 PWs)   bands (ev):

   -52.8610 -52.7783 -52.7430 -52.7343 -52.6825 -52.6037 -21.5098 -21.5094
   -16.5651 -15.8177 -15.5290 -15.5151 -15.2350 -15.0169 -15.0006 -14.9712
   -14.9095 -14.8533 -14.8519 -14.7347 -14.7035 -14.6964 -14.6468 -14.6313
   -14.6281 -14.3970   6.8045   6.8212   6.8324   6.8418   6.8601   6.8627
    26.4793  27.4804  27.5011  28.4580  28.6037  28.6331  28.7282  29.1144
    29.1231  29.3885  29.4516  29.6363  29.6840  29.8951  29.9082  30.1243
    30.6877  31.0586  31.3008  31.4146  31.4762  31.7222  31.7317  31.9906
    32.3978  32.4047  32.7457  32.7486  33.0393  34.3261  35.9034  35.9285
    37.5965  37.6289  39.0136  40.6205  41.7705  41.7793  41.9638  42.1480
    42.2306  43.3047  43.8525  43.9143  44.7343  45.7232  46.1715  46.3837
    51.1619  52.0492  52.6621  53.1021  53.5864  54.6684  54.7133  54.9131
    55.1508  55.6290  55.9196  55.9349  56.2613  56.5229  56.7342  56.9949
    57.1859  57.6557  58.2855  58.4134  58.5000

          k = 0.4000 0.0000 0.0000 (  2657 PWs)   bands (ev):

   -52.9265 -52.9233 -52.8015 -52.6849 -52.5573 -52.5573 -21.4987 -21.4893
   -16.7875 -16.7479 -15.8912 -15.1958 -15.1958 -15.0967 -15.0014 -14.8677
   -14.8466 -14.8466 -14.6789 -14.6711 -14.6711 -14.6406 -14.6329 -14.6329
   -14.1418 -14.1418   6.7920   6.8134   6.8413   6.8413   6.8781   6.8781
    25.5921  25.6300  26.8847  27.4854  27.4854  27.5488  28.5672  29.0281
    29.0281  29.4021  29.7448  30.0222  30.0792  30.2108  30.2108  30.9319
    31.3255  31.3255  31.3397  31.4203  32.0300  32.0300  32.4569  32.5790
    32.6803  33.6136  33.6136  33.8935  33.9639  34.8781  34.8781  34.8896
    37.2278  38.3923  38.9910  38.9910  40.9419  41.0896  41.3819  42.2753
    42.2753  42.2890  46.0365  46.0365  46.2288  46.6975  48.8779  49.6082
    49.8137  49.8137  51.8060  51.8060  52.8163  52.8163  53.0648  53.2432
    53.5977  53.5977  54.7145  55.0330  55.1154  55.9430  55.9529  56.1887
    57.4006  57.4006  58.4983  58.5026  59.1562

          k = 0.4000 0.0000 0.1429 (  2659 PWs)   bands (ev):

   -52.9151 -52.9089 -52.7937 -52.6874 -52.5809 -52.5786 -21.5015 -21.4919
   -16.7873 -16.6528 -15.8995 -15.1701 -15.1695 -15.0894 -15.0034 -14.8833
   -14.8620 -14.8079 -14.7349 -14.6898 -14.6599 -14.6434 -14.6377 -14.6189
   -14.2820 -14.1264   6.7947   6.8146   6.8341   6.8500   6.8681   6.8780
    25.6229  26.0205  26.9777  27.3982  27.6240  27.6333  28.5643  28.9217
    29.0024  29.4274  29.6876  29.7404  30.0524  30.2771  30.4602  31.0094
    31.2458  31.2866  31.2960  31.5572  31.7282  32.0103  32.4590  32.5483
    32.7974  33.4087  33.5108  33.6736  33.9713  34.4352  34.9274  35.1925
    37.3087  38.3535  39.0369  39.0741  41.1080  41.3247  41.5188  41.9884
    42.3360  42.3680  44.6379  46.2128  46.2134  46.7635  48.0049  49.5771
    49.9136  50.8367  51.7836  51.9247  52.6071  53.1030  53.5042  53.6211
    53.6701  53.8073  54.9095  55.2284  55.5200  55.9598  56.0847  56.2784
    57.1617  57.8691  57.9269  58.3245  58.3887

          k = 0.4000 0.0000 0.2857 (  2657 PWs)   bands (ev):

   -52.9043 -52.8567 -52.7952 -52.6902 -52.6326 -52.5811 -21.5045 -21.4984
   -16.7967 -16.3150 -15.9026 -15.1378 -15.1317 -15.0543 -15.0162 -14.8997
   -14.8836 -14.8126 -14.7797 -14.6986 -14.6721 -14.6370 -14.6314 -14.6268
   -14.6058 -14.1360   6.7949   6.8195   6.8255   6.8517   6.8619   6.8755
    25.6515  27.0194  27.2434  27.2710  27.9455  28.0313  28.5637  28.6089
    28.8090  29.4818  29.5129  29.8602  29.9882  30.3503  30.6580  30.7863
    31.1293  31.1542  31.3183  31.4134  31.7990  31.8493  32.1023  32.5420
    32.7261  33.0791  33.2357  33.6553  33.6628  33.9835  34.9731  35.5313
    37.0571  37.9408  39.1302  39.8468  41.4603  41.6299  41.8500  42.0100
    42.2755  42.5820  43.5279  45.3524  45.9737  46.6586  46.7783  48.8872
    50.8495  52.1873  52.2575  52.3833  52.8411  53.2770  53.7224  54.2112
    54.3678  54.6731  54.9972  55.2558  55.5556  55.7201  56.0549  56.4844
    56.6398  57.6400  57.7548  58.1265  58.9028

          k = 0.4000 0.0000 0.4286 (  2657 PWs)   bands (ev):

   -52.9076 -52.7945 -52.7857 -52.7118 -52.6817 -52.5771 -21.5067 -21.5045
   -16.7971 -15.9296 -15.7876 -15.2456 -15.1246 -15.0892 -15.0018 -14.9856
   -14.9192 -14.8875 -14.8795 -14.7336 -14.7035 -14.7002 -14.6195 -14.6096
   -14.6054 -14.1465   6.7872   6.8134   6.8281   6.8457   6.8726   6.8771
    25.6741  27.1390  27.1685  28.2718  28.3670  28.4110  28.4722  28.8379
    28.9183  29.4891  29.5862  29.7552  30.0704  30.2554  30.5180  30.5511
    30.8761  30.8942  31.2694  31.4984  31.6150  31.8101  31.8569  32.0287
    32.1690  32.5163  33.3099  33.6960  33.8778  34.2596  34.9726  35.1374
    37.0714  37.4577  39.2047  40.7818  41.5777  41.8030  41.9452  42.0323
    42.2610  43.1063  43.6193  44.4033  45.2099  45.8061  47.2041  47.9950
    51.6923  52.5749  52.6182  53.2306  53.3090  53.4484  53.7323  53.9488
    54.4147  54.4656  55.1573  55.5949  55.7128  56.2538  56.2617  56.7141
    56.9629  57.5734  57.8148  58.8513  58.9283

          k = 0.4000 0.1667 0.0000 (  2659 PWs)   bands (ev):

   -52.9113 -52.9041 -52.7936 -52.6881 -52.5869 -52.5815 -21.5023 -21.4924
   -16.7896 -16.6101 -15.9004 -15.1648 -15.1632 -15.0862 -15.0029 -14.8855
   -14.8674 -14.8022 -14.7478 -14.6909 -14.6584 -14.6467 -14.6366 -14.6144
   -14.3311 -14.1255   6.7951   6.8155   6.8323   6.8522   6.8651   6.8775
    25.6273  26.1634  27.0063  27.3727  27.6561  27.6852  28.5627  28.8785
    28.9857  29.4299  29.6771  29.7156  30.0351  30.2850  30.5110  31.0388
    31.2109  31.2799  31.2852  31.6004  31.6469  31.9907  32.4049  32.5664
    32.8378  33.3705  33.4146  33.6571  33.9794  34.3095  34.9387  35.2607
    37.3002  38.3091  39.0509  39.1521  41.1605  41.3870  41.5794  41.9342
    42.3589  42.3695  44.3928  46.1339  46.2731  46.6491  47.8005  49.4916
    50.0485  51.0786  51.8343  51.9624  52.5988  53.1502  53.6151  53.7117
    53.7705  53.8890  54.9392  55.2105  55.5890  55.9167  56.1509  56.3290
    57.0082  57.8782  57.9685  58.2578  58.3449

          k = 0.4000 0.1667 0.1429 (  2662 PWs)   bands (ev):

   -52.9056 -52.9001 -52.7933 -52.6998 -52.5937 -52.5843 -21.5042 -21.4952
   -16.6667 -16.6088 -15.9055 -15.1624 -15.1481 -15.0834 -15.0043 -14.9084
   -14.8352 -14.8155 -14.7349 -14.7187 -14.6524 -14.6504 -14.6386 -14.6192
   -14.3309 -14.2821   6.8004   6.8161   6.8377   6.8419   6.8653   6.8672
    26.0370  26.1791  27.1252  27.5277  27.6063  27.7033  28.5644  28.9022
    29.0834  29.3355  29.3769  29.7753  29.9125  30.3216  30.5469  30.8356
    30.9954  31.2785  31.5079  31.6140  31.8887  31.9820  32.1976  32.5776
    32.8407  33.1171  33.4007  33.5731  33.8345  34.3089  34.6298  35.5373
    37.4555  38.4025  38.9798  39.1838  41.3431  41.5298  41.5709  41.9240
    42.2564  42.4386  44.4605  44.7683  46.2509  46.7566  48.2417  48.6458
    50.4416  50.6781  51.7912  52.6027  52.9279  53.0330  53.5623  54.0665
    54.1748  54.2880  55.2587  55.4585  55.8059  55.8675  56.4017  56.4899
    57.1873  57.3049  57.6955  58.2143  58.4425

          k = 0.4000 0.1667 0.2857 (  2650 PWs)   bands (ev):

   -52.8813 -52.8556 -52.7957 -52.6786 -52.6202 -52.5910 -21.5068 -21.5002
   -16.6266 -16.3107 -15.9030 -15.1486 -15.0986 -15.0392 -15.0072 -14.9281
   -14.8346 -14.8069 -14.7613 -14.7126 -14.6736 -14.6485 -14.6365 -14.6264
   -14.6158 -14.3204   6.8065   6.8251   6.8287   6.8514   6.8539   6.8659
    26.2091  27.1436  27.3793  27.4713  27.9410  27.9732  28.5678  28.7396
    28.9354  29.2071  29.4684  29.7244  29.8611  30.1459  30.4534  30.6896
    30.7376  31.4238  31.5035  31.5707  31.8078  31.9109  32.1690  32.4420
    32.6514  32.7828  33.0417  33.3969  33.4762  34.3041  34.5213  36.0398
    37.3862  38.2418  38.8607  39.7331  41.6556  41.6591  41.8165  41.9872
    42.4301  42.5427  43.5680  44.6517  45.3866  46.3931  47.4431  48.0072
    50.6874  51.1370  52.0684  53.2262  53.5007  53.6931  54.0856  54.4114
    54.5540  55.0837  55.1266  55.5236  55.8904  56.2126  56.4388  56.7086
    57.0527  57.4987  57.6973  58.4442  58.8531

          k = 0.4000 0.1667 0.4286 (  2652 PWs)   bands (ev):

   -52.8732 -52.8023 -52.7802 -52.6994 -52.6754 -52.6020 -21.5091 -21.5064
   -16.6351 -15.9276 -15.7930 -15.2449 -15.1381 -15.0464 -14.9961 -14.9800
   -14.9256 -14.8557 -14.8474 -14.7352 -14.7060 -14.6938 -14.6390 -14.6285
   -14.6239 -14.3232   6.7999   6.8203   6.8303   6.8430   6.8615   6.8649
    26.2335  27.3792  27.4102  28.3213  28.3552  28.4394  28.6393  28.8447
    28.9036  29.3844  29.5725  29.6190  29.8789  29.9626  30.0613  30.3830
    30.6956  31.2070  31.3104  31.4800  31.6195  31.8845  32.0037  32.2229
    32.3635  32.3868  32.7243  33.0665  33.2697  34.5134  35.1313  35.9402
    37.3415  37.7807  38.9950  40.5582  41.7272  41.7791  41.9116  42.1051
    42.2398  43.0865  43.5759  44.3498  44.8147  46.1393  46.6442  46.8331
    51.2694  51.9282  52.2920  53.2538  53.9070  54.1533  54.2922  54.5196
    54.7850  55.3504  55.5294  55.7586  56.1408  56.5058  56.5940  56.6719
    57.1593  57.8049  58.0708  58.1843  58.9373

          k = 0.4000 0.3333 0.0000 (  2652 PWs)   bands (ev):

   -52.9060 -52.8273 -52.7954 -52.6846 -52.6526 -52.5722 -21.5053 -21.4999
   -16.7937 -16.1624 -15.8995 -15.1315 -15.1149 -15.0333 -15.0207 -14.9038
   -14.8785 -14.8579 -14.8349 -14.7164 -14.7004 -14.6768 -14.6229 -14.6201
   -14.6021 -14.1401   6.7941   6.8172   6.8292   6.8481   6.8684   6.8762
    25.6605  27.1126  27.2026  27.6903  28.1109  28.1910  28.5096  28.5917
    28.7308  29.4650  29.5812  29.7692  30.1177  30.3441  30.6076  30.6448
    31.0056  31.1397  31.2706  31.4640  31.7351  31.9057  32.0060  32.4463
    32.5175  32.8626  33.1635  33.6642  33.7669  33.9603  34.9759  35.5100
    36.9846  37.7709  39.1610  40.1797  41.5678  41.7039  41.9032  42.1394
    42.1672  42.7509  43.4156  44.9822  45.6963  46.4133  46.8363  48.5917
    51.1573  52.2893  52.5690  52.6989  53.1078  53.3538  53.5606  54.2352
    54.3320  54.9604  54.9806  55.4281  55.6450  55.8034  55.9042  56.4962
    56.8157  57.4522  57.7430  58.3045  59.0367

          k = 0.4000 0.3333 0.1429 (  2654 PWs)   bands (ev):

   -52.8828 -52.8322 -52.7954 -52.6857 -52.6496 -52.5960 -21.5072 -21.5024
   -16.6747 -16.1644 -15.9020 -15.1444 -15.0888 -15.0249 -15.0134 -14.9262
   -14.8610 -14.8442 -14.8210 -14.7253 -14.7038 -14.6817 -14.6384 -14.6320
   -14.6158 -14.2743   6.8026   6.8204   6.8293   6.8456   6.8592   6.8671
    26.0734  27.2812  27.3751  27.7071  28.1047  28.1480  28.5687  28.6529
    28.7970  29.2933  29.5591  29.7451  29.9405  30.1354  30.2836  30.6653
    30.7518  31.3420  31.4387  31.4881  31.7356  31.9977  32.1588  32.4291
    32.5188  32.6913  32.9427  33.2382  33.4634  34.4344  34.6313  35.9902
    37.2147  38.0157  38.9432  40.1174  41.6856  41.7140  41.8409  42.0364
    42.3459  42.7330  43.4101  44.9130  44.9952  46.3366  47.2322  47.6725
    51.0583  51.4647  52.2089  53.2388  53.6476  53.8056  53.9282  54.3352
    54.7141  55.0369  55.2079  55.4934  55.8371  56.3592  56.4608  56.6075
    57.1706  57.2395  57.6964  58.4243  59.0155

          k = 0.4000 0.3333 0.2857 (  2651 PWs)   bands (ev):

   -52.8436 -52.8255 -52.7950 -52.6825 -52.6498 -52.6265 -21.5107 -21.5074
   -16.3216 -16.1654 -15.9127 -15.1486 -15.0418 -15.0100 -14.9938 -14.9558
   -14.8511 -14.8127 -14.7868 -14.7435 -14.7135 -14.6829 -14.6717 -14.6536
   -14.6466 -14.6338   6.8202   6.8287   6.8331   6.8418   6.8426   6.8490
    27.2270  27.6776  27.8049  27.8585  28.0733  28.1621  28.5792  28.7085
    28.8918  29.1405  29.3352  29.5709  29.7850  29.9134  30.1681  30.2607
    30.6715  31.3892  31.4694  31.5486  31.5904  31.8474  32.0234  32.2514
    32.3245  32.6477  32.7633  32.8560  33.0423  33.5726  35.3614  36.9674
    37.7605  38.4124  38.6792  39.3549  41.8897  41.9780  42.2045  42.2542
    42.4892  42.7558  43.3584  43.6639  44.7019  45.7124  46.4427  47.4043
    50.5016  51.1975  52.0023  53.7085  54.3632  54.4941  54.7266  54.9409
    55.1208  55.3701  55.6100  56.0683  56.1850  56.4638  57.0174  57.1294
    57.4432  58.0578  58.2594  58.4246  58.9152

          k = 0.4000 0.3333 0.4286 (  2646 PWs)   bands (ev):

   -52.8203 -52.7908 -52.7766 -52.6941 -52.6714 -52.6436 -21.5133 -21.5119
   -16.1692 -15.9204 -15.8031 -15.2553 -15.1535 -15.0151 -14.9927 -14.9714
   -14.9099 -14.8355 -14.8158 -14.7542 -14.7365 -14.7205 -14.6841 -14.6709
   -14.6666 -14.6548   6.8241   6.8317   6.8342   6.8397   6.8419   6.8435
    27.7495  28.0373  28.0829  28.3947  28.4238  28.4327  28.7453  28.8473
    28.9022  29.1889  29.3744  29.5294  29.6410  29.6741  29.8324  29.9077
    30.7505  31.1520  31.2200  31.2417  31.3570  31.6947  31.9739  32.0974
    32.1606  32.3125  32.5029  32.5949  32.6699  33.1036  36.4563  37.4351
    37.9677  38.5251  38.6266  39.2876  42.1485  42.2114  42.3444  42.4588
    42.5069  43.0429  43.1212  43.6035  43.6291  45.1637  45.7082  46.4306
    50.9200  51.7201  52.2893  53.6741  54.2106  54.8290  55.0985  55.4967
    55.6149  55.9208  56.0247  56.3042  56.5252  56.7406  57.0897  57.5693
    57.7452  58.0050  58.3656  58.4224  58.5938

          k = 0.4000-0.5000 0.0000 (  2650 PWs)   bands (ev):

   -52.9016 -52.7949 -52.7437 -52.7383 -52.6785 -52.5709 -21.5060 -21.5057
   -16.7927 -15.9175 -15.5274 -15.5082 -15.1175 -15.0748 -15.0034 -14.9674
   -14.9131 -14.8956 -14.8917 -14.7237 -14.7106 -14.6967 -14.6120 -14.6068
   -14.6045 -14.1470   6.7877   6.8144   6.8289   6.8467   6.8751   6.8781
    25.6777  27.1295  27.1726  28.3214  28.3362  28.4208  28.5507  29.1042
    29.2101  29.2139  29.7248  29.8405  30.1298  30.2109  30.4759  30.4867
    30.5723  30.8717  31.3507  31.4599  31.6240  31.6464  31.7045  31.9816
    32.1116  32.5205  33.3525  33.7205  33.8330  34.6758  34.7419  34.9710
    37.2061  37.2944  39.2171  41.0300  41.4584  41.8269  41.8865  42.0682
    42.2840  43.2138  43.8740  44.1663  45.0610  45.6265  47.4122  47.7282
    51.9354  52.4430  52.7894  53.0983  53.2114  53.7222  53.8929  54.0467
    54.2392  54.3577  55.2311  55.4981  55.7400  56.3370  56.4029  56.9322
    56.9827  57.8789  58.0255  58.3639  59.1702

          k = 0.4000-0.5000 0.1429 (  2650 PWs)   bands (ev):

   -52.8765 -52.7990 -52.7403 -52.7383 -52.6754 -52.5937 -21.5076 -21.5074
   -16.6757 -15.9175 -15.5307 -15.5142 -15.1348 -15.0479 -15.0031 -14.9705
   -14.9140 -14.8683 -14.8682 -14.7302 -14.7095 -14.6958 -14.6277 -14.6254
   -14.6139 -14.2722   6.7956   6.8180   6.8287   6.8440   6.8669   6.8707
    26.0910  27.3089  27.3507  28.3514  28.3557  28.5358  28.5644  29.1355
    29.1738  29.2458  29.6064  29.7444  29.8796  30.0166  30.1033  30.3183
    30.6556  30.9663  31.3200  31.4732  31.5954  31.7828  31.8084  32.1931
    32.2590  32.4236  32.9620  33.0874  33.3729  34.6340  35.3635  35.4134
    37.4320  37.5068  39.0777  40.8620  41.6646  41.7896  41.8671  42.0269
    42.2107  43.1669  43.9068  44.0746  44.9474  46.0472  46.5098  46.9520
    51.6859  51.8718  52.7406  52.9186  53.7888  54.0758  54.1158  54.4701
    54.8589  54.8973  55.6354  55.8301  56.2496  56.4794  56.5131  56.7129
    57.0039  58.0004  58.0644  58.4037  58.5190

          k = 0.4000-0.5000 0.2857 (  2640 PWs)   bands (ev):

   -52.8303 -52.7932 -52.7287 -52.7279 -52.6658 -52.6270 -21.5112 -21.5110
   -16.3275 -15.9153 -15.5268 -15.5191 -15.1439 -15.0014 -14.9971 -14.9251
   -14.9227 -14.8290 -14.8196 -14.7420 -14.7094 -14.6842 -14.6735 -14.6506
   -14.6502 -14.6367   6.8178   6.8321   6.8324   6.8437   6.8471   6.8505
    27.2494  27.8219  27.8582  28.3957  28.4317  28.4952  28.8743  29.1341
    29.1356  29.3036  29.3437  29.4139  29.5489  29.7078  29.8667  29.9704
    30.9205  31.0435  31.2355  31.3325  31.3816  31.5208  31.8238  32.1422
    32.2458  32.4237  32.5062  32.6131  32.7276  33.6016  36.5563  36.5682
    37.9912  38.0974  38.8450  39.7136  41.9877  42.0472  42.1832  42.3575
    42.4039  43.0977  43.6200  43.6462  44.3593  44.7708  45.9098  46.5848
    50.7328  51.6781  52.8443  53.2945  53.9430  54.9566  55.0909  55.2564
    55.7318  55.9946  56.0256  56.1081  56.1742  56.6144  57.0106  57.2928
    57.5587  57.8969  58.1918  58.6002  58.6392

          k = 0.4000-0.5000 0.4286 (  2640 PWs)   bands (ev):

   -52.7815 -52.7682 -52.7307 -52.7255 -52.6832 -52.6754 -21.5149 -21.5146
   -15.9225 -15.8122 -15.5332 -15.5309 -15.2586 -15.1534 -15.0031 -15.0013
   -14.8580 -14.8382 -14.7930 -14.7869 -14.7502 -14.7379 -14.6859 -14.6797
   -14.6785 -14.6748   6.8291   6.8323   6.8377   6.8379   6.8408   6.8412
    28.4015  28.4132  28.4900  28.5716  28.5874  28.7526  28.8886  28.9402
    29.2900  29.3006  29.3565  29.3667  29.4129  29.5016  29.5831  29.5920
    30.8737  30.8740  30.9574  30.9969  31.2073  31.2262  31.7931  32.0090
    32.0579  32.1655  32.3133  32.3573  32.5142  32.5534  37.7373  37.7379
    38.4166  38.5308  38.7775  39.0017  42.2206  42.2315  42.4510  42.4982
    42.6099  42.6412  43.0106  43.2844  44.1688  44.2099  45.1514  45.4679
    51.7837  52.1573  53.2062  53.4095  54.0124  54.3367  55.1216  55.3966
    55.8480  55.9563  56.2737  56.2842  57.2656  57.3010  57.3910  57.4698
    57.6251  57.7302  58.5073  58.5953  58.9258

     the Fermi energy is    52.6443 ev

!    total energy              =   -2368.11389970 Ry
     Harris-Foulkes estimate   =   -2368.11395839 Ry
     estimated scf accuracy    <       0.00005487 Ry

     The total energy is the sum of the following terms:

     one-electron contribution =       6.29270229 Ry
     hartree contribution      =     233.78224998 Ry
     xc contribution           =    -217.15638513 Ry
     ewald contribution        =   -2390.75738172 Ry
     smearing contrib. (-TS)   =      -0.27508512 Ry

     convergence has been achieved in   9 iterations

     Forces acting on atoms (Ry/au):

     atom    1 type  1   force =     0.00000000    0.00000000    0.00000000
     atom    2 type  1   force =     0.00000000    0.00000000    0.00000000
     atom    3 type  1   force =     0.00000000    0.00000000    0.00000000
     atom    4 type  1   force =     0.00000000    0.00000000    0.00000000
     atom    5 type  1   force =     0.00000000    0.00000000    0.00000000
     atom    6 type  1   force =     0.00000000    0.00000000    0.00000000
     atom    7 type  2   force =     0.00000000    0.00000000    0.00000000
     atom    8 type  2   force =     0.00000000    0.00000000    0.00000000

     Total force =     0.000000     Total SCF correction =     0.000000


     entering subroutine stress ...

          total   stress  (Ry/bohr**3)                   (kbar)     P= 5725.50
   0.03892118   0.00000000   0.00000000       5725.50      0.00      0.00
   0.00000000   0.03892118   0.00000000          0.00   5725.50      0.00
   0.00000000   0.00000000   0.03892118          0.00      0.00   5725.50


     BFGS Geometry Optimization

     number of scf cycles    =   1
     number of bfgs steps    =   0

     enthalpy new            =   -2368.1138996985 Ry

     new trust radius        =       0.5000000000 bohr
     new conv_thr            =       0.0001000000 Ry

     new unit-cell volume =    828.02266 a.u.^3 (   122.70030 Ang^3 )

CELL_PARAMETERS (alat=  8.53457320)
   1.100269143   0.000000000   0.000000000
   0.000000000   1.100269143   0.000000000
   0.000000000   0.000000000   1.100269143

ATOMIC_POSITIONS (crystal)
Cr       0.000000000   0.500000000   0.250000000
Cr       0.000000000   0.500000000   0.750000000
Cr       0.500000000   0.750000000   0.000000000
Cr       0.500000000   0.250000000   0.000000000
Cr       0.750000000   0.000000000   0.500000000
Cr       0.250000000   0.000000000   0.500000000
Si       0.500000000   0.500000000   0.500000000
Si       0.000000000   0.000000000   0.000000000



     Writing output data file Prototype-La-cP8-Cr3Si.save
     NEW-OLD atomic charge density approx. for the potential
     NEW k-points:
        k(    1) = (   0.0000000   0.0000000   0.0000000), wk =   0.0095238
        k(    2) = (   0.0000000   0.0000000   0.1298384), wk =   0.0190476
        k(    3) = (   0.0000000   0.0000000   0.2596767), wk =   0.0190476
        k(    4) = (   0.0000000   0.0000000   0.3895151), wk =   0.0190476
        k(    5) = (   0.0000000   0.1514781   0.0000000), wk =   0.0190476
        k(    6) = (   0.0000000   0.1514781   0.1298384), wk =   0.0380952
        k(    7) = (   0.0000000   0.1514781   0.2596767), wk =   0.0380952
        k(    8) = (   0.0000000   0.1514781   0.3895151), wk =   0.0380952
        k(    9) = (   0.0000000   0.3029562   0.0000000), wk =   0.0190476
        k(   10) = (   0.0000000   0.3029562   0.1298384), wk =   0.0380952
        k(   11) = (   0.0000000   0.3029562   0.2596767), wk =   0.0380952
        k(   12) = (   0.0000000   0.3029562   0.3895151), wk =   0.0380952
        k(   13) = (   0.0000000  -0.4544343   0.0000000), wk =   0.0095238
        k(   14) = (   0.0000000  -0.4544343   0.1298384), wk =   0.0190476
        k(   15) = (   0.0000000  -0.4544343   0.2596767), wk =   0.0190476
        k(   16) = (   0.0000000  -0.4544343   0.3895151), wk =   0.0190476
        k(   17) = (   0.1817737   0.0000000   0.0000000), wk =   0.0190476
        k(   18) = (   0.1817737   0.0000000   0.1298384), wk =   0.0380952
        k(   19) = (   0.1817737   0.0000000   0.2596767), wk =   0.0380952
        k(   20) = (   0.1817737   0.0000000   0.3895151), wk =   0.0380952
        k(   21) = (   0.1817737   0.1514781   0.0000000), wk =   0.0380952
        k(   22) = (   0.1817737   0.1514781   0.1298384), wk =   0.0761905
        k(   23) = (   0.1817737   0.1514781   0.2596767), wk =   0.0761905
        k(   24) = (   0.1817737   0.1514781   0.3895151), wk =   0.0761905
        k(   25) = (   0.1817737   0.3029562   0.0000000), wk =   0.0380952
        k(   26) = (   0.1817737   0.3029562   0.1298384), wk =   0.0761905
        k(   27) = (   0.1817737   0.3029562   0.2596767), wk =   0.0761905
        k(   28) = (   0.1817737   0.3029562   0.3895151), wk =   0.0761905
        k(   29) = (   0.1817737  -0.4544343   0.0000000), wk =   0.0190476
        k(   30) = (   0.1817737  -0.4544343   0.1298384), wk =   0.0380952
        k(   31) = (   0.1817737  -0.4544343   0.2596767), wk =   0.0380952
        k(   32) = (   0.1817737  -0.4544343   0.3895151), wk =   0.0380952
        k(   33) = (   0.3635474   0.0000000   0.0000000), wk =   0.0190476
        k(   34) = (   0.3635474   0.0000000   0.1298384), wk =   0.0380952
        k(   35) = (   0.3635474   0.0000000   0.2596767), wk =   0.0380952
        k(   36) = (   0.3635474   0.0000000   0.3895151), wk =   0.0380952
        k(   37) = (   0.3635474   0.1514781   0.0000000), wk =   0.0380952
        k(   38) = (   0.3635474   0.1514781   0.1298384), wk =   0.0761905
        k(   39) = (   0.3635474   0.1514781   0.2596767), wk =   0.0761905
        k(   40) = (   0.3635474   0.1514781   0.3895151), wk =   0.0761905
        k(   41) = (   0.3635474   0.3029562   0.0000000), wk =   0.0380952
        k(   42) = (   0.3635474   0.3029562   0.1298384), wk =   0.0761905
        k(   43) = (   0.3635474   0.3029562   0.2596767), wk =   0.0761905
        k(   44) = (   0.3635474   0.3029562   0.3895151), wk =   0.0761905
        k(   45) = (   0.3635474  -0.4544343   0.0000000), wk =   0.0190476
        k(   46) = (   0.3635474  -0.4544343   0.1298384), wk =   0.0380952
        k(   47) = (   0.3635474  -0.4544343   0.2596767), wk =   0.0380952
        k(   48) = (   0.3635474  -0.4544343   0.3895151), wk =   0.0380952

     total cpu time spent up to now is      313.9 secs

     Self-consistent Calculation

     iteration #  1     ecut=    40.00 Ry     beta=0.70
     CG style diagonalization
     c_bands:  3 eigenvalues not converged
     c_bands:  1 eigenvalues not converged
     c_bands:  2 eigenvalues not converged
     c_bands:  2 eigenvalues not converged
     c_bands:  2 eigenvalues not converged
     c_bands:  1 eigenvalues not converged
     c_bands:  1 eigenvalues not converged
     c_bands:  1 eigenvalues not converged
     c_bands:  1 eigenvalues not converged
     c_bands:  1 eigenvalues not converged
     c_bands:  1 eigenvalues not converged
     c_bands:  1 eigenvalues not converged
     c_bands:  2 eigenvalues not converged
     c_bands:  1 eigenvalues not converged
     ethr =  1.00E-06,  avg # of iterations = 21.5

     total cpu time spent up to now is      411.1 secs

     total energy              =   -2358.26192817 Ry
     Harris-Foulkes estimate   =   -2392.34185961 Ry
     estimated scf accuracy    <      43.16450589 Ry

     iteration #  2     ecut=    40.00 Ry     beta=0.70
     CG style diagonalization
     ethr =  1.00E-02,  avg # of iterations =  4.0

     total cpu time spent up to now is      430.4 secs

     total energy              =   -2370.36568067 Ry
     Harris-Foulkes estimate   =   -2374.59717189 Ry
     estimated scf accuracy    <       6.29626693 Ry

     iteration #  3     ecut=    40.00 Ry     beta=0.70
     CG style diagonalization
     ethr =  3.75E-03,  avg # of iterations =  3.6

     total cpu time spent up to now is      448.4 secs

     total energy              =   -2372.06342650 Ry
     Harris-Foulkes estimate   =   -2372.49419918 Ry
     estimated scf accuracy    <       0.83167495 Ry

     iteration #  4     ecut=    40.00 Ry     beta=0.70
     CG style diagonalization
     ethr =  4.95E-04,  avg # of iterations =  3.3

     total cpu time spent up to now is      464.8 secs

     total energy              =   -2372.23332710 Ry
     Harris-Foulkes estimate   =   -2372.23653214 Ry
     estimated scf accuracy    <       0.00622397 Ry

     iteration #  5     ecut=    40.00 Ry     beta=0.70
     CG style diagonalization
     c_bands:  1 eigenvalues not converged
     c_bands:  2 eigenvalues not converged
     c_bands:  1 eigenvalues not converged
     c_bands:  1 eigenvalues not converged
     c_bands:  1 eigenvalues not converged
     c_bands:  1 eigenvalues not converged
     c_bands:  1 eigenvalues not converged
     c_bands:  1 eigenvalues not converged
     c_bands:  1 eigenvalues not converged
     c_bands:  1 eigenvalues not converged
     c_bands:  1 eigenvalues not converged
     c_bands:  2 eigenvalues not converged
     ethr =  3.70E-06,  avg # of iterations =  4.8

     total cpu time spent up to now is      489.2 secs

     total energy              =   -2372.23731047 Ry
     Harris-Foulkes estimate   =   -2372.23891778 Ry
     estimated scf accuracy    <       0.00205081 Ry

     iteration #  6     ecut=    40.00 Ry     beta=0.70
     CG style diagonalization
     c_bands:  1 eigenvalues not converged
     c_bands:  1 eigenvalues not converged
     ethr =  1.22E-06,  avg # of iterations =  3.9

     total cpu time spent up to now is      509.3 secs

     total energy              =   -2372.23813290 Ry
     Harris-Foulkes estimate   =   -2372.23862375 Ry
     estimated scf accuracy    <       0.00111068 Ry

     iteration #  7     ecut=    40.00 Ry     beta=0.70
     CG style diagonalization
     ethr =  6.61E-07,  avg # of iterations =  3.2

     total cpu time spent up to now is      524.7 secs

     End of self-consistent calculation

          k = 0.0000 0.0000 0.0000 (  2601 PWs)   bands (ev):

   -64.1593 -64.1593 -63.8542 -63.7622 -63.7622 -63.7622 -32.6179 -32.5797
   -27.3197 -27.3197 -27.2812 -26.6287 -26.6287 -26.6287 -26.4970 -26.4970
   -26.4970 -26.4033 -26.4033 -26.4033 -26.3814 -26.3814 -26.3814 -26.3026
   -26.3026 -26.3026  -3.8447  -3.8447  -3.8447  -3.8248  -3.8248  -3.8248
    16.1348  16.1348  16.1422  17.3342  17.3342  17.3342  18.5546  18.5546
    18.5546  18.6550  19.1974  19.2287  19.2287  19.2805  19.2805  19.2805
    20.2965  20.2965  20.2965  20.4368  20.9042  20.9042  21.0265  21.0265
    21.0265  21.0538  21.0538  21.0538  21.6578  21.6578  21.6578  25.7783
    25.7783  29.6149  29.6149  29.7981  29.7981  29.7981  29.8215  29.8215
    29.8215  30.1266  30.1266  30.1266  33.0294  35.0369  35.0369  36.4217
    36.4217  36.4217  37.8301  37.8301  39.0879  39.0879  39.0879  39.5876
    41.1528  41.1528  41.1528  41.9132  42.5549  42.5549  42.5549  43.1642
    43.1642  43.1642  44.4197  44.4197  44.4197

          k = 0.0000 0.0000 0.1298 (  2657 PWs)   bands (ev):

   -64.1813 -64.1212 -63.9703 -63.9455 -63.9455 -63.9105 -32.6340 -32.6209
   -27.3628 -27.3552 -27.2955 -26.6310 -26.6310 -26.6223 -26.5042 -26.5042
   -26.4701 -26.4623 -26.4623 -26.4511 -26.4333 -26.4333 -26.4286 -26.3627
   -26.3222 -26.3222  -3.8657  -3.8657  -3.8638  -3.8482  -3.8470  -3.8470
    16.1346  16.1451  16.3908  17.2949  17.3895  17.3895  18.3836  18.5735
    18.5735  18.6877  19.2407  19.2407  19.2434  19.2737  19.2923  19.2987
    20.2406  20.2717  20.2717  20.6109  20.7598  20.7980  20.8281  20.8281
    21.0418  21.0418  21.1001  21.1495  21.3799  21.7505  21.7505  25.5791
    25.8987  29.1456  29.1599  29.1599  29.3248  29.8202  29.8432  29.9555
    29.9555  30.1365  30.8615  30.8615  33.4405  34.8606  35.5552  35.7461
    36.5475  36.5877  36.5877  38.4895  38.4895  39.0169  39.3395  40.5406
    41.1414  41.2333  41.2333  41.8743  42.2836  42.2836  42.6970  42.9642
    43.4631  43.4631  44.5266  44.5266  44.7394

          k = 0.0000 0.0000 0.2597 (  2677 PWs)   bands (ev):

   -64.1769 -64.1204 -64.0493 -63.9852 -63.9775 -63.9775 -32.6429 -32.6347
   -27.3637 -27.3527 -27.1705 -26.6212 -26.6212 -26.6035 -26.5608 -26.5192
   -26.5192 -26.5093 -26.4700 -26.4700 -26.4494 -26.4471 -26.4471 -26.4375
   -26.3389 -26.3389  -3.8754  -3.8704  -3.8682  -3.8682  -3.8515  -3.8515
    16.1412  16.1500  17.1137  17.2833  17.5404  17.5404  18.0353  18.6672
    18.6672  18.8067  19.1719  19.1719  19.2366  19.2867  19.3757  19.5130
    20.1238  20.2053  20.2053  20.3858  20.3858  20.5897  20.6304  20.6556
    21.0539  21.0539  21.1577  21.1906  21.2408  21.9094  21.9094  24.7046
    26.2233  28.3117  28.6427  28.6427  29.1409  29.9598  30.0335  30.0335
    30.1533  30.3264  32.0183  32.0183  33.3086  33.8816  35.2619  35.5325
    36.5731  36.5731  37.3672  37.8028  37.8028  39.5513  40.3058  41.1581
    41.1581  41.1935  41.6447  41.6447  41.6572  42.0119  42.4653  42.6717
    44.4570  44.4570  44.7646  44.7647  45.6308

          k = 0.0000 0.0000 0.3895 (  2658 PWs)   bands (ev):

   -64.0877 -64.0641 -64.0385 -63.9945 -63.9503 -63.9503 -32.6318 -32.6290
   -27.3618 -27.3555 -26.9637 -26.7400 -26.6158 -26.6158 -26.5459 -26.5285
   -26.5060 -26.5060 -26.4525 -26.4525 -26.4411 -26.4394 -26.4394 -26.4348
   -26.3370 -26.3370  -3.8644  -3.8598  -3.8598  -3.8571  -3.8514  -3.8514
    16.1533  16.1574  17.3961  17.6480  17.6679  17.6679  18.2206  18.7576
    18.7576  18.9769  19.1361  19.2682  19.2682  19.2778  19.4086  19.4965
    19.7749  19.7749  19.8308  19.9696  20.2789  20.2789  20.5115  20.5484
    21.0703  21.0703  21.2530  21.2710  22.0088  22.0088  22.1174  23.3719
    26.7403  27.4514  28.3620  28.3620  29.8595  30.0773  30.0940  30.0940
    30.1446  30.6023  32.7393  32.8303  33.3158  33.3158  35.1819  35.2730
    35.3185  35.3185  38.5107  38.5107  39.4018  39.9351  40.0355  40.0355
    40.4165  41.1922  41.4213  41.8797  41.9838  41.9838  42.5074  42.6275
    44.7205  44.7205  45.6160  45.6160  46.0914

          k = 0.0000 0.1515 0.0000 (  2653 PWs)   bands (ev):

   -64.1532 -64.1116 -63.9729 -63.9469 -63.9469 -63.9038 -32.6311 -32.6208
   -27.3623 -27.3513 -27.2827 -26.6245 -26.6245 -26.6073 -26.5052 -26.5052
   -26.4735 -26.4608 -26.4608 -26.4505 -26.4343 -26.4343 -26.4294 -26.3740
   -26.3198 -26.3198  -3.8635  -3.8635  -3.8597  -3.8486  -3.8467  -3.8467
    16.1370  16.1472  16.4812  17.2887  17.4109  17.4109  18.3335  18.5847
    18.5847  18.7027  19.2296  19.2296  19.2508  19.2708  19.3096  19.3307
    20.2250  20.2667  20.2667  20.6769  20.7293  20.7633  20.7633  20.7746
    21.0448  21.0448  21.1166  21.1684  21.2859  21.7781  21.7781  25.4913
    25.9402  29.0013  29.0605  29.0605  29.2472  29.8595  29.8909  29.9687
    29.9687  30.1397  31.0370  31.0370  33.4737  34.7738  35.5722  35.8536
    36.2998  36.6465  36.6465  38.3173  38.3173  39.2855  39.3707  40.7722
    41.1429  41.2854  41.2854  41.8770  42.1227  42.1227  42.7287  42.8986
    43.6341  43.6341  44.5462  44.5462  44.8522

          k = 0.0000 0.1515 0.1298 (  2662 PWs)   bands (ev):

   -64.1341 -64.1137 -64.0198 -63.9701 -63.9560 -63.9401 -32.6405 -32.6227
   -27.3645 -27.3183 -27.2761 -26.6219 -26.6180 -26.6122 -26.5122 -26.5079
   -26.4770 -26.4668 -26.4648 -26.4489 -26.4421 -26.4406 -26.4223 -26.4065
   -26.3733 -26.3276  -3.8702  -3.8686  -3.8640  -3.8599  -3.8438  -3.8427
    16.1438  16.3960  16.4840  17.3447  17.3963  17.4809  18.3717  18.4367
    18.6119  18.7392  19.1262  19.1621  19.3189  19.3308  19.3429  19.4197
    20.1409  20.2335  20.2824  20.5478  20.6266  20.7235  20.8461  20.8817
[...]
    32.4912  32.5347  33.2970  33.6263  33.6846  33.7787  34.5814  34.5934
    34.7669  35.0765  35.1831  35.9300  36.0932

          k = 0.3363 0.0000 0.0000 (  4476 PWs)   bands (ev):

   -72.7053 -72.7041 -72.6877 -72.6733 -72.6733 -72.6710 -40.2564 -40.2553
   -35.0424 -35.0234 -34.8616 -34.7148 -34.6502 -34.6502 -34.6176 -34.6121
   -34.6121 -34.6002 -34.5901 -34.5844 -34.5843 -34.5697 -34.5684 -34.5684
   -34.5641 -34.5641 -11.3557 -11.3557 -11.3499 -11.3499 -11.3498 -11.3496
     9.8799   9.8810  10.8536  10.9939  10.9939  11.0165  11.1190  11.6896
    11.6897  11.8282  11.9644  11.9842  11.9842  12.0482  12.1109  12.1688
    12.3298  12.3298  12.3397  12.4054  12.5558  12.5558  12.6669  12.6924
    12.9855  12.9855  13.0930  13.1064  13.6474  13.6474  15.4184  16.7518
    19.6184  20.5797  21.6611  21.6611  22.3519  22.3831  22.3831  22.9689
    23.1562  23.2871  24.3877  24.4585  25.0443  25.0443  26.2694  26.2890
    26.6650  26.6650  29.1036  29.1036  29.6969  30.3580  30.7174  31.1834
    31.1834  31.9790  32.3522  32.5484  32.9291  33.5067  33.5068  33.7719
    36.0432  36.0433  36.5061  36.5062  37.2950

          k = 0.3363 0.0000 0.1201 (  4470 PWs)   bands (ev):

   -72.6962 -72.6927 -72.6898 -72.6811 -72.6733 -72.6679 -40.2558 -40.2554
   -35.0298 -35.0085 -34.8657 -34.7200 -34.6396 -34.6386 -34.6190 -34.6106
   -34.6068 -34.5984 -34.5932 -34.5860 -34.5828 -34.5788 -34.5782 -34.5717
   -34.5670 -34.5568 -11.3551 -11.3548 -11.3512 -11.3496 -11.3491 -11.3471
     9.8823  10.0473  10.8894  10.9862  11.0373  11.0559  11.1419  11.6598
    11.7067  11.8026  11.8848  11.9287  12.0626  12.0676  12.1323  12.1762
    12.3245  12.3247  12.3741  12.4118  12.4770  12.5590  12.6456  12.7375
    12.8914  12.9896  13.0079  13.0932  13.4662  13.6540  15.5658  16.8852
    19.3710  20.3130  21.4396  21.6559  22.1735  22.3043  22.7534  23.0877
    23.2740  23.3251  24.2411  24.4078  25.0646  25.0726  25.6256  26.6571
    26.7610  27.4976  28.6123  28.8838  29.6698  30.3326  30.6738  31.2776
    31.7514  32.2524  32.4639  32.8622  32.8990  33.7266  33.7293  33.7937
    35.9790  35.9800  36.3536  36.4378  37.0596

          k = 0.3363 0.0000 0.2402 (  4466 PWs)   bands (ev):

   -72.7004 -72.6898 -72.6833 -72.6796 -72.6762 -72.6660 -40.2565 -40.2546
   -35.0340 -34.9477 -34.8680 -34.7231 -34.6430 -34.6324 -34.6255 -34.6152
   -34.6116 -34.6092 -34.6067 -34.5975 -34.5862 -34.5841 -34.5750 -34.5670
   -34.5645 -34.5477 -11.3563 -11.3543 -11.3525 -11.3490 -11.3485 -11.3450
     9.8863  10.5188  10.9484  10.9773  11.0622  11.2213  11.2766  11.5726
    11.7063  11.7731  11.7966  11.9703  12.0066  12.1334  12.1840  12.2030
    12.2670  12.2922  12.3537  12.3660  12.4734  12.5465  12.5839  12.7112
    12.7742  12.8220  12.9706  12.9967  13.0706  13.6659  15.9901  17.2733
    18.5630  19.5645  21.5548  21.6461  22.1857  22.4158  23.0132  23.1964
    23.3412  23.6873  24.0989  24.3006  24.6528  24.7261  25.1626  26.5122
    27.7047  28.3649  28.5473  28.9151  29.4983  29.8873  30.6315  31.2374
    32.6889  32.7905  33.0434  33.1258  33.4671  33.5447  34.2066  34.3920
    35.0542  35.7767  36.2712  36.2745  36.6047

          k = 0.3363 0.0000 0.3603 (  4464 PWs)   bands (ev):

   -72.6962 -72.6904 -72.6880 -72.6759 -72.6742 -72.6682 -40.2558 -40.2555
   -35.0369 -34.8727 -34.8498 -34.7427 -34.7214 -34.6244 -34.6202 -34.6144
   -34.6115 -34.6057 -34.6020 -34.5968 -34.5943 -34.5917 -34.5789 -34.5686
   -34.5633 -34.5370 -11.3572 -11.3536 -11.3522 -11.3490 -11.3483 -11.3457
     9.8894  10.9716  10.9807  11.0585  11.2089  11.4019  11.4556  11.5808
    11.6545  11.7379  11.8498  11.8576  12.0280  12.0504  12.1226  12.1646
    12.2054  12.2099  12.3086  12.3226  12.4828  12.5091  12.5172  12.5265
    12.5686  12.6441  12.8841  13.0003  13.0369  13.6733  16.6633  17.5483
    17.8938  18.6859  21.6421  22.1080  22.1148  22.7627  22.9738  23.2534
    23.5753  23.7541  23.9326  24.0144  24.2260  24.3226  25.4873  26.0534
    28.0948  28.3034  28.5480  29.2394  29.6123  30.5645  31.0546  31.3765
    32.7588  32.8078  33.0030  33.1346  33.3736  33.7938  34.6566  34.7175
    35.1345  35.5093  35.6425  36.4005  36.7961

          k = 0.3363 0.1401 0.0000 (  4460 PWs)   bands (ev):

   -72.6932 -72.6870 -72.6849 -72.6775 -72.6680 -72.6641 -40.2554 -40.2546
   -35.0303 -34.9977 -34.8641 -34.7194 -34.6373 -34.6355 -34.6162 -34.6066
   -34.6045 -34.5959 -34.5958 -34.5826 -34.5806 -34.5768 -34.5745 -34.5705
   -34.5605 -34.5555 -11.3548 -11.3526 -11.3506 -11.3494 -11.3467 -11.3455
     9.8829  10.1063  10.8998  10.9843  11.0430  11.0775  11.1536  11.6487
    11.7121  11.7909  11.8663  11.9358  12.0482  12.0807  12.1456  12.1815
    12.3209  12.3233  12.3730  12.4214  12.4574  12.5589  12.6353  12.7507
    12.8616  12.9768  12.9911  13.0906  13.4025  13.6560  15.6185  16.9342
    19.2720  20.2150  21.4178  21.6544  22.1809  22.2838  22.8111  23.1242
    23.2665  23.3800  24.2069  24.4031  25.0329  25.0731  25.4755  26.6496
    26.9183  27.7104  28.5458  28.8209  29.6238  30.3321  30.5442  31.3796
    31.9191  32.3233  32.5449  32.9252  32.9304  33.7414  33.8098  33.8374
    35.9000  35.9514  36.3198  36.4431  37.0201

          k = 0.3363 0.1401 0.1201 (  4453 PWs)   bands (ev):

   -72.6958 -72.6837 -72.6803 -72.6765 -72.6647 -72.6564 -40.2549 -40.2544
   -35.0085 -34.9917 -34.8631 -34.7188 -34.6317 -34.6295 -34.6123 -34.6104
   -34.6036 -34.5999 -34.5851 -34.5837 -34.5828 -34.5780 -34.5765 -34.5703
   -34.5666 -34.5592 -11.3529 -11.3527 -11.3524 -11.3469 -11.3453 -11.3448
    10.0497  10.1082  10.9489  11.0368  11.0568  11.0781  11.1763  11.6660
    11.6842  11.7868  11.8442  11.9003  12.0220  12.1162  12.1359  12.2065
    12.2777  12.3103  12.3971  12.4231  12.4902  12.5327  12.6776  12.7034
    12.8605  12.8937  12.9709  13.0001  13.4093  13.4767  15.7668  17.0710
    19.2295  20.1633  20.7523  21.3473  22.3964  22.6281  22.8461  23.1663
    23.2801  23.4749  24.1229  24.3718  24.6485  25.3318  25.6681  26.1304
    27.1706  27.6411  28.7061  28.8731  30.0718  30.4180  31.0715  31.3898
    31.6967  32.3796  32.4906  32.8967  33.5037  33.6348  33.8366  34.1657
    35.7967  36.0102  36.1727  36.3809  36.4845

          k = 0.3363 0.1401 0.2402 (  4467 PWs)   bands (ev):

   -72.7019 -72.6904 -72.6866 -72.6837 -72.6726 -72.6659 -40.2560 -40.2555
   -34.9994 -34.9444 -34.8712 -34.7241 -34.6419 -34.6305 -34.6273 -34.6177
   -34.6113 -34.6040 -34.6012 -34.5982 -34.5900 -34.5868 -34.5827 -34.5798
   -34.5695 -34.5663 -11.3560 -11.3555 -11.3515 -11.3501 -11.3484 -11.3457
    10.1122  10.5218  11.0338  11.0460  11.0870  11.2228  11.2963  11.5899
    11.7152  11.7399  11.7884  11.9273  12.0075  12.0958  12.1666  12.1828
    12.2153  12.2914  12.3938  12.4295  12.4806  12.5484  12.6045  12.6949
    12.7377  12.7844  12.8613  12.9468  12.9873  13.4237  16.1951  17.4567
    18.6998  19.6688  20.4542  21.0442  22.6008  22.8998  23.0552  23.2413
    23.3625  23.7131  23.9664  24.3155  24.4301  24.7496  25.3810  25.5876
    27.8139  28.3352  28.6161  29.6413  30.1352  30.8674  30.9729  31.3349
    32.2101  32.6716  33.0155  33.2968  33.5333  33.7922  34.0676  34.5878
    35.1919  35.7077  35.9905  36.2722  36.3540

          k = 0.3363 0.1401 0.3603 (  4474 PWs)   bands (ev):

   -72.7003 -72.6919 -72.6887 -72.6842 -72.6822 -72.6741 -40.2565 -40.2562
   -35.0044 -34.8751 -34.8528 -34.7457 -34.7210 -34.6288 -34.6226 -34.6190
   -34.6159 -34.6079 -34.6033 -34.5988 -34.5946 -34.5943 -34.5784 -34.5774
   -34.5744 -34.5690 -11.3574 -11.3552 -11.3531 -11.3499 -11.3493 -11.3490
    10.1154  11.0382  11.0755  11.0957  11.2104  11.4083  11.4690  11.5881
    11.6964  11.7329  11.8138  11.8632  11.9869  12.0030  12.0711  12.1168
    12.1945  12.2385  12.3185  12.3504  12.4671  12.4853  12.5262  12.5625
    12.6284  12.6349  12.7914  12.8595  12.9157  13.4318  16.8681  17.7230
    18.0903  18.8434  20.6997  21.0352  22.7214  22.9124  23.2417  23.2802
    23.5939  23.9147  23.9714  24.1591  24.1835  24.2452  25.0372  25.1393
    28.4297  28.6490  29.0882  29.8972  30.0916  30.9611  31.2404  31.6927
    32.5808  32.9425  33.0071  33.5304  33.6214  33.7966  34.2739  34.6385
    35.0367  35.2105  35.5765  36.3213  36.5380

          k = 0.3363 0.2802 0.0000 (  4471 PWs)   bands (ev):

   -72.7054 -72.6889 -72.6848 -72.6834 -72.6802 -72.6681 -40.2567 -40.2552
   -35.0331 -34.9214 -34.8720 -34.7232 -34.6751 -34.6293 -34.6282 -34.6179
   -34.6129 -34.6120 -34.6059 -34.6005 -34.5917 -34.5902 -34.5748 -34.5672
   -34.5622 -34.5475 -11.3571 -11.3560 -11.3537 -11.3485 -11.3483 -11.3466
     9.8874  10.7278  10.9626  10.9788  11.0652  11.2877  11.3526  11.5426
    11.6852  11.7785  11.7956  11.9374  12.0367  12.1508  12.1741  12.1930
    12.2293  12.2699  12.3374  12.3480  12.4872  12.5350  12.5704  12.6726
    12.6894  12.7703  12.8440  12.9984  13.0595  13.6692  16.1893  17.4514
    18.2287  19.2693  21.6440  21.7053  22.1554  22.5850  23.0081  23.1882
    23.4313  23.7963  24.0553  24.1929  24.4674  24.5152  25.2369  26.3929
    27.9035  28.3694  28.5033  29.1926  29.6431  29.8156  30.8336  31.0871
    32.8199  32.9581  33.1432  33.1956  33.3324  33.7899  34.3793  34.6639
    34.6783  35.7152  36.0770  36.3083  36.5476

          k = 0.3363 0.2802 0.1201 (  4469 PWs)   bands (ev):

   -72.6970 -72.6933 -72.6852 -72.6827 -72.6787 -72.6695 -40.2568 -40.2550
   -35.0088 -34.9171 -34.8720 -34.7243 -34.6776 -34.6294 -34.6253 -34.6199
   -34.6097 -34.6080 -34.6008 -34.5980 -34.5919 -34.5911 -34.5778 -34.5716
   -34.5711 -34.5629 -11.3567 -11.3553 -11.3545 -11.3492 -11.3482 -11.3454
    10.0543  10.7312  11.0294  11.0360  11.0783  11.2898  11.3649  11.5527
    11.7126  11.7571  11.7721  11.9302  12.0188  12.1017  12.1404  12.1856
    12.1948  12.2865  12.3757  12.3803  12.4942  12.5300  12.5901  12.6570
    12.7080  12.7731  12.7815  12.8976  12.9693  13.4903  16.3406  17.5846
    18.3572  19.3683  20.6932  21.2153  22.5428  22.9041  23.1195  23.2235
    23.4384  23.8139  23.9862  24.2835  24.3714  24.4737  25.2980  25.5560
    28.0119  28.5460  28.6611  29.7121  29.9352  30.6490  31.0221  31.2050
    32.5220  32.8084  33.2166  33.4618  33.5259  33.7061  34.1455  34.6456
    34.9262  35.5819  35.9863  36.3299  36.4402

          k = 0.3363 0.2802 0.2402 (  4471 PWs)   bands (ev):

   -72.6976 -72.6958 -72.6897 -72.6878 -72.6752 -72.6692 -40.2566 -40.2560
   -34.9394 -34.9143 -34.8696 -34.7249 -34.6782 -34.6496 -34.6260 -34.6239
   -34.6207 -34.6112 -34.6066 -34.6008 -34.5995 -34.5886 -34.5866 -34.5815
   -34.5791 -34.5710 -11.3555 -11.3540 -11.3522 -11.3511 -11.3496 -11.3489
    10.5274  10.7376  11.0617  11.2056  11.2441  11.3087  11.4091  11.5813
    11.6429  11.7440  11.7755  11.9158  12.0079  12.0344  12.0973  12.1118
    12.1762  12.3175  12.4021  12.4177  12.5052  12.5088  12.5709  12.5895
    12.6354  12.7062  12.7327  12.7737  12.8032  12.9987  16.7705  17.9456
    18.6269  19.5721  19.7059  20.2189  22.9998  23.0604  23.1784  23.2565
    23.3885  23.4524  23.9623  24.1131  24.2168  24.6800  24.7733  25.1696
    28.4858  28.6124  29.0227  30.6513  31.2575  31.4905  31.6003  31.8705
    32.3726  32.6616  32.8177  33.3990  33.5473  33.8755  34.1277  34.6888
    35.0420  35.2959  35.5778  35.7544  35.9940

          k = 0.3363 0.2802 0.3603 (  4472 PWs)   bands (ev):

   -72.6972 -72.6938 -72.6877 -72.6843 -72.6824 -72.6734 -40.2571 -40.2559
   -34.9098 -34.8706 -34.8516 -34.7456 -34.7246 -34.6761 -34.6192 -34.6186
   -34.6183 -34.6129 -34.6070 -34.6015 -34.5991 -34.5950 -34.5932 -34.5820
   -34.5790 -34.5746 -11.3556 -11.3536 -11.3535 -11.3512 -11.3501 -11.3485
    10.7414  11.0627  11.2095  11.3328  11.3503  11.4417  11.5088  11.6008
    11.6723  11.7298  11.7630  11.8873  11.9373  11.9479  12.0048  12.0226
    12.1912  12.2586  12.3277  12.3461  12.3959  12.4553  12.5016  12.5370
    12.5621  12.6171  12.6725  12.6732  12.7191  12.8013  17.4211  18.1778
    18.5554  19.2104  19.5815  19.8345  22.7100  22.7741  23.3006  23.3327
    23.3596  23.3876  24.0004  24.1095  24.2475  24.5734  24.6196  24.8123
    28.8954  29.2540  29.5808  31.0015  31.4839  31.7827  32.0697  32.4713
    32.8010  32.8953  33.0411  33.4198  33.5532  33.6801  33.8399  34.5560
    34.6834  34.8499  35.1620  35.4555  35.6930

          k = 0.3363-0.4203 0.0000 (  4472 PWs)   bands (ev):

   -72.6932 -72.6903 -72.6875 -72.6855 -72.6800 -72.6789 -40.2562 -40.2561
   -35.0382 -34.8711 -34.7993 -34.7982 -34.7252 -34.6212 -34.6200 -34.6179
   -34.6134 -34.6073 -34.6061 -34.6001 -34.5968 -34.5937 -34.5774 -34.5735
   -34.5717 -34.5415 -11.3562 -11.3551 -11.3530 -11.3517 -11.3483 -11.3482
     9.8897  10.9727  10.9875  11.0608  11.4221  11.4351  11.5008  11.6142
    11.6470  11.7342  11.7563  11.8963  11.9392  11.9855  12.0435  12.1660
    12.2080  12.2176  12.3151  12.3267  12.4551  12.4793  12.4939  12.5165
    12.5642  12.6406  12.8961  13.0006  13.0291  13.6742  17.0383  17.1335
    18.1950  18.3395  21.6422  22.1056  22.4462  22.4550  23.1463  23.2778
    23.6148  23.6407  23.8689  23.9598  24.2454  24.2633  25.7173  25.7970
    28.1569  28.2426  28.6008  29.1067  29.7848  30.5049  31.4574  31.7070
    32.4046  32.5136  33.0419  33.1325  33.2476  33.9573  34.7058  34.9162
    35.2126  35.2700  35.6314  36.4250  36.9447

          k = 0.3363-0.4203 0.1201 (  4474 PWs)   bands (ev):

   -72.7038 -72.6891 -72.6868 -72.6858 -72.6846 -72.6712 -40.2563 -40.2563
   -35.0114 -34.8759 -34.7992 -34.7982 -34.7209 -34.6301 -34.6236 -34.6169
   -34.6142 -34.6119 -34.6046 -34.5988 -34.5967 -34.5942 -34.5757 -34.5729
   -34.5725 -34.5657 -11.3555 -11.3545 -11.3531 -11.3521 -11.3493 -11.3492
    10.0567  11.0303  11.0596  11.0791  11.4321  11.4397  11.5085  11.5980
    11.6908  11.7493  11.7507  11.8834  11.9087  11.9439  12.0141  12.1404
    12.2022  12.2105  12.3149  12.3222  12.4515  12.4828  12.4900  12.5477
    12.6173  12.6296  12.8296  12.8909  12.9360  13.4959  17.1897  17.2743
    18.3401  18.4535  20.9352  21.2133  22.7668  22.7875  23.2337  23.3124
    23.6484  23.9212  23.9894  24.1075  24.1255  24.1816  25.0766  25.2130
    28.4450  28.6373  29.2649  29.3771  30.0473  30.7774  31.5022  32.0506
    32.4000  32.4839  33.1060  33.4493  33.4795  33.8868  34.6526  34.7353
    34.8916  35.2613  35.4156  36.5747  36.5935

          k = 0.3363-0.4203 0.2402 (  4486 PWs)   bands (ev):

   -72.7058 -72.7021 -72.6962 -72.6917 -72.6807 -72.6806 -40.2573 -40.2573
   -34.9418 -34.8768 -34.8055 -34.8049 -34.7199 -34.6527 -34.6235 -34.6234
   -34.6194 -34.6171 -34.6120 -34.6075 -34.6011 -34.6005 -34.5982 -34.5866
   -34.5804 -34.5761 -11.3577 -11.3573 -11.3533 -11.3528 -11.3511 -11.3510
    10.5299  11.0609  11.2615  11.2627  11.4581  11.4593  11.5294  11.5744
    11.7128  11.7775  11.7903  11.8091  11.8583  11.8722  11.9896  12.0450
    12.2119  12.2246  12.3043  12.3290  12.4021  12.4745  12.5188  12.5428
    12.5683  12.6624  12.6711  12.6796  12.7630  13.0035  17.6054  17.6523
    18.7119  18.7593  19.9973  20.0772  22.8110  22.8282  23.2988  23.3470
    23.4541  23.4709  23.9215  24.0911  24.3706  24.4854  24.6373  24.7376
    28.6901  29.1362  30.0180  30.2256  31.2701  31.5379  31.7617  32.5226
    32.7663  32.8340  33.1359  33.4183  33.7072  33.9072  34.0508  34.3840
    34.8337  34.9517  35.0609  35.3852  35.6511

          k = 0.3363-0.4203 0.3603 (  4488 PWs)   bands (ev):

   -72.6984 -72.6983 -72.6945 -72.6931 -72.6880 -72.6862 -40.2573 -40.2572
   -34.8677 -34.8524 -34.8045 -34.8044 -34.7470 -34.7283 -34.6196 -34.6194
   -34.6130 -34.6112 -34.6081 -34.6038 -34.6026 -34.6026 -34.6000 -34.5950
   -34.5883 -34.5877 -11.3558 -11.3558 -11.3541 -11.3539 -11.3520 -11.3519
    11.0680  11.2106  11.4868  11.4900  11.5345  11.5350  11.5487  11.5653
    11.6837  11.7005  11.7750  11.7992  11.8446  11.8508  11.9261  11.9317
    12.1822  12.1824  12.2740  12.2855  12.2963  12.3193  12.3950  12.4667
    12.5594  12.5838  12.6226  12.6356  12.6528  12.6569  18.1884  18.2012
    18.8762  18.8837  19.3860  19.3915  22.2708  22.2710  23.3693  23.3719
    23.3875  23.3904  24.1271  24.1871  24.3801  24.4001  24.5721  24.6001
    29.4935  29.7464  30.5110  30.5745  31.5370  31.9415  32.6397  32.7331
    32.9850  33.0483  33.3045  33.3489  33.5815  33.6481  34.2794  34.3332
    34.4141  34.4192  35.0319  35.0404  35.4867

     the Fermi energy is    29.6089 ev

!    total energy              =   -2377.44796271 Ry
     Harris-Foulkes estimate   =   -2377.44796314 Ry
     estimated scf accuracy    <       0.00000054 Ry

     The total energy is the sum of the following terms:

     one-electron contribution =    -542.47699300 Ry
     hartree contribution      =     383.74037557 Ry
     xc contribution           =    -208.66100062 Ry
     ewald contribution        =   -2009.83179558 Ry
     smearing contrib. (-TS)   =      -0.21854907 Ry

     convergence has been achieved in  11 iterations

     Forces acting on atoms (Ry/au):

     atom    1 type  1   force =     0.00000000    0.00000000    0.00000000
     atom    2 type  1   force =     0.00000000    0.00000000    0.00000000
     atom    3 type  1   force =     0.00000000    0.00000000    0.00000000
     atom    4 type  1   force =     0.00000000    0.00000000    0.00000000
     atom    5 type  1   force =     0.00000000    0.00000000    0.00000000
     atom    6 type  1   force =     0.00000000    0.00000000    0.00000000
     atom    7 type  2   force =     0.00000000    0.00000000    0.00000000
     atom    8 type  2   force =     0.00000000    0.00000000    0.00000000

     Total force =     0.000000     Total SCF correction =     0.000000


     entering subroutine stress ...

          total   stress  (Ry/bohr**3)                   (kbar)     P=  199.99
   0.00135952   0.00000000   0.00000000        199.99      0.00      0.00
   0.00000000   0.00135952   0.00000000          0.00    199.99      0.00
   0.00000000   0.00000000   0.00135952          0.00      0.00    199.99


     Writing output data file Prototype-La-cP8-Cr3Si.save
 
     init_run     :      8.64s CPU     11.86s WALL (       2 calls)
     electrons    :   1912.20s CPU   2257.30s WALL (       5 calls)
     update_pot   :      1.39s CPU      1.47s WALL (       3 calls)
     forces       :      6.55s CPU      7.57s WALL (       5 calls)
     stress       :     17.93s CPU     18.73s WALL (       5 calls)

     Called by init_run:
     wfcinit      :      8.13s CPU     10.74s WALL (       2 calls)
     potinit      :      0.20s CPU      0.21s WALL (       2 calls)

     Called by electrons:
     c_bands      :   1863.11s CPU   2170.47s WALL (      45 calls)
     sum_band     :     48.73s CPU     65.55s WALL (      45 calls)
     v_of_rho     :      0.06s CPU      0.07s WALL (      50 calls)
     mix_rho      :      0.06s CPU      0.07s WALL (      45 calls)

     Called by c_bands:
     init_us_2    :      3.01s CPU      3.89s WALL (    4896 calls)
     ccgdiagg     :   1686.58s CPU   1940.07s WALL (    2528 calls)
     wfcrot       :    180.96s CPU    234.12s WALL (    2576 calls)

     Called by *cgdiagg:
     h_psi        :   1242.67s CPU   1505.97s WALL ( 1305155 calls)
     cdiaghg      :     11.70s CPU     12.71s WALL (    2576 calls)

     Called by h_psi:
     add_vuspsi   :    143.10s CPU    175.04s WALL ( 1305155 calls)

     General routines
     calbec       :    428.29s CPU    447.90s WALL ( 2608214 calls)
     fft          :      0.07s CPU      0.09s WALL (     223 calls)
     fftw         :    796.81s CPU    977.20s WALL ( 3343670 calls)
     davcio       :      2.46s CPU      6.06s WALL (    7056 calls)
 
     Parallel routines
     fft_scatter  :    338.05s CPU    411.55s WALL ( 3343893 calls)
 
     PWSCF        : 32m27.52s CPU    38m20.52s WALL

 
   This run was terminated on:  23:22:30  22Mar2018            

=------------------------------------------------------------------------------=
   JOB DONE.
=------------------------------------------------------------------------------=
