
     Program PWSCF v.5.0.2 starts on 22Mar2018 at 21:13:31 

     This program is part of the open-source Quantum ESPRESSO suite
     for quantum simulation of materials; please cite
         "P. Giannozzi et al., J. Phys.:Condens. Matter 21 395502 (2009);
          URL http://www.quantum-espresso.org", 
     in publications or presentations arising from this work. More details at
     http://www.quantum-espresso.org/quote.php

     Parallel version (MPI), running on     4 processors
     R & G space division:  proc/nbgrp/npool/nimage =       4

     Current dimensions of program PWSCF are:
     Max number of different atomic species (ntypx) = 10
     Max number of k-points (npk) =  40000
     Max angular momentum in pseudopotentials (lmaxx) =  3
     Waiting for input...
     Reading input from standard input

     Subspace diagonalization in iterative solution of the eigenvalue problem:
     a serial algorithm will be used

 
     Parallelization info
     --------------------
     sticks:   dense  smooth     PW     G-vecs:    dense   smooth      PW
     Min          93      93     30                 1717     1717     310
     Max          94      94     31                 1720     1720     313
     Sum         373     373    121                 6871     6871    1247
 


     bravais-lattice index     =            0
     lattice parameter (alat)  =       5.4125  a.u.
     unit-cell volume          =     202.7222 (a.u.)^3
     number of atoms/cell      =            2
     number of atomic types    =            2
     number of electrons       =        38.00
     number of Kohn-Sham states=           23
     kinetic-energy cutoff     =      40.0000  Ry
     charge density cutoff     =     160.0000  Ry
     convergence threshold     =      1.0E-04
     mixing beta               =       0.7000
     number of iterations used =            8  plain     mixing
     Exchange-correlation      = SLA-PZ-NOGX-NOGC ( 1 1 0 0 0)
     EXX-fraction              =        0.00
     nstep                     =           50


     celldm(1)=   5.412493  celldm(2)=   0.000000  celldm(3)=   0.000000
     celldm(4)=   0.000000  celldm(5)=   0.000000  celldm(6)=   0.000000

     crystal axes: (cart. coord. in units of alat)
               a(1) = (   1.000000   0.000000   0.000000 )  
               a(2) = (   0.000000   1.000000   0.000000 )  
               a(3) = (   0.000000   0.000000   1.278525 )  

     reciprocal axes: (cart. coord. in units 2 pi/alat)
               b(1) = (  1.000000  0.000000  0.000000 )  
               b(2) = (  0.000000  1.000000  0.000000 )  
               b(3) = (  0.000000  0.000000  0.782151 )  


     PseudoPot. # 1 for Eu read from file:
     /home/cwx6513/pp.La/Eu.UPF
     MD5 check sum: 5efdbbfc50c6a10138933a6429836ad2
     Pseudo is Norm-conserving, Zval = 17.0
     Generated in analytical, separable form
     Using radial grid of 1261 points,  6 beta functions with: 
                l(1) =   0
                l(2) =   0
                l(3) =   1
                l(4) =   1
                l(5) =   2
                l(6) =   3

     PseudoPot. # 2 for Ho read from file:
     /home/cwx6513/pp.La/Ho.UPF
     MD5 check sum: f307ee11bce99f5b724fa279e3790763
     Pseudo is Norm-conserving, Zval = 21.0
     Generated in analytical, separable form
     Using radial grid of 1265 points,  6 beta functions with: 
                l(1) =   0
                l(2) =   0
                l(3) =   1
                l(4) =   1
                l(5) =   2
                l(6) =   3

     atomic species   valence    mass     pseudopotential
        Cu            17.00    63.54600     Eu( 1.00)
        Au            21.00   196.96600     Ho( 1.00)

     16 Sym. Ops., with inversion, found



   Cartesian axes

     site n.     atom                  positions (alat units)
         1           Cu  tau(   1) = (   0.5000000   0.5000000   0.6392626  )
         2           Au  tau(   2) = (   0.0000000   0.0000000   0.0000000  )

     number of k points=   100  gaussian smearing, width (Ry)=  0.1000

     Number of k-points >= 100: set verbosity='high' to print them.

     Dense  grid:     6871 G-vectors     FFT dimensions: (  24,  24,  27)

     Largest allocated arrays     est. size (Mb)     dimensions
        Kohn-Sham Wavefunctions         0.08 Mb     (    228,   23)
        NL pseudopotentials             0.14 Mb     (    228,   40)
        Each V/rho on FFT grid          0.06 Mb     (   4032)
        Each G-vector array             0.01 Mb     (   1720)
        G-vector shells                 0.01 Mb     (   1720)
     Largest temporary arrays     est. size (Mb)     dimensions
        Each subspace H/S matrix        0.01 Mb     (  23,  23)
        Each <psi_i|beta_j> matrix      0.01 Mb     (     40,   23)
        Arrays for rho mixing           0.49 Mb     (   4032,   8)

     Initial potential from superposition of free atoms

     Starting from uniform charge
     Starting wfc are    0 randomized atomic wfcs

     total cpu time spent up to now is        1.5 secs

     Self-consistent Calculation

     iteration #  1     ecut=    40.00 Ry     beta=0.70
     CG style diagonalization
     c_bands:  1 eigenvalues not converged
     ethr =  1.00E-02,  avg # of iterations = 10.8

     total cpu time spent up to now is        6.4 secs

     total energy              =    -337.99584198 Ry
     Harris-Foulkes estimate   =    -559.59974669 Ry
     estimated scf accuracy    <     274.03423261 Ry

     iteration #  2     ecut=    40.00 Ry     beta=0.70
     CG style diagonalization
     c_bands:  1 eigenvalues not converged
     c_bands:  2 eigenvalues not converged
     c_bands:  1 eigenvalues not converged
     c_bands:  2 eigenvalues not converged
     c_bands:  1 eigenvalues not converged
     c_bands:  1 eigenvalues not converged
     c_bands:  1 eigenvalues not converged
     c_bands:  1 eigenvalues not converged
     c_bands:  1 eigenvalues not converged
     c_bands:  1 eigenvalues not converged
     c_bands:  1 eigenvalues not converged
     c_bands:  4 eigenvalues not converged
     c_bands:  1 eigenvalues not converged
     c_bands:  1 eigenvalues not converged
     c_bands:  1 eigenvalues not converged
     c_bands:  1 eigenvalues not converged
     c_bands:  2 eigenvalues not converged
     c_bands:  2 eigenvalues not converged
     c_bands:  2 eigenvalues not converged
     c_bands:  1 eigenvalues not converged
     c_bands:  2 eigenvalues not converged
     c_bands:  1 eigenvalues not converged
     c_bands:  2 eigenvalues not converged
     c_bands:  1 eigenvalues not converged
     c_bands:  1 eigenvalues not converged
     c_bands:  1 eigenvalues not converged
     c_bands:  1 eigenvalues not converged
     c_bands:  2 eigenvalues not converged
     c_bands:  1 eigenvalues not converged
     c_bands:  1 eigenvalues not converged
     c_bands:  2 eigenvalues not converged
     c_bands:  1 eigenvalues not converged
     c_bands:  1 eigenvalues not converged
     c_bands:  1 eigenvalues not converged
     c_bands:  1 eigenvalues not converged
     c_bands:  1 eigenvalues not converged
     c_bands:  1 eigenvalues not converged
     ethr =  1.00E-02,  avg # of iterations = 10.4

     total cpu time spent up to now is       10.9 secs

     total energy              =    -378.97750726 Ry
     Harris-Foulkes estimate   =    -576.33514803 Ry
     estimated scf accuracy    <     393.47061752 Ry

     iteration #  3     ecut=    40.00 Ry     beta=0.70
     CG style diagonalization
     ethr =  1.00E-02,  avg # of iterations =  9.3

     total cpu time spent up to now is       14.9 secs

     total energy              =    -464.57026608 Ry
     Harris-Foulkes estimate   =    -474.47166563 Ry
     estimated scf accuracy    <      17.53940380 Ry

     iteration #  4     ecut=    40.00 Ry     beta=0.70
     CG style diagonalization
     ethr =  1.00E-02,  avg # of iterations =  4.2

     total cpu time spent up to now is       16.7 secs

     WARNING: integrated charge=    38.00000529, expected=    38.00000000

     total energy              =    -468.24208907 Ry
     Harris-Foulkes estimate   =    -468.56246154 Ry
     estimated scf accuracy    <       0.76229507 Ry

     iteration #  5     ecut=    40.00 Ry     beta=0.70
     CG style diagonalization
     ethr =  2.01E-03,  avg # of iterations =  3.3

     total cpu time spent up to now is       18.2 secs

     total energy              =    -468.26632758 Ry
     Harris-Foulkes estimate   =    -468.33746319 Ry
     estimated scf accuracy    <       0.12862456 Ry

     iteration #  6     ecut=    40.00 Ry     beta=0.70
     CG style diagonalization
     ethr =  3.38E-04,  avg # of iterations =  3.8

     total cpu time spent up to now is       19.8 secs

     total energy              =    -468.29639552 Ry
     Harris-Foulkes estimate   =    -468.31118148 Ry
     estimated scf accuracy    <       0.02590011 Ry

     iteration #  7     ecut=    40.00 Ry     beta=0.70
     CG style diagonalization
     ethr =  6.82E-05,  avg # of iterations =  3.6

     total cpu time spent up to now is       21.4 secs

     total energy              =    -468.30172310 Ry
     Harris-Foulkes estimate   =    -468.30182018 Ry
     estimated scf accuracy    <       0.00021988 Ry

     iteration #  8     ecut=    40.00 Ry     beta=0.70
     CG style diagonalization
     c_bands:  1 eigenvalues not converged
     c_bands:  1 eigenvalues not converged
     c_bands:  1 eigenvalues not converged
     c_bands:  1 eigenvalues not converged
     c_bands:  1 eigenvalues not converged
     ethr =  5.79E-07,  avg # of iterations =  4.3

     total cpu time spent up to now is       23.3 secs

     End of self-consistent calculation

     Number of k-points >= 100: set verbosity='high' to print the bands.

     the Fermi energy is    35.8033 ev

!    total energy              =    -468.30182612 Ry
     Harris-Foulkes estimate   =    -468.30185202 Ry
     estimated scf accuracy    <       0.00003115 Ry

     The total energy is the sum of the following terms:

     one-electron contribution =     -25.84771027 Ry
     hartree contribution      =      52.54189251 Ry
     xc contribution           =     -45.13303862 Ry
     ewald contribution        =    -449.82816851 Ry
     smearing contrib. (-TS)   =      -0.03480123 Ry

     convergence has been achieved in   8 iterations

     Forces acting on atoms (Ry/au):

     atom    1 type  1   force =     0.00000000    0.00000000    0.00000000
     atom    2 type  2   force =     0.00000000    0.00000000    0.00000000

     Total force =     0.000000     Total SCF correction =     0.000000


     entering subroutine stress ...

          total   stress  (Ry/bohr**3)                   (kbar)     P= 1187.67
   0.00833587   0.00000000   0.00000000       1226.25      0.00      0.00
   0.00000000   0.00833587   0.00000000          0.00   1226.25      0.00
   0.00000000   0.00000000   0.00754903          0.00      0.00   1110.50


     number of scf cycles    =   3
     number of bfgs steps    =   2

     enthalpy old            =    -468.3018264585 Ry
     enthalpy new            =    -468.3018261178 Ry

     CASE: enthalpy_new > enthalpy_old

     new trust radius        =       0.0000000000 bohr

     trust_radius < trust_radius_min

     resetting bfgs history

     Message from routine bfgs:
     history already reset at previous step: stopping
     new conv_thr            =       0.0001000000 Ry

     new unit-cell volume =    324.70899 a.u.^3 (    48.11691 Ang^3 )

CELL_PARAMETERS (alat=  5.41249258)
   1.175585808   0.000000000   0.000000000
   0.000000000   1.175585808   0.000000000
   0.000000000   0.000000000   1.481814045

ATOMIC_POSITIONS (crystal)
Cu       0.500000000   0.500000000   0.500000000
Au       0.000000000   0.000000000   0.000000000



     Writing output data file Prototype-La-tP2-AuCu.save
     NEW-OLD atomic charge density approx. for the potential
     NEW k-points: (use verbosity='high' to print them)

     total cpu time spent up to now is       24.1 secs

     Self-consistent Calculation

     iteration #  1     ecut=    40.00 Ry     beta=0.70
     CG style diagonalization
     c_bands:  2 eigenvalues not converged
     c_bands:  2 eigenvalues not converged
     c_bands:  3 eigenvalues not converged
     c_bands:  4 eigenvalues not converged
     c_bands:  3 eigenvalues not converged
     c_bands:  3 eigenvalues not converged
     c_bands:  4 eigenvalues not converged
     c_bands:  3 eigenvalues not converged
     c_bands:  4 eigenvalues not converged
     c_bands:  2 eigenvalues not converged
     c_bands:  4 eigenvalues not converged
     c_bands:  3 eigenvalues not converged
     c_bands:  3 eigenvalues not converged
     c_bands:  4 eigenvalues not converged
     c_bands:  3 eigenvalues not converged
     c_bands:  2 eigenvalues not converged
     c_bands:  3 eigenvalues not converged
     c_bands:  3 eigenvalues not converged
     c_bands:  5 eigenvalues not converged
     c_bands:  3 eigenvalues not converged
     c_bands:  4 eigenvalues not converged
     c_bands:  2 eigenvalues not converged
     c_bands:  3 eigenvalues not converged
     c_bands:  4 eigenvalues not converged
     c_bands:  3 eigenvalues not converged
     c_bands:  3 eigenvalues not converged
     c_bands:  5 eigenvalues not converged
     c_bands:  5 eigenvalues not converged
     c_bands:  5 eigenvalues not converged
     c_bands:  4 eigenvalues not converged
     c_bands:  3 eigenvalues not converged
     c_bands:  5 eigenvalues not converged
     c_bands:  5 eigenvalues not converged
     c_bands:  3 eigenvalues not converged
     c_bands:  5 eigenvalues not converged
     c_bands:  2 eigenvalues not converged
     c_bands:  3 eigenvalues not converged
     c_bands:  4 eigenvalues not converged
     c_bands:  5 eigenvalues not converged
     ethr =  1.00E-06,  avg # of iterations = 18.6

     total cpu time spent up to now is       31.2 secs

     total energy              =    -458.41309927 Ry
     Harris-Foulkes estimate   =    -479.75056401 Ry
     estimated scf accuracy    <      27.26748997 Ry

     iteration #  2     ecut=    40.00 Ry     beta=0.70
     CG style diagonalization
     ethr =  1.00E-02,  avg # of iterations =  4.5

     total cpu time spent up to now is       33.1 secs

     total energy              =    -464.78238862 Ry
     Harris-Foulkes estimate   =    -471.07062811 Ry
     estimated scf accuracy    <      10.37473979 Ry

     iteration #  3     ecut=    40.00 Ry     beta=0.70
     CG style diagonalization
     ethr =  1.00E-02,  avg # of iterations =  4.1

     total cpu time spent up to now is       34.8 secs

     total energy              =    -467.48944544 Ry
     Harris-Foulkes estimate   =    -468.64460200 Ry
     estimated scf accuracy    <       2.47379805 Ry

     iteration #  4     ecut=    40.00 Ry     beta=0.70
     CG style diagonalization
     ethr =  6.51E-03,  avg # of iterations =  3.3

     total cpu time spent up to now is       36.1 secs

     total energy              =    -467.91431066 Ry
     Harris-Foulkes estimate   =    -467.92371651 Ry
     estimated scf accuracy    <       0.03075081 Ry

     iteration #  5     ecut=    40.00 Ry     beta=0.70
     CG style diagonalization
     ethr =  8.09E-05,  avg # of iterations =  4.2

     total cpu time spent up to now is       37.9 secs

     total energy              =    -467.92706312 Ry
     Harris-Foulkes estimate   =    -467.93063753 Ry
     estimated scf accuracy    <       0.00558022 Ry

     iteration #  6     ecut=    40.00 Ry     beta=0.70
     CG style diagonalization
     ethr =  1.47E-05,  avg # of iterations =  4.4

     total cpu time spent up to now is       39.7 secs

     total energy              =    -467.92672500 Ry
     Harris-Foulkes estimate   =    -467.93419101 Ry
     estimated scf accuracy    <       0.01908350 Ry

     iteration #  7     ecut=    40.00 Ry     beta=0.70
     CG style diagonalization
     ethr =  1.47E-05,  avg # of iterations =  3.7

     total cpu time spent up to now is       41.2 secs

     total energy              =    -467.92838151 Ry
     Harris-Foulkes estimate   =    -467.92876033 Ry
     estimated scf accuracy    <       0.00137052 Ry

     iteration #  8     ecut=    40.00 Ry     beta=0.70
     CG style diagonalization
     ethr =  3.61E-06,  avg # of iterations =  3.1

     total cpu time spent up to now is       42.5 secs

     total energy              =    -467.92835147 Ry
     Harris-Foulkes estimate   =    -467.92850343 Ry
     estimated scf accuracy    <       0.00027701 Ry

     iteration #  9     ecut=    40.00 Ry     beta=0.70
     CG style diagonalization
     ethr =  7.29E-07,  avg # of iterations =  3.8

     total cpu time spent up to now is       44.1 secs

     End of self-consistent calculation

     Number of k-points >= 100: set verbosity='high' to print the bands.

     the Fermi energy is    20.0881 ev

!    total energy              =    -467.92844245 Ry
     Harris-Foulkes estimate   =    -467.92845136 Ry
     estimated scf accuracy    <       0.00000971 Ry

     The total energy is the sum of the following terms:

     one-electron contribution =    -119.64753898 Ry
     hartree contribution      =      79.93602792 Ry
     xc contribution           =     -43.66927974 Ry
     ewald contribution        =    -384.47031155 Ry
     smearing contrib. (-TS)   =      -0.07734010 Ry

     convergence has been achieved in   9 iterations

     Forces acting on atoms (Ry/au):

     atom    1 type  1   force =     0.00000000    0.00000000    0.00000000
     atom    2 type  2   force =     0.00000000    0.00000000    0.00000000

     Total force =     0.000000     Total SCF correction =     0.000000


     entering subroutine stress ...

          total   stress  (Ry/bohr**3)                   (kbar)     P=-1244.16
  -0.00847028   0.00000000   0.00000000      -1246.02      0.00      0.00
   0.00000000  -0.00847028   0.00000000          0.00  -1246.02      0.00
   0.00000000   0.00000000  -0.00843225          0.00      0.00  -1240.43


     BFGS Geometry Optimization

     number of scf cycles    =   1
     number of bfgs steps    =   0

     enthalpy new            =    -467.9284424545 Ry

     new trust radius        =       0.5000000000 bohr
     new conv_thr            =       0.0001000000 Ry

     new unit-cell volume =    207.59430 a.u.^3 (    30.76230 Ang^3 )

CELL_PARAMETERS (alat=  5.41249258)
   1.012488351   0.000000000   0.000000000
   0.000000000   1.012488351   0.000000000
   0.000000000   0.000000000   1.277154413

ATOMIC_POSITIONS (crystal)
Cu       0.500000000   0.500000000   0.500000000
Au       0.000000000   0.000000000   0.000000000



     Writing output data file Prototype-La-tP2-AuCu.save
     NEW-OLD atomic charge density approx. for the potential
     NEW k-points: (use verbosity='high' to print them)

     total cpu time spent up to now is       45.0 secs

     Self-consistent Calculation

     iteration #  1     ecut=    40.00 Ry     beta=0.70
     CG style diagonalization
     c_bands:  2 eigenvalues not converged
     c_bands:  1 eigenvalues not converged
     c_bands:  1 eigenvalues not converged
     c_bands:  1 eigenvalues not converged
     c_bands:  2 eigenvalues not converged
     c_bands:  4 eigenvalues not converged
     c_bands:  3 eigenvalues not converged
     c_bands:  3 eigenvalues not converged
     c_bands:  3 eigenvalues not converged
     c_bands:  5 eigenvalues not converged
     c_bands:  4 eigenvalues not converged
     c_bands:  3 eigenvalues not converged
     c_bands:  4 eigenvalues not converged
     c_bands:  3 eigenvalues not converged
     c_bands:  4 eigenvalues not converged
     c_bands:  2 eigenvalues not converged
     c_bands:  4 eigenvalues not converged
     c_bands:  2 eigenvalues not converged
     c_bands:  1 eigenvalues not converged
     c_bands:  2 eigenvalues not converged
     c_bands:  1 eigenvalues not converged
     c_bands:  2 eigenvalues not converged
     c_bands:  3 eigenvalues not converged
     c_bands:  1 eigenvalues not converged
     c_bands:  3 eigenvalues not converged
     c_bands:  5 eigenvalues not converged
     c_bands:  3 eigenvalues not converged
     c_bands:  1 eigenvalues not converged
     c_bands:  3 eigenvalues not converged
     c_bands:  1 eigenvalues not converged
     c_bands:  3 eigenvalues not converged
     c_bands:  4 eigenvalues not converged
     c_bands:  2 eigenvalues not converged
     c_bands:  2 eigenvalues not converged
     c_bands:  1 eigenvalues not converged
     c_bands:  1 eigenvalues not converged
     c_bands:  5 eigenvalues not converged
     c_bands:  2 eigenvalues not converged
     c_bands:  1 eigenvalues not converged
     c_bands:  1 eigenvalues not converged
     c_bands:  1 eigenvalues not converged
     c_bands:  2 eigenvalues not converged
     c_bands:  2 eigenvalues not converged
     c_bands:  3 eigenvalues not converged
     c_bands:  3 eigenvalues not converged
     c_bands:  5 eigenvalues not converged
     c_bands:  4 eigenvalues not converged
     c_bands:  2 eigenvalues not converged
     c_bands:  5 eigenvalues not converged
     c_bands:  5 eigenvalues not converged
     c_bands:  1 eigenvalues not converged
     c_bands:  3 eigenvalues not converged
     c_bands:  3 eigenvalues not converged
     c_bands:  1 eigenvalues not converged
     c_bands:  1 eigenvalues not converged
     c_bands:  2 eigenvalues not converged
     c_bands:  2 eigenvalues not converged
     c_bands:  2 eigenvalues not converged
     c_bands:  2 eigenvalues not converged
     ethr =  1.00E-06,  avg # of iterations = 17.1

     total cpu time spent up to now is       51.7 secs

     total energy              =    -460.53070537 Ry
     Harris-Foulkes estimate   =    -479.43993104 Ry
     estimated scf accuracy    <      23.71576484 Ry

     iteration #  2     ecut=    40.00 Ry     beta=0.70
     CG style diagonalization
     ethr =  1.00E-02,  avg # of iterations =  4.6

     total cpu time spent up to now is       53.6 secs

     total energy              =    -467.71113289 Ry
     Harris-Foulkes estimate   =    -469.76158708 Ry
     estimated scf accuracy    <       3.08989945 Ry

     iteration #  3     ecut=    40.00 Ry     beta=0.70
     CG style diagonalization
     ethr =  8.13E-03,  avg # of iterations =  3.5

     total cpu time spent up to now is       55.2 secs

     total energy              =    -468.30262555 Ry
     Harris-Foulkes estimate   =    -468.37201480 Ry
     estimated scf accuracy    <       0.11230329 Ry

     iteration #  4     ecut=    40.00 Ry     beta=0.70
     CG style diagonalization
     ethr =  2.96E-04,  avg # of iterations =  4.0

     total cpu time spent up to now is       56.8 secs

     total energy              =    -468.33083841 Ry
     Harris-Foulkes estimate   =    -468.35156746 Ry
     estimated scf accuracy    <       0.03517487 Ry

     iteration #  5     ecut=    40.00 Ry     beta=0.70
     CG style diagonalization
     c_bands:  1 eigenvalues not converged
     c_bands:  1 eigenvalues not converged
     ethr =  9.26E-05,  avg # of iterations =  3.7

     total cpu time spent up to now is       58.4 secs

     total energy              =    -468.33894782 Ry
     Harris-Foulkes estimate   =    -468.33946802 Ry
     estimated scf accuracy    <       0.00099921 Ry

     iteration #  6     ecut=    40.00 Ry     beta=0.70
     CG style diagonalization
     c_bands:  1 eigenvalues not converged
     c_bands:  1 eigenvalues not converged
     c_bands:  1 eigenvalues not converged
     c_bands:  1 eigenvalues not converged
     c_bands:  1 eigenvalues not converged
     c_bands:  1 eigenvalues not converged
     ethr =  2.63E-06,  avg # of iterations =  4.5

     total cpu time spent up to now is       60.3 secs

     total energy              =    -468.33924925 Ry
     Harris-Foulkes estimate   =    -468.33930921 Ry
     estimated scf accuracy    <       0.00010195 Ry

     iteration #  7     ecut=    40.00 Ry     beta=0.70
     CG style diagonalization
     ethr =  2.68E-07,  avg # of iterations =  3.6

     total cpu time spent up to now is       61.8 secs

     End of self-consistent calculation

     Number of k-points >= 100: set verbosity='high' to print the bands.

     the Fermi energy is    34.8108 ev

!    total energy              =    -468.33928036 Ry
     Harris-Foulkes estimate   =    -468.33928154 Ry
     estimated scf accuracy    <       0.00000160 Ry

     The total energy is the sum of the following terms:

     one-electron contribution =     -30.80889963 Ry
     hartree contribution      =      53.84206925 Ry
     xc contribution           =     -45.04219255 Ry
     ewald contribution        =    -446.29469716 Ry
     smearing contrib. (-TS)   =      -0.03556026 Ry

     convergence has been achieved in   7 iterations

     Forces acting on atoms (Ry/au):

     atom    1 type  1   force =     0.00000000    0.00000000    0.00000000
     atom    2 type  2   force =     0.00000000    0.00000000    0.00000000

     Total force =     0.000000     Total SCF correction =     0.000000


     entering subroutine stress ...

          total   stress  (Ry/bohr**3)                   (kbar)     P=  979.90
   0.00679803   0.00000000   0.00000000       1000.02      0.00      0.00
   0.00000000   0.00679803   0.00000000          0.00   1000.02      0.00
   0.00000000   0.00000000   0.00638752          0.00      0.00    939.64


     number of scf cycles    =   2
     number of bfgs steps    =   1

     enthalpy old            =    -467.9284424545 Ry
     enthalpy new            =    -468.3392803594 Ry

     CASE: enthalpy_new < enthalpy_old

     small trust_radius: resetting bfgs history

     new trust radius        =       0.4897346238 bohr
     new conv_thr            =       0.0000010000 Ry

     new unit-cell volume =    329.52754 a.u.^3 (    48.83094 Ang^3 )

CELL_PARAMETERS (alat=  5.41249258)
   1.184561515   0.000000000   0.000000000
   0.000000000   1.184561515   0.000000000
   0.000000000   0.000000000   1.481100522

ATOMIC_POSITIONS (crystal)
Cu       0.500000000   0.500000000   0.500000000
Au       0.000000000   0.000000000   0.000000000



     Writing output data file Prototype-La-tP2-AuCu.save
     NEW-OLD atomic charge density approx. for the potential
     NEW k-points: (use verbosity='high' to print them)

     total cpu time spent up to now is       62.5 secs

     Self-consistent Calculation

     iteration #  1     ecut=    40.00 Ry     beta=0.70
     CG style diagonalization
     c_bands:  2 eigenvalues not converged
     c_bands:  1 eigenvalues not converged
     c_bands:  1 eigenvalues not converged
     c_bands:  4 eigenvalues not converged
     c_bands:  1 eigenvalues not converged
     c_bands:  5 eigenvalues not converged
     c_bands:  2 eigenvalues not converged
     c_bands:  4 eigenvalues not converged
     c_bands:  2 eigenvalues not converged
     c_bands:  2 eigenvalues not converged
     c_bands:  2 eigenvalues not converged
     c_bands:  3 eigenvalues not converged
     c_bands:  2 eigenvalues not converged
     c_bands:  3 eigenvalues not converged
     c_bands:  1 eigenvalues not converged
     c_bands:  3 eigenvalues not converged
     c_bands:  5 eigenvalues not converged
     c_bands:  1 eigenvalues not converged
     c_bands:  1 eigenvalues not converged
     c_bands:  5 eigenvalues not converged
     c_bands:  3 eigenvalues not converged
     c_bands:  4 eigenvalues not converged
     c_bands:  2 eigenvalues not converged
     c_bands:  2 eigenvalues not converged
     c_bands:  3 eigenvalues not converged
     c_bands:  5 eigenvalues not converged
     c_bands:  1 eigenvalues not converged
     c_bands:  2 eigenvalues not converged
     c_bands:  1 eigenvalues not converged
     c_bands:  3 eigenvalues not converged
     c_bands:  4 eigenvalues not converged
     c_bands:  3 eigenvalues not converged
     c_bands:  5 eigenvalues not converged
     c_bands:  3 eigenvalues not converged
     c_bands:  5 eigenvalues not converged
     c_bands:  4 eigenvalues not converged
     c_bands:  4 eigenvalues not converged
     c_bands:  4 eigenvalues not converged
     c_bands:  5 eigenvalues not converged
     c_bands:  2 eigenvalues not converged
     c_bands:  5 eigenvalues not converged
     c_bands:  5 eigenvalues not converged
     c_bands:  3 eigenvalues not converged
     c_bands:  5 eigenvalues not converged
     c_bands:  5 eigenvalues not converged
     c_bands:  2 eigenvalues not converged
     c_bands:  2 eigenvalues not converged
     c_bands:  5 eigenvalues not converged
     c_bands:  5 eigenvalues not converged
     ethr =  1.00E-06,  avg # of iterations = 17.6

     total cpu time spent up to now is       69.4 secs

     total energy              =    -458.59466561 Ry
     Harris-Foulkes estimate   =    -479.33111820 Ry
     estimated scf accuracy    <      26.48111339 Ry

     iteration #  2     ecut=    40.00 Ry     beta=0.70
     CG style diagonalization
     ethr =  1.00E-02,  avg # of iterations =  4.5

     total cpu time spent up to now is       71.3 secs

     total energy              =    -464.71371887 Ry
     Harris-Foulkes estimate   =    -471.03458094 Ry
     estimated scf accuracy    <      10.48458478 Ry

     iteration #  3     ecut=    40.00 Ry     beta=0.70
     CG style diagonalization
     ethr =  1.00E-02,  avg # of iterations =  4.1

     total cpu time spent up to now is       73.0 secs

     total energy              =    -467.44598330 Ry
     Harris-Foulkes estimate   =    -468.60698436 Ry
     estimated scf accuracy    <       2.49462898 Ry

     iteration #  4     ecut=    40.00 Ry     beta=0.70
     CG style diagonalization
     ethr =  6.56E-03,  avg # of iterations =  3.3

     total cpu time spent up to now is       74.4 secs

     total energy              =    -467.87269044 Ry
     Harris-Foulkes estimate   =    -467.88230072 Ry
     estimated scf accuracy    <       0.03174091 Ry

     iteration #  5     ecut=    40.00 Ry     beta=0.70
     CG style diagonalization
     ethr =  8.35E-05,  avg # of iterations =  4.1

     total cpu time spent up to now is       76.1 secs

     total energy              =    -467.88553846 Ry
     Harris-Foulkes estimate   =    -467.88899428 Ry
     estimated scf accuracy    <       0.00550164 Ry

     iteration #  6     ecut=    40.00 Ry     beta=0.70
     CG style diagonalization
     ethr =  1.45E-05,  avg # of iterations =  4.4

     total cpu time spent up to now is       77.9 secs

     total energy              =    -467.88512348 Ry
     Harris-Foulkes estimate   =    -467.89227397 Ry
     estimated scf accuracy    <       0.01817547 Ry

     iteration #  7     ecut=    40.00 Ry     beta=0.70
     CG style diagonalization
     ethr =  1.45E-05,  avg # of iterations =  3.7

     total cpu time spent up to now is       79.4 secs

     total energy              =    -467.88678573 Ry
     Harris-Foulkes estimate   =    -467.88710501 Ry
     estimated scf accuracy    <       0.00121356 Ry

     iteration #  8     ecut=    40.00 Ry     beta=0.70
     CG style diagonalization
     ethr =  3.19E-06,  avg # of iterations =  3.1

     total cpu time spent up to now is       80.6 secs

     total energy              =    -467.88674504 Ry
     Harris-Foulkes estimate   =    -467.88689192 Ry
     estimated scf accuracy    <       0.00026280 Ry

     iteration #  9     ecut=    40.00 Ry     beta=0.70
     CG style diagonalization
     ethr =  6.92E-07,  avg # of iterations =  3.7

     total cpu time spent up to now is       82.2 secs

     total energy              =    -467.88683648 Ry
     Harris-Foulkes estimate   =    -467.88684201 Ry
     estimated scf accuracy    <       0.00001228 Ry

     iteration # 10     ecut=    40.00 Ry     beta=0.70
     CG style diagonalization
     ethr =  3.23E-08,  avg # of iterations =  3.5

     total cpu time spent up to now is       83.7 secs

     total energy              =    -467.88683754 Ry
     Harris-Foulkes estimate   =    -467.88683881 Ry
     estimated scf accuracy    <       0.00000164 Ry

     iteration # 11     ecut=    40.00 Ry     beta=0.70
     CG style diagonalization
     ethr =  4.31E-09,  avg # of iterations =  3.9

     total cpu time spent up to now is       85.4 secs

     total energy              =    -467.88683830 Ry
     Harris-Foulkes estimate   =    -467.88683932 Ry
     estimated scf accuracy    <       0.00000266 Ry

     iteration # 12     ecut=    40.00 Ry     beta=0.70
     CG style diagonalization
     ethr =  4.31E-09,  avg # of iterations =  3.3

     total cpu time spent up to now is       86.8 secs

     End of self-consistent calculation

     Number of k-points >= 100: set verbosity='high' to print the bands.

     the Fermi energy is    19.7100 ev

!    total energy              =    -467.88683833 Ry
     Harris-Foulkes estimate   =    -467.88683857 Ry
     estimated scf accuracy    <       0.00000025 Ry

     The total energy is the sum of the following terms:

     one-electron contribution =    -122.40550549 Ry
     hartree contribution      =      80.82700684 Ry
     xc contribution           =     -43.63545632 Ry
     ewald contribution        =    -382.59400619 Ry
     smearing contrib. (-TS)   =      -0.07887717 Ry

     convergence has been achieved in  12 iterations

     Forces acting on atoms (Ry/au):

     atom    1 type  1   force =     0.00000000    0.00000000    0.00000000
     atom    2 type  2   force =     0.00000000    0.00000000    0.00000000

     Total force =     0.000000     Total SCF correction =     0.000000


     entering subroutine stress ...

          total   stress  (Ry/bohr**3)                   (kbar)     P=-1276.49
  -0.00875344   0.00000000   0.00000000      -1287.68      0.00      0.00
   0.00000000  -0.00875344   0.00000000          0.00  -1287.68      0.00
   0.00000000   0.00000000  -0.00852527          0.00      0.00  -1254.11


     number of scf cycles    =   3
     number of bfgs steps    =   2

     enthalpy old            =    -468.3392803594 Ry
     enthalpy new            =    -467.8868383321 Ry

     CASE: enthalpy_new > enthalpy_old

     new trust radius        =       0.1593938918 bohr

     trust_radius < trust_radius_min

     resetting bfgs history

     Message from routine bfgs:
     history already reset at previous step: stopping
     new conv_thr            =       0.0000010000 Ry

     new unit-cell volume =    309.81947 a.u.^3 (    45.91051 Ang^3 )

CELL_PARAMETERS (alat=  5.41249258)
   1.160867207   0.000000000   0.000000000
   0.000000000   1.160867207   0.000000000
   0.000000000   0.000000000   1.449945519

ATOMIC_POSITIONS (crystal)
Cu       0.500000000   0.500000000   0.500000000
Au       0.000000000   0.000000000   0.000000000



     Writing output data file Prototype-La-tP2-AuCu.save
     NEW-OLD atomic charge density approx. for the potential
     NEW k-points: (use verbosity='high' to print them)

     total cpu time spent up to now is       88.3 secs

     Self-consistent Calculation

     iteration #  1     ecut=    40.00 Ry     beta=0.70
     CG style diagonalization
     c_bands:  1 eigenvalues not converged
     c_bands:  1 eigenvalues not converged
     c_bands:  1 eigenvalues not converged
     c_bands:  1 eigenvalues not converged
     c_bands:  1 eigenvalues not converged
     c_bands:  1 eigenvalues not converged
     ethr =  1.00E-06,  avg # of iterations =  8.5

     total cpu time spent up to now is       91.7 secs

     total energy              =    -467.83158607 Ry
     Harris-Foulkes estimate   =    -468.28041098 Ry
     estimated scf accuracy    <       0.56498288 Ry

     iteration #  2     ecut=    40.00 Ry     beta=0.70
     CG style diagonalization
     ethr =  1.49E-03,  avg # of iterations =  3.8

     total cpu time spent up to now is       94.0 secs

     total energy              =    -467.98928533 Ry
     Harris-Foulkes estimate   =    -468.12866886 Ry
     estimated scf accuracy    <       0.23848904 Ry

     iteration #  3     ecut=    40.00 Ry     beta=0.70
     CG style diagonalization
     ethr =  6.28E-04,  avg # of iterations =  3.3

     total cpu time spent up to now is       95.6 secs

     total energy              =    -468.04090355 Ry
     Harris-Foulkes estimate   =    -468.06023823 Ry
     estimated scf accuracy    <       0.03976014 Ry

     iteration #  4     ecut=    40.00 Ry     beta=0.70
     CG style diagonalization
     ethr =  1.05E-04,  avg # of iterations =  3.5

     total cpu time spent up to now is       97.1 secs

     total energy              =    -468.05028801 Ry
     Harris-Foulkes estimate   =    -468.05041771 Ry
     estimated scf accuracy    <       0.00025774 Ry

     iteration #  5     ecut=    40.00 Ry     beta=0.70
     CG style diagonalization
     c_bands:  1 eigenvalues not converged
     ethr =  6.78E-07,  avg # of iterations =  4.3

     total cpu time spent up to now is       99.1 secs

     total energy              =    -468.05041187 Ry
     Harris-Foulkes estimate   =    -468.05044458 Ry
     estimated scf accuracy    <       0.00010488 Ry

     iteration #  6     ecut=    40.00 Ry     beta=0.70
     CG style diagonalization
     ethr =  2.76E-07,  avg # of iterations =  3.0

     total cpu time spent up to now is      100.4 secs

     total energy              =    -468.05040692 Ry
     Harris-Foulkes estimate   =    -468.05041866 Ry
     estimated scf accuracy    <       0.00002969 Ry

     iteration #  7     ecut=    40.00 Ry     beta=0.70
     CG style diagonalization
     ethr =  7.81E-08,  avg # of iterations =  3.4

     total cpu time spent up to now is      101.9 secs

     End of self-consistent calculation

     Number of k-points >= 100: set verbosity='high' to print the bands.

     the Fermi energy is    21.3156 ev

!    total energy              =    -468.05041196 Ry
     Harris-Foulkes estimate   =    -468.05041248 Ry
     estimated scf accuracy    <       0.00000061 Ry

     The total energy is the sum of the following terms:

     one-electron contribution =    -110.68348995 Ry
     hartree contribution      =      77.02292423 Ry
     xc contribution           =     -43.77779391 Ry
     ewald contribution        =    -390.54118355 Ry
     smearing contrib. (-TS)   =      -0.07086880 Ry

     convergence has been achieved in   7 iterations

     Forces acting on atoms (Ry/au):

     atom    1 type  1   force =     0.00000000    0.00000000    0.00000000
     atom    2 type  2   force =     0.00000000    0.00000000    0.00000000

     Total force =     0.000000     Total SCF correction =     0.000000


     entering subroutine stress ...

          total   stress  (Ry/bohr**3)                   (kbar)     P=-1162.11
  -0.00797380   0.00000000   0.00000000      -1172.99      0.00      0.00
   0.00000000  -0.00797380   0.00000000          0.00  -1172.99      0.00
   0.00000000   0.00000000  -0.00775209          0.00      0.00  -1140.37


     The maximum number of steps has been reached.

     End of BFGS Geometry Optimization
Begin final coordinates
     new unit-cell volume =    309.81947 a.u.^3 (    45.91051 Ang^3 )

CELL_PARAMETERS (alat=  5.41249258)
   1.160867207   0.000000000   0.000000000
   0.000000000   1.160867207   0.000000000
   0.000000000   0.000000000   1.449945519

ATOMIC_POSITIONS (crystal)
Cu       0.500000000   0.500000000   0.500000000
Au       0.000000000   0.000000000   0.000000000
End final coordinates



     A final scf calculation at the relaxed structure.
     The G-vectors are recalculated for the final unit cell
     Results may differ from those at the preceding step.
