
     Program PWSCF v.5.0.2 starts on 22Mar2018 at 16:18:50 

     This program is part of the open-source Quantum ESPRESSO suite
     for quantum simulation of materials; please cite
         "P. Giannozzi et al., J. Phys.:Condens. Matter 21 395502 (2009);
          URL http://www.quantum-espresso.org", 
     in publications or presentations arising from this work. More details at
     http://www.quantum-espresso.org/quote.php

     Parallel version (MPI), running on     4 processors
     R & G space division:  proc/nbgrp/npool/nimage =       4

     Current dimensions of program PWSCF are:
     Max number of different atomic species (ntypx) = 10
     Max number of k-points (npk) =  40000
     Max angular momentum in pseudopotentials (lmaxx) =  3
     Waiting for input...
     Reading input from standard input

     Subspace diagonalization in iterative solution of the eigenvalue problem:
     a serial algorithm will be used

 
     Parallelization info
     --------------------
     sticks:   dense  smooth     PW     G-vecs:    dense   smooth      PW
     Min          93      93     30                 1717     1717     310
     Max          94      94     31                 1720     1720     313
     Sum         373     373    121                 6871     6871    1247
 


     bravais-lattice index     =            0
     lattice parameter (alat)  =       5.4125  a.u.
     unit-cell volume          =     202.7222 (a.u.)^3
     number of atoms/cell      =            2
     number of atomic types    =            2
     number of electrons       =        30.00
     number of Kohn-Sham states=           19
     kinetic-energy cutoff     =      40.0000  Ry
     charge density cutoff     =     160.0000  Ry
     convergence threshold     =      1.0E-04
     mixing beta               =       0.7000
     number of iterations used =            8  plain     mixing
     Exchange-correlation      = SLA-PZ-NOGX-NOGC ( 1 1 0 0 0)
     EXX-fraction              =        0.00
     nstep                     =           50


     celldm(1)=   5.412493  celldm(2)=   0.000000  celldm(3)=   0.000000
     celldm(4)=   0.000000  celldm(5)=   0.000000  celldm(6)=   0.000000

     crystal axes: (cart. coord. in units of alat)
               a(1) = (   1.000000   0.000000   0.000000 )  
               a(2) = (   0.000000   1.000000   0.000000 )  
               a(3) = (   0.000000   0.000000   1.278525 )  

     reciprocal axes: (cart. coord. in units 2 pi/alat)
               b(1) = (  1.000000  0.000000  0.000000 )  
               b(2) = (  0.000000  1.000000  0.000000 )  
               b(3) = (  0.000000  0.000000  0.782151 )  


     PseudoPot. # 1 for Pr read from file:
     /home/cwx6513/pp.La/Pr.UPF
     MD5 check sum: 70e2b4b153859e92c8c91247dfc63203
     Pseudo is Norm-conserving, Zval = 13.0
     Generated in analytical, separable form
     Using radial grid of 1255 points,  6 beta functions with: 
                l(1) =   0
                l(2) =   0
                l(3) =   1
                l(4) =   1
                l(5) =   2
                l(6) =   3

     PseudoPot. # 2 for Eu read from file:
     /home/cwx6513/pp.La/Eu.UPF
     MD5 check sum: 5efdbbfc50c6a10138933a6429836ad2
     Pseudo is Norm-conserving, Zval = 17.0
     Generated in analytical, separable form
     Using radial grid of 1261 points,  6 beta functions with: 
                l(1) =   0
                l(2) =   0
                l(3) =   1
                l(4) =   1
                l(5) =   2
                l(6) =   3

     atomic species   valence    mass     pseudopotential
        Cu            13.00    63.54600     Pr( 1.00)
        Au            17.00   196.96600     Eu( 1.00)

     16 Sym. Ops., with inversion, found



   Cartesian axes

     site n.     atom                  positions (alat units)
         1           Cu  tau(   1) = (   0.5000000   0.5000000   0.6392626  )
         2           Au  tau(   2) = (   0.0000000   0.0000000   0.0000000  )

     number of k points=   100  gaussian smearing, width (Ry)=  0.1000

     Number of k-points >= 100: set verbosity='high' to print them.

     Dense  grid:     6871 G-vectors     FFT dimensions: (  24,  24,  27)

     Largest allocated arrays     est. size (Mb)     dimensions
        Kohn-Sham Wavefunctions         0.07 Mb     (    228,   19)
        NL pseudopotentials             0.14 Mb     (    228,   40)
        Each V/rho on FFT grid          0.06 Mb     (   4032)
        Each G-vector array             0.01 Mb     (   1720)
        G-vector shells                 0.01 Mb     (   1720)
     Largest temporary arrays     est. size (Mb)     dimensions
        Each subspace H/S matrix        0.01 Mb     (  19,  19)
        Each <psi_i|beta_j> matrix      0.01 Mb     (     40,   19)
        Arrays for rho mixing           0.49 Mb     (   4032,   8)

     Initial potential from superposition of free atoms
     Check: negative starting charge=   -0.000305

     starting charge   12.99054, renormalised to   30.00000

     negative rho (up, down):  0.705E-03 0.000E+00
     Starting wfc are   20 randomized atomic wfcs

     total cpu time spent up to now is        1.6 secs

     Self-consistent Calculation

     iteration #  1     ecut=    40.00 Ry     beta=0.70
     CG style diagonalization
     c_bands:  3 eigenvalues not converged
     c_bands:  4 eigenvalues not converged
     c_bands:  1 eigenvalues not converged
     c_bands:  1 eigenvalues not converged
     c_bands:  4 eigenvalues not converged
     c_bands:  5 eigenvalues not converged
     c_bands:  3 eigenvalues not converged
     c_bands:  4 eigenvalues not converged
     c_bands:  4 eigenvalues not converged
     c_bands:  5 eigenvalues not converged
     c_bands:  5 eigenvalues not converged
     c_bands:  5 eigenvalues not converged
     c_bands:  5 eigenvalues not converged
     c_bands:  2 eigenvalues not converged
     c_bands:  4 eigenvalues not converged
     c_bands:  4 eigenvalues not converged
     c_bands:  5 eigenvalues not converged
     c_bands:  3 eigenvalues not converged
     c_bands:  3 eigenvalues not converged
     c_bands:  4 eigenvalues not converged
     c_bands:  3 eigenvalues not converged
     c_bands:  2 eigenvalues not converged
     c_bands:  5 eigenvalues not converged
     c_bands:  5 eigenvalues not converged
     c_bands:  4 eigenvalues not converged
     c_bands:  5 eigenvalues not converged
     c_bands:  5 eigenvalues not converged
     c_bands:  5 eigenvalues not converged
     c_bands:  5 eigenvalues not converged
     ethr =  1.00E-02,  avg # of iterations = 19.2

     negative rho (up, down):  0.206E-03 0.000E+00

     total cpu time spent up to now is       10.2 secs

     total energy              =    -104.58751507 Ry
     Harris-Foulkes estimate   =    -523.90753070 Ry
     estimated scf accuracy    <     504.73006313 Ry

     iteration #  2     ecut=    40.00 Ry     beta=0.70
     CG style diagonalization
     c_bands:  1 eigenvalues not converged
     c_bands:  1 eigenvalues not converged
     c_bands:  1 eigenvalues not converged
     c_bands:  1 eigenvalues not converged
     c_bands:  1 eigenvalues not converged
     c_bands:  2 eigenvalues not converged
     c_bands:  1 eigenvalues not converged
     c_bands:  1 eigenvalues not converged
     c_bands:  1 eigenvalues not converged
     c_bands:  1 eigenvalues not converged
     c_bands:  2 eigenvalues not converged
     c_bands:  1 eigenvalues not converged
     c_bands:  1 eigenvalues not converged
     c_bands:  1 eigenvalues not converged
     c_bands:  1 eigenvalues not converged
     c_bands:  1 eigenvalues not converged
     c_bands:  1 eigenvalues not converged
     c_bands:  1 eigenvalues not converged
     c_bands:  1 eigenvalues not converged
     c_bands:  2 eigenvalues not converged
     c_bands:  2 eigenvalues not converged
     c_bands:  1 eigenvalues not converged
     ethr =  1.00E-02,  avg # of iterations = 13.3

     negative rho (up, down):  0.882E-04 0.000E+00

     total cpu time spent up to now is       16.3 secs

     total energy              =    -209.99874699 Ry
     Harris-Foulkes estimate   =    -354.17365306 Ry
     estimated scf accuracy    <     232.65825881 Ry

     iteration #  3     ecut=    40.00 Ry     beta=0.70
     CG style diagonalization
     c_bands:  1 eigenvalues not converged
     c_bands:  1 eigenvalues not converged
     ethr =  1.00E-02,  avg # of iterations = 11.0

     negative rho (up, down):  0.746E-04 0.000E+00

     total cpu time spent up to now is       22.1 secs

     total energy              =    -273.92334492 Ry
     Harris-Foulkes estimate   =    -276.84621684 Ry
     estimated scf accuracy    <      22.75159829 Ry

     iteration #  4     ecut=    40.00 Ry     beta=0.70
     CG style diagonalization
     ethr =  1.00E-02,  avg # of iterations =  3.0

     total cpu time spent up to now is       23.4 secs

     total energy              =    -263.25830056 Ry
     Harris-Foulkes estimate   =    -274.09787858 Ry
     estimated scf accuracy    <      16.62942626 Ry

     iteration #  5     ecut=    40.00 Ry     beta=0.70
     CG style diagonalization
     ethr =  1.00E-02,  avg # of iterations =  5.5

     total cpu time spent up to now is       25.8 secs

     total energy              =    -267.42681821 Ry
     Harris-Foulkes estimate   =    -268.07378169 Ry
     estimated scf accuracy    <       1.67651124 Ry

     iteration #  6     ecut=    40.00 Ry     beta=0.70
     CG style diagonalization
     ethr =  5.59E-03,  avg # of iterations =  3.5

     total cpu time spent up to now is       27.4 secs

     total energy              =    -267.71583990 Ry
     Harris-Foulkes estimate   =    -267.77257662 Ry
     estimated scf accuracy    <       0.10103127 Ry

     iteration #  7     ecut=    40.00 Ry     beta=0.70
     CG style diagonalization
     c_bands:  1 eigenvalues not converged
     c_bands:  1 eigenvalues not converged
     c_bands:  1 eigenvalues not converged
     ethr =  3.37E-04,  avg # of iterations =  4.5

     total cpu time spent up to now is       29.4 secs

     total energy              =    -267.73374745 Ry
     Harris-Foulkes estimate   =    -267.75033815 Ry
     estimated scf accuracy    <       0.02586255 Ry

     iteration #  8     ecut=    40.00 Ry     beta=0.70
     CG style diagonalization
     c_bands:  1 eigenvalues not converged
     c_bands:  1 eigenvalues not converged
     c_bands:  1 eigenvalues not converged
     ethr =  8.62E-05,  avg # of iterations =  4.0

     total cpu time spent up to now is       31.2 secs

     total energy              =    -267.74205945 Ry
     Harris-Foulkes estimate   =    -267.74664626 Ry
     estimated scf accuracy    <       0.00797504 Ry

     iteration #  9     ecut=    40.00 Ry     beta=0.70
     CG style diagonalization
     c_bands:  1 eigenvalues not converged
     c_bands:  1 eigenvalues not converged
     c_bands:  1 eigenvalues not converged
     ethr =  2.66E-05,  avg # of iterations =  3.7

     total cpu time spent up to now is       32.8 secs

     total energy              =    -267.74388872 Ry
     Harris-Foulkes estimate   =    -267.74412763 Ry
     estimated scf accuracy    <       0.00055587 Ry

     iteration # 10     ecut=    40.00 Ry     beta=0.70
     CG style diagonalization
     c_bands:  2 eigenvalues not converged
     c_bands:  1 eigenvalues not converged
     c_bands:  1 eigenvalues not converged
     c_bands:  1 eigenvalues not converged
     ethr =  1.85E-06,  avg # of iterations =  4.5

     total cpu time spent up to now is       34.8 secs

     total energy              =    -267.74396113 Ry
     Harris-Foulkes estimate   =    -267.74405667 Ry
     estimated scf accuracy    <       0.00020033 Ry

     iteration # 11     ecut=    40.00 Ry     beta=0.70
     CG style diagonalization
     c_bands:  1 eigenvalues not converged
     ethr =  6.68E-07,  avg # of iterations =  3.3

     total cpu time spent up to now is       36.4 secs

     End of self-consistent calculation

     Number of k-points >= 100: set verbosity='high' to print the bands.

     the Fermi energy is    32.6406 ev

!    total energy              =    -267.74399810 Ry
     Harris-Foulkes estimate   =    -267.74399972 Ry
     estimated scf accuracy    <       0.00000196 Ry

     The total energy is the sum of the following terms:

     one-electron contribution =      24.07043780 Ry
     hartree contribution      =      20.49458396 Ry
     xc contribution           =     -30.88109828 Ry
     ewald contribution        =    -281.34655505 Ry
     smearing contrib. (-TS)   =      -0.08136653 Ry

     convergence has been achieved in  11 iterations

     Forces acting on atoms (Ry/au):

     atom    1 type  1   force =     0.00000000    0.00000000    0.00000000
     atom    2 type  2   force =     0.00000000    0.00000000    0.00000000

     Total force =     0.000000     Total SCF correction =     0.000000


     entering subroutine stress ...

          total   stress  (Ry/bohr**3)                   (kbar)     P= 1403.31
   0.00881314   0.00000000   0.00000000       1296.46      0.00      0.00
   0.00000000   0.00881314   0.00000000          0.00   1296.46      0.00
   0.00000000   0.00000000   0.01099225          0.00      0.00   1617.02


     BFGS Geometry Optimization

     number of scf cycles    =   1
     number of bfgs steps    =   0

     enthalpy new            =    -267.7439981002 Ry

     new trust radius        =       0.5000000000 bohr
     new conv_thr            =       0.0001000000 Ry

     new unit-cell volume =    310.13982 a.u.^3 (    45.95798 Ang^3 )

CELL_PARAMETERS (alat=  5.41249258)
   1.140777623   0.000000000   0.000000000
   0.000000000   1.140777623   0.000000000
   0.000000000   0.000000000   1.503015978

ATOMIC_POSITIONS (crystal)
Cu       0.500000000   0.500000000   0.500000000
Au       0.000000000   0.000000000   0.000000000



     Writing output data file Prototype-La-tP2-AuCu.save
     Check: negative starting charge=   -0.000305
     NEW-OLD atomic charge density approx. for the potential
     NEW k-points: (use verbosity='high' to print them)
     Check: negative starting charge=   -0.003189

     negative rho (up, down):  0.296E-02 0.000E+00
     extrapolated charge   34.49931, renormalised to   30.00000

     total cpu time spent up to now is       37.4 secs

     Self-consistent Calculation

     iteration #  1     ecut=    40.00 Ry     beta=0.70
     CG style diagonalization
     c_bands:  2 eigenvalues not converged
     c_bands:  4 eigenvalues not converged
     c_bands:  3 eigenvalues not converged
     c_bands:  2 eigenvalues not converged
     c_bands:  4 eigenvalues not converged
     c_bands:  3 eigenvalues not converged
     c_bands:  3 eigenvalues not converged
     c_bands:  3 eigenvalues not converged
     c_bands:  4 eigenvalues not converged
     c_bands:  3 eigenvalues not converged
     c_bands:  4 eigenvalues not converged
     c_bands:  5 eigenvalues not converged
     c_bands:  4 eigenvalues not converged
     c_bands:  3 eigenvalues not converged
     c_bands:  1 eigenvalues not converged
     c_bands:  5 eigenvalues not converged
     c_bands:  2 eigenvalues not converged
     c_bands:  5 eigenvalues not converged
     c_bands:  4 eigenvalues not converged
     c_bands:  3 eigenvalues not converged
     c_bands:  4 eigenvalues not converged
     c_bands:  2 eigenvalues not converged
     c_bands:  3 eigenvalues not converged
     c_bands:  3 eigenvalues not converged
     c_bands:  3 eigenvalues not converged
     c_bands:  4 eigenvalues not converged
     c_bands:  3 eigenvalues not converged
     c_bands:  1 eigenvalues not converged
     c_bands:  1 eigenvalues not converged
     c_bands:  5 eigenvalues not converged
     c_bands:  5 eigenvalues not converged
     c_bands:  5 eigenvalues not converged
     c_bands:  1 eigenvalues not converged
     c_bands:  4 eigenvalues not converged
     c_bands:  5 eigenvalues not converged
     c_bands:  3 eigenvalues not converged
     c_bands:  2 eigenvalues not converged
     c_bands:  5 eigenvalues not converged
     c_bands:  4 eigenvalues not converged
     c_bands:  3 eigenvalues not converged
     c_bands:  5 eigenvalues not converged
     c_bands:  1 eigenvalues not converged
     c_bands:  4 eigenvalues not converged
     c_bands:  5 eigenvalues not converged
     c_bands:  5 eigenvalues not converged
     c_bands:  3 eigenvalues not converged
     c_bands:  1 eigenvalues not converged
     c_bands:  2 eigenvalues not converged
     c_bands:  2 eigenvalues not converged
     c_bands:  5 eigenvalues not converged
     c_bands:  2 eigenvalues not converged
     c_bands:  4 eigenvalues not converged
     c_bands:  5 eigenvalues not converged
     c_bands:  5 eigenvalues not converged
     c_bands:  1 eigenvalues not converged
     c_bands:  1 eigenvalues not converged
     c_bands:  2 eigenvalues not converged
     c_bands:  1 eigenvalues not converged
     c_bands:  4 eigenvalues not converged
     c_bands:  5 eigenvalues not converged
     c_bands:  1 eigenvalues not converged
     c_bands:  1 eigenvalues not converged
     c_bands:  5 eigenvalues not converged
     c_bands:  1 eigenvalues not converged
     c_bands:  2 eigenvalues not converged
     c_bands:  3 eigenvalues not converged
     c_bands:  1 eigenvalues not converged
     c_bands:  4 eigenvalues not converged
     c_bands:  3 eigenvalues not converged
     ethr =  1.00E-06,  avg # of iterations = 18.5

     negative rho (up, down):  0.752E-03 0.000E+00

     total cpu time spent up to now is       44.9 secs

     total energy              =    -251.33087628 Ry
     Harris-Foulkes estimate   =    -280.44406292 Ry
     estimated scf accuracy    <      37.65387933 Ry

     iteration #  2     ecut=    40.00 Ry     beta=0.70
     CG style diagonalization
     ethr =  1.00E-02,  avg # of iterations =  7.8

     negative rho (up, down):  0.458E-03 0.000E+00

     total cpu time spent up to now is       49.2 secs

     total energy              =    -256.89331681 Ry
     Harris-Foulkes estimate   =    -285.41836410 Ry
     estimated scf accuracy    <      57.75135686 Ry

     iteration #  3     ecut=    40.00 Ry     beta=0.70
     CG style diagonalization
     ethr =  1.00E-02,  avg # of iterations =  7.1

     negative rho (up, down):  0.160E-03 0.000E+00

     total cpu time spent up to now is       52.1 secs

     total energy              =    -267.45653422 Ry
     Harris-Foulkes estimate   =    -268.48043960 Ry
     estimated scf accuracy    <       2.85141692 Ry

     iteration #  4     ecut=    40.00 Ry     beta=0.70
     CG style diagonalization
     ethr =  9.50E-03,  avg # of iterations =  3.2

     negative rho (up, down):  0.927E-04 0.000E+00

     total cpu time spent up to now is       53.5 secs

     total energy              =    -267.72692069 Ry
     Harris-Foulkes estimate   =    -267.77484633 Ry
     estimated scf accuracy    <       0.26960843 Ry

     iteration #  5     ecut=    40.00 Ry     beta=0.70
     CG style diagonalization
     ethr =  8.99E-04,  avg # of iterations =  4.1

     negative rho (up, down):  0.246E-04 0.000E+00

     total cpu time spent up to now is       55.2 secs

     total energy              =    -267.77603925 Ry
     Harris-Foulkes estimate   =    -267.78366243 Ry
     estimated scf accuracy    <       0.05520385 Ry

     iteration #  6     ecut=    40.00 Ry     beta=0.70
     CG style diagonalization
     ethr =  1.84E-04,  avg # of iterations =  3.7

     total cpu time spent up to now is       56.7 secs

     total energy              =    -267.76169391 Ry
     Harris-Foulkes estimate   =    -267.78654649 Ry
     estimated scf accuracy    <       0.07713360 Ry

     iteration #  7     ecut=    40.00 Ry     beta=0.70
     CG style diagonalization
     ethr =  1.84E-04,  avg # of iterations =  3.3

     total cpu time spent up to now is       58.1 secs

     total energy              =    -267.77320220 Ry
     Harris-Foulkes estimate   =    -267.77366099 Ry
     estimated scf accuracy    <       0.00086033 Ry

     iteration #  8     ecut=    40.00 Ry     beta=0.70
     CG style diagonalization
     c_bands:  1 eigenvalues not converged
     c_bands:  1 eigenvalues not converged
     c_bands:  1 eigenvalues not converged
     c_bands:  1 eigenvalues not converged
     c_bands:  1 eigenvalues not converged
     c_bands:  1 eigenvalues not converged
     ethr =  2.87E-06,  avg # of iterations =  5.2

     total cpu time spent up to now is       60.3 secs

     total energy              =    -267.77339350 Ry
     Harris-Foulkes estimate   =    -267.77438686 Ry
     estimated scf accuracy    <       0.00375628 Ry

     iteration #  9     ecut=    40.00 Ry     beta=0.70
     CG style diagonalization
     c_bands:  1 eigenvalues not converged
     c_bands:  1 eigenvalues not converged
     ethr =  2.87E-06,  avg # of iterations =  3.5

     total cpu time spent up to now is       61.7 secs

     End of self-consistent calculation

     Number of k-points >= 100: set verbosity='high' to print the bands.

     the Fermi energy is    19.8606 ev

!    total energy              =    -267.77370998 Ry
     Harris-Foulkes estimate   =    -267.77377407 Ry
     estimated scf accuracy    <       0.00006923 Ry

     The total energy is the sum of the following terms:

     one-electron contribution =     -26.36344959 Ry
     hartree contribution      =      32.33385156 Ry
     xc contribution           =     -29.47481332 Ry
     ewald contribution        =    -244.13659926 Ry
     smearing contrib. (-TS)   =      -0.13269936 Ry

     convergence has been achieved in   9 iterations

     Forces acting on atoms (Ry/au):

     atom    1 type  1   force =     0.00000000    0.00000000    0.00000000
     atom    2 type  2   force =     0.00000000    0.00000000    0.00000000

     Total force =     0.000000     Total SCF correction =     0.000000


     entering subroutine stress ...

          total   stress  (Ry/bohr**3)                   (kbar)     P= -738.01
  -0.00495698   0.00000000   0.00000000       -729.20      0.00      0.00
   0.00000000  -0.00495698   0.00000000          0.00   -729.20      0.00
   0.00000000   0.00000000  -0.00513668          0.00      0.00   -755.63


     number of scf cycles    =   2
     number of bfgs steps    =   1

     enthalpy old            =    -267.7439981002 Ry
     enthalpy new            =    -267.7737099801 Ry

     CASE: enthalpy_new < enthalpy_old

     small trust_radius: resetting bfgs history

     new trust radius        =       0.4523046661 bohr
     new conv_thr            =       0.0000010000 Ry

     new unit-cell volume =    207.46722 a.u.^3 (    30.74347 Ang^3 )

CELL_PARAMETERS (alat=  5.41249258)
   0.999407449   0.000000000   0.000000000
   0.000000000   0.999407449   0.000000000
   0.000000000   0.000000000   1.310003267

ATOMIC_POSITIONS (crystal)
Cu       0.500000000   0.500000000   0.500000000
Au       0.000000000   0.000000000   0.000000000



     Writing output data file Prototype-La-tP2-AuCu.save
     Check: negative starting charge=   -0.003189
     NEW-OLD atomic charge density approx. for the potential
     NEW k-points: (use verbosity='high' to print them)
     Check: negative starting charge=   -0.000354

     negative rho (up, down):  0.890E+00 0.000E+00
     extrapolated charge   23.57116, renormalised to   30.00000

     total cpu time spent up to now is       62.6 secs

     Self-consistent Calculation

     iteration #  1     ecut=    40.00 Ry     beta=0.70
     CG style diagonalization
     c_bands:  1 eigenvalues not converged
     c_bands:  5 eigenvalues not converged
     c_bands:  2 eigenvalues not converged
     c_bands:  1 eigenvalues not converged
     c_bands:  1 eigenvalues not converged
     c_bands:  5 eigenvalues not converged
     c_bands:  2 eigenvalues not converged
     c_bands:  5 eigenvalues not converged
     c_bands:  1 eigenvalues not converged
     c_bands:  2 eigenvalues not converged
     c_bands:  1 eigenvalues not converged
     c_bands:  1 eigenvalues not converged
     c_bands:  3 eigenvalues not converged
     c_bands:  1 eigenvalues not converged
     c_bands:  3 eigenvalues not converged
     c_bands:  4 eigenvalues not converged
     c_bands:  1 eigenvalues not converged
     c_bands:  1 eigenvalues not converged
     c_bands:  2 eigenvalues not converged
     c_bands:  2 eigenvalues not converged
     c_bands:  1 eigenvalues not converged
     c_bands:  3 eigenvalues not converged
     c_bands:  4 eigenvalues not converged
     c_bands:  3 eigenvalues not converged
     c_bands:  3 eigenvalues not converged
     c_bands:  2 eigenvalues not converged
     c_bands:  2 eigenvalues not converged
     c_bands:  2 eigenvalues not converged
     c_bands:  2 eigenvalues not converged
     c_bands:  4 eigenvalues not converged
     c_bands:  4 eigenvalues not converged
     c_bands:  2 eigenvalues not converged
     c_bands:  4 eigenvalues not converged
     c_bands:  4 eigenvalues not converged
     c_bands:  5 eigenvalues not converged
     c_bands:  2 eigenvalues not converged
     c_bands:  3 eigenvalues not converged
     c_bands:  2 eigenvalues not converged
     c_bands:  1 eigenvalues not converged
     c_bands:  1 eigenvalues not converged
     c_bands:  3 eigenvalues not converged
     c_bands:  1 eigenvalues not converged
     c_bands:  1 eigenvalues not converged
     c_bands:  2 eigenvalues not converged
     c_bands:  1 eigenvalues not converged
     c_bands:  1 eigenvalues not converged
     c_bands:  3 eigenvalues not converged
     c_bands:  2 eigenvalues not converged
     c_bands:  4 eigenvalues not converged
     c_bands:  5 eigenvalues not converged
     c_bands:  1 eigenvalues not converged
     c_bands:  2 eigenvalues not converged
     c_bands:  2 eigenvalues not converged
     c_bands:  4 eigenvalues not converged
     c_bands:  3 eigenvalues not converged
     c_bands:  2 eigenvalues not converged
     c_bands:  1 eigenvalues not converged
     c_bands:  2 eigenvalues not converged
     c_bands:  1 eigenvalues not converged
     c_bands:  5 eigenvalues not converged
     c_bands:  2 eigenvalues not converged
     c_bands:  1 eigenvalues not converged
     c_bands:  1 eigenvalues not converged
     c_bands:  3 eigenvalues not converged
     c_bands:  5 eigenvalues not converged
     c_bands:  2 eigenvalues not converged
     c_bands:  3 eigenvalues not converged
     c_bands:  3 eigenvalues not converged
     c_bands:  3 eigenvalues not converged
     c_bands:  1 eigenvalues not converged
     c_bands:  1 eigenvalues not converged
     c_bands:  3 eigenvalues not converged
     c_bands:  3 eigenvalues not converged
     c_bands:  4 eigenvalues not converged
     c_bands:  2 eigenvalues not converged
     c_bands:  2 eigenvalues not converged
     c_bands:  3 eigenvalues not converged
     c_bands:  4 eigenvalues not converged
     c_bands:  5 eigenvalues not converged
     c_bands:  2 eigenvalues not converged
     c_bands:  1 eigenvalues not converged
     c_bands:  3 eigenvalues not converged
     c_bands:  3 eigenvalues not converged
     ethr =  1.00E-06,  avg # of iterations = 25.8

     negative rho (up, down):  0.608E-01 0.000E+00

     total cpu time spent up to now is       72.9 secs

     total energy              =    -208.85612579 Ry
     Harris-Foulkes estimate   =    -313.27769913 Ry
     estimated scf accuracy    <     138.20637699 Ry

     iteration #  2     ecut=    40.00 Ry     beta=0.70
     CG style diagonalization
     c_bands:  1 eigenvalues not converged
     c_bands:  1 eigenvalues not converged
     c_bands:  1 eigenvalues not converged
     c_bands:  1 eigenvalues not converged
     c_bands:  1 eigenvalues not converged
     c_bands:  1 eigenvalues not converged
     c_bands:  1 eigenvalues not converged
     c_bands:  2 eigenvalues not converged
     c_bands:  1 eigenvalues not converged
     c_bands:  1 eigenvalues not converged
     c_bands:  1 eigenvalues not converged
     c_bands:  1 eigenvalues not converged
     c_bands:  1 eigenvalues not converged
     c_bands:  1 eigenvalues not converged
     c_bands:  1 eigenvalues not converged
     c_bands:  1 eigenvalues not converged
     c_bands:  1 eigenvalues not converged
     c_bands:  2 eigenvalues not converged
     c_bands:  1 eigenvalues not converged
     c_bands:  1 eigenvalues not converged
     c_bands:  2 eigenvalues not converged
     c_bands:  1 eigenvalues not converged
     c_bands:  1 eigenvalues not converged
     c_bands:  1 eigenvalues not converged
     c_bands:  1 eigenvalues not converged
     c_bands:  1 eigenvalues not converged
     c_bands:  1 eigenvalues not converged
     c_bands:  1 eigenvalues not converged
     c_bands:  1 eigenvalues not converged
     c_bands:  1 eigenvalues not converged
     c_bands:  1 eigenvalues not converged
     c_bands:  1 eigenvalues not converged
     c_bands:  2 eigenvalues not converged
     c_bands:  1 eigenvalues not converged
     c_bands:  1 eigenvalues not converged
     c_bands:  1 eigenvalues not converged
     c_bands:  1 eigenvalues not converged
     c_bands:  1 eigenvalues not converged
     c_bands:  1 eigenvalues not converged
     c_bands:  1 eigenvalues not converged
     c_bands:  1 eigenvalues not converged
     c_bands:  1 eigenvalues not converged
     c_bands:  1 eigenvalues not converged
     c_bands:  1 eigenvalues not converged
     c_bands:  1 eigenvalues not converged
     c_bands:  2 eigenvalues not converged
     ethr =  1.00E-02,  avg # of iterations = 12.3

     negative rho (up, down):  0.385E-01 0.000E+00

     total cpu time spent up to now is       77.9 secs

     total energy              =    -236.14957026 Ry
     Harris-Foulkes estimate   =    -308.86943098 Ry
     estimated scf accuracy    <     133.56258974 Ry

     iteration #  3     ecut=    40.00 Ry     beta=0.70
     CG style diagonalization
     ethr =  1.00E-02,  avg # of iterations =  8.8

     negative rho (up, down):  0.164E-01 0.000E+00

     total cpu time spent up to now is       81.6 secs

     total energy              =    -267.59173747 Ry
     Harris-Foulkes estimate   =    -269.17749035 Ry
     estimated scf accuracy    <       4.34069573 Ry

     iteration #  4     ecut=    40.00 Ry     beta=0.70
     CG style diagonalization
     ethr =  1.00E-02,  avg # of iterations =  3.2

     total cpu time spent up to now is       82.9 secs

     total energy              =    -267.48012741 Ry
     Harris-Foulkes estimate   =    -267.98201384 Ry
     estimated scf accuracy    <       0.75365130 Ry

     iteration #  5     ecut=    40.00 Ry     beta=0.70
     CG style diagonalization
     ethr =  2.51E-03,  avg # of iterations =  4.4

     total cpu time spent up to now is       84.7 secs

     total energy              =    -267.76271517 Ry
     Harris-Foulkes estimate   =    -267.86947290 Ry
     estimated scf accuracy    <       0.20991737 Ry

     iteration #  6     ecut=    40.00 Ry     beta=0.70
     CG style diagonalization
     ethr =  7.00E-04,  avg # of iterations =  3.6

     total cpu time spent up to now is       86.2 secs

     total energy              =    -267.78427784 Ry
     Harris-Foulkes estimate   =    -267.79411000 Ry
     estimated scf accuracy    <       0.01723193 Ry

     iteration #  7     ecut=    40.00 Ry     beta=0.70
     CG style diagonalization
     c_bands:  2 eigenvalues not converged
     c_bands:  1 eigenvalues not converged
     c_bands:  1 eigenvalues not converged
     c_bands:  1 eigenvalues not converged
     c_bands:  1 eigenvalues not converged
     c_bands:  1 eigenvalues not converged
     ethr =  5.74E-05,  avg # of iterations =  4.2

     total cpu time spent up to now is       87.9 secs

     total energy              =    -267.79048057 Ry
     Harris-Foulkes estimate   =    -267.79311209 Ry
     estimated scf accuracy    <       0.00494869 Ry

     iteration #  8     ecut=    40.00 Ry     beta=0.70
     CG style diagonalization
     c_bands:  2 eigenvalues not converged
     ethr =  1.65E-05,  avg # of iterations =  3.6

     total cpu time spent up to now is       89.4 secs

     total energy              =    -267.79194917 Ry
     Harris-Foulkes estimate   =    -267.79215833 Ry
     estimated scf accuracy    <       0.00051115 Ry

     iteration #  9     ecut=    40.00 Ry     beta=0.70
     CG style diagonalization
     c_bands:  1 eigenvalues not converged
     c_bands:  1 eigenvalues not converged
     c_bands:  1 eigenvalues not converged
     ethr =  1.70E-06,  avg # of iterations =  4.0

     total cpu time spent up to now is       91.1 secs

     total energy              =    -267.79204122 Ry
     Harris-Foulkes estimate   =    -267.79205874 Ry
     estimated scf accuracy    <       0.00003424 Ry

     iteration # 10     ecut=    40.00 Ry     beta=0.70
     CG style diagonalization
     ethr =  1.14E-07,  avg # of iterations =  4.2

     total cpu time spent up to now is       93.1 secs

     total energy              =    -267.79206150 Ry
     Harris-Foulkes estimate   =    -267.79206391 Ry
     estimated scf accuracy    <       0.00000490 Ry

     iteration # 11     ecut=    40.00 Ry     beta=0.70
     CG style diagonalization
     ethr =  1.63E-08,  avg # of iterations =  3.7

     total cpu time spent up to now is       94.6 secs

     End of self-consistent calculation

     Number of k-points >= 100: set verbosity='high' to print the bands.

     the Fermi energy is    31.7789 ev

!    total energy              =    -267.79206290 Ry
     Harris-Foulkes estimate   =    -267.79206313 Ry
     estimated scf accuracy    <       0.00000026 Ry

     The total energy is the sum of the following terms:

     one-electron contribution =      21.12774694 Ry
     hartree contribution      =      21.10156978 Ry
     xc contribution           =     -30.78503469 Ry
     ewald contribution        =    -279.15521453 Ry
     smearing contrib. (-TS)   =      -0.08113040 Ry

     convergence has been achieved in  11 iterations

     Forces acting on atoms (Ry/au):

     atom    1 type  1   force =     0.00000000    0.00000000    0.00000000
     atom    2 type  2   force =     0.00000000    0.00000000    0.00000000

     Total force =     0.000000     Total SCF correction =     0.000000


     entering subroutine stress ...

          total   stress  (Ry/bohr**3)                   (kbar)     P= 1194.55
   0.00761516   0.00000000   0.00000000       1120.23      0.00      0.00
   0.00000000   0.00761516   0.00000000          0.00   1120.23      0.00
   0.00000000   0.00000000   0.00913093          0.00      0.00   1343.21


     number of scf cycles    =   3
     number of bfgs steps    =   2

     enthalpy old            =    -267.7737099801 Ry
     enthalpy new            =    -267.7920629046 Ry

     CASE: enthalpy_new < enthalpy_old

     Message from routine bfgs:
     history already reset at previous step: stopping
     small trust_radius: resetting bfgs history

     new trust radius        =       0.6575966765 bohr
     new conv_thr            =       0.0000010000 Ry

     new unit-cell volume =    361.08965 a.u.^3 (    53.50796 Ang^3 )

CELL_PARAMETERS (alat=  5.41249258)
   1.189673735   0.000000000   0.000000000
   0.000000000   1.189673735   0.000000000
   0.000000000   0.000000000   1.609041869

ATOMIC_POSITIONS (crystal)
Cu       0.500000000   0.500000000   0.500000000
Au       0.000000000   0.000000000   0.000000000



     Writing output data file Prototype-La-tP2-AuCu.save
     Check: negative starting charge=   -0.000354
     NEW-OLD atomic charge density approx. for the potential
     NEW k-points: (use verbosity='high' to print them)
     Check: negative starting charge=   -0.004508

     negative rho (up, down):  0.427E-02 0.000E+00
     extrapolated charge   35.52671, renormalised to   30.00000

     total cpu time spent up to now is       95.7 secs

     Self-consistent Calculation

     iteration #  1     ecut=    40.00 Ry     beta=0.70
     CG style diagonalization
     c_bands:  2 eigenvalues not converged
     c_bands:  2 eigenvalues not converged
     c_bands:  5 eigenvalues not converged
     c_bands:  5 eigenvalues not converged
     c_bands:  2 eigenvalues not converged
     c_bands:  1 eigenvalues not converged
     c_bands:  5 eigenvalues not converged
     c_bands:  1 eigenvalues not converged
     c_bands:  4 eigenvalues not converged
     c_bands:  1 eigenvalues not converged
     c_bands:  2 eigenvalues not converged
     c_bands:  2 eigenvalues not converged
     c_bands:  4 eigenvalues not converged
     c_bands:  1 eigenvalues not converged
     c_bands:  1 eigenvalues not converged
     c_bands:  2 eigenvalues not converged
     c_bands:  1 eigenvalues not converged
     c_bands:  1 eigenvalues not converged
     c_bands:  3 eigenvalues not converged
     c_bands:  1 eigenvalues not converged
     c_bands:  4 eigenvalues not converged
     c_bands:  5 eigenvalues not converged
     c_bands:  2 eigenvalues not converged
     c_bands:  2 eigenvalues not converged
     c_bands:  3 eigenvalues not converged
     c_bands:  3 eigenvalues not converged
     c_bands:  2 eigenvalues not converged
     c_bands:  1 eigenvalues not converged
     c_bands:  1 eigenvalues not converged
     c_bands:  1 eigenvalues not converged
     c_bands:  2 eigenvalues not converged
     c_bands:  2 eigenvalues not converged
     c_bands:  2 eigenvalues not converged
     c_bands:  1 eigenvalues not converged
     c_bands:  1 eigenvalues not converged
     c_bands:  1 eigenvalues not converged
     c_bands:  4 eigenvalues not converged
     c_bands:  1 eigenvalues not converged
     c_bands:  2 eigenvalues not converged
     c_bands:  1 eigenvalues not converged
     c_bands:  2 eigenvalues not converged
     c_bands:  1 eigenvalues not converged
     c_bands:  1 eigenvalues not converged
     c_bands:  1 eigenvalues not converged
     c_bands:  1 eigenvalues not converged
     c_bands:  1 eigenvalues not converged
     c_bands:  3 eigenvalues not converged
     c_bands:  1 eigenvalues not converged
     c_bands:  1 eigenvalues not converged
     c_bands:  4 eigenvalues not converged
     c_bands:  2 eigenvalues not converged
     c_bands:  1 eigenvalues not converged
     c_bands:  1 eigenvalues not converged
     c_bands:  1 eigenvalues not converged
     c_bands:  2 eigenvalues not converged
     c_bands:  1 eigenvalues not converged
     c_bands:  1 eigenvalues not converged
     c_bands:  1 eigenvalues not converged
     c_bands:  1 eigenvalues not converged
     c_bands:  1 eigenvalues not converged
     c_bands:  1 eigenvalues not converged
     c_bands:  1 eigenvalues not converged
     c_bands:  1 eigenvalues not converged
     c_bands:  1 eigenvalues not converged
     c_bands:  1 eigenvalues not converged
     c_bands:  1 eigenvalues not converged
     c_bands:  2 eigenvalues not converged
     c_bands:  3 eigenvalues not converged
     c_bands:  5 eigenvalues not converged
     c_bands:  1 eigenvalues not converged
     ethr =  1.00E-06,  avg # of iterations = 24.1

     negative rho (up, down):  0.105E-02 0.000E+00

     total cpu time spent up to now is      105.4 secs

     total energy              =    -232.87302227 Ry
     Harris-Foulkes estimate   =    -286.47085460 Ry
     estimated scf accuracy    <      66.94564536 Ry

     iteration #  2     ecut=    40.00 Ry     beta=0.70
     CG style diagonalization
     c_bands:  1 eigenvalues not converged
     c_bands:  1 eigenvalues not converged
     c_bands:  1 eigenvalues not converged
     c_bands:  1 eigenvalues not converged
     c_bands:  1 eigenvalues not converged
     c_bands:  1 eigenvalues not converged
     ethr =  1.00E-02,  avg # of iterations = 10.4

     negative rho (up, down):  0.615E-03 0.000E+00

     total cpu time spent up to now is      109.7 secs

     total energy              =    -240.03110534 Ry
     Harris-Foulkes estimate   =    -303.79396595 Ry
     estimated scf accuracy    <     138.25020847 Ry

     iteration #  3     ecut=    40.00 Ry     beta=0.70
     CG style diagonalization
     ethr =  1.00E-02,  avg # of iterations =  8.1

     negative rho (up, down):  0.110E-03 0.000E+00

     total cpu time spent up to now is      113.1 secs

     total energy              =    -266.87659558 Ry
     Harris-Foulkes estimate   =    -268.28016483 Ry
     estimated scf accuracy    <       3.65881057 Ry

     iteration #  4     ecut=    40.00 Ry     beta=0.70
     CG style diagonalization
     ethr =  1.00E-02,  avg # of iterations =  3.4

     negative rho (up, down):  0.257E-04 0.000E+00

     total cpu time spent up to now is      114.5 secs

     total energy              =    -267.41162088 Ry
     Harris-Foulkes estimate   =    -267.46309723 Ry
     estimated scf accuracy    <       0.09810827 Ry

     iteration #  5     ecut=    40.00 Ry     beta=0.70
     CG style diagonalization
     c_bands:  1 eigenvalues not converged
     ethr =  3.27E-04,  avg # of iterations =  4.8

     total cpu time spent up to now is      116.4 secs

     total energy              =    -267.45630728 Ry
     Harris-Foulkes estimate   =    -267.46825332 Ry
     estimated scf accuracy    <       0.03423321 Ry

     iteration #  6     ecut=    40.00 Ry     beta=0.70
     CG style diagonalization
     ethr =  1.14E-04,  avg # of iterations =  3.4

     total cpu time spent up to now is      117.8 secs

     total energy              =    -267.46361332 Ry
     Harris-Foulkes estimate   =    -267.46658917 Ry
     estimated scf accuracy    <       0.00913918 Ry

     iteration #  7     ecut=    40.00 Ry     beta=0.70
     CG style diagonalization
     ethr =  3.05E-05,  avg # of iterations =  3.3

     total cpu time spent up to now is      119.4 secs

     total energy              =    -267.46522300 Ry
     Harris-Foulkes estimate   =    -267.46535337 Ry
     estimated scf accuracy    <       0.00036290 Ry

     iteration #  8     ecut=    40.00 Ry     beta=0.70
     CG style diagonalization
     c_bands:  1 eigenvalues not converged
     c_bands:  1 eigenvalues not converged
     c_bands:  1 eigenvalues not converged
     ethr =  1.21E-06,  avg # of iterations =  4.2

     total cpu time spent up to now is      121.1 secs

     total energy              =    -267.46537916 Ry
     Harris-Foulkes estimate   =    -267.46539222 Ry
     estimated scf accuracy    <       0.00002114 Ry

     iteration #  9     ecut=    40.00 Ry     beta=0.70
     CG style diagonalization
     ethr =  7.05E-08,  avg # of iterations =  4.5

     total cpu time spent up to now is      122.9 secs

     total energy              =    -267.46538566 Ry
     Harris-Foulkes estimate   =    -267.46540687 Ry
     estimated scf accuracy    <       0.00008728 Ry

     iteration # 10     ecut=    40.00 Ry     beta=0.70
     CG style diagonalization
     ethr =  7.05E-08,  avg # of iterations =  3.4

     total cpu time spent up to now is      126.3 secs

     End of self-consistent calculation

     Number of k-points >= 100: set verbosity='high' to print the bands.

     the Fermi energy is    16.3992 ev

!    total energy              =    -267.46539343 Ry
     Harris-Foulkes estimate   =    -267.46539417 Ry
     estimated scf accuracy    <       0.00000079 Ry

     The total energy is the sum of the following terms:

     one-electron contribution =     -43.34597903 Ry
     hartree contribution      =      37.20343295 Ry
     xc contribution           =     -29.12377735 Ry
     ewald contribution        =    -232.03715953 Ry
     smearing contrib. (-TS)   =      -0.16191047 Ry

     convergence has been achieved in  10 iterations

     Forces acting on atoms (Ry/au):

     atom    1 type  1   force =     0.00000000    0.00000000    0.00000000
     atom    2 type  2   force =     0.00000000    0.00000000    0.00000000

     Total force =     0.000000     Total SCF correction =     0.000000


     entering subroutine stress ...

          total   stress  (Ry/bohr**3)                   (kbar)     P= -989.74
  -0.00646141   0.00000000   0.00000000       -950.51      0.00      0.00
   0.00000000  -0.00646141   0.00000000          0.00   -950.51      0.00
   0.00000000   0.00000000  -0.00726153          0.00      0.00  -1068.21


     The maximum number of steps has been reached.

     End of BFGS Geometry Optimization
Begin final coordinates
     new unit-cell volume =    361.08965 a.u.^3 (    53.50796 Ang^3 )

CELL_PARAMETERS (alat=  5.41249258)
   1.189673735   0.000000000   0.000000000
   0.000000000   1.189673735   0.000000000
   0.000000000   0.000000000   1.609041869

ATOMIC_POSITIONS (crystal)
Cu       0.500000000   0.500000000   0.500000000
Au       0.000000000   0.000000000   0.000000000
End final coordinates



     A final scf calculation at the relaxed structure.
     The G-vectors are recalculated for the final unit cell
     Results may differ from those at the preceding step.
 
     Parallelization info
     --------------------
     sticks:   dense  smooth     PW     G-vecs:    dense   smooth      PW
     Min         129     129     41                 3083     3083     528
     Max         130     130     43                 3086     3086     529
     Sum         517     517    169                12335    12335    2115
 


     bravais-lattice index     =            0
     lattice parameter (alat)  =       5.4125  a.u.
     unit-cell volume          =     361.0896 (a.u.)^3
     number of atoms/cell      =            2
     number of atomic types    =            2
     number of electrons       =        30.00
     number of Kohn-Sham states=           19
     kinetic-energy cutoff     =      40.0000  Ry
     charge density cutoff     =     160.0000  Ry
     convergence threshold     =      1.0E-06
     mixing beta               =       0.7000
     number of iterations used =            8  plain     mixing
     Exchange-correlation      = SLA-PZ-NOGX-NOGC ( 1 1 0 0 0)
     EXX-fraction              =        0.00

     celldm(1)=   5.412493  celldm(2)=   0.000000  celldm(3)=   0.000000
     celldm(4)=   0.000000  celldm(5)=   0.000000  celldm(6)=   0.000000

     crystal axes: (cart. coord. in units of alat)
               a(1) = (   1.189674   0.000000   0.000000 )  
               a(2) = (   0.000000   1.189674   0.000000 )  
               a(3) = (   0.000000   0.000000   1.609042 )  

     reciprocal axes: (cart. coord. in units 2 pi/alat)
               b(1) = (  0.840567  0.000000  0.000000 )  
               b(2) = (  0.000000  0.840567  0.000000 )  
               b(3) = (  0.000000  0.000000  0.621488 )  


     PseudoPot. # 1 for Pr read from file:
     /home/cwx6513/pp.La/Pr.UPF
     MD5 check sum: 70e2b4b153859e92c8c91247dfc63203
     Pseudo is Norm-conserving, Zval = 13.0
     Generated in analytical, separable form
     Using radial grid of 1255 points,  6 beta functions with: 
                l(1) =   0
                l(2) =   0
                l(3) =   1
                l(4) =   1
                l(5) =   2
                l(6) =   3

     PseudoPot. # 2 for Eu read from file:
     /home/cwx6513/pp.La/Eu.UPF
     MD5 check sum: 5efdbbfc50c6a10138933a6429836ad2
     Pseudo is Norm-conserving, Zval = 17.0
     Generated in analytical, separable form
     Using radial grid of 1261 points,  6 beta functions with: 
                l(1) =   0
                l(2) =   0
                l(3) =   1
                l(4) =   1
                l(5) =   2
                l(6) =   3

     atomic species   valence    mass     pseudopotential
        Cu            13.00    63.54600     Pr( 1.00)
        Au            17.00   196.96600     Eu( 1.00)

     16 Sym. Ops., with inversion, found



   Cartesian axes

     site n.     atom                  positions (alat units)
         1           Cu  tau(   1) = (   0.5948369   0.5948369   0.8045209  )
         2           Au  tau(   2) = (   0.0000000   0.0000000   0.0000000  )

     number of k points=   100  gaussian smearing, width (Ry)=  0.1000

     Number of k-points >= 100: set verbosity='high' to print them.

     Dense  grid:    12335 G-vectors     FFT dimensions: (  25,  25,  36)

     Largest allocated arrays     est. size (Mb)     dimensions
        Kohn-Sham Wavefunctions         0.12 Mb     (    399,   19)
        NL pseudopotentials             0.24 Mb     (    399,   40)
        Each V/rho on FFT grid          0.09 Mb     (   5625)
        Each G-vector array             0.02 Mb     (   3083)
        G-vector shells                 0.01 Mb     (    778)
     Largest temporary arrays     est. size (Mb)     dimensions
        Each subspace H/S matrix        0.01 Mb     (  19,  19)
        Each <psi_i|beta_j> matrix      0.01 Mb     (     40,   19)
        Arrays for rho mixing           0.69 Mb     (   5625,   8)

     Initial potential from superposition of free atoms
     Check: negative starting charge=   -0.000453

     starting charge   12.99054, renormalised to   30.00000

     negative rho (up, down):  0.105E-02 0.000E+00
     Starting wfc are   20 randomized atomic wfcs

     Writing output data file Prototype-La-tP2-AuCu.save

     total cpu time spent up to now is      129.0 secs

     Self-consistent Calculation

     iteration #  1     ecut=    40.00 Ry     beta=0.70
     CG style diagonalization
     c_bands:  1 eigenvalues not converged
     c_bands:  4 eigenvalues not converged
     c_bands:  1 eigenvalues not converged
     c_bands:  1 eigenvalues not converged
     c_bands:  2 eigenvalues not converged
     c_bands:  2 eigenvalues not converged
     c_bands:  1 eigenvalues not converged
     c_bands:  1 eigenvalues not converged
     c_bands:  2 eigenvalues not converged
     c_bands:  2 eigenvalues not converged
     c_bands:  1 eigenvalues not converged
     c_bands:  2 eigenvalues not converged
     c_bands:  2 eigenvalues not converged
     c_bands:  1 eigenvalues not converged
     c_bands:  1 eigenvalues not converged
     c_bands:  2 eigenvalues not converged
     c_bands:  2 eigenvalues not converged
     c_bands:  1 eigenvalues not converged
     c_bands:  1 eigenvalues not converged
     c_bands:  1 eigenvalues not converged
     c_bands:  1 eigenvalues not converged
     c_bands:  1 eigenvalues not converged
     c_bands:  1 eigenvalues not converged
     c_bands:  4 eigenvalues not converged
     c_bands:  1 eigenvalues not converged
     c_bands:  1 eigenvalues not converged
     c_bands:  1 eigenvalues not converged
     c_bands:  3 eigenvalues not converged
     c_bands:  4 eigenvalues not converged
     c_bands:  1 eigenvalues not converged
     c_bands:  1 eigenvalues not converged
     c_bands:  1 eigenvalues not converged
     c_bands:  2 eigenvalues not converged
     c_bands:  2 eigenvalues not converged
     c_bands:  2 eigenvalues not converged
     c_bands:  4 eigenvalues not converged
     c_bands:  2 eigenvalues not converged
     c_bands:  1 eigenvalues not converged
     c_bands:  1 eigenvalues not converged
     c_bands:  1 eigenvalues not converged
     ethr =  1.00E-06,  avg # of iterations = 50.4

     negative rho (up, down):  0.311E-03 0.000E+00

     total cpu time spent up to now is      158.6 secs

     total energy              =     -86.22398378 Ry
     Harris-Foulkes estimate   =    -606.65770068 Ry
     estimated scf accuracy    <     622.58835694 Ry

     iteration #  2     ecut=    40.00 Ry     beta=0.70
     CG style diagonalization
     c_bands:  1 eigenvalues not converged
     c_bands:  1 eigenvalues not converged
     c_bands:  2 eigenvalues not converged
     c_bands:  2 eigenvalues not converged
     c_bands:  1 eigenvalues not converged
     c_bands:  1 eigenvalues not converged
     c_bands:  1 eigenvalues not converged
     c_bands:  1 eigenvalues not converged
     c_bands:  1 eigenvalues not converged
     c_bands:  1 eigenvalues not converged
     c_bands:  1 eigenvalues not converged
     c_bands:  1 eigenvalues not converged
     c_bands:  1 eigenvalues not converged
     c_bands:  1 eigenvalues not converged
     c_bands:  2 eigenvalues not converged
     c_bands:  2 eigenvalues not converged
     c_bands:  1 eigenvalues not converged
     c_bands:  1 eigenvalues not converged
     c_bands:  1 eigenvalues not converged
     c_bands:  1 eigenvalues not converged
     c_bands:  1 eigenvalues not converged
     c_bands:  1 eigenvalues not converged
     ethr =  1.00E-02,  avg # of iterations = 13.3

     negative rho (up, down):  0.361E-04 0.000E+00

     total cpu time spent up to now is      167.1 secs

     total energy              =    -195.24161700 Ry
     Harris-Foulkes estimate   =    -379.31011146 Ry
     estimated scf accuracy    <     294.63187444 Ry

     iteration #  3     ecut=    40.00 Ry     beta=0.70
     CG style diagonalization
     c_bands:  1 eigenvalues not converged
     ethr =  1.00E-02,  avg # of iterations = 11.6

     negative rho (up, down):  0.220E-04 0.000E+00

     total cpu time spent up to now is      175.2 secs

     total energy              =    -280.70442064 Ry
     Harris-Foulkes estimate   =    -285.39059694 Ry
     estimated scf accuracy    <      56.58118507 Ry

     iteration #  4     ecut=    40.00 Ry     beta=0.70
     CG style diagonalization
     ethr =  1.00E-02,  avg # of iterations =  3.2

     negative rho (up, down):  0.125E-01 0.000E+00

     total cpu time spent up to now is      177.3 secs

     total energy              =    -268.05819001 Ry
     Harris-Foulkes estimate   =    -281.07257828 Ry
     estimated scf accuracy    <      38.26898563 Ry

     iteration #  5     ecut=    40.00 Ry     beta=0.70
     CG style diagonalization
     ethr =  1.00E-02,  avg # of iterations =  4.3

     negative rho (up, down):  0.219E-04 0.000E+00

     total cpu time spent up to now is      180.7 secs

     total energy              =    -268.16289493 Ry
     Harris-Foulkes estimate   =    -270.95315626 Ry
     estimated scf accuracy    <       8.63383212 Ry

     iteration #  6     ecut=    40.00 Ry     beta=0.70
     CG style diagonalization
     ethr =  1.00E-02,  avg # of iterations =  3.5

     total cpu time spent up to now is      183.0 secs

     total energy              =    -268.22398293 Ry
     Harris-Foulkes estimate   =    -268.68904256 Ry
     estimated scf accuracy    <       2.05350459 Ry

     iteration #  7     ecut=    40.00 Ry     beta=0.70
     CG style diagonalization
     ethr =  6.85E-03,  avg # of iterations =  3.1

     total cpu time spent up to now is      185.2 secs

     total energy              =    -268.01831819 Ry
     Harris-Foulkes estimate   =    -268.33208698 Ry
     estimated scf accuracy    <       0.83978554 Ry

     iteration #  8     ecut=    40.00 Ry     beta=0.70
     CG style diagonalization
     ethr =  2.80E-03,  avg # of iterations =  3.9

     total cpu time spent up to now is      188.3 secs

     total energy              =    -268.08002933 Ry
     Harris-Foulkes estimate   =    -268.19885226 Ry
     estimated scf accuracy    <       0.52813785 Ry

     iteration #  9     ecut=    40.00 Ry     beta=0.70
     CG style diagonalization
     ethr =  1.76E-03,  avg # of iterations =  3.1

     total cpu time spent up to now is      190.4 secs

     total energy              =    -268.12057826 Ry
     Harris-Foulkes estimate   =    -268.12708624 Ry
     estimated scf accuracy    <       0.04151448 Ry

     iteration # 10     ecut=    40.00 Ry     beta=0.70
     CG style diagonalization
     c_bands:  1 eigenvalues not converged
     c_bands:  1 eigenvalues not converged
     c_bands:  1 eigenvalues not converged
     ethr =  1.38E-04,  avg # of iterations =  4.3

     total cpu time spent up to now is      193.3 secs

     total energy              =    -268.13263884 Ry
     Harris-Foulkes estimate   =    -268.13255955 Ry
     estimated scf accuracy    <       0.00233390 Ry

     iteration # 11     ecut=    40.00 Ry     beta=0.70
     CG style diagonalization
     c_bands:  1 eigenvalues not converged
     c_bands:  1 eigenvalues not converged
     ethr =  7.78E-06,  avg # of iterations =  4.8

     total cpu time spent up to now is      196.5 secs

     total energy              =    -268.13096968 Ry
     Harris-Foulkes estimate   =    -268.13418147 Ry
     estimated scf accuracy    <       0.00750883 Ry

     iteration # 12     ecut=    40.00 Ry     beta=0.70
     CG style diagonalization
     ethr =  7.78E-06,  avg # of iterations =  3.7

     total cpu time spent up to now is      198.9 secs

     total energy              =    -268.13224062 Ry
     Harris-Foulkes estimate   =    -268.13306660 Ry
     estimated scf accuracy    <       0.00324490 Ry

     iteration # 13     ecut=    40.00 Ry     beta=0.70
     CG style diagonalization
     ethr =  7.78E-06,  avg # of iterations =  3.4

     total cpu time spent up to now is      202.0 secs

     total energy              =    -268.13256179 Ry
     Harris-Foulkes estimate   =    -268.13271922 Ry
     estimated scf accuracy    <       0.00028489 Ry

     iteration # 14     ecut=    40.00 Ry     beta=0.70
     CG style diagonalization
     ethr =  9.50E-07,  avg # of iterations =  3.7

     total cpu time spent up to now is      205.7 secs

     total energy              =    -268.13260440 Ry
     Harris-Foulkes estimate   =    -268.13261446 Ry
     estimated scf accuracy    <       0.00003774 Ry

     iteration # 15     ecut=    40.00 Ry     beta=0.70
     CG style diagonalization
     ethr =  1.26E-07,  avg # of iterations =  3.4

     total cpu time spent up to now is      210.3 secs

     total energy              =    -268.13260684 Ry
     Harris-Foulkes estimate   =    -268.13260903 Ry
     estimated scf accuracy    <       0.00000720 Ry

     iteration # 16     ecut=    40.00 Ry     beta=0.70
     CG style diagonalization
     ethr =  2.40E-08,  avg # of iterations =  3.6

     total cpu time spent up to now is      212.7 secs

     End of self-consistent calculation

     Number of k-points >= 100: set verbosity='high' to print the bands.

     the Fermi energy is    16.3760 ev

!    total energy              =    -268.13260821 Ry
     Harris-Foulkes estimate   =    -268.13260830 Ry
     estimated scf accuracy    <       0.00000010 Ry

     The total energy is the sum of the following terms:

     one-electron contribution =     -44.22265382 Ry
     hartree contribution      =      37.47578795 Ry
     xc contribution           =     -29.18722760 Ry
     ewald contribution        =    -232.03712650 Ry
     smearing contrib. (-TS)   =      -0.16138824 Ry

     convergence has been achieved in  16 iterations

     Forces acting on atoms (Ry/au):

     atom    1 type  1   force =     0.00000000    0.00000000    0.00000000
     atom    2 type  2   force =     0.00000000    0.00000000    0.00000000

     Total force =     0.000000     Total SCF correction =     0.000000


     entering subroutine stress ...

          total   stress  (Ry/bohr**3)                   (kbar)     P= -371.38
  -0.00250875   0.00000000   0.00000000       -369.05      0.00      0.00
   0.00000000  -0.00250875   0.00000000          0.00   -369.05      0.00
   0.00000000   0.00000000  -0.00255628          0.00      0.00   -376.04


     Writing output data file Prototype-La-tP2-AuCu.save
 
     init_run     :      1.97s CPU      2.33s WALL (       2 calls)
     electrons    :    185.51s CPU    205.54s WALL (       5 calls)
     update_pot   :      0.47s CPU      0.48s WALL (       3 calls)
     forces       :      0.65s CPU      0.71s WALL (       5 calls)
     stress       :      1.68s CPU      1.78s WALL (       5 calls)

     Called by init_run:
     wfcinit      :      1.65s CPU      1.99s WALL (       2 calls)
     potinit      :      0.09s CPU      0.10s WALL (       2 calls)

     Called by electrons:
     c_bands      :    176.61s CPU    189.11s WALL (      57 calls)
     sum_band     :      8.64s CPU      9.34s WALL (      57 calls)
     v_of_rho     :      0.03s CPU      0.04s WALL (      62 calls)
     mix_rho      :      0.04s CPU      0.04s WALL (      57 calls)

     Called by c_bands:
     init_us_2    :      1.80s CPU      2.00s WALL (   12600 calls)
     ccgdiagg     :    149.91s CPU    158.07s WALL (    6182 calls)
     wfcrot       :     26.58s CPU     29.40s WALL (    6282 calls)

     Called by *cgdiagg:
     h_psi        :    124.49s CPU    134.03s WALL (  649752 calls)
     cdiaghg      :      1.25s CPU      1.63s WALL (    6282 calls)

     Called by h_psi:
     add_vuspsi   :      7.51s CPU      8.70s WALL (  649752 calls)

     General routines
     calbec       :     24.42s CPU     26.61s WALL ( 1294222 calls)
     fft          :      0.04s CPU      0.04s WALL (     271 calls)
     fftw         :     99.62s CPU    104.58s WALL ( 1634356 calls)
     davcio       :      1.33s CPU      3.02s WALL (   18300 calls)
 
     Parallel routines
     fft_scatter  :     40.03s CPU     42.73s WALL ( 1634627 calls)
 
     PWSCF        :  3m11.38s CPU     3m33.85s WALL

 
   This run was terminated on:  16:22:24  22Mar2018            

=------------------------------------------------------------------------------=
   JOB DONE.
=------------------------------------------------------------------------------=
