
     Program PWSCF v.5.0.2 starts on 22Mar2018 at 18:48:42 

     This program is part of the open-source Quantum ESPRESSO suite
     for quantum simulation of materials; please cite
         "P. Giannozzi et al., J. Phys.:Condens. Matter 21 395502 (2009);
          URL http://www.quantum-espresso.org", 
     in publications or presentations arising from this work. More details at
     http://www.quantum-espresso.org/quote.php

     Parallel version (MPI), running on     4 processors
     R & G space division:  proc/nbgrp/npool/nimage =       4

     Current dimensions of program PWSCF are:
     Max number of different atomic species (ntypx) = 10
     Max number of k-points (npk) =  40000
     Max angular momentum in pseudopotentials (lmaxx) =  3
     Waiting for input...
     Reading input from standard input

     Subspace diagonalization in iterative solution of the eigenvalue problem:
     a serial algorithm will be used

 
     Parallelization info
     --------------------
     sticks:   dense  smooth     PW     G-vecs:    dense   smooth      PW
     Min         396     396    112                10116    10116    1566
     Max         397     397    113                10119    10119    1567
     Sum        1585    1585    451                40467    40467    6267
 


     bravais-lattice index     =            0
     lattice parameter (alat)  =      12.0168  a.u.
     unit-cell volume          =    1187.3413 (a.u.)^3
     number of atoms/cell      =            8
     number of atomic types    =            2
     number of electrons       =       144.00
     number of Kohn-Sham states=           86
     kinetic-energy cutoff     =      40.0000  Ry
     charge density cutoff     =     160.0000  Ry
     convergence threshold     =      1.0E-04
     mixing beta               =       0.7000
     number of iterations used =            8  plain     mixing
     Exchange-correlation      = SLA-PZ-NOGX-NOGC ( 1 1 0 0 0)
     EXX-fraction              =        0.00
     nstep                     =           50


     celldm(1)=  12.016801  celldm(2)=   0.000000  celldm(3)=   0.000000
     celldm(4)=   0.000000  celldm(5)=   0.000000  celldm(6)=   0.000000

     crystal axes: (cart. coord. in units of alat)
               a(1) = (   1.000000   0.000000   0.000000 )  
               a(2) = (  -0.500000   0.866025   0.000000 )  
               a(3) = (   0.000000   0.000000   0.790093 )  

     reciprocal axes: (cart. coord. in units 2 pi/alat)
               b(1) = (  1.000000  0.577350  0.000000 )  
               b(2) = (  0.000000  1.154701  0.000000 )  
               b(3) = (  0.000000  0.000000  1.265674 )  


     PseudoPot. # 1 for Sm read from file:
     /home/cwx6513/pp.La/Sm.UPF
     MD5 check sum: 5079e8b144a06bfcdbc14fb02b96ab09
     Pseudo is Norm-conserving, Zval = 16.0
     Generated in analytical, separable form
     Using radial grid of 1259 points,  6 beta functions with: 
                l(1) =   0
                l(2) =   0
                l(3) =   1
                l(4) =   1
                l(5) =   2
                l(6) =   3

     PseudoPot. # 2 for Yb read from file:
     /home/cwx6513/pp.La/Yb.UPF
     MD5 check sum: 3e859b81cc28c53ec6aa3a2e888efcdf
     Pseudo is Norm-conserving, Zval = 24.0
     Generated in analytical, separable form
     Using radial grid of 1269 points,  6 beta functions with: 
                l(1) =   0
                l(2) =   0
                l(3) =   1
                l(4) =   1
                l(5) =   2
                l(6) =   3

     atomic species   valence    mass     pseudopotential
        Mg            16.00    24.30500     Sm( 1.00)
        Cd            24.00   112.41100     Yb( 1.00)

     24 Sym. Ops., with inversion, found (12 have fractional translation)



   Cartesian axes

     site n.     atom                  positions (alat units)
         1           Mg  tau(   1) = (   0.2478935   0.7204716   0.1975233  )
         2           Mg  tau(   2) = (   0.7478935   0.1455538   0.5925699  )
         3           Mg  tau(   3) = (   0.2521065   0.1455538   0.5925699  )
         4           Mg  tau(   4) = (  -0.2478935   0.7204716   0.1975233  )
         5           Mg  tau(   5) = (   0.0000000   0.2911075   0.1975233  )
         6           Mg  tau(   6) = (   0.5000000   0.5749179   0.5925699  )
         7           Cd  tau(   7) = (   0.5000005   0.2886748   0.1975233  )
         8           Cd  tau(   8) = (  -0.0000005   0.5773506   0.5925699  )

     number of k points=    64  gaussian smearing, width (Ry)=  0.1000
                       cart. coord. in units 2pi/alat
        k(    1) = (   0.0000000   0.0000000   0.0000000), wk =   0.0095238
        k(    2) = (   0.0000000   0.0000000   0.1808105), wk =   0.0190476
        k(    3) = (   0.0000000   0.0000000   0.3616210), wk =   0.0190476
        k(    4) = (   0.0000000   0.0000000   0.5424315), wk =   0.0190476
        k(    5) = (   0.0000000   0.1924501   0.0000000), wk =   0.0190476
        k(    6) = (   0.0000000   0.1924501   0.1808105), wk =   0.0380952
        k(    7) = (   0.0000000   0.1924501   0.3616210), wk =   0.0380952
        k(    8) = (   0.0000000   0.1924501   0.5424315), wk =   0.0380952
        k(    9) = (   0.0000000   0.3849002   0.0000000), wk =   0.0190476
        k(   10) = (   0.0000000   0.3849002   0.1808105), wk =   0.0380952
        k(   11) = (   0.0000000   0.3849002   0.3616210), wk =   0.0380952
        k(   12) = (   0.0000000   0.3849002   0.5424315), wk =   0.0380952
        k(   13) = (   0.0000000  -0.5773503   0.0000000), wk =   0.0095238
        k(   14) = (   0.0000000  -0.5773503   0.1808105), wk =   0.0190476
        k(   15) = (   0.0000000  -0.5773503   0.3616210), wk =   0.0190476
        k(   16) = (   0.0000000  -0.5773503   0.5424315), wk =   0.0190476
        k(   17) = (   0.2000000   0.1154701   0.0000000), wk =   0.0190476
        k(   18) = (   0.2000000   0.1154701   0.1808105), wk =   0.0380952
        k(   19) = (   0.2000000   0.1154701   0.3616210), wk =   0.0380952
        k(   20) = (   0.2000000   0.1154701   0.5424315), wk =   0.0380952
        k(   21) = (   0.2000000   0.3079201   0.0000000), wk =   0.0190476
        k(   22) = (   0.2000000   0.3079201   0.1808105), wk =   0.0380952
        k(   23) = (   0.2000000   0.3079201   0.3616210), wk =   0.0380952
        k(   24) = (   0.2000000   0.3079201   0.5424315), wk =   0.0380952
        k(   25) = (   0.2000000   0.5003702   0.0000000), wk =   0.0190476
        k(   26) = (   0.2000000   0.5003702   0.1808105), wk =   0.0380952
        k(   27) = (   0.2000000   0.5003702   0.3616210), wk =   0.0380952
        k(   28) = (   0.2000000   0.5003702   0.5424315), wk =   0.0380952
        k(   29) = (   0.2000000  -0.4618802   0.0000000), wk =   0.0190476
        k(   30) = (   0.2000000  -0.4618802   0.1808105), wk =   0.0380952
        k(   31) = (   0.2000000  -0.4618802   0.3616210), wk =   0.0380952
        k(   32) = (   0.2000000  -0.4618802   0.5424315), wk =   0.0380952
        k(   33) = (   0.2000000  -0.2694301   0.0000000), wk =   0.0190476
        k(   34) = (   0.2000000  -0.2694301   0.1808105), wk =   0.0380952
        k(   35) = (   0.2000000  -0.2694301   0.3616210), wk =   0.0380952
        k(   36) = (   0.2000000  -0.2694301   0.5424315), wk =   0.0380952
        k(   37) = (   0.2000000  -0.0769800   0.0000000), wk =   0.0190476
        k(   38) = (   0.2000000  -0.0769800   0.1808105), wk =   0.0380952
        k(   39) = (   0.2000000  -0.0769800   0.3616210), wk =   0.0380952
        k(   40) = (   0.2000000  -0.0769800   0.5424315), wk =   0.0380952
        k(   41) = (   0.4000000   0.2309401   0.0000000), wk =   0.0190476
        k(   42) = (   0.4000000   0.2309401   0.1808105), wk =   0.0380952
        k(   43) = (   0.4000000   0.2309401   0.3616210), wk =   0.0380952
        k(   44) = (   0.4000000   0.2309401   0.5424315), wk =   0.0380952
        k(   45) = (   0.4000000   0.4233902   0.0000000), wk =   0.0190476
        k(   46) = (   0.4000000   0.4233902   0.1808105), wk =   0.0380952
        k(   47) = (   0.4000000   0.4233902   0.3616210), wk =   0.0380952
        k(   48) = (   0.4000000   0.4233902   0.5424315), wk =   0.0380952
        k(   49) = (   0.4000000   0.6158403   0.0000000), wk =   0.0190476
        k(   50) = (   0.4000000   0.6158403   0.1808105), wk =   0.0380952
        k(   51) = (   0.4000000   0.6158403   0.3616210), wk =   0.0380952
        k(   52) = (   0.4000000   0.6158403   0.5424315), wk =   0.0380952
        k(   53) = (   0.4000000  -0.3464102   0.0000000), wk =   0.0190476
        k(   54) = (   0.4000000  -0.3464102   0.1808105), wk =   0.0380952
        k(   55) = (   0.4000000  -0.3464102   0.3616210), wk =   0.0380952
        k(   56) = (   0.4000000  -0.3464102   0.5424315), wk =   0.0380952
        k(   57) = (   0.4000000  -0.1539601   0.0000000), wk =   0.0190476
        k(   58) = (   0.4000000  -0.1539601   0.1808105), wk =   0.0380952
        k(   59) = (   0.4000000  -0.1539601   0.3616210), wk =   0.0380952
        k(   60) = (   0.4000000  -0.1539601   0.5424315), wk =   0.0380952
        k(   61) = (   0.4000000   0.0384900   0.0000000), wk =   0.0190476
        k(   62) = (   0.4000000   0.0384900   0.1808105), wk =   0.0380952
        k(   63) = (   0.4000000   0.0384900   0.3616210), wk =   0.0380952
        k(   64) = (   0.4000000   0.0384900   0.5424315), wk =   0.0380952

     Dense  grid:    40467 G-vectors     FFT dimensions: (  50,  50,  40)

     Largest allocated arrays     est. size (Mb)     dimensions
        Kohn-Sham Wavefunctions         1.70 Mb     (   1298,   86)
        NL pseudopotentials             3.17 Mb     (   1298,  160)
        Each V/rho on FFT grid          0.38 Mb     (  25000)
        Each G-vector array             0.08 Mb     (  10119)
        G-vector shells                 0.08 Mb     (  10119)
     Largest temporary arrays     est. size (Mb)     dimensions
        Each subspace H/S matrix        0.11 Mb     (  86,  86)
        Each <psi_i|beta_j> matrix      0.21 Mb     (    160,   86)
        Arrays for rho mixing           3.05 Mb     (  25000,   8)

     Initial potential from superposition of free atoms

     Starting from uniform charge
     Starting wfc are    0 randomized atomic wfcs

     total cpu time spent up to now is        8.4 secs

     Self-consistent Calculation

     iteration #  1     ecut=    40.00 Ry     beta=0.70
     CG style diagonalization
     ethr =  1.00E-02,  avg # of iterations = 17.6

     total cpu time spent up to now is      201.9 secs

     total energy              =    -853.33873192 Ry
     Harris-Foulkes estimate   =   -2368.30101659 Ry
     estimated scf accuracy    <    1794.52123818 Ry

     iteration #  2     ecut=    40.00 Ry     beta=0.70
     CG style diagonalization
     ethr =  1.00E-02,  avg # of iterations = 17.7

     total cpu time spent up to now is      390.2 secs

     total energy              =   -1537.25626292 Ry
     Harris-Foulkes estimate   =   -2575.34872714 Ry
     estimated scf accuracy    <    1877.28568359 Ry

     iteration #  3     ecut=    40.00 Ry     beta=0.70
     CG style diagonalization
     c_bands:  1 eigenvalues not converged
     c_bands:  2 eigenvalues not converged
     c_bands:  2 eigenvalues not converged
     c_bands:  1 eigenvalues not converged
     c_bands:  2 eigenvalues not converged
     c_bands:  1 eigenvalues not converged
     c_bands:  1 eigenvalues not converged
     c_bands:  1 eigenvalues not converged
     c_bands:  1 eigenvalues not converged
     c_bands:  1 eigenvalues not converged
     c_bands:  1 eigenvalues not converged
     c_bands:  1 eigenvalues not converged
     c_bands:  1 eigenvalues not converged
     c_bands:  1 eigenvalues not converged
     ethr =  1.00E-02,  avg # of iterations = 11.3

     total cpu time spent up to now is      516.9 secs

     total energy              =   -1690.02654575 Ry
     Harris-Foulkes estimate   =   -1794.31824927 Ry
     estimated scf accuracy    <     206.74681904 Ry

     iteration #  4     ecut=    40.00 Ry     beta=0.70
     CG style diagonalization
     ethr =  1.00E-02,  avg # of iterations =  6.0

     total cpu time spent up to now is      584.0 secs

     total energy              =   -1724.29776500 Ry
     Harris-Foulkes estimate   =   -1734.64974116 Ry
     estimated scf accuracy    <      20.44817515 Ry

     iteration #  5     ecut=    40.00 Ry     beta=0.70
     CG style diagonalization
     ethr =  1.00E-02,  avg # of iterations =  3.6

     total cpu time spent up to now is      623.2 secs

     total energy              =   -1728.72351447 Ry
     Harris-Foulkes estimate   =   -1728.91801029 Ry
     estimated scf accuracy    <       0.36883049 Ry

     iteration #  6     ecut=    40.00 Ry     beta=0.70
     CG style diagonalization
     c_bands:  1 eigenvalues not converged
     c_bands:  2 eigenvalues not converged
     c_bands:  2 eigenvalues not converged
     c_bands:  1 eigenvalues not converged
     c_bands:  2 eigenvalues not converged
     c_bands:  1 eigenvalues not converged
     ethr =  2.56E-04,  avg # of iterations =  5.2

     total cpu time spent up to now is      678.4 secs

     total energy              =   -1729.06539339 Ry
     Harris-Foulkes estimate   =   -1729.09142869 Ry
     estimated scf accuracy    <       0.05556625 Ry

     iteration #  7     ecut=    40.00 Ry     beta=0.70
     CG style diagonalization
     c_bands:  1 eigenvalues not converged
     c_bands:  1 eigenvalues not converged
     ethr =  3.86E-05,  avg # of iterations =  3.6

     total cpu time spent up to now is      718.7 secs

     total energy              =   -1729.07039091 Ry
     Harris-Foulkes estimate   =   -1729.07395261 Ry
     estimated scf accuracy    <       0.00607147 Ry

     iteration #  8     ecut=    40.00 Ry     beta=0.70
     CG style diagonalization
     c_bands:  1 eigenvalues not converged
     c_bands:  1 eigenvalues not converged
     c_bands:  1 eigenvalues not converged
     c_bands:  1 eigenvalues not converged
     c_bands:  1 eigenvalues not converged
     ethr =  4.22E-06,  avg # of iterations =  4.7

     total cpu time spent up to now is      769.7 secs

     total energy              =   -1729.07317716 Ry
     Harris-Foulkes estimate   =   -1729.07378539 Ry
     estimated scf accuracy    <       0.00131642 Ry

     iteration #  9     ecut=    40.00 Ry     beta=0.70
     CG style diagonalization
     c_bands:  1 eigenvalues not converged
     ethr =  9.14E-07,  avg # of iterations =  3.3

     total cpu time spent up to now is      805.4 secs

     total energy              =   -1729.07315318 Ry
     Harris-Foulkes estimate   =   -1729.07332077 Ry
     estimated scf accuracy    <       0.00025917 Ry

     iteration # 10     ecut=    40.00 Ry     beta=0.70
     CG style diagonalization
     ethr =  1.80E-07,  avg # of iterations =  4.4

     total cpu time spent up to now is      850.6 secs

     total energy              =   -1729.07327142 Ry
     Harris-Foulkes estimate   =   -1729.07333037 Ry
     estimated scf accuracy    <       0.00015938 Ry

     iteration # 11     ecut=    40.00 Ry     beta=0.70
     CG style diagonalization
     ethr =  1.11E-07,  avg # of iterations =  3.3

     total cpu time spent up to now is      884.3 secs

     End of self-consistent calculation

          k = 0.0000 0.0000 0.0000 (  5047 PWs)   bands (ev):

  -101.7673-101.7561 -60.5352 -60.5351 -60.5342 -60.5314 -60.5303 -60.5303
   -34.7722 -34.6756 -34.6755 -34.6590 -34.6200 -34.6199 -10.2951 -10.2894
   -10.1124 -10.0321 -10.0320 -10.0130 -10.0129  -9.9686  -9.9686  -9.7891
    -9.6389  -9.6388  -9.5100  -9.5007  -9.5006  -9.4880  -9.4828  -9.4828
    -2.3158  -2.3158  -2.3076  -2.3063  -2.3062  -2.3062  -2.3047  -2.3047
    -2.2871  -2.2871  10.1196  10.8182  16.0300  17.3312  17.3313  17.3981
    17.4504  17.4504  17.5464  17.7647  17.7647  17.7987  18.5321  18.5323
    19.4561  19.8158  19.8159  20.0580  20.0581  20.0750  20.5204  21.3357
    21.3358  21.7324  21.7325  21.8251  21.8539  22.2835  22.2836  22.3436
    22.3436  23.1972  23.1973  23.9663  24.4119  24.4547  24.6714  24.6715
    25.7367  25.7872  25.8505  28.0565  28.0565  29.5020

          k = 0.0000 0.0000 0.1808 (  5065 PWs)   bands (ev):

  -101.7829-101.7704 -60.5375 -60.5375 -60.5348 -60.5348 -60.5332 -60.5322
   -34.7670 -34.6734 -34.6733 -34.6647 -34.6227 -34.6226 -10.2968 -10.2823
   -10.1260 -10.1260 -10.0897 -10.0068 -10.0067  -9.8969  -9.8969  -9.7724
    -9.6235  -9.6234  -9.5486  -9.5047  -9.5031  -9.5030  -9.4820  -9.4819
    -2.3147  -2.3147  -2.3129  -2.3129  -2.3086  -2.3073  -2.2996  -2.2996
    -2.2898  -2.2898  10.1951  10.7909  16.2624  16.7652  17.3882  17.3882
    17.4822  17.4823  17.7431  17.8450  17.8451  17.9887  18.4117  18.4118
    19.6153  19.6730  19.6731  20.0378  20.2540  20.2540  20.5268  21.4412
    21.4412  21.5305  21.5305  21.7381  21.8992  22.0323  22.0324  22.2430
    22.2430  23.5154  23.5155  23.8065  24.1745  24.2880  24.3961  24.5458
    24.5458  26.0830  27.2557  28.0795  28.0795  29.4018

          k = 0.0000 0.0000 0.3616 (  5047 PWs)   bands (ev):

  -101.7761-101.7492 -60.5380 -60.5380 -60.5341 -60.5341 -60.5292 -60.5224
   -34.7518 -34.6796 -34.6656 -34.6655 -34.6303 -34.6302 -10.2868 -10.2691
   -10.1829 -10.1829 -10.0857 -10.0857 -10.0169  -9.7658  -9.7658  -9.7332
    -9.6476  -9.6029  -9.6028  -9.5471  -9.5021  -9.5020  -9.4842  -9.4842
    -2.3175  -2.3175  -2.3126  -2.3126  -2.3105  -2.3090  -2.2973  -2.2973
    -2.2955  -2.2955  10.3765  10.7443  16.2422  16.6714  17.3170  17.3171
    17.7574  17.7997  17.7997  18.0792  18.0792  18.2244  18.2244  18.2864
    19.3190  19.3766  19.3766  20.0827  20.3954  20.3954  21.1212  21.2606
    21.2606  21.3250  21.3251  21.3824  21.7704  22.0163  22.0163  22.1170
    22.1170  22.8888  23.4908  23.8228  23.8228  24.1364  24.2938  24.2938
    24.3514  26.4009  28.2335  28.2335  28.3212  29.2044

          k = 0.0000 0.0000 0.5424 (  5041 PWs)   bands (ev):

  -101.7694-101.7474 -60.5353 -60.5353 -60.5329 -60.5329 -60.5298 -60.5241
   -34.7285 -34.7030 -34.6540 -34.6539 -34.6419 -34.6418 -10.2721 -10.2674
   -10.1930 -10.1930 -10.1560 -10.1560  -9.9061  -9.7724  -9.6745  -9.6643
    -9.6642  -9.6091  -9.6091  -9.6072  -9.5038  -9.5038  -9.4931  -9.4930
    -2.3168  -2.3168  -2.3127  -2.3127  -2.3117  -2.3112  -2.2997  -2.2997
    -2.2984  -2.2984  10.5616  10.6783  16.1438  16.4482  17.3837  17.3838
    17.6168  17.6169  18.4142  18.4142  18.5431  18.5741  18.5780  18.5781
    18.8911  19.1976  19.1976  19.7957  19.7957  19.9585  20.8286  21.1058
    21.1059  21.1347  21.1347  21.4988  21.5890  21.7992  22.2665  22.2666
    22.4535  22.4536  23.7978  23.7978  23.9657  23.9657  24.2034  24.2822
    24.3498  25.6384  28.5695  28.5696  28.9243  28.9246

          k = 0.0000 0.1925 0.0000 (  5083 PWs)   bands (ev):

  -101.8003-101.7796 -60.5411 -60.5390 -60.5378 -60.5355 -60.5348 -60.5342
   -34.7672 -34.6822 -34.6762 -34.6581 -34.6205 -34.6203 -10.2788 -10.2618
   -10.0850 -10.0347 -10.0254 -10.0233 -10.0164  -9.9592  -9.9360  -9.8011
    -9.6518  -9.6388  -9.5546  -9.5289  -9.5190  -9.5079  -9.5022  -9.4806
    -2.3136  -2.3100  -2.3062  -2.3058  -2.3048  -2.3038  -2.3023  -2.2999
    -2.2886  -2.2882  10.2251  10.8600  16.1375  16.6329  16.8918  17.2007
    17.3931  17.4623  17.5726  17.9504  18.1589  18.1873  18.4557  18.7128
    19.4854  19.5395  19.7732  19.9389  20.1408  20.2408  20.3135  21.0349
    21.5026  21.5877  21.7503  22.0476  22.0561  22.1513  22.1779  22.4690
    22.9899  23.3827  23.7197  23.7568  23.9175  23.9939  24.3368  24.6373
    25.0211  25.8819  26.1257  28.0356  28.6719  28.8124

          k = 0.0000 0.1925 0.1808 (  5077 PWs)   bands (ev):

  -101.7996-101.7720 -60.5407 -60.5393 -60.5368 -60.5355 -60.5342 -60.5313
   -34.7620 -34.6792 -34.6734 -34.6630 -34.6238 -34.6230 -10.2680 -10.2586
   -10.1272 -10.1139 -10.0681 -10.0013  -9.9790  -9.9074  -9.9011  -9.7778
    -9.6419  -9.6258  -9.5585  -9.5351  -9.5326  -9.5103  -9.5101  -9.4815
    -2.3128  -2.3113  -2.3104  -2.3090  -2.3059  -2.3047  -2.2986  -2.2963
    -2.2908  -2.2902  10.2963  10.8434  16.3136  16.7396  16.8069  16.9606
    17.2765  17.5122  17.8634  17.9519  18.0967  18.1934  18.4703  18.7455
    19.5180  19.6048  19.7467  19.8287  20.1028  20.2266  20.3712  21.1668
    21.4906  21.5349  21.5846  21.9054  22.1047  22.1530  22.2138  22.2218
    22.6211  23.5413  23.7217  23.8391  23.9147  23.9864  24.0126  24.4900
    24.5945  26.1608  26.3666  28.0737  28.3045  29.0935

          k = 0.0000 0.1925 0.3616 (  5061 PWs)   bands (ev):

  -101.7898-101.7572 -60.5413 -60.5391 -60.5365 -60.5337 -60.5317 -60.5235
   -34.7468 -34.6789 -34.6694 -34.6656 -34.6328 -34.6304 -10.2522 -10.2491
   -10.1813 -10.1668 -10.0827 -10.0600 -10.0016  -9.8106  -9.7758  -9.7074
    -9.6644  -9.6272  -9.5965  -9.5510  -9.5452  -9.5162  -9.5077  -9.4817
    -2.3156  -2.3147  -2.3109  -2.3079  -2.3069  -2.3058  -2.2967  -2.2961
    -2.2960  -2.2942  10.4679  10.8035  16.2950  16.5509  17.0394  17.0927
    17.4669  17.7364  17.8697  17.9065  18.0946  18.2947  18.6046  18.7750
    19.0859  19.3647  19.4194  20.0628  20.1792  20.1811  20.7748  21.1476
    21.3419  21.3763  21.5946  21.6769  21.9288  22.0171  22.1153  22.1496
    22.4885  22.7836  23.2926  23.6400  23.9115  23.9935  24.1244  24.4017
    24.4936  26.0246  26.9745  28.2520  28.7459  28.8943

          k = 0.0000 0.1925 0.5424 (  5050 PWs)   bands (ev):

  -101.7762-101.7554 -60.5391 -60.5381 -60.5377 -60.5330 -60.5275 -60.5226
   -34.7242 -34.6996 -34.6584 -34.6544 -34.6452 -34.6418 -10.2458 -10.2414
   -10.1888 -10.1746 -10.1530 -10.1349  -9.8975  -9.7723  -9.7364  -9.6743
    -9.6709  -9.6214  -9.6207  -9.5680  -9.5398  -9.5184  -9.5113  -9.4944
    -2.3149  -2.3141  -2.3114  -2.3090  -2.3089  -2.3079  -2.2997  -2.2981
    -2.2978  -2.2956  10.6411  10.7476  16.1836  16.4254  17.1438  17.2868
    17.3605  17.5909  18.1715  18.4272  18.4580  18.6390  18.8087  18.8481
    18.8984  19.0631  19.1385  19.6038  19.6897  20.0481  20.7260  21.0939
    21.1266  21.3464  21.4517  21.7602  21.9656  22.0801  22.1052  22.2544
    22.3274  22.3386  23.3665  23.5961  23.6097  23.8743  24.1683  24.3117
    24.7447  25.4423  27.7703  28.5605  28.6927  28.7781

          k = 0.0000 0.3849 0.0000 (  5079 PWs)   bands (ev):

  -101.8055-101.7721 -60.5438 -60.5435 -60.5347 -60.5341 -60.5339 -60.5294
   -34.7532 -34.6988 -34.6764 -34.6544 -34.6219 -34.6201 -10.2567 -10.1741
   -10.0590 -10.0440 -10.0168 -10.0010  -9.9922  -9.9004  -9.8654  -9.8226
    -9.6822  -9.6661  -9.6339  -9.6227  -9.6052  -9.5343  -9.4846  -9.4779
    -2.3106  -2.3063  -2.3042  -2.3009  -2.2981  -2.2963  -2.2944  -2.2914
    -2.2902  -2.2890  10.4932  10.9327  15.8641  16.4257  16.5205  16.5613
    17.1150  17.2564  17.9637  18.3353  18.3873  18.5266  18.8781  19.0130
    19.1490  19.3463  19.6705  20.1973  20.2052  20.3228  20.3275  20.7790
    21.2750  21.6393  21.6976  21.8855  21.9848  22.0593  22.1504  22.4094
    22.8934  22.9334  23.3963  23.9295  24.1034  24.1084  24.1365  24.6373
    25.7022  25.8585  26.7255  27.5447  28.0116  28.3131

          k = 0.0000 0.3849 0.1808 (  5090 PWs)   bands (ev):

  -101.8099-101.7831 -60.5450 -60.5426 -60.5379 -60.5365 -60.5349 -60.5302
   -34.7479 -34.6960 -34.6739 -34.6581 -34.6268 -34.6229 -10.2388 -10.1856
   -10.1157 -10.0813 -10.0421  -9.9463  -9.9342  -9.9052  -9.8995  -9.7864
    -9.6950  -9.6688  -9.6503  -9.5928  -9.5807  -9.5286  -9.5108  -9.4832
    -2.3104  -2.3086  -2.3068  -2.3019  -2.2972  -2.2968  -2.2939  -2.2933
    -2.2916  -2.2885  10.5488  10.9264  15.9399  16.3688  16.6046  16.6709
    16.9805  17.2914  18.0214  18.3290  18.4107  18.4414  18.8861  19.0817
    19.2743  19.6037  19.7022  19.8866  20.0561  20.1990  20.2580  20.8341
    21.2119  21.4020  21.5748  21.8857  21.9451  22.1877  22.2359  22.2381
    22.8651  23.1211  23.3608  23.7513  23.7579  24.1128  24.1786  24.6385
    25.5904  25.9299  26.2750  27.8616  28.1369  28.6788

          k = 0.0000 0.3849 0.3616 (  5078 PWs)   bands (ev):

  -101.8007-101.7727 -60.5437 -60.5404 -60.5369 -60.5366 -60.5332 -60.5275
   -34.7332 -34.6891 -34.6672 -34.6658 -34.6390 -34.6306 -10.2242 -10.1971
   -10.1323 -10.1271 -10.0725  -9.9961  -9.9453  -9.8746  -9.8080  -9.7095
    -9.7070  -9.6695  -9.6652  -9.5743  -9.5617  -9.5507  -9.5219  -9.4907
    -2.3117  -2.3102  -2.3094  -2.3039  -2.2984  -2.2981  -2.2970  -2.2944
    -2.2934  -2.2870  10.6843  10.9180  16.0583  16.1993  16.8328  16.8339
    17.0231  17.4089  17.9990  18.2091  18.5251  18.5441  18.8910  19.0238
    19.1885  19.5662  19.6309  19.9235  19.9267  20.1440  20.1756  20.9875
    21.0936  21.3908  21.4377  21.5701  21.6997  21.9841  22.3189  22.3252
    22.6138  22.8754  23.0421  23.4595  23.8510  24.0622  24.2953  24.5691
    24.7476  26.1990  26.5102  28.4340  28.5149  28.8300

          k = 0.0000 0.3849 0.5424 (  5051 PWs)   bands (ev):

  -101.7765-101.7561 -60.5396 -60.5376 -60.5362 -60.5348 -60.5275 -60.5233
   -34.7127 -34.6925 -34.6680 -34.6544 -34.6543 -34.6417 -10.2267 -10.2016
   -10.1262 -10.1224 -10.1044 -10.0791  -9.8821  -9.8109  -9.8003  -9.7474
    -9.6960  -9.6734  -9.6002  -9.5896  -9.5683  -9.5404  -9.5281  -9.5021
    -2.3115  -2.3099  -2.3097  -2.3052  -2.3052  -2.3035  -2.2963  -2.2945
    -2.2909  -2.2879  10.8207  10.8961  16.0546  16.1499  16.9652  16.9843
    17.1507  17.4257  18.0423  18.2431  18.5966  18.7969  18.9416  19.0205
    19.1264  19.1633  19.4291  19.6512  19.8582  20.0641  20.5172  20.9593
    21.0500  21.3228  21.5285  21.5326  21.6765  21.8151  22.1053  22.2786
    22.5312  22.7383  23.0303  23.1446  23.3782  23.6575  24.3474  24.5515
    25.0588  25.8573  27.3496  28.3790  28.6916  28.7457

          k = 0.0000-0.5774 0.0000 (  5068 PWs)   bands (ev):

  -101.7841-101.7769 -60.5386 -60.5376 -60.5346 -60.5344 -60.5333 -60.5324
   -34.7404 -34.7125 -34.6766 -34.6521 -34.6233 -34.6195 -10.2461 -10.1180
   -10.0652 -10.0591 -10.0180  -9.9605  -9.9394  -9.8658  -9.8023  -9.7891
    -9.7707  -9.7290  -9.6789  -9.6728  -9.6344  -9.5441  -9.4787  -9.4761
    -2.3089  -2.3069  -2.3033  -2.2967  -2.2955  -2.2919  -2.2913  -2.2905
    -2.2898  -2.2852  10.6948  10.9195  15.5562  16.2414  16.3849  16.7462
    16.8372  17.1590  18.2046  18.2845  18.5294  18.8542  19.0127  19.1113
    19.1525  19.2693  19.7269  20.1597  20.2744  20.4139  20.7179  20.9354
    20.9682  21.2739  21.4531  21.5505  21.8764  21.8972  22.1083  22.2875
    22.4086  22.8143  23.4685  24.0263  24.0554  24.1111  24.7227  25.1763
    25.3178  26.8516  27.0277  27.2582  27.7880  27.9813

          k = 0.0000-0.5774 0.1808 (  5072 PWs)   bands (ev):

  -101.7849-101.7810 -60.5428 -60.5376 -60.5358 -60.5345 -60.5320 -60.5313
   -34.7351 -34.7097 -34.6737 -34.6549 -34.6289 -34.6223 -10.2239 -10.1723
   -10.0766 -10.0567 -10.0353  -9.9472  -9.8984  -9.8410  -9.8369  -9.8036
    -9.7831  -9.7514  -9.6861  -9.6220  -9.5900  -9.5359  -9.5023  -9.4845
    -2.3092  -2.3075  -2.3053  -2.2977  -2.2976  -2.2927  -2.2915  -2.2907
    -2.2906  -2.2840  10.7341  10.9323  15.6586  16.0857  16.4741  16.7758
    16.9191  17.1897  18.2099  18.3959  18.4460  18.7993  19.0272  19.1447
    19.1968  19.6088  19.6968  19.8333  20.2947  20.3857  20.5368  20.6849
    20.9650  21.1353  21.2517  21.4016  21.8657  22.1328  22.1629  22.2604
    22.3629  23.0813  23.4812  23.6596  24.2052  24.4009  24.4592  24.6353
    25.3541  26.0037  27.2920  27.8864  28.1999  28.2971

          k = 0.0000-0.5774 0.3616 (  5090 PWs)   bands (ev):

  -101.8000-101.7916 -60.5424 -60.5420 -60.5400 -60.5372 -60.5338 -60.5315
   -34.7200 -34.7026 -34.6660 -34.6621 -34.6443 -34.6308 -10.2217 -10.1794
   -10.0997 -10.0977 -10.0276  -9.9503  -9.9105  -9.8825  -9.8522  -9.7533
    -9.7527  -9.7401  -9.6635  -9.5816  -9.5691  -9.5576  -9.5146  -9.5009
    -2.3096  -2.3089  -2.3082  -2.3021  -2.3007  -2.2986  -2.2918  -2.2916
    -2.2889  -2.2829  10.8291  10.9555  15.8737  15.8917  16.7329  16.8367
    16.9423  17.2807  18.1712  18.3476  18.7855  18.8033  18.9965  19.0277
    19.1380  19.3637  19.8332  19.9754  20.2211  20.2288  20.3547  20.6206
    20.9028  20.9501  21.1184  21.1995  21.6507  21.8965  22.3765  22.4187
    22.4631  22.6668  23.0570  23.9064  23.9416  24.0205  24.3869  24.6764
    24.9085  25.8563  27.8217  28.2820  28.6036  28.6308

          k = 0.0000-0.5774 0.5424 (  5080 PWs)   bands (ev):

  -101.7971-101.7798 -60.5472 -60.5454 -60.5387 -60.5353 -60.5281 -60.5257
   -34.7005 -34.6943 -34.6700 -34.6639 -34.6545 -34.6422 -10.2273 -10.1969
   -10.0946 -10.0655 -10.0401 -10.0332  -9.8822  -9.8585  -9.8560  -9.7961
    -9.7332  -9.6911  -9.6242  -9.5888  -9.5763  -9.5398  -9.5192  -9.5189
    -2.3092  -2.3089  -2.3083  -2.3051  -2.3047  -2.3041  -2.2924  -2.2923
    -2.2862  -2.2836  10.9228  10.9665  15.8577  15.9385  16.9102  16.9284
    17.0942  17.3238  18.1242  18.2685  18.8222  18.8228  18.9150  18.9712
    19.1524  19.1837  19.7972  19.9618  20.0390  20.1508  20.5060  20.8874
    20.8930  21.0397  21.1129  21.2799  21.3846  21.5314  22.2789  22.3369
    22.5200  22.5989  22.9905  23.1114  23.4155  23.6512  24.4675  24.6936
    25.4090  26.3323  27.3998  27.9982  28.7802  28.8405

          k = 0.2000 0.1155 0.0000 (  5087 PWs)   bands (ev):

  -101.8051-101.7813 -60.5438 -60.5414 -60.5366 -60.5357 -60.5340 -60.5336
   -34.7653 -34.6849 -34.6762 -34.6577 -34.6205 -34.6203 -10.2751 -10.2468
   -10.0761 -10.0342 -10.0266 -10.0205 -10.0162  -9.9527  -9.9234  -9.8046
    -9.6547  -9.6381  -9.5792  -9.5402  -9.5360  -9.5135  -9.4986  -9.4798
    -2.3129  -2.3079  -2.3061  -2.3054  -2.3043  -2.3027  -2.3009  -2.2980
    -2.2891  -2.2883  10.2694  10.8769  16.1830  16.4603  16.8026  17.0796
    17.3406  17.4230  17.6429  18.0177  18.2485  18.3234  18.4298  18.7743
    19.4280  19.5674  19.6501  19.9951  20.1743  20.2548  20.2798  20.9628
    21.5333  21.5549  21.7498  22.0092  22.0804  22.1195  22.2617  22.4749
    23.1957  23.4222  23.5709  23.6931  23.7586  24.1016  24.2951  24.6331
    24.8927  25.8916  26.2358  28.0295  28.4395  28.7736

          k = 0.2000 0.1155 0.1808 (  5078 PWs)   bands (ev):

  -101.8005-101.7728 -60.5422 -60.5385 -60.5365 -60.5364 -60.5339 -60.5311
   -34.7598 -34.6820 -34.6734 -34.6622 -34.6242 -34.6229 -10.2629 -10.2434
   -10.1280 -10.1081 -10.0599  -9.9957  -9.9672  -9.9105  -9.9027  -9.7785
    -9.6484  -9.6271  -9.5786  -9.5429  -9.5368  -9.5193  -9.5138  -9.4820
    -2.3122  -2.3107  -2.3095  -2.3068  -2.3050  -2.3034  -2.2980  -2.2949
    -2.2913  -2.2905  10.3395  10.8618  16.3128  16.6055  16.8001  16.8756
    17.1715  17.4696  17.8749  18.0126  18.1672  18.2996  18.5008  18.8374
    19.4672  19.6159  19.6766  19.8856  20.0575  20.2254  20.3049  21.0987
    21.4500  21.5253  21.6073  21.9156  22.1340  22.1750  22.2170  22.2853
    22.7672  23.4748  23.6592  23.8337  23.8479  23.8843  23.9680  24.6089
    24.6724  26.1735  26.2157  28.0794  28.1743  29.0718

          k = 0.2000 0.1155 0.3616 (  5067 PWs)   bands (ev):

  -101.7935-101.7625 -60.5420 -60.5389 -60.5375 -60.5342 -60.5324 -60.5251
   -34.7446 -34.6794 -34.6703 -34.6657 -34.6338 -34.6305 -10.2448 -10.2376
   -10.1784 -10.1603 -10.0818 -10.0501  -9.9943  -9.8239  -9.7799  -9.7024
    -9.6708  -9.6368  -9.5985  -9.5643  -9.5452  -9.5194  -9.5182  -9.4829
    -2.3149  -2.3137  -2.3106  -2.3070  -2.3048  -2.3043  -2.2966  -2.2962
    -2.2961  -2.2930  10.5052  10.8262  16.3018  16.4744  16.9908  17.0331
    17.3231  17.6613  17.8882  17.9559  18.1818  18.3377  18.7001  18.8744
    19.0320  19.3806  19.4456  20.0450  20.1205  20.1347  20.6424  21.1360
    21.3651  21.3770  21.6099  21.6821  21.9127  22.0455  22.1173  22.1803
    22.6977  22.7478  23.2889  23.5066  23.8028  23.9354  24.1394  24.4331
    24.6746  25.9376  26.7961  28.2721  28.6948  28.8655

          k = 0.2000 0.1155 0.5424 (  5053 PWs)   bands (ev):

  -101.7786-101.7575 -60.5398 -60.5376 -60.5366 -60.5356 -60.5281 -60.5222
   -34.7223 -34.6982 -34.6602 -34.6544 -34.6467 -34.6420 -10.2377 -10.2316
   -10.1823 -10.1666 -10.1500 -10.1256  -9.8946  -9.7733  -9.7516  -9.6868
    -9.6785  -9.6281  -9.6148  -9.5619  -9.5521  -9.5285  -9.5150  -9.4941
    -2.3144  -2.3131  -2.3112  -2.3081  -2.3078  -2.3065  -2.2995  -2.2973
    -2.2972  -2.2943  10.6728  10.7754  16.1867  16.3936  17.0886  17.2571
    17.2654  17.5665  18.1146  18.3950  18.4502  18.6646  18.8775  18.9203
    18.9418  19.0689  19.1297  19.5681  19.7026  20.0557  20.6836  21.0759
    21.1100  21.4088  21.5116  21.7598  22.0176  22.0588  22.0641  22.2545
    22.2853  22.5336  23.2451  23.4657  23.5144  23.8187  24.1909  24.3517
    24.8468  25.4226  27.6492  28.5727  28.6339  28.7571

          k = 0.2000 0.3079 0.0000 (  5075 PWs)   bands (ev):

  -101.7973-101.7733 -60.5428 -60.5403 -60.5352 -60.5341 -60.5324 -60.5316
   -34.7545 -34.6929 -34.6829 -34.6515 -34.6220 -34.6206 -10.2591 -10.1796
   -10.0391 -10.0344 -10.0210 -10.0157 -10.0149  -9.9254  -9.8533  -9.8268
    -9.6616  -9.6602  -9.6371  -9.6368  -9.5493  -9.5273  -9.5068  -9.4845
    -2.3068  -2.3040  -2.3039  -2.3020  -2.3016  -2.3003  -2.2950  -2.2910
    -2.2903  -2.2893  10.4697  10.9320  16.0859  16.2257  16.3942  16.9173
    17.0317  17.1574  17.9852  18.3022  18.3363  18.6378  18.6929  19.0186
    19.1942  19.3390  19.6080  20.1884  20.2671  20.2893  20.3088  20.7577
    21.2618  21.6821  21.7776  21.8353  22.0639  22.1536  22.2452  22.3527
    22.9751  23.3152  23.3308  23.8430  24.0251  24.0812  24.1409  24.3898
    25.5586  25.9240  26.4480  27.6126  27.9128  28.1585

          k = 0.2000 0.3079 0.1808 (  5088 PWs)   bands (ev):

  -101.8040-101.7854 -60.5439 -60.5424 -60.5374 -60.5350 -60.5349 -60.5320
   -34.7491 -34.6901 -34.6814 -34.6547 -34.6254 -34.6246 -10.2406 -10.1812
   -10.1284 -10.0894 -10.0233  -9.9860  -9.9249  -9.9134  -9.8932  -9.7879
    -9.6823  -9.6793  -9.6146  -9.6074  -9.5457  -9.5229  -9.5110  -9.5090
    -2.3076  -2.3067  -2.3058  -2.3039  -2.3020  -2.2975  -2.2946  -2.2932
    -2.2917  -2.2890  10.5272  10.9228  16.1507  16.2451  16.6243  16.6949
    17.0657  17.1176  18.0398  18.2682  18.4424  18.5129  18.6973  19.1053
    19.2891  19.5925  19.6874  19.9825  20.0241  20.1777  20.2063  20.7735
    21.2084  21.5675  21.7137  21.7701  22.0025  22.0925  22.2278  22.4617
    23.1286  23.2067  23.2598  23.6582  23.8509  23.8890  24.2552  24.4506
    25.5604  25.8982  26.0907  27.7501  28.1479  28.2901

          k = 0.2000 0.3079 0.3616 (  5068 PWs)   bands (ev):

  -101.7947-101.7649 -60.5431 -60.5407 -60.5362 -60.5329 -60.5322 -60.5258
   -34.7346 -34.6818 -34.6792 -34.6600 -34.6366 -34.6322 -10.2129 -10.1860
   -10.1696 -10.1309 -10.0519 -10.0267  -9.9428  -9.8748  -9.7868  -9.7195
    -9.7068  -9.6848  -9.6037  -9.5909  -9.5711  -9.5401  -9.5118  -9.5058
    -2.3109  -2.3103  -2.3052  -2.3040  -2.3029  -2.2981  -2.2979  -2.2958
    -2.2934  -2.2877  10.6661  10.9128  16.1831  16.2634  16.6257  16.9795
    17.1186  17.2145  18.0493  18.2003  18.4313  18.6143  18.8119  19.0622
    19.1494  19.4552  19.7173  19.8003  20.0128  20.1204  20.1727  21.0039
    21.1387  21.3687  21.5776  21.6462  21.8880  21.9919  22.0754  22.4737
    22.6800  22.8847  23.1693  23.3516  23.9239  24.0181  24.0849  24.2826
    25.3465  25.6664  26.3827  28.4508  28.5061  28.6694

          k = 0.2000 0.3079 0.5424 (  5058 PWs)   bands (ev):

  -101.7763-101.7674 -60.5404 -60.5394 -60.5372 -60.5356 -60.5263 -60.5247
   -34.7138 -34.6926 -34.6681 -34.6567 -34.6501 -34.6429 -10.2065 -10.1886
   -10.1645 -10.1586 -10.0941 -10.0789  -9.8831  -9.8235  -9.7702  -9.7500
    -9.6934  -9.6466  -9.6010  -9.5928  -9.5834  -9.5407  -9.5159  -9.5107
    -2.3107  -2.3099  -2.3069  -2.3060  -2.3044  -2.3040  -2.2994  -2.2967
    -2.2913  -2.2887  10.8058  10.8835  16.1341  16.1968  16.9395  16.9825
    17.1740  17.3217  18.1731  18.2610  18.5344  18.7806  18.8320  19.0172
    19.0783  19.1441  19.4486  19.5879  19.9247  20.0379  20.4025  21.0665
    21.1388  21.3242  21.5457  21.6711  21.7413  21.9013  21.9633  22.2412
    22.6801  22.8208  22.8566  23.1569  23.5378  23.8722  24.2101  24.2715
    25.2464  25.4056  27.2105  28.0938  29.0565  29.1279

          k = 0.2000 0.5004 0.0000 (  5072 PWs)   bands (ev):

  -101.7888-101.7786 -60.5438 -60.5377 -60.5367 -60.5333 -60.5315 -60.5309
   -34.7396 -34.7057 -34.6899 -34.6430 -34.6259 -34.6206 -10.2426 -10.0954
   -10.0498 -10.0290 -10.0262  -9.9831  -9.9576  -9.9073  -9.8473  -9.7854
    -9.7444  -9.7125  -9.6635  -9.6418  -9.6082  -9.5636  -9.5221  -9.4739
    -2.3028  -2.3026  -2.3009  -2.2976  -2.2956  -2.2944  -2.2942  -2.2906
    -2.2904  -2.2877  10.7195  10.9245  15.6775  16.1350  16.4161  16.7045
    16.8418  16.9462  18.1371  18.4048  18.6917  18.7967  18.8436  19.1037
    19.2414  19.4547  19.5537  19.8860  20.3905  20.4833  20.5993  20.7576
    20.8632  21.6039  21.7879  21.8289  21.8769  21.8929  22.1708  22.1954
    22.6376  22.8225  23.2643  23.4497  24.0208  24.5405  24.7508  25.0996
    25.7728  26.2403  26.4243  26.7447  27.5589  28.1935

          k = 0.2000 0.5004 0.1808 (  5079 PWs)   bands (ev):

  -101.7992-101.7786 -60.5450 -60.5408 -60.5374 -60.5339 -60.5326 -60.5295
   -34.7343 -34.7031 -34.6877 -34.6453 -34.6292 -34.6255 -10.2196 -10.1390
   -10.0899 -10.0612 -10.0202  -9.9634  -9.9101  -9.8815  -9.8217  -9.8032
    -9.7870  -9.7560  -9.6315  -9.6122  -9.5791  -9.5573  -9.5239  -9.5000
    -2.3052  -2.3030  -2.3022  -2.2987  -2.2970  -2.2946  -2.2939  -2.2927
    -2.2903  -2.2865  10.7569  10.9367  15.8020  16.1148  16.3394  16.7878
    16.8333  16.9685  18.2992  18.3700  18.6359  18.7154  19.0034  19.1347
    19.3684  19.4441  19.6775  19.9660  20.1036  20.2288  20.5071  20.5836
    20.7158  21.4618  21.5904  21.6583  21.8526  22.1299  22.2163  22.3766
    22.6038  22.9414  23.4083  23.5363  23.6695  24.2574  24.7736  25.0175
    25.5014  25.7795  26.5592  27.2949  27.8231  28.3142

          k = 0.2000 0.5004 0.3616 (  5085 PWs)   bands (ev):

  -101.8038-101.7825 -60.5459 -60.5417 -60.5389 -60.5341 -60.5325 -60.5304
   -34.7197 -34.6957 -34.6827 -34.6509 -34.6419 -34.6346 -10.1898 -10.1603
   -10.1319 -10.0879 -10.0329  -9.9946  -9.8991  -9.8710  -9.8074  -9.7953
    -9.7659  -9.7227  -9.6396  -9.5850  -9.5670  -9.5563  -9.5277  -9.5208
    -2.3080  -2.3056  -2.3033  -2.3011  -2.3004  -2.2988  -2.2944  -2.2932
    -2.2898  -2.2853  10.8495  10.9633  15.9870  16.0436  16.4014  16.8062
    16.9690  17.0853  18.2915  18.4876  18.6744  18.8272  19.0131  19.1229
    19.1902  19.4007  19.5804  19.6696  20.0807  20.2527  20.4468  20.6215
    20.6841  21.2937  21.3798  21.5060  21.7758  21.9017  22.2535  22.3952
    22.6375  22.7697  23.0288  23.4512  23.8880  23.9504  24.3594  24.5897
    25.3297  25.9250  26.7965  27.7134  28.3648  28.5290

          k = 0.2000 0.5004 0.5424 (  5080 PWs)   bands (ev):

  -101.7924-101.7841 -60.5454 -60.5427 -60.5392 -60.5369 -60.5280 -60.5275
   -34.7003 -34.6890 -34.6778 -34.6634 -34.6506 -34.6443 -10.1942 -10.1607
   -10.1321 -10.0996 -10.0513 -10.0293  -9.8760  -9.8732  -9.8087  -9.8071
    -9.7066  -9.6859  -9.6326  -9.6283  -9.5643  -9.5431  -9.5291  -9.5217
    -2.3082  -2.3062  -2.3049  -2.3044  -2.3032  -2.3026  -2.2942  -2.2935
    -2.2880  -2.2859  10.9401  10.9764  15.9682  16.0120  16.6972  16.7930
    17.1557  17.2132  18.2855  18.4210  18.7178  18.8048  18.8791  18.9075
    19.0519  19.1044  19.7417  19.8819  20.0550  20.1937  20.4039  20.8663
    20.9665  21.1418  21.3129  21.4420  21.5278  21.6678  22.2190  22.3230
    22.6166  22.6505  22.7580  23.0129  23.4974  23.7960  24.5202  24.6725
    25.2831  25.8822  26.9891  27.3454  29.2811  29.4851

          k = 0.2000-0.4619 0.0000 (  5078 PWs)   bands (ev):

  -101.7971-101.7788 -60.5433 -60.5404 -60.5361 -60.5338 -60.5327 -60.5319
   -34.7422 -34.7033 -34.6893 -34.6443 -34.6251 -34.6207 -10.2459 -10.1082
   -10.0492 -10.0281 -10.0240  -9.9914  -9.9700  -9.9047  -9.8494  -9.7781
    -9.7502  -9.7026  -9.6639  -9.6405  -9.5953  -9.5566  -9.5219  -9.4756
    -2.3031  -2.3028  -2.3008  -2.2985  -2.2977  -2.2957  -2.2935  -2.2907
    -2.2902  -2.2875  10.6760  10.9337  15.7337  16.1106  16.5155  16.6430
    16.8582  16.9899  18.1633  18.3549  18.5993  18.7888  18.8850  19.0671
    19.2108  19.4507  19.5653  19.8941  20.3760  20.4549  20.6612  20.7467
    20.8160  21.6763  21.7837  21.8254  21.8501  21.9259  22.1994  22.2226
    22.7565  22.8942  23.2164  23.4970  24.0350  24.4962  24.6399  24.8844
    25.8520  26.2159  26.4282  26.8714  27.4996  28.2693

          k = 0.2000-0.4619 0.1808 (  5075 PWs)   bands (ev):

  -101.7944-101.7769 -60.5432 -60.5415 -60.5363 -60.5334 -60.5319 -60.5299
   -34.7369 -34.7004 -34.6871 -34.6468 -34.6282 -34.6254 -10.2222 -10.1388
   -10.1031 -10.0665 -10.0110  -9.9715  -9.9128  -9.8936  -9.8232  -9.8076
    -9.7679  -9.7424  -9.6283  -9.6139  -9.5716  -9.5510  -9.5234  -9.5012
    -2.3054  -2.3033  -2.3025  -2.2992  -2.2978  -2.2952  -2.2946  -2.2927
    -2.2904  -2.2864  10.7193  10.9427  15.8568  16.0961  16.4168  16.7560
    16.8577  16.9938  18.3098  18.3212  18.5605  18.7003  18.9787  19.1821
    19.3520  19.4198  19.6827  19.9847  20.0858  20.2127  20.4832  20.5757
    20.7728  21.5251  21.5962  21.6684  21.8356  22.1297  22.2234  22.4094
    22.7186  22.9787  23.3898  23.5251  23.7082  24.1774  24.7057  24.8712
    25.5785  25.8376  26.4184  27.3868  27.8144  28.3959

          k = 0.2000-0.4619 0.3616 (  5078 PWs)   bands (ev):

  -101.8002-101.7755 -60.5451 -60.5418 -60.5376 -60.5332 -60.5314 -60.5294
   -34.7224 -34.6927 -34.6825 -34.6527 -34.6406 -34.6344 -10.1912 -10.1627
   -10.1388 -10.0979 -10.0296 -10.0010  -9.9032  -9.8819  -9.7990  -9.7814
    -9.7611  -9.7138  -9.6331  -9.5891  -9.5668  -9.5504  -9.5268  -9.5186
    -2.3084  -2.3063  -2.3032  -2.3013  -2.3002  -2.2986  -2.2960  -2.2938
    -2.2899  -2.2853  10.8208  10.9620  16.0081  16.0855  16.4184  16.8570
    16.9735  17.0884  18.2454  18.4390  18.6491  18.7518  19.0082  19.1298
    19.2443  19.4341  19.5627  19.6779  20.0589  20.2129  20.4077  20.6459
    20.7485  21.3683  21.3777  21.5235  21.7906  21.9281  22.2154  22.4386
    22.6798  22.7488  23.0495  23.4345  23.9059  23.9707  24.3072  24.5261
    25.3496  25.8737  26.6381  27.9529  28.3804  28.5418

          k = 0.2000-0.4619 0.5424 (  5069 PWs)   bands (ev):

  -101.7853-101.7746 -60.5425 -60.5404 -60.5384 -60.5361 -60.5276 -60.5265
   -34.7030 -34.6885 -34.6766 -34.6621 -34.6505 -34.6440 -10.1948 -10.1607
   -10.1408 -10.1147 -10.0496 -10.0360  -9.8747  -9.8728  -9.8008  -9.7969
    -9.7053  -9.6754  -9.6304  -9.6227  -9.5677  -9.5389  -9.5291  -9.5198
    -2.3085  -2.3068  -2.3050  -2.3042  -2.3032  -2.3027  -2.2954  -2.2943
    -2.2881  -2.2860  10.9216  10.9671  15.9971  16.0349  16.7219  16.8274
    17.1625  17.2155  18.2598  18.3823  18.6853  18.7894  18.8896  18.9240
    19.0810  19.0954  19.7280  19.9055  20.0369  20.1153  20.3561  20.8703
    20.9862  21.1613  21.3824  21.5225  21.5634  21.6762  22.1669  22.3204
    22.6466  22.6789  22.7504  23.0583  23.5080  23.8047  24.4705  24.5856
    25.2989  25.7558  27.0131  27.5011  29.2831  29.4688

          k = 0.2000-0.2694 0.0000 (  5077 PWs)   bands (ev):

  -101.7954-101.7786 -60.5423 -60.5397 -60.5375 -60.5344 -60.5325 -60.5316
   -34.7572 -34.6912 -34.6809 -34.6534 -34.6215 -34.6205 -10.2627 -10.1969
   -10.0452 -10.0368 -10.0226 -10.0192 -10.0153  -9.9325  -9.8721  -9.8203
    -9.6603  -9.6393  -9.6364  -9.6168  -9.5436  -9.5242  -9.4976  -9.4869
    -2.3085  -2.3046  -2.3043  -2.3034  -2.3021  -2.3004  -2.2967  -2.2920
    -2.2905  -2.2889  10.4206  10.9214  16.1571  16.3388  16.3395  16.9586
    17.1341  17.1981  17.8944  18.2707  18.3353  18.5360  18.6223  18.9626
    19.2940  19.3402  19.6094  20.1867  20.2346  20.2639  20.2831  20.7930
    21.3430  21.6445  21.7676  21.8658  22.0857  22.2135  22.2662  22.3903
    22.9921  23.3920  23.4220  23.8257  23.8800  24.0744  24.1750  24.3872
    25.3454  25.9183  26.4281  27.8057  28.0750  28.1390

          k = 0.2000-0.2694 0.1808 (  5087 PWs)   bands (ev):

  -101.8074-101.7807 -60.5459 -60.5415 -60.5374 -60.5354 -60.5340 -60.5310
   -34.7519 -34.6883 -34.6790 -34.6568 -34.6252 -34.6239 -10.2460 -10.1968
   -10.1281 -10.0940 -10.0333  -9.9880  -9.9248  -9.9210  -9.9016  -9.7848
    -9.6713  -9.6601  -9.6121  -9.5965  -9.5413  -9.5205  -9.5144  -9.4996
    -2.3085  -2.3076  -2.3074  -2.3042  -2.3027  -2.2981  -2.2960  -2.2928
    -2.2913  -2.2901  10.4796  10.9112  16.1900  16.3614  16.6104  16.7369
    17.0917  17.1971  17.9871  18.2149  18.4270  18.4519  18.6218  19.0568
    19.3315  19.5740  19.6813  19.9829  20.0793  20.1245  20.1899  20.8694
    21.2783  21.5474  21.6816  21.8104  22.0708  22.1499  22.2178  22.4398
    23.0622  23.2511  23.3405  23.7168  23.8113  23.8959  24.1556  24.4518
    25.3649  25.9389  26.1328  27.8330  28.2110  28.3257

          k = 0.2000-0.2694 0.3616 (  5068 PWs)   bands (ev):

  -101.7964-101.7629 -60.5432 -60.5402 -60.5368 -60.5340 -60.5321 -60.5248
   -34.7372 -34.6811 -34.6767 -34.6618 -34.6361 -34.6316 -10.2207 -10.1987
   -10.1710 -10.1379 -10.0623 -10.0301  -9.9580  -9.8631  -9.7856  -9.7111
    -9.6895  -9.6796  -9.6036  -9.5811  -9.5686  -9.5404  -9.5110  -9.4986
    -2.3118  -2.3113  -2.3069  -2.3046  -2.3034  -2.2983  -2.2977  -2.2961
    -2.2946  -2.2888  10.6264  10.8944  16.2362  16.2929  16.7142  16.9814
    17.1383  17.3196  18.0111  18.1393  18.3659  18.5902  18.7520  19.0425
    19.1232  19.3966  19.6778  19.8527  20.0189  20.1130  20.2750  21.0716
    21.1886  21.3801  21.5911  21.6930  21.8762  21.9954  22.1022  22.4185
    22.6856  22.9245  23.1764  23.3459  23.8477  23.9902  24.1043  24.3130
    25.1967  25.7419  26.4178  28.4066  28.5405  28.7364

          k = 0.2000-0.2694 0.5424 (  5058 PWs)   bands (ev):

  -101.7796-101.7643 -60.5409 -60.5381 -60.5373 -60.5350 -60.5272 -60.5253
   -34.7161 -34.6941 -34.6662 -34.6557 -34.6497 -34.6425 -10.2138 -10.1979
   -10.1695 -10.1593 -10.1103 -10.0907  -9.8856  -9.8086  -9.7679  -9.7342
    -9.6898  -9.6442  -9.5966  -9.5855  -9.5779  -9.5432  -9.5145  -9.5073
    -2.3115  -2.3108  -2.3080  -2.3065  -2.3053  -2.3043  -2.2995  -2.2968
    -2.2927  -2.2899  10.7737  10.8583  16.1550  16.2481  17.0060  17.0142
    17.1795  17.3805  18.1498  18.2662  18.5056  18.7560  18.8549  18.9975
    19.0761  19.1637  19.3554  19.4898  19.8773  20.0538  20.4670  21.0799
    21.1708  21.3697  21.5534  21.6571  21.8187  21.9273  21.9998  22.2288
    22.6076  22.8461  22.9250  23.1432  23.5384  23.8640  24.1755  24.2819
    25.1514  25.4157  27.2903  28.2148  28.9575  29.0122

          k = 0.2000-0.0770 0.0000 (  5083 PWs)   bands (ev):

  -101.8009-101.7797 -60.5424 -60.5396 -60.5364 -60.5364 -60.5340 -60.5336
   -34.7662 -34.6836 -34.6763 -34.6577 -34.6206 -34.6202 -10.2767 -10.2531
   -10.0795 -10.0345 -10.0253 -10.0227 -10.0161  -9.9557  -9.9292  -9.8032
    -9.6533  -9.6379  -9.5674  -9.5404  -9.5223  -9.5110  -9.5001  -9.4815
    -2.3131  -2.3090  -2.3060  -2.3055  -2.3045  -2.3032  -2.3017  -2.2987
    -2.2888  -2.2882  10.2495  10.8702  16.1625  16.5464  16.8125  17.1594
    17.3639  17.4276  17.6122  17.9933  18.2091  18.2611  18.4400  18.7484
    19.4515  19.5544  19.7048  19.9674  20.1587  20.2512  20.2952  20.9956
    21.5241  21.5600  21.7517  22.0228  22.0790  22.1427  22.2233  22.4685
    23.1067  23.4023  23.6501  23.7181  23.8531  24.0406  24.3132  24.6011
    24.9541  25.8883  26.1841  28.0341  28.5419  28.7748

          k = 0.2000-0.0770 0.1808 (  5080 PWs)   bands (ev):

  -101.8001-101.7763 -60.5409 -60.5396 -60.5370 -60.5366 -60.5343 -60.5316
   -34.7607 -34.6807 -34.6737 -34.6625 -34.6241 -34.6229 -10.2651 -10.2505
   -10.1280 -10.1110 -10.0630  -9.9989  -9.9723  -9.9091  -9.9026  -9.7786
    -9.6457  -9.6269  -9.5682  -9.5436  -9.5313  -9.5174  -9.5100  -9.4826
    -2.3123  -2.3109  -2.3099  -2.3080  -2.3054  -2.3038  -2.2983  -2.2955
    -2.2911  -2.2904  10.3199  10.8531  16.3172  16.6691  16.8046  16.8915
    17.2355  17.4748  17.8729  17.9839  18.1448  18.2529  18.4791  18.7990
    19.4967  19.6050  19.6962  19.8684  20.0811  20.2205  20.3338  21.1319
    21.4670  21.5331  21.5975  21.9056  22.1038  22.1565  22.2511  22.2668
    22.6956  23.5126  23.6857  23.8438  23.8687  23.9265  23.9992  24.5345
    24.6346  26.1675  26.2771  28.0662  28.2454  28.9093

          k = 0.2000-0.0770 0.3616 (  5063 PWs)   bands (ev):

  -101.7929-101.7571 -60.5421 -60.5382 -60.5367 -60.5335 -60.5324 -60.5243
   -34.7456 -34.6789 -34.6703 -34.6654 -34.6333 -34.6305 -10.2474 -10.2425
   -10.1801 -10.1634 -10.0817 -10.0551  -9.9975  -9.8181  -9.7775  -9.7046
    -9.6678  -9.6333  -9.5962  -9.5581  -9.5446  -9.5245  -9.5081  -9.4826
    -2.3152  -2.3142  -2.3105  -2.3074  -2.3063  -2.3046  -2.2966  -2.2964
    -2.2960  -2.2935  10.4881  10.8169  16.3009  16.5108  17.0105  17.0544
    17.3918  17.6768  17.8901  17.9342  18.1367  18.3356  18.6394  18.8402
    19.0589  19.3472  19.4556  20.0528  20.1279  20.1690  20.7032  21.1448
    21.3318  21.3963  21.6018  21.6913  21.9232  22.0338  22.1116  22.1716
    22.6029  22.7642  23.2829  23.5669  23.8509  23.9758  24.1258  24.4022
    24.6073  25.9677  26.8631  28.2684  28.7137  28.8563

          k = 0.2000-0.0770 0.5424 (  5055 PWs)   bands (ev):

  -101.7772-101.7619 -60.5392 -60.5385 -60.5376 -60.5349 -60.5275 -60.5237
   -34.7231 -34.6989 -34.6596 -34.6545 -34.6461 -34.6419 -10.2407 -10.2361
   -10.1866 -10.1707 -10.1514 -10.1296  -9.8959  -9.7730  -9.7442  -9.6810
    -9.6763  -9.6259  -9.6167  -9.5652  -9.5459  -9.5266  -9.5110  -9.4950
    -2.3145  -2.3136  -2.3112  -2.3087  -2.3083  -2.3071  -2.2997  -2.2977
    -2.2976  -2.2949  10.6588  10.7621  16.1869  16.4098  17.1131  17.2654
    17.3109  17.5715  18.1501  18.3961  18.4544  18.6623  18.8369  18.9028
    18.9085  19.0610  19.1460  19.5613  19.7076  20.0549  20.6956  21.0973
    21.1328  21.3743  21.4790  21.7378  22.0474  22.0584  22.0802  22.2557
    22.2990  22.4344  23.2915  23.4882  23.6021  23.8606  24.1685  24.3180
    24.8100  25.4222  27.6878  28.5466  28.6880  28.7774

          k = 0.4000 0.2309 0.0000 (  5085 PWs)   bands (ev):

  -101.8042-101.7816 -60.5421 -60.5419 -60.5367 -60.5363 -60.5352 -60.5313
   -34.7464 -34.7061 -34.6766 -34.6533 -34.6229 -34.6199 -10.2509 -10.1415
   -10.0618 -10.0540 -10.0182  -9.9767  -9.9704  -9.8591  -9.8590  -9.8058
    -9.7369  -9.6754  -9.6702  -9.6429  -9.6343  -9.5410  -9.4793  -9.4778
    -2.3096  -2.3066  -2.3037  -2.2990  -2.2942  -2.2938  -2.2932  -2.2921
    -2.2895  -2.2871  10.6038  10.9339  15.6698  16.3635  16.4342  16.5685
    16.9956  17.1956  18.1021  18.3032  18.5427  18.6569  18.9662  19.0997
    19.1103  19.3268  19.7058  20.1738  20.1861  20.3795  20.5311  20.7993
    21.1384  21.5666  21.6268  21.6676  21.8704  21.9312  22.1185  22.3441
    22.5909  22.8544  23.4147  24.0096  24.0844  24.0884  24.5793  24.6742
    25.7195  26.3259  26.9976  27.2176  27.9980  28.0450

          k = 0.4000 0.2309 0.1808 (  5088 PWs)   bands (ev):

  -101.8041-101.7858 -60.5424 -60.5421 -60.5385 -60.5368 -60.5351 -60.5304
   -34.7412 -34.7034 -34.6738 -34.6562 -34.6281 -34.6226 -10.2295 -10.1745
   -10.0949 -10.0676 -10.0380  -9.9416  -9.9192  -9.8776  -9.8726  -9.7928
    -9.7411  -9.7086  -9.6697  -9.6136  -9.5883  -9.5337  -9.5061  -9.4842
    -2.3097  -2.3079  -2.3059  -2.3003  -2.2956  -2.2934  -2.2934  -2.2920
    -2.2918  -2.2858  10.6517  10.9370  15.7630  16.2024  16.5217  16.7191
    16.9499  17.2279  18.1247  18.3976  18.4459  18.5936  18.9968  19.0782
    19.3980  19.4697  19.7672  19.8118  20.1544  20.2813  20.3817  20.7247
    21.0924  21.3139  21.5013  21.5196  21.8811  22.1597  22.2007  22.2523
    22.5581  23.1058  23.4053  23.7013  23.9949  24.3057  24.3131  24.6382
    25.5122  26.0046  26.7208  27.8468  28.1731  28.4758

          k = 0.4000 0.2309 0.3616 (  5084 PWs)   bands (ev):

  -101.8030-101.7799 -60.5452 -60.5401 -60.5387 -60.5382 -60.5320 -60.5288
   -34.7265 -34.6959 -34.6661 -34.6643 -34.6418 -34.6307 -10.2225 -10.1856
   -10.1106 -10.1076 -10.0545  -9.9708  -9.9139  -9.8966  -9.8283  -9.7326
    -9.7277  -9.7147  -9.6645  -9.5744  -9.5706  -9.5541  -9.5186  -9.4960
    -2.3106  -2.3090  -2.3088  -2.3030  -2.2996  -2.2983  -2.2941  -2.2919
    -2.2911  -2.2846  10.7683  10.9452  15.9239  16.0394  16.7699  16.8199
    16.9780  17.3279  18.0900  18.3028  18.6743  18.6752  18.8934  19.0653
    19.2257  19.5122  19.7714  19.9003  20.0259  20.1181  20.2432  20.8035
    20.9814  21.2609  21.2779  21.3194  21.6647  21.9308  22.3727  22.3772
    22.5765  22.6709  23.0509  23.6075  23.8957  24.3244  24.3545  24.6317
    24.6318  26.0488  27.0726  28.4556  28.5389  28.8357

          k = 0.4000 0.2309 0.5424 (  5068 PWs)   bands (ev):

  -101.7869-101.7714 -60.5443 -60.5420 -60.5382 -60.5352 -60.5273 -60.5242
   -34.7068 -34.6917 -34.6705 -34.6592 -34.6545 -34.6420 -10.2267 -10.1980
   -10.1078 -10.0895 -10.0675 -10.0564  -9.8813  -9.8378  -9.8291  -9.7766
    -9.7134  -9.6895  -9.6149  -9.5816  -9.5803  -9.5344  -9.5311  -9.5083
    -2.3103  -2.3090  -2.3089  -2.3049  -2.3048  -2.3037  -2.2941  -2.2931
    -2.2881  -2.2853  10.8824  10.9400  15.9377  16.0261  16.9160  16.9571
    17.1151  17.3634  18.0795  18.2482  18.6863  18.8700  18.9477  18.9483
    19.1523  19.1951  19.6556  19.7961  19.9629  20.0907  20.4832  20.9072
    20.9939  21.2030  21.3140  21.3685  21.4914  21.6561  22.2097  22.3185
    22.5561  22.6222  23.0408  23.0427  23.4572  23.6445  24.4193  24.6374
    25.2200  26.1668  27.3062  28.2119  28.7616  28.7721

          k = 0.4000 0.4234 0.0000 (  5078 PWs)   bands (ev):

  -101.7918-101.7848 -60.5430 -60.5386 -60.5372 -60.5352 -60.5330 -60.5314
   -34.7381 -34.7094 -34.6873 -34.6442 -34.6255 -34.6206 -10.2419 -10.0947
   -10.0531 -10.0405 -10.0268  -9.9721  -9.9417  -9.9047  -9.8370  -9.7934
    -9.7416  -9.7243  -9.6666  -9.6405  -9.6362  -9.5612  -9.5099  -9.4743
    -2.3044  -2.3027  -2.3026  -2.2967  -2.2953  -2.2931  -2.2927  -2.2912
    -2.2904  -2.2872  10.7385  10.9139  15.6176  16.2251  16.2950  16.7656
    16.8790  16.9100  18.1548  18.3703  18.7144  18.8243  18.9143  19.0200
    19.2359  19.4637  19.5818  19.9770  20.3502  20.4855  20.5774  20.7642
    20.9354  21.4837  21.7560  21.8151  21.8483  21.8720  22.1495  22.1805
    22.4955  22.7770  23.4238  23.4889  24.0199  24.4925  24.7664  25.3210
    25.5214  26.3623  26.5978  26.7598  27.6940  28.0625

          k = 0.4000 0.4234 0.1808 (  5071 PWs)   bands (ev):

  -101.7893-101.7767 -60.5452 -60.5384 -60.5368 -60.5338 -60.5309 -60.5284
   -34.7328 -34.7066 -34.6849 -34.6463 -34.6294 -34.6247 -10.2178 -10.1486
   -10.0727 -10.0537 -10.0388  -9.9480  -9.9104  -9.8563  -9.8366  -9.7955
    -9.7868  -9.7721  -9.6462  -9.6123  -9.5877  -9.5550  -9.5133  -9.4995
    -2.3055  -2.3041  -2.3034  -2.2979  -2.2973  -2.2935  -2.2923  -2.2918
    -2.2909  -2.2860  10.7762  10.9307  15.7348  16.1476  16.2906  16.8159
    16.8748  16.9662  18.3061  18.3460  18.6552  18.7769  19.0068  19.0453
    19.3834  19.5277  19.6589  19.9177  20.1781  20.2622  20.5323  20.5882
    20.7135  21.3616  21.5290  21.6139  21.8886  22.0985  22.2032  22.3290
    22.4588  22.9544  23.4316  23.6585  23.7311  24.2922  24.7427  25.0788
    25.3769  25.7598  26.8243  27.3746  27.9151  28.2133

          k = 0.4000 0.4234 0.3616 (  5075 PWs)   bands (ev):

  -101.7916-101.7790 -60.5435 -60.5406 -60.5386 -60.5329 -60.5314 -60.5291
   -34.7177 -34.6997 -34.6796 -34.6510 -34.6436 -34.6335 -10.1970 -10.1621
   -10.1205 -10.0801 -10.0367  -9.9784  -9.8969  -9.8692  -9.8212  -9.7989
    -9.7584  -9.7292  -9.6503  -9.5789  -9.5680  -9.5603  -9.5238  -9.5172
    -2.3078  -2.3056  -2.3050  -2.3014  -2.3006  -2.2987  -2.2925  -2.2920
    -2.2897  -2.2846  10.8641  10.9621  15.9469  15.9758  16.4611  16.8259
    16.9500  17.1154  18.2775  18.4863  18.7307  18.8981  18.9717  19.1064
    19.1328  19.3588  19.6736  19.7123  20.1523  20.2542  20.4221  20.6537
    20.6758  21.1532  21.3526  21.4176  21.7607  21.8818  22.2886  22.3682
    22.5601  22.7728  23.0395  23.4969  23.9048  24.0242  24.4368  24.6854
    25.0868  25.9111  27.2618  27.5689  28.3758  28.5320

          k = 0.4000 0.4234 0.5424 (  5077 PWs)   bands (ev):

  -101.7899-101.7825 -60.5456 -60.5440 -60.5373 -60.5371 -60.5275 -60.5262
   -34.6978 -34.6918 -34.6761 -34.6641 -34.6516 -34.6438 -10.2034 -10.1697
   -10.1180 -10.0746 -10.0581 -10.0232  -9.8766  -9.8749  -9.8211  -9.8102
    -9.7096  -9.6964  -9.6297  -9.6221  -9.5617  -9.5448  -9.5261  -9.5223
    -2.3080  -2.3058  -2.3053  -2.3049  -2.3041  -2.3035  -2.2930  -2.2927
    -2.2875  -2.2853  10.9492  10.9791  15.9234  15.9817  16.7311  16.8118
    17.1405  17.2313  18.2545  18.4066  18.7619  18.8451  18.8753  18.9095
    19.0320  19.1467  19.7786  19.8560  20.0713  20.2164  20.4550  20.9161
    21.0001  21.0591  21.2156  21.3113  21.4676  21.6515  22.2782  22.3121
    22.5849  22.6114  22.8004  23.0434  23.4313  23.8366  24.5667  24.6539
    25.2714  26.0774  27.0793  27.3308  29.2729  29.4135

          k = 0.4000 0.6158 0.0000 (  5071 PWs)   bands (ev):

  -101.7859-101.7801 -60.5420 -60.5379 -60.5363 -60.5330 -60.5322 -60.5312
   -34.7356 -34.7048 -34.6963 -34.6380 -34.6291 -34.6207 -10.2395 -10.0681
   -10.0471 -10.0364 -10.0033  -9.9796  -9.9566  -9.9313  -9.8499  -9.8131
    -9.7183  -9.7092  -9.6593  -9.6484  -9.6016  -9.5728  -9.5497  -9.4721
    -2.3021  -2.2988  -2.2976  -2.2967  -2.2952  -2.2951  -2.2943  -2.2915
    -2.2909  -2.2895  10.7934  10.8974  15.6582  16.1463  16.3259  16.6986
    16.7942  16.9036  18.0566  18.5850  18.7190  18.7955  18.8809  19.1610
    19.3224  19.3701  19.4770  19.8591  20.3320  20.4828  20.5293  20.8605
    20.9429  21.6256  21.7770  21.8365  21.9361  21.9642  22.0981  22.1901
    22.6296  22.7527  23.1235  23.2325  23.9958  24.7238  25.0489  25.4720
    25.7633  26.0273  26.1092  26.4149  27.7019  28.0331

          k = 0.4000 0.6158 0.1808 (  5066 PWs)   bands (ev):

  -101.7844-101.7742 -60.5429 -60.5386 -60.5365 -60.5328 -60.5300 -60.5288
   -34.7302 -34.7023 -34.6941 -34.6401 -34.6315 -34.6263 -10.2149 -10.1184
   -10.0924 -10.0486 -10.0124  -9.9750  -9.8946  -9.8747  -9.8372  -9.8152
    -9.7813  -9.7676  -9.6150  -9.6042  -9.5808  -9.5711  -9.5497  -9.4965
    -2.3042  -2.3003  -2.2990  -2.2976  -2.2973  -2.2948  -2.2934  -2.2927
    -2.2908  -2.2882  10.8256  10.9176  15.8056  16.1249  16.2528  16.6731
    16.8462  16.9253  18.2648  18.5435  18.6837  18.8025  18.9871  19.0827
    19.2755  19.5760  19.6928  19.8886  20.0968  20.1979  20.3588  20.6255
    20.7696  21.5111  21.6784  21.6844  21.8113  22.1760  22.2086  22.3713
    22.6230  22.8377  23.3537  23.4260  23.4678  24.4259  25.0023  25.1775
    25.4299  25.9109  26.4224  26.8615  27.8688  28.1320

          k = 0.4000 0.6158 0.3616 (  5090 PWs)   bands (ev):

  -101.8015-101.7933 -60.5449 -60.5429 -60.5402 -60.5346 -60.5326 -60.5320
   -34.7151 -34.6959 -34.6888 -34.6462 -34.6422 -34.6378 -10.1713 -10.1510
   -10.1406 -10.0672 -10.0360 -10.0149  -9.8751  -9.8552  -9.8199  -9.8120
    -9.7724  -9.7393  -9.6343  -9.5823  -9.5659  -9.5635  -9.5325  -9.5307
    -2.3073  -2.3036  -2.3023  -2.2999  -2.2995  -2.2993  -2.2932  -2.2927
    -2.2904  -2.2869  10.8996  10.9575  16.0391  16.0597  16.2717  16.6563
    16.9911  17.0413  18.4545  18.5822  18.6952  18.9002  18.9667  19.1018
    19.1103  19.4665  19.5286  19.5893  20.0929  20.1809  20.3503  20.6755
    20.7617  21.3053  21.4202  21.5933  21.7431  21.8819  22.2719  22.3408
    22.6972  22.8078  22.9330  23.4411  23.7881  23.8121  24.3942  24.5363
    25.8382  26.0663  26.6098  27.0938  28.3553  28.4708

          k = 0.4000 0.6158 0.5424 (  5076 PWs)   bands (ev):

  -101.7902-101.7805 -60.5436 -60.5434 -60.5410 -60.5360 -60.5269 -60.5260
   -34.6947 -34.6880 -34.6829 -34.6648 -34.6490 -34.6458 -10.1747 -10.1516
   -10.1237 -10.0965 -10.0608 -10.0304  -9.8710  -9.8665  -9.8185  -9.8132
    -9.7034  -9.6891  -9.6505  -9.6335  -9.5587  -9.5494  -9.5275  -9.5258
    -2.3076  -2.3052  -2.3047  -2.3046  -2.3009  -2.3009  -2.2928  -2.2926
    -2.2892  -2.2874  10.9713  10.9905  15.9885  16.0088  16.6069  16.6846
    17.1661  17.1864  18.4334  18.5415  18.7399  18.7758  18.7966  18.8509
    19.0092  19.0796  19.7393  19.8005  20.0705  20.3454  20.4261  20.8489
    20.9914  21.1442  21.3361  21.3538  21.5892  21.6696  22.2546  22.3051
    22.6138  22.6605  22.7199  22.8620  23.5601  23.6916  24.5997  24.7890
    25.4480  25.8293  26.8447  26.9604  29.2978  29.4388

          k = 0.4000-0.3464 0.0000 (  5079 PWs)   bands (ev):

  -101.7944-101.7834 -60.5448 -60.5389 -60.5358 -60.5349 -60.5334 -60.5314
   -34.7411 -34.7097 -34.6812 -34.6490 -34.6238 -34.6202 -10.2441 -10.1168
   -10.0573 -10.0551 -10.0218  -9.9710  -9.9475  -9.8835  -9.8289  -9.7856
    -9.7535  -9.7233  -9.6699  -9.6469  -9.6371  -9.5497  -9.4895  -9.4757
    -2.3075  -2.3052  -2.3033  -2.2975  -2.2946  -2.2932  -2.2926  -2.2907
    -2.2900  -2.2863  10.6857  10.9250  15.6086  16.2501  16.3678  16.6903
    16.9117  17.0653  18.2371  18.2415  18.6157  18.8283  18.8675  19.1269
    19.1731  19.3676  19.6583  20.1163  20.2457  20.4344  20.6886  20.8076
    20.9099  21.4519  21.6213  21.7164  21.8427  21.9040  22.1317  22.2583
    22.4887  22.8112  23.4591  23.7525  24.0470  24.3124  24.6832  24.9978
    25.5815  26.5516  26.9106  26.9766  27.6794  28.1160

          k = 0.4000-0.3464 0.1808 (  5074 PWs)   bands (ev):

  -101.7892-101.7803 -60.5417 -60.5407 -60.5365 -60.5359 -60.5314 -60.5292
   -34.7358 -34.7069 -34.6786 -34.6514 -34.6288 -34.6234 -10.2223 -10.1631
   -10.0741 -10.0667 -10.0336  -9.9464  -9.9117  -9.8654  -9.8320  -9.8027
    -9.7715  -9.7532  -9.6633  -9.6169  -9.5880  -9.5415  -9.5018  -9.4951
    -2.3076  -2.3061  -2.3050  -2.2988  -2.2966  -2.2931  -2.2925  -2.2918
    -2.2906  -2.2851  10.7285  10.9363  15.7135  16.1311  16.4103  16.7766
    16.9248  17.0971  18.2374  18.3505  18.5399  18.7297  18.9857  19.1405
    19.3248  19.5276  19.6868  19.8744  20.2604  20.2820  20.4986  20.6280
    20.8491  21.3084  21.4122  21.5406  21.8899  22.0953  22.1898  22.3035
    22.4486  23.0289  23.4533  23.7050  23.9586  24.2648  24.5770  24.7812
    25.4115  25.9088  26.9542  27.6708  28.0147  28.3306

          k = 0.4000-0.3464 0.3616 (  5081 PWs)   bands (ev):

  -101.7986-101.7803 -60.5454 -60.5394 -60.5387 -60.5358 -60.5316 -60.5296
   -34.7210 -34.6995 -34.6734 -34.6564 -34.6434 -34.6316 -10.2126 -10.1731
   -10.1120 -10.0925 -10.0361  -9.9657  -9.9084  -9.8842  -9.8323  -9.7732
    -9.7451  -9.7258  -9.6573  -9.5792  -9.5691  -9.5566  -9.5192  -9.5055
    -2.3087  -2.3077  -2.3073  -2.3022  -2.3004  -2.2985  -2.2929  -2.2918
    -2.2895  -2.2838  10.8268  10.9579  15.9048  15.9657  16.6032  16.9012
    16.9258  17.2085  18.1884  18.3897  18.7272  18.7933  18.9622  19.0950
    19.1965  19.3697  19.7408  19.8381  20.1388  20.2526  20.3657  20.6221
    20.8279  21.0976  21.2720  21.3347  21.7145  21.8971  22.3303  22.3804
    22.5361  22.7126  23.0598  23.5877  23.9361  24.1801  24.5026  24.6390
    24.7983  25.9012  27.3360  28.1341  28.4638  28.5714

          k = 0.4000-0.3464 0.5424 (  5079 PWs)   bands (ev):

  -101.7880-101.7875 -60.5453 -60.5444 -60.5387 -60.5380 -60.5267 -60.5259
   -34.7017 -34.6921 -34.6728 -34.6629 -34.6531 -34.6427 -10.2186 -10.1867
   -10.1095 -10.0755 -10.0541 -10.0303  -9.8793  -9.8699  -9.8276  -9.7987
    -9.7180  -9.6921  -9.6246  -9.6031  -9.5685  -9.5402  -9.5267  -9.5170
    -2.3087  -2.3079  -2.3072  -2.3049  -2.3047  -2.3039  -2.2932  -2.2927
    -2.2870  -2.2846  10.9229  10.9650  15.9018  15.9762  16.8342  16.8984
    17.1214  17.2848  18.1615  18.3144  18.7444  18.8522  18.9060  18.9527
    19.1133  19.1677  19.7673  19.8858  20.0849  20.1066  20.4540  20.8651
    21.0088  21.1194  21.2051  21.2758  21.4422  21.6190  22.2577  22.3237
    22.5594  22.6145  22.8682  23.1886  23.3159  23.8342  24.4781  24.6138
    25.3026  26.1753  27.2230  27.7309  29.0824  29.1947

          k = 0.4000-0.1540 0.0000 (  5078 PWs)   bands (ev):

  -101.7976-101.7781 -60.5421 -60.5420 -60.5361 -60.5349 -60.5328 -60.5306
   -34.7490 -34.7022 -34.6784 -34.6525 -34.6226 -34.6201 -10.2520 -10.1536
   -10.0553 -10.0490 -10.0188  -9.9902  -9.9818  -9.8898  -9.8490  -9.8183
    -9.7102  -9.6670  -9.6618  -9.6351  -9.6100  -9.5396  -9.4837  -9.4801
    -2.3092  -2.3057  -2.3038  -2.2999  -2.2968  -2.2947  -2.2929  -2.2923
    -2.2895  -2.2883  10.5610  10.9367  15.7666  16.3543  16.5062  16.5395
    17.0545  17.1725  18.0688  18.2985  18.5123  18.5865  18.9979  19.0346
    19.0773  19.3538  19.6693  20.1558  20.2133  20.3645  20.4442  20.7659
    21.1638  21.6398  21.6920  21.8539  21.8735  21.9655  22.1485  22.3552
    22.7485  22.9039  23.3965  23.8764  24.0992  24.1655  24.3855  24.6107
    25.8201  26.0405  26.7812  27.3244  27.9227  28.1381

          k = 0.4000-0.1540 0.1808 (  5082 PWs)   bands (ev):

  -101.8032-101.7779 -60.5433 -60.5410 -60.5375 -60.5354 -60.5340 -60.5298
   -34.7440 -34.6994 -34.6759 -34.6554 -34.6274 -34.6230 -10.2329 -10.1731
   -10.1058 -10.0761 -10.0345  -9.9459  -9.9289  -9.8967  -9.8765  -9.7900
    -9.7189  -9.6989  -9.6500  -9.6063  -9.5806  -9.5333  -9.5075  -9.4889
    -2.3092  -2.3075  -2.3061  -2.3009  -2.2966  -2.2948  -2.2938  -2.2924
    -2.2919  -2.2869  10.6119  10.9371  15.8540  16.2664  16.5366  16.6957
    16.9682  17.2087  18.0975  18.3643  18.4718  18.5081  18.9583  19.0794
    19.3303  19.5453  19.7158  19.8780  20.0757  20.2591  20.3125  20.7246
    21.1147  21.4028  21.5677  21.7168  21.8879  22.1261  22.2244  22.3099
    22.7237  23.0966  23.3967  23.7165  23.8790  24.0809  24.3936  24.6055
    25.5914  25.9688  26.4208  27.7776  28.1578  28.3937

          k = 0.4000-0.1540 0.3616 (  5080 PWs)   bands (ev):

  -101.7992-101.7776 -60.5447 -60.5411 -60.5384 -60.5362 -60.5309 -60.5285
   -34.7294 -34.6922 -34.6709 -34.6613 -34.6404 -34.6308 -10.2192 -10.1867
   -10.1246 -10.1151 -10.0594  -9.9876  -9.9244  -9.8895  -9.8140  -9.7284
    -9.7220  -9.6954  -9.6551  -9.5736  -9.5718  -9.5508  -9.5218  -9.4968
    -2.3106  -2.3093  -2.3084  -2.3032  -2.2991  -2.2982  -2.2959  -2.2932
    -2.2918  -2.2856  10.7356  10.9371  15.9917  16.1238  16.6973  16.8926
    16.9938  17.3129  18.0668  18.2798  18.5962  18.6250  18.8940  19.0804
    19.2143  19.5422  19.6940  19.8669  20.0063  20.1012  20.1915  20.8744
    21.0269  21.3141  21.3931  21.4615  21.7188  21.9517  22.2823  22.4064
    22.6173  22.7506  23.0591  23.4998  23.9073  24.1599  24.3455  24.5482
    24.7622  26.0872  26.7208  28.4529  28.5094  28.7341

          k = 0.4000-0.1540 0.5424 (  5062 PWs)   bands (ev):

  -101.7834-101.7659 -60.5421 -60.5389 -60.5385 -60.5364 -60.5270 -60.5238
   -34.7093 -34.6914 -34.6703 -34.6579 -34.6533 -34.6421 -10.2229 -10.1945
   -10.1248 -10.1095 -10.0779 -10.0631  -9.8807  -9.8369  -9.8033  -9.7683
    -9.7013  -9.6818  -9.6112  -9.5885  -9.5762  -9.5352  -9.5313  -9.5074
    -2.3104  -2.3092  -2.3086  -2.3050  -2.3048  -2.3035  -2.2955  -2.2940
    -2.2892  -2.2865  10.8592  10.9240  16.0003  16.0851  16.9069  16.9603
    17.1352  17.3586  18.0851  18.2601  18.6361  18.8139  18.9422  18.9955
    19.1157  19.1792  19.5682  19.7467  19.9385  20.0637  20.4438  20.9673
    21.0206  21.2568  21.4288  21.4453  21.6000  21.7298  22.1490  22.2929
    22.5875  22.6753  22.9210  23.1935  23.3681  23.7488  24.3708  24.5552
    25.1423  25.9645  27.2584  28.1354  28.8553  28.9426

          k = 0.4000 0.0385 0.0000 (  5079 PWs)   bands (ev):

  -101.8089-101.7678 -60.5451 -60.5417 -60.5343 -60.5341 -60.5336 -60.5304
   -34.7515 -34.6959 -34.6842 -34.6498 -34.6227 -34.6207 -10.2543 -10.1600
   -10.0428 -10.0323 -10.0225 -10.0085 -10.0045  -9.9158  -9.8380  -9.8315
    -9.6854  -9.6631  -9.6573  -9.6377  -9.5623  -9.5355  -9.5078  -9.4827
    -2.3061  -2.3038  -2.3022  -2.3019  -2.3009  -2.2987  -2.2936  -2.2915
    -2.2895  -2.2890  10.5226  10.9397  15.9628  16.1856  16.4566  16.7933
    17.0004  17.1119  18.0806  18.2697  18.4048  18.6896  18.8115  19.0728
    19.0955  19.3568  19.6067  20.1198  20.3015  20.3482  20.3669  20.7395
    21.1608  21.7177  21.7823  21.8150  22.0180  22.0281  22.2458  22.3184
    22.9618  23.1693  23.2728  23.7373  24.1080  24.2009  24.2434  24.4260
    25.7897  25.9182  26.4788  27.4090  27.7515  28.2116

          k = 0.4000 0.0385 0.1808 (  5082 PWs)   bands (ev):

  -101.7986-101.7822 -60.5429 -60.5423 -60.5367 -60.5345 -60.5336 -60.5313
   -34.7460 -34.6932 -34.6824 -34.6528 -34.6259 -34.6247 -10.2351 -10.1660
   -10.1252 -10.0833 -10.0172  -9.9797  -9.9253  -9.9083  -9.8769  -9.7913
    -9.7014  -9.6964  -9.6219  -9.6107  -9.5529  -9.5312  -9.5105  -9.5081
    -2.3070  -2.3058  -2.3052  -2.3019  -2.3012  -2.2966  -2.2938  -2.2931
    -2.2919  -2.2878  10.5793  10.9341  16.0527  16.1906  16.6170  16.6645
    17.0032  17.0903  18.1022  18.3136  18.4455  18.5673  18.8004  19.1485
    19.2596  19.5894  19.6917  19.9745  20.0025  20.1881  20.2920  20.6780
    21.1209  21.5670  21.6932  21.7910  21.8616  22.0961  22.2346  22.4543
    23.0375  23.1523  23.2933  23.6177  23.8437  23.9242  24.4003  24.4942
    25.6841  25.9224  26.0708  27.6713  28.0390  28.3433

          k = 0.4000 0.0385 0.3616 (  5063 PWs)   bands (ev):

  -101.7904-101.7620 -60.5423 -60.5404 -60.5357 -60.5325 -60.5308 -60.5257
   -34.7316 -34.6851 -34.6792 -34.6584 -34.6377 -34.6325 -10.2065 -10.1787
   -10.1601 -10.1225 -10.0444 -10.0179  -9.9270  -9.8858  -9.7902  -9.7291
    -9.7250  -9.6900  -9.6149  -9.5905  -9.5701  -9.5408  -9.5174  -9.5077
    -2.3102  -2.3092  -2.3050  -2.3031  -2.3010  -2.2985  -2.2979  -2.2953
    -2.2920  -2.2866  10.7098  10.9315  16.1157  16.2210  16.5624  16.9729
    17.0604  17.1656  18.0875  18.2648  18.5123  18.6173  18.8893  19.0834
    19.1783  19.5042  19.7334  19.7381  20.0365  20.0907  20.1565  20.9141
    21.0639  21.3669  21.5416  21.5776  21.8621  21.9986  22.0882  22.4974
    22.6710  22.8387  23.1301  23.3920  23.9548  24.0233  24.1247  24.3317
    25.3154  25.7548  26.4047  28.4590  28.5007  28.5777

          k = 0.4000 0.0385 0.5424 (  5064 PWs)   bands (ev):

  -101.7788-101.7738 -60.5409 -60.5397 -60.5377 -60.5358 -60.5277 -60.5262
   -34.7113 -34.6914 -34.6705 -34.6579 -34.6505 -34.6429 -10.2042 -10.1791
   -10.1585 -10.1486 -10.0776 -10.0677  -9.8809  -9.8378  -9.7763  -9.7648
    -9.6974  -9.6550  -9.6118  -9.6006  -9.5803  -9.5387  -9.5216  -9.5128
    -2.3102  -2.3090  -2.3065  -2.3053  -2.3041  -2.3035  -2.2986  -2.2962
    -2.2900  -2.2876  10.8388  10.9084  16.0964  16.1433  16.8731  16.9517
    17.1684  17.2841  18.1745  18.2809  18.5733  18.7823  18.8551  19.0362
    19.0430  19.1420  19.5493  19.7065  19.9605  20.0247  20.3550  21.0446
    21.0702  21.2697  21.5348  21.6186  21.6942  21.8283  22.0049  22.2630
    22.7000  22.7708  22.8118  23.1790  23.5031  23.8554  24.2843  24.3266
    25.2513  25.5153  27.1552  27.9751  29.1368  29.2001

     the Fermi energy is    22.6345 ev

!    total energy              =   -1729.07327882 Ry
     Harris-Foulkes estimate   =   -1729.07329097 Ry
     estimated scf accuracy    <       0.00001329 Ry

     The total energy is the sum of the following terms:

     one-electron contribution =    -410.47443746 Ry
     hartree contribution      =     281.03705837 Ry
     xc contribution           =    -161.15762231 Ry
     ewald contribution        =   -1437.90581330 Ry
     smearing contrib. (-TS)   =      -0.57246413 Ry

     convergence has been achieved in  11 iterations

     Forces acting on atoms (Ry/au):

     atom    1 type  1   force =     0.01904440    0.01099529    0.00000000
     atom    2 type  1   force =     0.01904440   -0.01099529    0.00000000
     atom    3 type  1   force =    -0.01904440   -0.01099529    0.00000000
     atom    4 type  1   force =    -0.01904440    0.01099529    0.00000000
     atom    5 type  1   force =     0.00000000   -0.02199058    0.00000000
     atom    6 type  1   force =     0.00000000    0.02199058    0.00000000
     atom    7 type  2   force =     0.00000000    0.00000000    0.00000000
     atom    8 type  2   force =     0.00000000    0.00000000    0.00000000

     Total force =     0.053866     Total SCF correction =     0.000000


     entering subroutine stress ...

          total   stress  (Ry/bohr**3)                   (kbar)     P= -305.08
  -0.00208641   0.00000000   0.00000000       -306.92      0.00      0.00
   0.00000000  -0.00208641   0.00000000          0.00   -306.92      0.00
   0.00000000   0.00000000  -0.00204884          0.00      0.00   -301.39


     BFGS Geometry Optimization

     number of scf cycles    =   1
     number of bfgs steps    =   0

     enthalpy new            =   -1729.0732788202 Ry

     new trust radius        =       0.3594651354 bohr
     new conv_thr            =       0.0001000000 Ry

     new unit-cell volume =   1012.07004 a.u.^3 (   149.97331 Ang^3 )

CELL_PARAMETERS (alat= 12.01680127)
   0.947839831   0.000000000   0.000000000
  -0.473919915   0.820853372   0.000000000
   0.000000000   0.000000000   0.749623843

ATOMIC_POSITIONS (crystal)
Mg       0.665971086   0.832985543   0.250000000
Mg       0.832985543   0.167014457   0.750000000
Mg       0.334028914   0.167014457   0.750000000
Mg       0.167014457   0.832985543   0.250000000
Mg       0.167014457   0.334028914   0.250000000
Mg       0.832985543   0.665971086   0.750000000
Cd       0.666667000   0.333333000   0.250000000
Cd       0.333333000   0.666667000   0.750000000



     Writing output data file Prototype-La-hP8-Mg3Cd.save
     NEW-OLD atomic charge density approx. for the potential
     NEW k-points:
        k(    1) = (   0.0000000   0.0000000   0.0000000), wk =   0.0095238
        k(    2) = (   0.0000000   0.0000000   0.1905718), wk =   0.0190476
        k(    3) = (   0.0000000   0.0000000   0.3811435), wk =   0.0190476
        k(    4) = (   0.0000000   0.0000000   0.5717153), wk =   0.0190476
        k(    5) = (   0.0000000   0.2030407   0.0000000), wk =   0.0190476
        k(    6) = (   0.0000000   0.2030407   0.1905718), wk =   0.0380952
        k(    7) = (   0.0000000   0.2030407   0.3811435), wk =   0.0380952
        k(    8) = (   0.0000000   0.2030407   0.5717153), wk =   0.0380952
        k(    9) = (   0.0000000   0.4060815   0.0000000), wk =   0.0190476
        k(   10) = (   0.0000000   0.4060815   0.1905718), wk =   0.0380952
        k(   11) = (   0.0000000   0.4060815   0.3811435), wk =   0.0380952
        k(   12) = (   0.0000000   0.4060815   0.5717153), wk =   0.0380952
        k(   13) = (   0.0000000  -0.6091222   0.0000000), wk =   0.0095238
        k(   14) = (   0.0000000  -0.6091222   0.1905718), wk =   0.0190476
        k(   15) = (   0.0000000  -0.6091222   0.3811435), wk =   0.0190476
        k(   16) = (   0.0000000  -0.6091222   0.5717153), wk =   0.0190476
        k(   17) = (   0.2110061   0.1218244   0.0000000), wk =   0.0190476
        k(   18) = (   0.2110061   0.1218244   0.1905718), wk =   0.0380952
        k(   19) = (   0.2110061   0.1218244   0.3811435), wk =   0.0380952
        k(   20) = (   0.2110061   0.1218244   0.5717153), wk =   0.0380952
        k(   21) = (   0.2110061   0.3248652   0.0000000), wk =   0.0190476
        k(   22) = (   0.2110061   0.3248652   0.1905718), wk =   0.0380952
        k(   23) = (   0.2110061   0.3248652   0.3811435), wk =   0.0380952
        k(   24) = (   0.2110061   0.3248652   0.5717153), wk =   0.0380952
        k(   25) = (   0.2110061   0.5279059   0.0000000), wk =   0.0190476
        k(   26) = (   0.2110061   0.5279059   0.1905718), wk =   0.0380952
        k(   27) = (   0.2110061   0.5279059   0.3811435), wk =   0.0380952
        k(   28) = (   0.2110061   0.5279059   0.5717153), wk =   0.0380952
        k(   29) = (   0.2110061  -0.4872977   0.0000000), wk =   0.0190476
        k(   30) = (   0.2110061  -0.4872977   0.1905718), wk =   0.0380952
        k(   31) = (   0.2110061  -0.4872977   0.3811435), wk =   0.0380952
        k(   32) = (   0.2110061  -0.4872977   0.5717153), wk =   0.0380952
        k(   33) = (   0.2110061  -0.2842570   0.0000000), wk =   0.0190476
        k(   34) = (   0.2110061  -0.2842570   0.1905718), wk =   0.0380952
        k(   35) = (   0.2110061  -0.2842570   0.3811435), wk =   0.0380952
        k(   36) = (   0.2110061  -0.2842570   0.5717153), wk =   0.0380952
        k(   37) = (   0.2110061  -0.0812163   0.0000000), wk =   0.0190476
        k(   38) = (   0.2110061  -0.0812163   0.1905718), wk =   0.0380952
        k(   39) = (   0.2110061  -0.0812163   0.3811435), wk =   0.0380952
        k(   40) = (   0.2110061  -0.0812163   0.5717153), wk =   0.0380952
        k(   41) = (   0.4220122   0.2436489   0.0000000), wk =   0.0190476
        k(   42) = (   0.4220122   0.2436489   0.1905718), wk =   0.0380952
        k(   43) = (   0.4220122   0.2436489   0.3811435), wk =   0.0380952
        k(   44) = (   0.4220122   0.2436489   0.5717153), wk =   0.0380952
        k(   45) = (   0.4220122   0.4466896   0.0000000), wk =   0.0190476
        k(   46) = (   0.4220122   0.4466896   0.1905718), wk =   0.0380952
        k(   47) = (   0.4220122   0.4466896   0.3811435), wk =   0.0380952
        k(   48) = (   0.4220122   0.4466896   0.5717153), wk =   0.0380952
        k(   49) = (   0.4220122   0.6497303   0.0000000), wk =   0.0190476
        k(   50) = (   0.4220122   0.6497303   0.1905718), wk =   0.0380952
        k(   51) = (   0.4220122   0.6497303   0.3811435), wk =   0.0380952
        k(   52) = (   0.4220122   0.6497303   0.5717153), wk =   0.0380952
        k(   53) = (   0.4220122  -0.3654733   0.0000000), wk =   0.0190476
        k(   54) = (   0.4220122  -0.3654733   0.1905718), wk =   0.0380952
        k(   55) = (   0.4220122  -0.3654733   0.3811435), wk =   0.0380952
        k(   56) = (   0.4220122  -0.3654733   0.5717153), wk =   0.0380952
        k(   57) = (   0.4220122  -0.1624326   0.0000000), wk =   0.0190476
        k(   58) = (   0.4220122  -0.1624326   0.1905718), wk =   0.0380952
        k(   59) = (   0.4220122  -0.1624326   0.3811435), wk =   0.0380952
        k(   60) = (   0.4220122  -0.1624326   0.5717153), wk =   0.0380952
        k(   61) = (   0.4220122   0.0406081   0.0000000), wk =   0.0190476
        k(   62) = (   0.4220122   0.0406081   0.1905718), wk =   0.0380952
        k(   63) = (   0.4220122   0.0406081   0.3811435), wk =   0.0380952
        k(   64) = (   0.4220122   0.0406081   0.5717153), wk =   0.0380952

     total cpu time spent up to now is      895.7 secs

     Self-consistent Calculation

     iteration #  1     ecut=    40.00 Ry     beta=0.70
     CG style diagonalization
     c_bands:  2 eigenvalues not converged
     c_bands:  5 eigenvalues not converged
     c_bands:  1 eigenvalues not converged
     c_bands:  4 eigenvalues not converged
     c_bands:  5 eigenvalues not converged
     c_bands:  1 eigenvalues not converged
     c_bands:  2 eigenvalues not converged
     c_bands:  5 eigenvalues not converged
     c_bands:  5 eigenvalues not converged
     c_bands:  1 eigenvalues not converged
     c_bands:  1 eigenvalues not converged
     c_bands:  1 eigenvalues not converged
     c_bands:  2 eigenvalues not converged
     c_bands:  1 eigenvalues not converged
     c_bands:  1 eigenvalues not converged
     c_bands:  1 eigenvalues not converged
     c_bands:  2 eigenvalues not converged
     c_bands:  2 eigenvalues not converged
     c_bands:  1 eigenvalues not converged
     c_bands:  1 eigenvalues not converged
     c_bands:  1 eigenvalues not converged
     c_bands:  1 eigenvalues not converged
     c_bands:  1 eigenvalues not converged
     ethr =  1.00E-06,  avg # of iterations = 19.4

[...]
    -6.1267  -6.1048  -5.9157  -5.8615  -5.8298  -5.7750  -5.7234  -5.6777
     1.2842   1.2911   1.2946   1.3043   1.3065   1.3114   1.3157   1.3170
     1.3180   1.3239  14.0223  14.1860  18.6861  19.0352  19.3758  19.8817
    19.9242  20.0149  21.3173  21.3443  21.7174  21.9438  22.1539  22.2548
    22.6734  22.7976  23.0204  23.2272  23.6645  23.6790  23.8804  24.0746
    24.2512  25.0353  25.2213  25.2985  25.6887  25.9390  25.9601  26.1534
    26.1975  27.0693  27.6049  27.8822  27.9700  28.4855  29.1961  29.4617
    29.8694  30.2104  31.3835  31.8924  32.6132  32.9383

          k = 0.4187 0.4432 0.3764 (  4438 PWs)   bands (ev):

   -98.0804 -98.0727 -56.8541 -56.8523 -56.8506 -56.8496 -56.8463 -56.8445
   -31.0522 -30.9931 -30.9621 -30.9168 -30.9108 -30.8835  -6.7970  -6.7511
    -6.6814  -6.6032  -6.5661  -6.4662  -6.2818  -6.2436  -6.1633  -6.1391
    -6.1083  -6.0426  -5.9456  -5.8150  -5.8027  -5.7912  -5.7334  -5.7301
     1.2839   1.2887   1.2904   1.2970   1.3019   1.3022   1.3149   1.3156
     1.3189   1.3261  14.1192  14.2130  18.8631  18.9589  19.5518  19.7859
    20.0618  20.1736  21.2722  21.5855  21.8476  22.0393  22.1586  22.2871
    22.3474  22.5246  22.9177  22.9678  23.5061  23.6106  23.7549  24.2990
    24.3567  24.8229  25.0619  25.1269  25.5350  25.6739  26.1710  26.1783
    26.4347  26.7142  27.1133  27.5947  28.2139  28.3676  28.8160  29.0911
    29.4807  30.3570  32.0223  32.2068  32.8339  33.1658

          k = 0.4187 0.4432 0.5646 (  4445 PWs)   bands (ev):

   -98.0886 -98.0788 -56.8561 -56.8554 -56.8521 -56.8500 -56.8463 -56.8435
   -31.0118 -30.9807 -30.9559 -30.9517 -30.9170 -30.9026  -6.8056  -6.7513
    -6.6789  -6.6171  -6.6040  -6.5615  -6.2172  -6.2154  -6.1594  -6.1565
    -6.0260  -5.9860  -5.9245  -5.8881  -5.8053  -5.7729  -5.7450  -5.7399
     1.2850   1.2877   1.2892   1.2921   1.2932   1.2959   1.3135   1.3137
     1.3220   1.3252  14.2041  14.2304  18.8838  19.0153  19.7386  19.7599
    20.2663  20.3362  21.2687  21.4734  21.7849  21.9083  22.0532  22.1183
    22.2370  22.3284  22.9848  23.1722  23.3232  23.5873  23.8526  24.5508
    24.6172  24.8078  24.9676  25.0463  25.2636  25.4270  26.1505  26.1722
    26.5194  26.5531  26.8526  27.1160  27.6257  28.1238  28.9268  28.9943
    29.7087  30.5133  31.7711  31.8801  33.7541  34.0890

          k = 0.4187 0.6446 0.0000 (  4421 PWs)   bands (ev):

   -98.0669 -98.0474 -56.8554 -56.8501 -56.8484 -56.8453 -56.8427 -56.8404
   -31.0875 -31.0042 -30.9909 -30.8870 -30.8751 -30.8706  -6.8767  -6.6024
    -6.5466  -6.5292  -6.4566  -6.4358  -6.3893  -6.3725  -6.2875  -6.2216
    -6.0458  -6.0298  -5.9154  -5.9018  -5.8542  -5.8036  -5.7770  -5.6278
     1.2982   1.2993   1.3032   1.3075   1.3085   1.3100   1.3124   1.3160
     1.3167   1.3183  14.0530  14.1666  18.6465  19.1188  19.3124  19.6202
    19.8886  20.0214  20.9994  21.6629  21.7560  21.8421  22.0143  22.4750
    22.5651  22.7052  22.7204  23.2773  23.6505  23.9553  24.0100  24.3996
    24.5448  25.3826  25.4444  25.5562  25.6654  25.7466  25.7949  25.9703
    26.4153  26.7047  27.3487  27.4364  28.3270  29.1719  29.3749  29.9059
    30.3264  30.4065  30.5110  30.7894  32.4286  32.7495

          k = 0.4187 0.6446 0.1882 (  4434 PWs)   bands (ev):

   -98.0747 -98.0657 -56.8564 -56.8514 -56.8500 -56.8474 -56.8451 -56.8432
   -31.0776 -30.9996 -30.9865 -30.8922 -30.8843 -30.8767  -6.8380  -6.6720
    -6.6333  -6.5729  -6.4690  -6.4068  -6.3121  -6.2857  -6.2559  -6.2289
    -6.1094  -6.0953  -5.8748  -5.8493  -5.8206  -5.8021  -5.7797  -5.6757
     1.2936   1.2987   1.3011   1.3049   1.3073   1.3096   1.3115   1.3129
     1.3172   1.3192  14.0842  14.1813  18.8105  19.0936  19.2526  19.5687
    19.9402  20.0147  21.2607  21.6200  21.7966  21.8643  22.1536  22.2869
    22.5501  22.8559  23.0013  23.2350  23.4881  23.5967  23.6944  24.1333
    24.3650  25.2515  25.3635  25.3968  25.5619  25.9625  26.0188  26.1727
    26.4579  26.8325  27.5464  27.6033  27.6840  28.6491  29.4963  29.6837
    29.9799  30.2537  30.9196  31.3351  32.5442  32.8523

          k = 0.4187 0.6446 0.3764 (  4449 PWs)   bands (ev):

   -98.0901 -98.0823 -56.8558 -56.8535 -56.8532 -56.8508 -56.8476 -56.8456
   -31.0491 -30.9870 -30.9754 -30.9158 -30.9016 -30.8903  -6.7571  -6.7374
    -6.7122  -6.5841  -6.5542  -6.5092  -6.2560  -6.2366  -6.1800  -6.1594
    -6.0982  -6.0551  -5.9218  -5.8221  -5.8017  -5.7965  -5.7506  -5.7487
     1.2895   1.2943   1.2966   1.3001   1.3023   1.3040   1.3110   1.3116
     1.3173   1.3213  14.1636  14.2187  19.0205  19.0697  19.3268  19.5235
    20.0743  20.1108  21.5231  21.7275  21.7884  22.0857  22.1198  22.2940
    22.3032  22.6248  22.7203  22.7648  23.4476  23.5417  23.6478  24.3561
    24.4582  25.0394  25.1256  25.3140  25.4819  25.6756  26.1383  26.1660
    26.6428  26.7452  26.9794  27.5207  28.0269  28.0767  28.7882  28.9260
    30.3160  30.5944  31.2949  31.6391  32.8836  33.1050

          k = 0.4187 0.6446 0.5646 (  4437 PWs)   bands (ev):

   -98.0782 -98.0758 -56.8534 -56.8529 -56.8509 -56.8497 -56.8454 -56.8443
   -31.0075 -30.9730 -30.9660 -30.9546 -30.9122 -30.9061  -6.7660  -6.7326
    -6.6763  -6.6447  -6.6075  -6.5712  -6.2079  -6.2001  -6.1766  -6.1600
    -5.9963  -5.9677  -5.9386  -5.9311  -5.8004  -5.7825  -5.7490  -5.7464
     1.2887   1.2921   1.2930   1.2936   1.2991   1.3000   1.3106   1.3107
     1.3187   1.3210  14.2379  14.2538  19.0120  19.0588  19.5653  19.5954
    20.2622  20.2781  21.5151  21.6589  21.7999  21.8939  21.9365  21.9920
    22.1500  22.2367  22.8915  23.1177  23.2936  23.7404  23.8277  24.3617
    24.7307  24.9185  25.1195  25.1543  25.3691  25.4425  26.1379  26.1803
    26.4913  26.6665  26.7754  26.8719  27.7655  27.9249  28.9157  29.1228
    29.9050  30.2927  31.4559  31.5149  33.9275  34.1603

          k = 0.4187-0.3626 0.0000 (  4447 PWs)   bands (ev):

   -98.0920 -98.0706 -56.8576 -56.8543 -56.8529 -56.8488 -56.8455 -56.8450
   -31.0946 -31.0126 -30.9701 -30.9028 -30.8767 -30.8602  -6.8845  -6.6804
    -6.5564  -6.5374  -6.5114  -6.4303  -6.3768  -6.3142  -6.2463  -6.1578
    -6.1093  -6.0561  -5.9325  -5.9124  -5.8877  -5.7696  -5.6865  -5.6353
     1.2773   1.2866   1.2964   1.3057   1.3104   1.3131   1.3172   1.3179
     1.3195   1.3241  13.9134  14.1746  18.5198  19.1752  19.4749  19.7221
    19.9984  20.1017  21.2031  21.2708  21.7118  21.8523  22.0760  22.4097
    22.4486  22.7117  22.8809  23.6229  23.6898  23.8733  24.1577  24.2610
    24.4858  25.1069  25.2973  25.4346  25.5025  25.5773  26.0047  26.1051
    26.2192  26.9797  27.5398  28.0237  28.3978  28.6389  29.0072  29.2990
    30.0607  31.0971  31.3832  31.5011  32.3565  32.8486

          k = 0.4187-0.3626 0.1882 (  4436 PWs)   bands (ev):

   -98.0800 -98.0661 -56.8564 -56.8527 -56.8522 -56.8472 -56.8437 -56.8431
   -31.0844 -31.0073 -30.9652 -30.9081 -30.8865 -30.8655  -6.8467  -6.7439
    -6.5979  -6.5800  -6.5400  -6.3547  -6.3243  -6.2880  -6.2251  -6.1964
    -6.1182  -6.0898  -5.9343  -5.8671  -5.8296  -5.7559  -5.6945  -5.6806
     1.2773   1.2851   1.2936   1.3028   1.3077   1.3121   1.3151   1.3177
     1.3191   1.3259  13.9613  14.1817  18.6470  19.0074  19.5354  19.8703
    19.9892  20.1323  21.2014  21.3818  21.6193  21.8598  22.1306  22.3616
    22.6289  22.8460  23.0202  23.2003  23.6858  23.8241  23.9146  24.0148
    24.3959  24.9302  25.0814  25.2253  25.7473  25.8978  25.9596  26.1159
    26.1850  27.2033  27.6429  27.8747  28.2286  28.4804  28.9852  29.1253
    29.8869  30.4199  31.5920  32.1927  32.6658  33.0545

          k = 0.4187-0.3626 0.3764 (  4441 PWs)   bands (ev):

   -98.0821 -98.0756 -56.8552 -56.8532 -56.8519 -56.8496 -56.8464 -56.8436
   -31.0562 -30.9940 -30.9532 -30.9235 -30.9115 -30.8802  -6.8191  -6.7628
    -6.6686  -6.6253  -6.5675  -6.4529  -6.2911  -6.2659  -6.1621  -6.1110
    -6.0912  -6.0362  -5.9606  -5.8152  -5.8040  -5.7861  -5.7251  -5.7105
     1.2777   1.2826   1.2889   1.2959   1.3026   1.3029   1.3143   1.3162
     1.3198   1.3279  14.0706  14.1954  18.8015  18.9463  19.7047  19.9297
    20.0344  20.2656  21.1601  21.4708  21.8225  21.9181  22.1455  22.2413
    22.4104  22.6075  23.0193  23.1402  23.5145  23.5934  23.7542  24.2924
    24.4136  24.7373  24.9498  25.0529  25.5412  25.6850  26.1816  26.2125
    26.3714  26.6587  27.1192  27.7378  28.2489  28.5613  28.8831  29.0373
    29.2086  30.2870  32.1646  32.6830  32.9749  33.2170

          k = 0.4187-0.3626 0.5646 (  4446 PWs)   bands (ev):

   -98.0928 -98.0754 -56.8558 -56.8534 -56.8525 -56.8517 -56.8469 -56.8437
   -31.0161 -30.9836 -30.9546 -30.9443 -30.9203 -30.9007  -6.8267  -6.7717
    -6.6685  -6.6247  -6.5939  -6.5681  -6.2290  -6.2141  -6.1608  -6.1304
    -6.0426  -5.9881  -5.9150  -5.8610  -5.8142  -5.7633  -5.7440  -5.7297
     1.2794   1.2814   1.2879   1.2920   1.2930   1.2959   1.3133   1.3140
     1.3232   1.3268  14.1678  14.2026  18.8434  19.0041  19.8297  19.8927
    20.2683  20.4065  21.1544  21.3575  21.7566  21.9224  22.0646  22.1627
    22.3303  22.3764  23.0586  23.1769  23.3656  23.4388  23.8856  24.5284
    24.6724  24.7998  24.9009  24.9820  25.2396  25.3923  26.1241  26.1728
    26.5031  26.5615  26.9030  27.3051  27.4979  28.1025  28.8488  29.0213
    29.7557  30.6212  31.8836  32.3024  33.6756  33.9260

          k = 0.4187-0.1612 0.0000 (  4453 PWs)   bands (ev):

   -98.0951 -98.0785 -56.8591 -56.8553 -56.8511 -56.8501 -56.8485 -56.8449
   -31.1046 -31.0033 -30.9669 -30.9105 -30.8728 -30.8592  -6.8928  -6.7293
    -6.5492  -6.5483  -6.5073  -6.4670  -6.4317  -6.3156  -6.2604  -6.2282
    -6.0213  -5.9589  -5.9296  -5.8881  -5.8651  -5.7545  -5.6772  -5.6415
     1.2733   1.2848   1.2952   1.3014   1.3044   1.3118   1.3141   1.3146
     1.3189   1.3201  13.7433  14.1559  18.7123  19.3639  19.4517  19.6327
    20.1868  20.2400  21.0156  21.3507  21.6299  21.7703  22.0835  22.2397
    22.3461  22.6862  22.8878  23.6335  23.6616  23.7917  23.8941  24.2630
    24.7600  25.3337  25.3884  25.5273  25.6040  25.6722  26.0569  26.2118
    26.5949  27.1163  27.4587  28.1115  28.4252  28.4627  28.5809  28.9816
    30.3326  30.6694  31.4398  31.7034  32.3727  32.8446

          k = 0.4187-0.1612 0.1882 (  4445 PWs)   bands (ev):

   -98.0876 -98.0745 -56.8579 -56.8534 -56.8527 -56.8500 -56.8461 -56.8426
   -31.0946 -30.9982 -30.9618 -30.9175 -30.8809 -30.8644  -6.8615  -6.7592
    -6.6423  -6.6024  -6.5352  -6.3722  -6.3449  -6.3222  -6.3009  -6.1776
    -6.0341  -5.9981  -5.9116  -5.8545  -5.8187  -5.7438  -5.6878  -5.6842
     1.2738   1.2822   1.2913   1.2994   1.3053   1.3103   1.3128   1.3144
     1.3148   1.3223  13.8056  14.1485  18.8127  19.2019  19.6707  19.7406
    20.0442  20.2676  21.0547  21.4411  21.5674  21.6270  22.1103  22.2359
    22.6090  22.9256  22.9917  23.2443  23.4844  23.6681  23.7234  24.2348
    24.7082  25.0666  25.2309  25.4085  25.7650  25.9211  26.0430  26.1300
    26.5725  27.2884  27.5739  27.8791  28.0965  28.2969  28.6861  29.0252
    30.0851  30.5226  31.0586  32.3081  32.7041  32.9988

          k = 0.4187-0.1612 0.3764 (  4451 PWs)   bands (ev):

   -98.0890 -98.0854 -56.8568 -56.8552 -56.8544 -56.8518 -56.8455 -56.8445
   -31.0665 -30.9849 -30.9503 -30.9351 -30.9027 -30.8794  -6.8288  -6.7808
    -6.6864  -6.6602  -6.5970  -6.4810  -6.3402  -6.2693  -6.1554  -6.0421
    -6.0284  -6.0093  -5.9470  -5.8080  -5.8051  -5.7786  -5.7278  -5.6946
     1.2745   1.2792   1.2857   1.2940   1.3041   1.3043   1.3069   1.3120
     1.3140   1.3241  13.9444  14.1350  18.9183  19.1676  19.7557  19.9910
    20.0843  20.3783  21.0363  21.3604  21.6715  21.7322  22.0461  22.2327
    22.3822  22.7878  22.9901  23.1743  23.3721  23.5248  23.5900  24.5290
    24.6095  25.0107  25.0789  25.1870  25.5768  25.7513  26.1375  26.2592
    26.5483  26.6470  27.1100  27.7073  28.0935  28.4823  28.7388  28.9583
    29.2379  30.4799  31.4564  32.8081  33.1864  33.3605

          k = 0.4187-0.1612 0.5646 (  4453 PWs)   bands (ev):

   -98.0963 -98.0836 -56.8560 -56.8552 -56.8539 -56.8525 -56.8484 -56.8441
   -31.0264 -30.9870 -30.9526 -30.9322 -30.9213 -30.9004  -6.8327  -6.7826
    -6.6909  -6.6694  -6.6316  -6.6020  -6.2596  -6.1824  -6.1356  -6.0840
    -6.0075  -5.9723  -5.8897  -5.8465  -5.8200  -5.7626  -5.7446  -5.7140
     1.2760   1.2783   1.2857   1.2914   1.2926   1.2959   1.3073   1.3094
     1.3179   1.3224  14.0693  14.1203  18.9783  19.1544  19.8781  19.9946
    20.2737  20.4919  21.0698  21.2938  21.6539  21.9553  22.0677  22.1531
    22.2891  22.3667  22.8685  23.0579  23.2479  23.4260  23.8838  24.6039
    24.7030  24.9251  25.1577  25.2014  25.3903  25.5429  25.9959  26.1449
    26.5665  26.6409  26.9703  27.2891  27.5634  27.9651  28.7567  28.9586
    29.6165  30.5185  31.7124  32.6260  33.5220  33.6536

          k = 0.4187 0.0403 0.0000 (  4448 PWs)   bands (ev):

   -98.0942 -98.0715 -56.8577 -56.8552 -56.8526 -56.8488 -56.8477 -56.8432
   -31.1075 -30.9950 -30.9741 -30.9094 -30.8686 -30.8624  -6.8956  -6.7364
    -6.5389  -6.5257  -6.5126  -6.4883  -6.4661  -6.3598  -6.2497  -6.2340
    -5.9875  -5.9389  -5.9235  -5.8923  -5.7976  -5.7508  -5.7144  -5.6420
     1.2806   1.2921   1.2926   1.2953   1.3000   1.3018   1.3131   1.3154
     1.3190   1.3197  13.6944  14.1472  18.9788  19.2060  19.3828  19.8549
    20.0427  20.2646  21.0594  21.3192  21.5469  21.8354  22.0109  22.1698
    22.3193  22.6774  22.8273  23.5829  23.7562  23.7874  23.7971  24.2138
    24.7852  25.4604  25.4674  25.4955  25.7691  25.8305  26.0927  26.1580
    27.0472  27.2574  27.3523  27.9999  28.3613  28.4224  28.4718  28.7710
    30.4326  30.4564  31.0483  31.8234  32.0940  32.9374

          k = 0.4187 0.0403 0.1882 (  4449 PWs)   bands (ev):

   -98.0925 -98.0766 -56.8585 -56.8545 -56.8524 -56.8505 -56.8460 -56.8443
   -31.0976 -30.9896 -30.9700 -30.9165 -30.8764 -30.8675  -6.8652  -6.7441
    -6.6805  -6.6087  -6.4967  -6.4502  -6.3383  -6.3309  -6.3012  -6.1777
    -5.9983  -5.9904  -5.8747  -5.8547  -5.7840  -5.7444  -5.7181  -5.6897
     1.2812   1.2875   1.2900   1.2934   1.2993   1.3048   1.3123   1.3128
     1.3149   1.3214  13.7591  14.1350  19.0444  19.2267  19.6405  19.7130
    20.0244  20.1911  21.0818  21.4124  21.5371  21.6570  21.9658  22.3269
    22.4711  22.9318  22.9978  23.3469  23.3906  23.5953  23.7120  24.1627
    24.7473  25.2546  25.3559  25.5592  25.5881  25.9722  26.0443  26.3630
    27.0225  27.2434  27.4683  27.7965  28.0718  28.1395  28.6515  28.8702
    30.2181  30.4936  30.6324  32.2298  32.4112  32.9874

          k = 0.4187 0.0403 0.3764 (  4455 PWs)   bands (ev):

   -98.0961 -98.0854 -56.8583 -56.8555 -56.8530 -56.8521 -56.8471 -56.8454
   -31.0695 -30.9753 -30.9627 -30.9330 -30.8965 -30.8820  -6.8127  -6.7689
    -6.7411  -6.6714  -6.5749  -6.5208  -6.3541  -6.2630  -6.1390  -6.0344
    -6.0243  -6.0108  -5.8809  -5.8265  -5.8054  -5.7694  -5.7273  -5.7116
     1.2804   1.2831   1.2864   1.2941   1.2947   1.3037   1.3049   1.3059
     1.3134   1.3227  13.9071  14.1119  19.0935  19.2837  19.6261  20.0738
    20.1156  20.2052  21.0801  21.3611  21.5597  21.7033  22.0541  22.2806
    22.3143  22.7272  22.9866  23.0305  23.4058  23.5092  23.5736  24.5701
    24.6946  25.0547  25.2401  25.3093  25.6881  25.8240  25.9585  26.4111
    26.6279  26.7624  27.2271  27.5322  28.2109  28.2986  28.4751  28.6524
    29.8456  30.2512  30.9678  32.8700  33.0376  33.1793

          k = 0.4187 0.0403 0.5646 (  4451 PWs)   bands (ev):

   -98.0970 -98.0800 -56.8565 -56.8558 -56.8534 -56.8515 -56.8464 -56.8447
   -31.0294 -30.9874 -30.9516 -30.9331 -30.9161 -30.9021  -6.8042  -6.7567
    -6.7408  -6.7211  -6.6284  -6.6099  -6.2658  -6.1831  -6.1090  -6.0831
    -5.9921  -5.9285  -5.8813  -5.8568  -5.8324  -5.7697  -5.7327  -5.7232
     1.2813   1.2840   1.2857   1.2908   1.2928   1.2954   1.2980   1.3024
     1.3165   1.3207  14.0367  14.0956  19.1384  19.2112  19.8777  19.9656
    20.2693  20.3912  21.1889  21.3174  21.5964  21.8939  21.9917  22.1533
    22.2455  22.3180  22.8312  23.0047  23.2860  23.4176  23.7578  24.6501
    24.7434  24.9773  25.3475  25.3905  25.5045  25.6505  25.8274  26.0946
    26.6944  26.7854  26.8661  27.2980  27.7038  28.1371  28.5732  28.6381
    29.7710  30.0513  31.5599  32.4000  33.8522  33.9129

     the Fermi energy is    26.5573 ev

!    total energy              =   -1728.88395951 Ry
     Harris-Foulkes estimate   =   -1728.88395941 Ry
     estimated scf accuracy    <       0.00000443 Ry

     The total energy is the sum of the following terms:

     one-electron contribution =    -313.46950696 Ry
     hartree contribution      =     252.10283083 Ry
     xc contribution           =    -162.66429520 Ry
     ewald contribution        =   -1504.37715278 Ry
     smearing contrib. (-TS)   =      -0.47583540 Ry

     convergence has been achieved in  11 iterations

     Forces acting on atoms (Ry/au):

     atom    1 type  1   force =    -0.00017048   -0.00009843    0.00000000
     atom    2 type  1   force =    -0.00017048    0.00009843    0.00000000
     atom    3 type  1   force =     0.00017048    0.00009843    0.00000000
     atom    4 type  1   force =     0.00017048   -0.00009843    0.00000000
     atom    5 type  1   force =     0.00000000    0.00019685    0.00000000
     atom    6 type  1   force =     0.00000000   -0.00019685    0.00000000
     atom    7 type  2   force =     0.00000000    0.00000000    0.00000000
     atom    8 type  2   force =     0.00000000    0.00000000    0.00000000

     Total force =     0.000482     Total SCF correction =     0.000000


     entering subroutine stress ...

          total   stress  (Ry/bohr**3)                   (kbar)     P=  -16.53
  -0.00014973   0.00000000   0.00000000        -22.03      0.00      0.00
   0.00000000  -0.00014973   0.00000000          0.00    -22.03      0.00
   0.00000000   0.00000000  -0.00003756          0.00      0.00     -5.53


     Writing output data file Prototype-La-hP8-Mg3Cd.save
 
     init_run     :     12.14s CPU     15.92s WALL (       2 calls)
     electrons    :   3628.10s CPU   4794.16s WALL (       5 calls)
     update_pot   :      2.60s CPU      2.63s WALL (       3 calls)
     forces       :     11.42s CPU     12.11s WALL (       5 calls)
     stress       :     33.75s CPU     34.73s WALL (       5 calls)

     Called by init_run:
     wfcinit      :     11.19s CPU     14.21s WALL (       2 calls)
     potinit      :      0.43s CPU      0.44s WALL (       2 calls)

     Called by electrons:
     c_bands      :   3495.68s CPU   4583.21s WALL (      44 calls)
     sum_band     :    131.42s CPU    192.22s WALL (      44 calls)
     v_of_rho     :      0.13s CPU      0.17s WALL (      49 calls)
     mix_rho      :      0.11s CPU      0.19s WALL (      44 calls)

     Called by c_bands:
     init_us_2    :      5.99s CPU      7.18s WALL (    6400 calls)
     ccgdiagg     :   3114.08s CPU   4049.25s WALL (    3323 calls)
     wfcrot       :    387.05s CPU    536.98s WALL (    3387 calls)

     Called by *cgdiagg:
     h_psi        :   2361.77s CPU   3162.42s WALL ( 1468261 calls)
     cdiaghg      :     13.07s CPU     15.43s WALL (    3387 calls)

     Called by h_psi:
     add_vuspsi   :    224.19s CPU    272.89s WALL ( 1468261 calls)

     General routines
     calbec       :    754.06s CPU    896.27s WALL ( 2933775 calls)
     fft          :      0.14s CPU      0.20s WALL (     219 calls)
     fftw         :   1726.94s CPU   2333.74s WALL ( 3754488 calls)
     davcio       :      3.39s CPU      9.73s WALL (    9216 calls)
 
     Parallel routines
     fft_scatter  :    973.94s CPU   1351.77s WALL ( 3754707 calls)
 
     PWSCF        :     1h 1m CPU        1h21m WALL

 
   This run was terminated on:  20: 9:45  22Mar2018            

=------------------------------------------------------------------------------=
   JOB DONE.
=------------------------------------------------------------------------------=
