
     Program PWSCF v.5.0.2 starts on 22Mar2018 at 12: 4:24 

     This program is part of the open-source Quantum ESPRESSO suite
     for quantum simulation of materials; please cite
         "P. Giannozzi et al., J. Phys.:Condens. Matter 21 395502 (2009);
          URL http://www.quantum-espresso.org", 
     in publications or presentations arising from this work. More details at
     http://www.quantum-espresso.org/quote.php

     Parallel version (MPI), running on     4 processors
     R & G space division:  proc/nbgrp/npool/nimage =       4

     Current dimensions of program PWSCF are:
     Max number of different atomic species (ntypx) = 10
     Max number of k-points (npk) =  40000
     Max angular momentum in pseudopotentials (lmaxx) =  3
     Waiting for input...
     Reading input from standard input

     Subspace diagonalization in iterative solution of the eigenvalue problem:
     a serial algorithm will be used

 
     Parallelization info
     --------------------
     sticks:   dense  smooth     PW     G-vecs:    dense   smooth      PW
     Min         256     256     78                 5240     5240     876
     Max         257     257     79                 5243     5243     879
     Sum        1027    1027    313                20965    20965    3509
 


     bravais-lattice index     =            0
     lattice parameter (alat)  =       9.6483  a.u.
     unit-cell volume          =     613.3683 (a.u.)^3
     number of atoms/cell      =            6
     number of atomic types    =            2
     number of electrons       =       134.00
     number of Kohn-Sham states=           80
     kinetic-energy cutoff     =      40.0000  Ry
     charge density cutoff     =     160.0000  Ry
     convergence threshold     =      1.0E-04
     mixing beta               =       0.7000
     number of iterations used =            8  plain     mixing
     Exchange-correlation      = SLA-PZ-NOGX-NOGC ( 1 1 0 0 0)
     EXX-fraction              =        0.00
     nstep                     =           50


     celldm(1)=   9.648295  celldm(2)=   0.000000  celldm(3)=   0.000000
     celldm(4)=   0.000000  celldm(5)=   0.000000  celldm(6)=   0.000000

     crystal axes: (cart. coord. in units of alat)
               a(1) = (   1.000000   0.000000   0.000000 )  
               a(2) = (  -0.500000   0.866025   0.000000 )  
               a(3) = (   0.000000   0.000000   0.788568 )  

     reciprocal axes: (cart. coord. in units 2 pi/alat)
               b(1) = (  1.000000  0.577350  0.000000 )  
               b(2) = (  0.000000  1.154701  0.000000 )  
               b(3) = (  0.000000  0.000000  1.268122 )  


     PseudoPot. # 1 for Yb read from file:
     /home/jld5415/pp.La/Yb.UPF
     MD5 check sum: 3e859b81cc28c53ec6aa3a2e888efcdf
     Pseudo is Norm-conserving, Zval = 24.0
     Generated in analytical, separable form
     Using radial grid of 1269 points,  6 beta functions with: 
                l(1) =   0
                l(2) =   0
                l(3) =   1
                l(4) =   1
                l(5) =   2
                l(6) =   3

     PseudoPot. # 2 for Er read from file:
     /home/jld5415/pp.La/Er.UPF
     MD5 check sum: e152ae21b84514339d8526f066caf99b
     Pseudo is Norm-conserving, Zval = 22.0
     Generated in analytical, separable form
     Using radial grid of 1267 points,  6 beta functions with: 
                l(1) =   0
                l(2) =   0
                l(3) =   1
                l(4) =   1
                l(5) =   2
                l(6) =   3

     atomic species   valence    mass     pseudopotential
        Ca            24.00    40.07800     Yb( 1.00)
        Cu            22.00    63.54600     Er( 1.00)

     24 Sym. Ops., with inversion, found



   Cartesian axes

     site n.     atom                  positions (alat units)
         1           Ca  tau(   1) = (   0.0000000   0.0000000   0.0000000  )
         2           Cu  tau(   2) = (  -0.0000005   0.5773506   0.0000000  )
         3           Cu  tau(   3) = (   0.5000005   0.2886748   0.0000000  )
         4           Cu  tau(   4) = (   0.5000000   0.0000000   0.3942838  )
         5           Cu  tau(   5) = (   0.2500000   0.4330127   0.3942838  )
         6           Cu  tau(   6) = (  -0.2500000   0.4330127   0.3942838  )

     number of k points=   110  gaussian smearing, width (Ry)=  0.1000

     Number of k-points >= 100: set verbosity='high' to print them.

     Dense  grid:    20965 G-vectors     FFT dimensions: (  40,  40,  32)

     Largest allocated arrays     est. size (Mb)     dimensions
        Kohn-Sham Wavefunctions         0.82 Mb     (    670,   80)
        NL pseudopotentials             1.23 Mb     (    670,  120)
        Each V/rho on FFT grid          0.20 Mb     (  12800)
        Each G-vector array             0.04 Mb     (   5243)
        G-vector shells                 0.04 Mb     (   5243)
     Largest temporary arrays     est. size (Mb)     dimensions
        Each subspace H/S matrix        0.10 Mb     (  80,  80)
        Each <psi_i|beta_j> matrix      0.15 Mb     (    120,   80)
        Arrays for rho mixing           1.56 Mb     (  12800,   8)

     Initial potential from superposition of free atoms

     Starting from uniform charge
     Starting wfc are    0 randomized atomic wfcs

     total cpu time spent up to now is        6.8 secs

     Self-consistent Calculation

     iteration #  1     ecut=    40.00 Ry     beta=0.70
     CG style diagonalization
     c_bands:  2 eigenvalues not converged
     c_bands:  2 eigenvalues not converged
     c_bands:  2 eigenvalues not converged
     c_bands:  2 eigenvalues not converged
     c_bands:  1 eigenvalues not converged
     c_bands:  1 eigenvalues not converged
     c_bands:  1 eigenvalues not converged
     c_bands:  2 eigenvalues not converged
     c_bands:  1 eigenvalues not converged
     c_bands:  1 eigenvalues not converged
     c_bands:  1 eigenvalues not converged
     c_bands:  1 eigenvalues not converged
     c_bands:  2 eigenvalues not converged
     c_bands:  1 eigenvalues not converged
     c_bands:  2 eigenvalues not converged
     c_bands:  1 eigenvalues not converged
     c_bands:  1 eigenvalues not converged
     c_bands:  2 eigenvalues not converged
     c_bands:  2 eigenvalues not converged
     c_bands:  1 eigenvalues not converged
     c_bands:  1 eigenvalues not converged
     c_bands:  1 eigenvalues not converged
     c_bands:  1 eigenvalues not converged
     c_bands:  1 eigenvalues not converged
     c_bands:  1 eigenvalues not converged
     c_bands:  1 eigenvalues not converged
     c_bands:  1 eigenvalues not converged
     c_bands:  2 eigenvalues not converged
     c_bands:  2 eigenvalues not converged
     c_bands:  1 eigenvalues not converged
     c_bands:  1 eigenvalues not converged
     c_bands:  2 eigenvalues not converged
     c_bands:  2 eigenvalues not converged
     c_bands:  1 eigenvalues not converged
     c_bands:  1 eigenvalues not converged
     c_bands:  2 eigenvalues not converged
     c_bands:  2 eigenvalues not converged
     c_bands:  1 eigenvalues not converged
     c_bands:  1 eigenvalues not converged
     c_bands:  1 eigenvalues not converged
     c_bands:  1 eigenvalues not converged
     c_bands:  1 eigenvalues not converged
     c_bands:  1 eigenvalues not converged
     c_bands:  1 eigenvalues not converged
     c_bands:  1 eigenvalues not converged
     c_bands:  1 eigenvalues not converged
     c_bands:  2 eigenvalues not converged
     c_bands:  1 eigenvalues not converged
     c_bands:  1 eigenvalues not converged
     c_bands:  1 eigenvalues not converged
     c_bands:  1 eigenvalues not converged
     c_bands:  1 eigenvalues not converged
     c_bands:  1 eigenvalues not converged
     c_bands:  1 eigenvalues not converged
     c_bands:  1 eigenvalues not converged
     c_bands:  1 eigenvalues not converged
     c_bands:  1 eigenvalues not converged
     c_bands:  1 eigenvalues not converged
     c_bands:  1 eigenvalues not converged
     c_bands:  1 eigenvalues not converged
     c_bands:  1 eigenvalues not converged
     c_bands:  1 eigenvalues not converged
     c_bands:  1 eigenvalues not converged
     c_bands:  1 eigenvalues not converged
     c_bands:  1 eigenvalues not converged
     c_bands:  1 eigenvalues not converged
     c_bands:  1 eigenvalues not converged
     c_bands:  1 eigenvalues not converged
     c_bands:  1 eigenvalues not converged
     c_bands:  1 eigenvalues not converged
     c_bands:  1 eigenvalues not converged
     c_bands:  2 eigenvalues not converged
     c_bands:  1 eigenvalues not converged
     ethr =  1.00E-02,  avg # of iterations = 22.0

     total cpu time spent up to now is      194.7 secs

     total energy              =   -1843.33969975 Ry
     Harris-Foulkes estimate   =   -2540.14051700 Ry
     estimated scf accuracy    <     869.11351634 Ry

     iteration #  2     ecut=    40.00 Ry     beta=0.70
     CG style diagonalization
     c_bands:  1 eigenvalues not converged
     c_bands:  2 eigenvalues not converged
     c_bands:  1 eigenvalues not converged
     c_bands:  1 eigenvalues not converged
     c_bands:  1 eigenvalues not converged
     c_bands:  1 eigenvalues not converged
     c_bands:  1 eigenvalues not converged
     c_bands:  1 eigenvalues not converged
     c_bands:  1 eigenvalues not converged
     c_bands:  1 eigenvalues not converged
     c_bands:  1 eigenvalues not converged
     c_bands:  1 eigenvalues not converged
     c_bands:  1 eigenvalues not converged
     c_bands:  1 eigenvalues not converged
     c_bands:  1 eigenvalues not converged
     c_bands:  1 eigenvalues not converged
     c_bands:  1 eigenvalues not converged
     c_bands:  2 eigenvalues not converged
     c_bands:  1 eigenvalues not converged
     c_bands:  1 eigenvalues not converged
     c_bands:  1 eigenvalues not converged
     ethr =  1.00E-02,  avg # of iterations = 10.1

     total cpu time spent up to now is      291.7 secs

     total energy              =   -1931.16457150 Ry
     Harris-Foulkes estimate   =   -2103.54186463 Ry
     estimated scf accuracy    <     248.93345409 Ry

     iteration #  3     ecut=    40.00 Ry     beta=0.70
     CG style diagonalization
     c_bands:  1 eigenvalues not converged
     c_bands:  1 eigenvalues not converged
     c_bands:  1 eigenvalues not converged
     c_bands:  1 eigenvalues not converged
     c_bands:  1 eigenvalues not converged
     c_bands:  1 eigenvalues not converged
     c_bands:  1 eigenvalues not converged
     c_bands:  1 eigenvalues not converged
     c_bands:  2 eigenvalues not converged
     c_bands:  1 eigenvalues not converged
     c_bands:  1 eigenvalues not converged
     c_bands:  1 eigenvalues not converged
     c_bands:  1 eigenvalues not converged
     c_bands:  1 eigenvalues not converged
     c_bands:  1 eigenvalues not converged
     c_bands:  1 eigenvalues not converged
     ethr =  1.00E-02,  avg # of iterations =  8.9

     total cpu time spent up to now is      383.5 secs

     total energy              =   -2030.74759712 Ry
     Harris-Foulkes estimate   =   -2124.54196390 Ry
     estimated scf accuracy    <     226.77372219 Ry

     iteration #  4     ecut=    40.00 Ry     beta=0.70
     CG style diagonalization
     ethr =  1.00E-02,  avg # of iterations =  5.7

     total cpu time spent up to now is      443.0 secs

     total energy              =   -2049.93466650 Ry
     Harris-Foulkes estimate   =   -2052.70525287 Ry
     estimated scf accuracy    <       5.98568129 Ry

     iteration #  5     ecut=    40.00 Ry     beta=0.70
     CG style diagonalization
     ethr =  4.47E-03,  avg # of iterations =  3.7

     total cpu time spent up to now is      479.2 secs

     total energy              =   -2050.65227405 Ry
     Harris-Foulkes estimate   =   -2051.02547222 Ry
     estimated scf accuracy    <       0.73962850 Ry

     iteration #  6     ecut=    40.00 Ry     beta=0.70
     CG style diagonalization
     c_bands:  1 eigenvalues not converged
     ethr =  5.52E-04,  avg # of iterations =  3.9

     total cpu time spent up to now is      518.8 secs

     total energy              =   -2050.83502821 Ry
     Harris-Foulkes estimate   =   -2050.88869063 Ry
     estimated scf accuracy    <       0.10309257 Ry

     iteration #  7     ecut=    40.00 Ry     beta=0.70
     CG style diagonalization
     c_bands:  1 eigenvalues not converged
     c_bands:  2 eigenvalues not converged
     c_bands:  1 eigenvalues not converged
     c_bands:  1 eigenvalues not converged
     c_bands:  2 eigenvalues not converged
     c_bands:  1 eigenvalues not converged
     c_bands:  1 eigenvalues not converged
     c_bands:  2 eigenvalues not converged
     c_bands:  1 eigenvalues not converged
     c_bands:  1 eigenvalues not converged
     ethr =  7.69E-05,  avg # of iterations =  3.8

     total cpu time spent up to now is      558.0 secs

     total energy              =   -2050.86055302 Ry
     Harris-Foulkes estimate   =   -2050.86253035 Ry
     estimated scf accuracy    <       0.00400071 Ry

     iteration #  8     ecut=    40.00 Ry     beta=0.70
     CG style diagonalization
     c_bands:  1 eigenvalues not converged
     c_bands:  1 eigenvalues not converged
     c_bands:  1 eigenvalues not converged
     c_bands:  1 eigenvalues not converged
     c_bands:  1 eigenvalues not converged
     c_bands:  1 eigenvalues not converged
     c_bands:  1 eigenvalues not converged
     c_bands:  1 eigenvalues not converged
     c_bands:  1 eigenvalues not converged
     c_bands:  1 eigenvalues not converged
     c_bands:  1 eigenvalues not converged
     c_bands:  1 eigenvalues not converged
     c_bands:  1 eigenvalues not converged
     c_bands:  1 eigenvalues not converged
     c_bands:  1 eigenvalues not converged
     c_bands:  1 eigenvalues not converged
     c_bands:  1 eigenvalues not converged
     c_bands:  1 eigenvalues not converged
     ethr =  2.99E-06,  avg # of iterations =  4.9

     total cpu time spent up to now is      606.6 secs

     total energy              =   -2050.86259730 Ry
     Harris-Foulkes estimate   =   -2050.86274554 Ry
     estimated scf accuracy    <       0.00026916 Ry

     iteration #  9     ecut=    40.00 Ry     beta=0.70
     CG style diagonalization
     c_bands:  1 eigenvalues not converged
     c_bands:  1 eigenvalues not converged
     ethr =  2.01E-07,  avg # of iterations =  3.9

     total cpu time spent up to now is      644.1 secs

     End of self-consistent calculation

     Number of k-points >= 100: set verbosity='high' to print the bands.

     the Fermi energy is    40.6479 ev

!    total energy              =   -2050.86268319 Ry
     Harris-Foulkes estimate   =   -2050.86269999 Ry
     estimated scf accuracy    <       0.00001858 Ry

     The total energy is the sum of the following terms:

     one-electron contribution =    -399.25878134 Ry
     hartree contribution      =     322.48759196 Ry
     xc contribution           =    -175.64255136 Ry
     ewald contribution        =   -1798.26901561 Ry
     smearing contrib. (-TS)   =      -0.17992683 Ry

     convergence has been achieved in   9 iterations

     Forces acting on atoms (Ry/au):

     atom    1 type  1   force =     0.00000000    0.00000000    0.00000000
     atom    2 type  2   force =     0.00000000    0.00000000    0.00000000
     atom    3 type  2   force =     0.00000000    0.00000000    0.00000000
     atom    4 type  2   force =     0.00000000    0.00000000    0.00000000
     atom    5 type  2   force =     0.00000000    0.00000000    0.00000000
     atom    6 type  2   force =     0.00000000    0.00000000    0.00000000

     Total force =     0.000000     Total SCF correction =     0.000000


     entering subroutine stress ...

          total   stress  (Ry/bohr**3)                   (kbar)     P= 2664.37
   0.01586713   0.00000000   0.00000000       2334.14      0.00      0.00
   0.00000000   0.01586713   0.00000000          0.00   2334.14      0.00
   0.00000000   0.00000000   0.02260181          0.00      0.00   3324.84


     BFGS Geometry Optimization

     number of scf cycles    =   1
     number of bfgs steps    =   0

     enthalpy new            =   -2050.8626831905 Ry

     new trust radius        =       0.5000000000 bohr
     new conv_thr            =       0.0001000000 Ry

     new unit-cell volume =    774.38378 a.u.^3 (   114.75184 Ang^3 )

CELL_PARAMETERS (alat=  9.64829493)
   1.070865451   0.000000000   0.000000000
  -0.535432726   0.927396685   0.000000000
   0.000000000   0.000000000   0.868168629

ATOMIC_POSITIONS (crystal)
Ca       0.000000000   0.000000000   0.000000000
Cu       0.333333000   0.666667000   0.000000000
Cu       0.666667000   0.333333000   0.000000000
Cu       0.500000000   0.000000000   0.500000000
Cu       0.500000000   0.500000000   0.500000000
Cu       0.000000000   0.500000000   0.500000000



     Writing output data file Prototype-La-hP6-CaCu5.save
     NEW-OLD atomic charge density approx. for the potential
     NEW k-points: (use verbosity='high' to print them)

     total cpu time spent up to now is      653.4 secs

     Self-consistent Calculation

     iteration #  1     ecut=    40.00 Ry     beta=0.70
     CG style diagonalization
     c_bands:  3 eigenvalues not converged
     c_bands:  5 eigenvalues not converged
     c_bands:  1 eigenvalues not converged
     c_bands:  2 eigenvalues not converged
     c_bands:  1 eigenvalues not converged
     c_bands:  1 eigenvalues not converged
     c_bands:  1 eigenvalues not converged
     c_bands:  1 eigenvalues not converged
     c_bands:  1 eigenvalues not converged
     c_bands:  1 eigenvalues not converged
     c_bands:  1 eigenvalues not converged
     c_bands:  1 eigenvalues not converged
     c_bands:  1 eigenvalues not converged
     c_bands:  1 eigenvalues not converged
     c_bands:  1 eigenvalues not converged
     c_bands:  2 eigenvalues not converged
     c_bands:  1 eigenvalues not converged
     c_bands:  2 eigenvalues not converged
     c_bands:  1 eigenvalues not converged
     c_bands:  1 eigenvalues not converged
     c_bands:  1 eigenvalues not converged
     c_bands:  1 eigenvalues not converged
     c_bands:  1 eigenvalues not converged
     c_bands:  1 eigenvalues not converged
     c_bands:  1 eigenvalues not converged
     c_bands:  2 eigenvalues not converged
     c_bands:  1 eigenvalues not converged
     c_bands:  2 eigenvalues not converged
     c_bands:  1 eigenvalues not converged
     c_bands:  1 eigenvalues not converged
     c_bands:  1 eigenvalues not converged
     c_bands:  1 eigenvalues not converged
     c_bands:  3 eigenvalues not converged
     c_bands:  1 eigenvalues not converged
     c_bands:  1 eigenvalues not converged
     c_bands:  1 eigenvalues not converged
     c_bands:  1 eigenvalues not converged
     c_bands:  1 eigenvalues not converged
     c_bands:  1 eigenvalues not converged
     c_bands:  1 eigenvalues not converged
     c_bands:  2 eigenvalues not converged
     c_bands:  1 eigenvalues not converged
     c_bands:  2 eigenvalues not converged
     c_bands:  1 eigenvalues not converged
     c_bands:  2 eigenvalues not converged
     c_bands:  1 eigenvalues not converged
     c_bands:  2 eigenvalues not converged
     c_bands:  3 eigenvalues not converged
     c_bands:  1 eigenvalues not converged
     c_bands:  1 eigenvalues not converged
     c_bands:  1 eigenvalues not converged
     c_bands:  1 eigenvalues not converged
     ethr =  1.00E-06,  avg # of iterations = 21.8

     total cpu time spent up to now is      868.4 secs

     total energy              =   -2043.84694434 Ry
     Harris-Foulkes estimate   =   -2064.23423087 Ry
     estimated scf accuracy    <      25.44485262 Ry

     iteration #  2     ecut=    40.00 Ry     beta=0.70
     CG style diagonalization
     ethr =  1.00E-02,  avg # of iterations =  4.0

     total cpu time spent up to now is      908.0 secs

     total energy              =   -2051.24443302 Ry
     Harris-Foulkes estimate   =   -2053.67429876 Ry
     estimated scf accuracy    <       3.54792836 Ry

     iteration #  3     ecut=    40.00 Ry     beta=0.70
     CG style diagonalization
     ethr =  2.65E-03,  avg # of iterations =  3.7

     total cpu time spent up to now is      945.0 secs

     total energy              =   -2052.16987631 Ry
     Harris-Foulkes estimate   =   -2052.32242653 Ry
     estimated scf accuracy    <       0.28736599 Ry

     iteration #  4     ecut=    40.00 Ry     beta=0.70
     CG style diagonalization
     ethr =  2.14E-04,  avg # of iterations =  3.4

     total cpu time spent up to now is      978.1 secs

     total energy              =   -2052.24973139 Ry
     Harris-Foulkes estimate   =   -2052.25329008 Ry
     estimated scf accuracy    <       0.00619337 Ry

     iteration #  5     ecut=    40.00 Ry     beta=0.70
     CG style diagonalization
     c_bands:  1 eigenvalues not converged
     c_bands:  1 eigenvalues not converged
     c_bands:  1 eigenvalues not converged
     c_bands:  1 eigenvalues not converged
     c_bands:  1 eigenvalues not converged
     c_bands:  1 eigenvalues not converged
     c_bands:  1 eigenvalues not converged
     c_bands:  1 eigenvalues not converged
     c_bands:  1 eigenvalues not converged
     c_bands:  1 eigenvalues not converged
     c_bands:  1 eigenvalues not converged
     c_bands:  1 eigenvalues not converged
     c_bands:  1 eigenvalues not converged
     c_bands:  1 eigenvalues not converged
     c_bands:  1 eigenvalues not converged
     c_bands:  1 eigenvalues not converged
     c_bands:  1 eigenvalues not converged
     c_bands:  2 eigenvalues not converged
     c_bands:  1 eigenvalues not converged
     c_bands:  2 eigenvalues not converged
     c_bands:  1 eigenvalues not converged
     c_bands:  1 eigenvalues not converged
     c_bands:  1 eigenvalues not converged
     c_bands:  1 eigenvalues not converged
     c_bands:  2 eigenvalues not converged
     c_bands:  3 eigenvalues not converged
     c_bands:  1 eigenvalues not converged
     c_bands:  1 eigenvalues not converged
     c_bands:  1 eigenvalues not converged
     c_bands:  1 eigenvalues not converged
     c_bands:  1 eigenvalues not converged
     c_bands:  3 eigenvalues not converged
     c_bands:  2 eigenvalues not converged
     c_bands:  1 eigenvalues not converged
     c_bands:  1 eigenvalues not converged
     ethr =  4.62E-06,  avg # of iterations =  4.5

     total cpu time spent up to now is     1022.6 secs

     total energy              =   -2052.25194674 Ry
     Harris-Foulkes estimate   =   -2052.25215360 Ry
     estimated scf accuracy    <       0.00036166 Ry

     iteration #  6     ecut=    40.00 Ry     beta=0.70
     CG style diagonalization
     c_bands:  1 eigenvalues not converged
     c_bands:  1 eigenvalues not converged
     ethr =  2.70E-07,  avg # of iterations =  3.8

     total cpu time spent up to now is     1059.5 secs

     End of self-consistent calculation

     Number of k-points >= 100: set verbosity='high' to print the bands.

     the Fermi energy is    31.4537 ev

!    total energy              =   -2052.25204457 Ry
     Harris-Foulkes estimate   =   -2052.25205407 Ry
     estimated scf accuracy    <       0.00001404 Ry

     The total energy is the sum of the following terms:

     one-electron contribution =    -592.64837923 Ry
     hartree contribution      =     379.04825099 Ry
     xc contribution           =    -172.76808121 Ry
     ewald contribution        =   -1665.71081872 Ry
     smearing contrib. (-TS)   =      -0.17301641 Ry

     convergence has been achieved in   6 iterations

     Forces acting on atoms (Ry/au):

     atom    1 type  1   force =     0.00000000    0.00000000    0.00000000
     atom    2 type  2   force =     0.00000000    0.00000000    0.00000000
     atom    3 type  2   force =     0.00000000    0.00000000    0.00000000
     atom    4 type  2   force =     0.00000000    0.00000000    0.00000000
     atom    5 type  2   force =     0.00000000    0.00000000    0.00000000
     atom    6 type  2   force =     0.00000000    0.00000000    0.00000000

     Total force =     0.000000     Total SCF correction =     0.000000


     entering subroutine stress ...

          total   stress  (Ry/bohr**3)                   (kbar)     P=  114.02
   0.00013371   0.00000000   0.00000000         19.67      0.00      0.00
   0.00000000   0.00013371   0.00000000          0.00     19.67      0.00
   0.00000000   0.00000000   0.00205791          0.00      0.00    302.73


     number of scf cycles    =   2
     number of bfgs steps    =   1

     enthalpy old            =   -2050.8626831905 Ry
     enthalpy new            =   -2052.2520445692 Ry

     CASE: enthalpy_new < enthalpy_old

     small trust_radius: resetting bfgs history

     new trust radius        =       0.2863351554 bohr
     new conv_thr            =       0.0000010000 Ry

     new unit-cell volume =    819.67678 a.u.^3 (   121.46357 Ang^3 )

CELL_PARAMETERS (alat=  9.64829493)
   1.074445147   0.000000000   0.000000000
  -0.537222574   0.930496793   0.000000000
   0.000000000   0.000000000   0.912833969

ATOMIC_POSITIONS (crystal)
Ca       0.000000000   0.000000000   0.000000000
Cu       0.333333000   0.666667000   0.000000000
Cu       0.666667000   0.333333000   0.000000000
Cu       0.500000000   0.000000000   0.500000000
Cu       0.500000000   0.500000000   0.500000000
Cu       0.000000000   0.500000000   0.500000000



     Writing output data file Prototype-La-hP6-CaCu5.save
     NEW-OLD atomic charge density approx. for the potential
     NEW k-points: (use verbosity='high' to print them)

     total cpu time spent up to now is     1067.4 secs

     Self-consistent Calculation

     iteration #  1     ecut=    40.00 Ry     beta=0.70
     CG style diagonalization
     c_bands:  1 eigenvalues not converged
     c_bands:  2 eigenvalues not converged
     c_bands:  4 eigenvalues not converged
     c_bands:  1 eigenvalues not converged
     c_bands:  4 eigenvalues not converged
     c_bands:  1 eigenvalues not converged
     c_bands:  4 eigenvalues not converged
     c_bands:  1 eigenvalues not converged
     c_bands:  2 eigenvalues not converged
     c_bands:  3 eigenvalues not converged
     c_bands:  5 eigenvalues not converged
     c_bands:  1 eigenvalues not converged
     c_bands:  1 eigenvalues not converged
     c_bands:  4 eigenvalues not converged
     c_bands:  3 eigenvalues not converged
     c_bands:  1 eigenvalues not converged
     c_bands:  2 eigenvalues not converged
     c_bands:  2 eigenvalues not converged
     c_bands:  4 eigenvalues not converged
     c_bands:  1 eigenvalues not converged
     c_bands:  4 eigenvalues not converged
     c_bands:  2 eigenvalues not converged
     c_bands:  1 eigenvalues not converged
     c_bands:  3 eigenvalues not converged
     c_bands:  5 eigenvalues not converged
     c_bands:  3 eigenvalues not converged
     c_bands:  1 eigenvalues not converged
     c_bands:  1 eigenvalues not converged
     c_bands:  1 eigenvalues not converged
     c_bands:  2 eigenvalues not converged
     c_bands:  3 eigenvalues not converged
     c_bands:  1 eigenvalues not converged
     c_bands:  1 eigenvalues not converged
     c_bands:  3 eigenvalues not converged
     c_bands:  3 eigenvalues not converged
     c_bands:  5 eigenvalues not converged
     c_bands:  3 eigenvalues not converged
     c_bands:  4 eigenvalues not converged
     ethr =  1.00E-06,  avg # of iterations = 13.9

     total cpu time spent up to now is     1205.5 secs

     total energy              =   -2051.55059751 Ry
     Harris-Foulkes estimate   =   -2053.27035175 Ry
     estimated scf accuracy    <       2.18738767 Ry

     iteration #  2     ecut=    40.00 Ry     beta=0.70
     CG style diagonalization
     ethr =  1.63E-03,  avg # of iterations =  3.8

     total cpu time spent up to now is     1242.3 secs

     total energy              =   -2052.15904412 Ry
     Harris-Foulkes estimate   =   -2052.31804758 Ry
     estimated scf accuracy    <       0.22770621 Ry

     iteration #  3     ecut=    40.00 Ry     beta=0.70
     CG style diagonalization
     ethr =  1.70E-04,  avg # of iterations =  3.8

     total cpu time spent up to now is     1279.1 secs

     total energy              =   -2052.21879321 Ry
     Harris-Foulkes estimate   =   -2052.22166518 Ry
     estimated scf accuracy    <       0.00416822 Ry

     iteration #  4     ecut=    40.00 Ry     beta=0.70
     CG style diagonalization
     c_bands:  1 eigenvalues not converged
     c_bands:  1 eigenvalues not converged
     c_bands:  1 eigenvalues not converged
     c_bands:  1 eigenvalues not converged
     c_bands:  1 eigenvalues not converged
     c_bands:  1 eigenvalues not converged
     c_bands:  1 eigenvalues not converged
     c_bands:  1 eigenvalues not converged
     c_bands:  1 eigenvalues not converged
     c_bands:  1 eigenvalues not converged
     c_bands:  1 eigenvalues not converged
     c_bands:  1 eigenvalues not converged
     c_bands:  1 eigenvalues not converged
     c_bands:  1 eigenvalues not converged
     c_bands:  1 eigenvalues not converged
     c_bands:  1 eigenvalues not converged
     c_bands:  1 eigenvalues not converged
     ethr =  3.11E-06,  avg # of iterations =  4.6

     total cpu time spent up to now is     1324.5 secs

     total energy              =   -2052.22075800 Ry
     Harris-Foulkes estimate   =   -2052.22208737 Ry
     estimated scf accuracy    <       0.00252596 Ry

     iteration #  5     ecut=    40.00 Ry     beta=0.70
     CG style diagonalization
     c_bands:  1 eigenvalues not converged
     c_bands:  1 eigenvalues not converged
     ethr =  1.89E-06,  avg # of iterations =  3.4

     total cpu time spent up to now is     1360.2 secs

     total energy              =   -2052.22133379 Ry
     Harris-Foulkes estimate   =   -2052.22136903 Ry
     estimated scf accuracy    <       0.00006471 Ry

     iteration #  6     ecut=    40.00 Ry     beta=0.70
     CG style diagonalization
     c_bands:  1 eigenvalues not converged
     ethr =  4.83E-08,  avg # of iterations =  3.8

     total cpu time spent up to now is     1398.2 secs

     total energy              =   -2052.22135124 Ry
     Harris-Foulkes estimate   =   -2052.22135759 Ry
     estimated scf accuracy    <       0.00001028 Ry

     iteration #  7     ecut=    40.00 Ry     beta=0.70
     CG style diagonalization
     ethr =  7.67E-09,  avg # of iterations =  3.6

     total cpu time spent up to now is     1434.3 secs

     total energy              =   -2052.22135961 Ry
     Harris-Foulkes estimate   =   -2052.22135492 Ry
     estimated scf accuracy    <       0.00000206 Ry

     iteration #  8     ecut=    40.00 Ry     beta=0.70
     CG style diagonalization
     ethr =  1.53E-09,  avg # of iterations =  3.3

     total cpu time spent up to now is     1466.9 secs

     End of self-consistent calculation

     Number of k-points >= 100: set verbosity='high' to print the bands.

     the Fermi energy is    29.4840 ev

!    total energy              =   -2052.22136010 Ry
     Harris-Foulkes estimate   =   -2052.22136020 Ry
     estimated scf accuracy    <       0.00000012 Ry

     The total energy is the sum of the following terms:

     one-electron contribution =    -634.30354637 Ry
     hartree contribution      =     391.34815291 Ry
     xc contribution           =    -172.14146459 Ry
     ewald contribution        =   -1636.94953930 Ry
     smearing contrib. (-TS)   =      -0.17496275 Ry

     convergence has been achieved in   8 iterations

     Forces acting on atoms (Ry/au):

     atom    1 type  1   force =     0.00000000    0.00000000    0.00000000
     atom    2 type  2   force =     0.00000000    0.00000000    0.00000000
     atom    3 type  2   force =     0.00000000    0.00000000    0.00000000
     atom    4 type  2   force =     0.00000000    0.00000000    0.00000000
     atom    5 type  2   force =     0.00000000    0.00000000    0.00000000
     atom    6 type  2   force =     0.00000000    0.00000000    0.00000000

     Total force =     0.000000     Total SCF correction =     0.000000


     entering subroutine stress ...

          total   stress  (Ry/bohr**3)                   (kbar)     P= -333.72
  -0.00177795   0.00000000   0.00000000       -261.55      0.00      0.00
   0.00000000  -0.00177795   0.00000000          0.00   -261.55      0.00
   0.00000000   0.00000000  -0.00324974          0.00      0.00   -478.05


     number of scf cycles    =   3
     number of bfgs steps    =   2

     enthalpy old            =   -2052.2520445692 Ry
     enthalpy new            =   -2052.2213601024 Ry

     CASE: enthalpy_new > enthalpy_old

     new trust radius        =       0.1021700954 bohr

     trust_radius < trust_radius_min

     resetting bfgs history

     Message from routine bfgs:
     history already reset at previous step: stopping
     new conv_thr            =       0.0000010000 Ry

     new unit-cell volume =    821.19187 a.u.^3 (   121.68808 Ang^3 )

CELL_PARAMETERS (alat=  9.64829493)
   1.074269991   0.000000000   0.000000000
  -0.537134996   0.930345103   0.000000000
   0.000000000   0.000000000   0.914819490

ATOMIC_POSITIONS (crystal)
Ca       0.000000000   0.000000000   0.000000000
Cu       0.333333000   0.666667000   0.000000000
Cu       0.666667000   0.333333000   0.000000000
Cu       0.500000000   0.000000000   0.500000000
Cu       0.500000000   0.500000000   0.500000000
Cu       0.000000000   0.500000000   0.500000000



     Writing output data file Prototype-La-hP6-CaCu5.save
     NEW-OLD atomic charge density approx. for the potential
     NEW k-points: (use verbosity='high' to print them)

     total cpu time spent up to now is     1474.5 secs

     Self-consistent Calculation

     iteration #  1     ecut=    40.00 Ry     beta=0.70
     CG style diagonalization
     c_bands:  1 eigenvalues not converged
     ethr =  1.00E-06,  avg # of iterations =  4.8

     total cpu time spent up to now is     1522.9 secs

     total energy              =   -2052.21500544 Ry
     Harris-Foulkes estimate   =   -2052.21738985 Ry
     estimated scf accuracy    <       0.00310468 Ry

     iteration #  2     ecut=    40.00 Ry     beta=0.70
     CG style diagonalization
     ethr =  2.32E-06,  avg # of iterations =  3.8

     total cpu time spent up to now is     1560.6 secs

     total energy              =   -2052.21580330 Ry
     Harris-Foulkes estimate   =   -2052.21597194 Ry
     estimated scf accuracy    <       0.00023621 Ry

     iteration #  3     ecut=    40.00 Ry     beta=0.70
     CG style diagonalization
     ethr =  1.76E-07,  avg # of iterations =  3.7

     total cpu time spent up to now is     1598.1 secs

     total energy              =   -2052.21586700 Ry
     Harris-Foulkes estimate   =   -2052.21587044 Ry
     estimated scf accuracy    <       0.00000508 Ry

     iteration #  4     ecut=    40.00 Ry     beta=0.70
     CG style diagonalization
     ethr =  3.79E-09,  avg # of iterations =  4.1

     total cpu time spent up to now is     1637.6 secs

     total energy              =   -2052.21586937 Ry
     Harris-Foulkes estimate   =   -2052.21587051 Ry
     estimated scf accuracy    <       0.00000199 Ry

     iteration #  5     ecut=    40.00 Ry     beta=0.70
     CG style diagonalization
     ethr =  1.49E-09,  avg # of iterations =  3.3

     total cpu time spent up to now is     1670.0 secs

     End of self-consistent calculation

     Number of k-points >= 100: set verbosity='high' to print the bands.

     the Fermi energy is    29.4222 ev

!    total energy              =   -2052.21586984 Ry
     Harris-Foulkes estimate   =   -2052.21586991 Ry
     estimated scf accuracy    <       0.00000010 Ry

     The total energy is the sum of the following terms:

     one-electron contribution =    -635.60357373 Ry
     hartree contribution      =     391.72943759 Ry
     xc contribution           =    -172.12162409 Ry
     ewald contribution        =   -1636.04507556 Ry
     smearing contrib. (-TS)   =      -0.17503406 Ry

     convergence has been achieved in   5 iterations

     Forces acting on atoms (Ry/au):

     atom    1 type  1   force =     0.00000000    0.00000000    0.00000000
     atom    2 type  2   force =     0.00000000    0.00000000    0.00000000
     atom    3 type  2   force =     0.00000000    0.00000000    0.00000000
     atom    4 type  2   force =     0.00000000    0.00000000    0.00000000
     atom    5 type  2   force =     0.00000000    0.00000000    0.00000000
     atom    6 type  2   force =     0.00000000    0.00000000    0.00000000

     Total force =     0.000000     Total SCF correction =     0.000000


     entering subroutine stress ...

          total   stress  (Ry/bohr**3)                   (kbar)     P= -347.14
  -0.00181316   0.00000000   0.00000000       -266.72      0.00      0.00
   0.00000000  -0.00181316   0.00000000          0.00   -266.72      0.00
   0.00000000   0.00000000  -0.00345303          0.00      0.00   -507.96


     The maximum number of steps has been reached.

     End of BFGS Geometry Optimization
Begin final coordinates
     new unit-cell volume =    821.19187 a.u.^3 (   121.68808 Ang^3 )

CELL_PARAMETERS (alat=  9.64829493)
   1.074269991   0.000000000   0.000000000
  -0.537134996   0.930345103   0.000000000
   0.000000000   0.000000000   0.914819490

ATOMIC_POSITIONS (crystal)
Ca       0.000000000   0.000000000   0.000000000
Cu       0.333333000   0.666667000   0.000000000
Cu       0.666667000   0.333333000   0.000000000
Cu       0.500000000   0.000000000   0.500000000
Cu       0.500000000   0.500000000   0.500000000
Cu       0.000000000   0.500000000   0.500000000
End final coordinates



     A final scf calculation at the relaxed structure.
     The G-vectors are recalculated for the final unit cell
     Results may differ from those at the preceding step.
 
     Parallelization info
     --------------------
     sticks:   dense  smooth     PW     G-vecs:    dense   smooth      PW
     Min         294     294     89                 7022     7022    1144
     Max         295     295     91                 7024     7024    1145
     Sum        1177    1177    361                28091    28091    4579
 


     bravais-lattice index     =            0
     lattice parameter (alat)  =       9.6483  a.u.
     unit-cell volume          =     821.1919 (a.u.)^3
     number of atoms/cell      =            6
     number of atomic types    =            2
     number of electrons       =       134.00
     number of Kohn-Sham states=           80
     kinetic-energy cutoff     =      40.0000  Ry
     charge density cutoff     =     160.0000  Ry
     convergence threshold     =      1.0E-06
     mixing beta               =       0.7000
     number of iterations used =            8  plain     mixing
     Exchange-correlation      = SLA-PZ-NOGX-NOGC ( 1 1 0 0 0)
     EXX-fraction              =        0.00

     celldm(1)=   9.648295  celldm(2)=   0.000000  celldm(3)=   0.000000
     celldm(4)=   0.000000  celldm(5)=   0.000000  celldm(6)=   0.000000

     crystal axes: (cart. coord. in units of alat)
               a(1) = (   1.074270   0.000000   0.000000 )  
               a(2) = (  -0.537135   0.930345   0.000000 )  
               a(3) = (   0.000000   0.000000   0.914819 )  

     reciprocal axes: (cart. coord. in units 2 pi/alat)
               b(1) = (  0.930865  0.537435  0.000000 )  
               b(2) = (  0.000000  1.074870  0.000000 )  
               b(3) = (  0.000000  0.000000  1.093112 )  


     PseudoPot. # 1 for Yb read from file:
     /home/jld5415/pp.La/Yb.UPF
     MD5 check sum: 3e859b81cc28c53ec6aa3a2e888efcdf
     Pseudo is Norm-conserving, Zval = 24.0
     Generated in analytical, separable form
     Using radial grid of 1269 points,  6 beta functions with: 
                l(1) =   0
                l(2) =   0
                l(3) =   1
                l(4) =   1
                l(5) =   2
                l(6) =   3

     PseudoPot. # 2 for Er read from file:
     /home/jld5415/pp.La/Er.UPF
     MD5 check sum: e152ae21b84514339d8526f066caf99b
     Pseudo is Norm-conserving, Zval = 22.0
     Generated in analytical, separable form
     Using radial grid of 1267 points,  6 beta functions with: 
                l(1) =   0
                l(2) =   0
                l(3) =   1
                l(4) =   1
                l(5) =   2
                l(6) =   3

     atomic species   valence    mass     pseudopotential
        Ca            24.00    40.07800     Yb( 1.00)
        Cu            22.00    63.54600     Er( 1.00)

     24 Sym. Ops., with inversion, found



   Cartesian axes

     site n.     atom                  positions (alat units)
         1           Ca  tau(   1) = (   0.0000000   0.0000000   0.0000000  )
         2           Cu  tau(   2) = (  -0.0000005   0.6202304   0.0000000  )
         3           Cu  tau(   3) = (   0.5371355   0.3101147   0.0000000  )
         4           Cu  tau(   4) = (   0.5371350   0.0000000   0.4574097  )
         5           Cu  tau(   5) = (   0.2685675   0.4651726   0.4574097  )
         6           Cu  tau(   6) = (  -0.2685675   0.4651726   0.4574097  )

     number of k points=   110  gaussian smearing, width (Ry)=  0.1000

     Number of k-points >= 100: set verbosity='high' to print them.

     Dense  grid:    28091 G-vectors     FFT dimensions: (  45,  45,  36)

     Largest allocated arrays     est. size (Mb)     dimensions
        Kohn-Sham Wavefunctions         1.08 Mb     (    888,   80)
        NL pseudopotentials             1.63 Mb     (    888,  120)
        Each V/rho on FFT grid          0.28 Mb     (  18225)
        Each G-vector array             0.05 Mb     (   7024)
        G-vector shells                 0.01 Mb     (   1223)
     Largest temporary arrays     est. size (Mb)     dimensions
        Each subspace H/S matrix        0.10 Mb     (  80,  80)
        Each <psi_i|beta_j> matrix      0.15 Mb     (    120,   80)
        Arrays for rho mixing           2.22 Mb     (  18225,   8)

     Initial potential from superposition of free atoms

     Starting from uniform charge
     Starting wfc are    0 randomized atomic wfcs

     Writing output data file Prototype-La-hP6-CaCu5.save

     total cpu time spent up to now is     1688.5 secs

     Self-consistent Calculation

     iteration #  1     ecut=    40.00 Ry     beta=0.70
     CG style diagonalization
     c_bands:  9 eigenvalues not converged
     c_bands: 10 eigenvalues not converged
     c_bands: 10 eigenvalues not converged
     c_bands:  8 eigenvalues not converged
     c_bands:  9 eigenvalues not converged
     c_bands:  8 eigenvalues not converged
     c_bands: 10 eigenvalues not converged
     c_bands:  9 eigenvalues not converged
     c_bands: 11 eigenvalues not converged
     c_bands: 10 eigenvalues not converged
     c_bands:  8 eigenvalues not converged
     c_bands:  9 eigenvalues not converged
     c_bands: 11 eigenvalues not converged
     c_bands:  9 eigenvalues not converged
     c_bands:  7 eigenvalues not converged
     c_bands: 11 eigenvalues not converged
     c_bands:  7 eigenvalues not converged
     c_bands:  6 eigenvalues not converged
     c_bands:  6 eigenvalues not converged
     c_bands:  8 eigenvalues not converged
     c_bands:  8 eigenvalues not converged
     c_bands:  8 eigenvalues not converged
     c_bands: 10 eigenvalues not converged
     c_bands: 10 eigenvalues not converged
     c_bands: 12 eigenvalues not converged
     c_bands: 12 eigenvalues not converged
     c_bands:  6 eigenvalues not converged
     c_bands:  9 eigenvalues not converged
     c_bands:  9 eigenvalues not converged
     c_bands: 10 eigenvalues not converged
     c_bands:  8 eigenvalues not converged
     c_bands:  9 eigenvalues not converged
     c_bands:  9 eigenvalues not converged
     c_bands:  7 eigenvalues not converged
     c_bands: 10 eigenvalues not converged
     c_bands:  8 eigenvalues not converged
     c_bands: 10 eigenvalues not converged
     c_bands: 10 eigenvalues not converged
     c_bands:  7 eigenvalues not converged
     c_bands:  6 eigenvalues not converged
     c_bands:  7 eigenvalues not converged
     c_bands:  9 eigenvalues not converged
     c_bands:  8 eigenvalues not converged
     c_bands:  7 eigenvalues not converged
     c_bands: 10 eigenvalues not converged
     c_bands: 12 eigenvalues not converged
     c_bands: 11 eigenvalues not converged
     c_bands:  7 eigenvalues not converged
     c_bands:  6 eigenvalues not converged
     c_bands:  8 eigenvalues not converged
     c_bands:  9 eigenvalues not converged
     c_bands: 11 eigenvalues not converged
     c_bands: 11 eigenvalues not converged
     c_bands:  8 eigenvalues not converged
     c_bands: 10 eigenvalues not converged
     c_bands:  8 eigenvalues not converged
     c_bands:  9 eigenvalues not converged
     c_bands:  9 eigenvalues not converged
     c_bands:  5 eigenvalues not converged
     c_bands:  8 eigenvalues not converged
     c_bands: 11 eigenvalues not converged
     c_bands:  9 eigenvalues not converged
     c_bands:  8 eigenvalues not converged
     c_bands:  7 eigenvalues not converged
     c_bands: 10 eigenvalues not converged
     c_bands:  8 eigenvalues not converged
     c_bands:  6 eigenvalues not converged
     c_bands:  4 eigenvalues not converged
     c_bands:  7 eigenvalues not converged
     c_bands:  6 eigenvalues not converged
     c_bands:  6 eigenvalues not converged
     c_bands:  9 eigenvalues not converged
     c_bands:  7 eigenvalues not converged
     c_bands:  7 eigenvalues not converged
     c_bands:  7 eigenvalues not converged
     c_bands:  7 eigenvalues not converged
     c_bands: 11 eigenvalues not converged
     c_bands:  7 eigenvalues not converged
     c_bands:  7 eigenvalues not converged
     c_bands:  7 eigenvalues not converged
     c_bands: 10 eigenvalues not converged
     c_bands:  8 eigenvalues not converged
     c_bands:  8 eigenvalues not converged
     c_bands: 10 eigenvalues not converged
     c_bands:  9 eigenvalues not converged
     c_bands:  9 eigenvalues not converged
     c_bands: 11 eigenvalues not converged
     c_bands:  9 eigenvalues not converged
     c_bands:  7 eigenvalues not converged
     c_bands: 10 eigenvalues not converged
     c_bands:  8 eigenvalues not converged
     c_bands:  9 eigenvalues not converged
     c_bands:  7 eigenvalues not converged
     c_bands:  7 eigenvalues not converged
     c_bands:  7 eigenvalues not converged
     c_bands: 10 eigenvalues not converged
     c_bands: 10 eigenvalues not converged
     c_bands:  8 eigenvalues not converged
     c_bands:  8 eigenvalues not converged
     c_bands:  8 eigenvalues not converged
     c_bands:  8 eigenvalues not converged
     c_bands:  8 eigenvalues not converged
     c_bands:  9 eigenvalues not converged
     c_bands:  7 eigenvalues not converged
     c_bands:  5 eigenvalues not converged
     c_bands:  9 eigenvalues not converged
     c_bands:  8 eigenvalues not converged
     c_bands: 10 eigenvalues not converged
     c_bands:  7 eigenvalues not converged
     c_bands:  8 eigenvalues not converged
     ethr =  1.00E-06,  avg # of iterations = 77.3

     total cpu time spent up to now is     2686.8 secs

     total energy              =   -1808.38550094 Ry
     Harris-Foulkes estimate   =   -2641.76983351 Ry
     estimated scf accuracy    <    1039.71507054 Ry

     iteration #  2     ecut=    40.00 Ry     beta=0.70
     CG style diagonalization
     c_bands:  1 eigenvalues not converged
     c_bands:  1 eigenvalues not converged
     c_bands:  2 eigenvalues not converged
     c_bands:  2 eigenvalues not converged
     c_bands:  1 eigenvalues not converged
     c_bands:  1 eigenvalues not converged
     c_bands:  2 eigenvalues not converged
     c_bands:  1 eigenvalues not converged
     c_bands:  2 eigenvalues not converged
     c_bands:  2 eigenvalues not converged
     c_bands:  2 eigenvalues not converged
     c_bands:  1 eigenvalues not converged
     c_bands:  1 eigenvalues not converged
     c_bands:  1 eigenvalues not converged
     c_bands:  2 eigenvalues not converged
     c_bands:  1 eigenvalues not converged
     c_bands:  1 eigenvalues not converged
     c_bands:  2 eigenvalues not converged
     c_bands:  1 eigenvalues not converged
     c_bands:  2 eigenvalues not converged
     c_bands:  1 eigenvalues not converged
     c_bands:  3 eigenvalues not converged
     c_bands:  1 eigenvalues not converged
     c_bands:  1 eigenvalues not converged
     c_bands:  1 eigenvalues not converged
     c_bands:  1 eigenvalues not converged
     c_bands:  4 eigenvalues not converged
     c_bands:  2 eigenvalues not converged
     c_bands:  1 eigenvalues not converged
     c_bands:  2 eigenvalues not converged
     c_bands:  3 eigenvalues not converged
     c_bands:  1 eigenvalues not converged
     c_bands:  1 eigenvalues not converged
     c_bands:  2 eigenvalues not converged
     c_bands:  2 eigenvalues not converged
     c_bands:  1 eigenvalues not converged
     c_bands:  2 eigenvalues not converged
     c_bands:  2 eigenvalues not converged
     c_bands:  1 eigenvalues not converged
     c_bands:  3 eigenvalues not converged
     c_bands:  3 eigenvalues not converged
     c_bands:  2 eigenvalues not converged
     c_bands:  4 eigenvalues not converged
     c_bands:  3 eigenvalues not converged
     c_bands:  3 eigenvalues not converged
     c_bands:  1 eigenvalues not converged
     c_bands:  1 eigenvalues not converged
     c_bands:  1 eigenvalues not converged
     c_bands:  1 eigenvalues not converged
     c_bands:  1 eigenvalues not converged
     c_bands:  1 eigenvalues not converged
     c_bands:  1 eigenvalues not converged
     c_bands:  2 eigenvalues not converged
     c_bands:  2 eigenvalues not converged
     c_bands:  1 eigenvalues not converged
     c_bands:  1 eigenvalues not converged
     c_bands:  1 eigenvalues not converged
     c_bands:  1 eigenvalues not converged
     c_bands:  4 eigenvalues not converged
     c_bands:  3 eigenvalues not converged
     c_bands:  1 eigenvalues not converged
     c_bands:  2 eigenvalues not converged
     c_bands:  1 eigenvalues not converged
     c_bands:  1 eigenvalues not converged
     c_bands:  3 eigenvalues not converged
     c_bands:  1 eigenvalues not converged
     c_bands:  1 eigenvalues not converged
     c_bands:  1 eigenvalues not converged
     c_bands:  4 eigenvalues not converged
     c_bands:  1 eigenvalues not converged
     ethr =  1.00E-02,  avg # of iterations = 10.1

     total cpu time spent up to now is     2808.5 secs

     total energy              =   -1863.26461223 Ry
     Harris-Foulkes estimate   =   -2131.47560638 Ry
     estimated scf accuracy    <     398.63313408 Ry

     iteration #  3     ecut=    40.00 Ry     beta=0.70
     CG style diagonalization
     c_bands:  2 eigenvalues not converged
     c_bands:  1 eigenvalues not converged
     c_bands:  1 eigenvalues not converged
     c_bands:  1 eigenvalues not converged
     c_bands:  2 eigenvalues not converged
     c_bands:  1 eigenvalues not converged
     c_bands:  1 eigenvalues not converged
     c_bands:  1 eigenvalues not converged
     c_bands:  2 eigenvalues not converged
     c_bands:  1 eigenvalues not converged
     c_bands:  1 eigenvalues not converged
     c_bands:  3 eigenvalues not converged
     c_bands:  1 eigenvalues not converged
     c_bands:  1 eigenvalues not converged
     c_bands:  1 eigenvalues not converged
     c_bands:  4 eigenvalues not converged
     c_bands:  1 eigenvalues not converged
     c_bands:  2 eigenvalues not converged
     c_bands:  2 eigenvalues not converged
     c_bands:  4 eigenvalues not converged
     c_bands:  1 eigenvalues not converged
     c_bands:  2 eigenvalues not converged
     c_bands:  1 eigenvalues not converged
     c_bands:  2 eigenvalues not converged
     c_bands:  1 eigenvalues not converged
     c_bands:  1 eigenvalues not converged
     c_bands:  1 eigenvalues not converged
     c_bands:  1 eigenvalues not converged
     c_bands:  1 eigenvalues not converged
     c_bands:  2 eigenvalues not converged
     c_bands:  2 eigenvalues not converged
     c_bands:  1 eigenvalues not converged
     c_bands:  3 eigenvalues not converged
     c_bands:  1 eigenvalues not converged
     c_bands:  1 eigenvalues not converged
     c_bands:  2 eigenvalues not converged
     c_bands:  1 eigenvalues not converged
     c_bands:  2 eigenvalues not converged
     c_bands:  1 eigenvalues not converged
     c_bands:  1 eigenvalues not converged
     c_bands:  2 eigenvalues not converged
     c_bands:  3 eigenvalues not converged
     c_bands:  1 eigenvalues not converged
     c_bands:  1 eigenvalues not converged
     c_bands:  1 eigenvalues not converged
     c_bands:  3 eigenvalues not converged
     c_bands:  1 eigenvalues not converged
     c_bands:  2 eigenvalues not converged
     c_bands:  2 eigenvalues not converged
     c_bands:  2 eigenvalues not converged
     c_bands:  1 eigenvalues not converged
     c_bands:  2 eigenvalues not converged
     c_bands:  1 eigenvalues not converged
     c_bands:  1 eigenvalues not converged
     c_bands:  1 eigenvalues not converged
     c_bands:  1 eigenvalues not converged
     c_bands:  4 eigenvalues not converged
     c_bands:  2 eigenvalues not converged
     c_bands:  1 eigenvalues not converged
     c_bands:  2 eigenvalues not converged
     c_bands:  2 eigenvalues not converged
     c_bands:  2 eigenvalues not converged
     c_bands:  1 eigenvalues not converged
     c_bands:  2 eigenvalues not converged
     c_bands:  3 eigenvalues not converged
     c_bands:  2 eigenvalues not converged
     c_bands:  3 eigenvalues not converged
     c_bands:  1 eigenvalues not converged
     c_bands:  1 eigenvalues not converged
     c_bands:  2 eigenvalues not converged
     c_bands:  3 eigenvalues not converged
     c_bands:  1 eigenvalues not converged
     c_bands:  3 eigenvalues not converged
     c_bands:  1 eigenvalues not converged
     c_bands:  1 eigenvalues not converged
     c_bands:  2 eigenvalues not converged
     c_bands:  1 eigenvalues not converged
     c_bands:  2 eigenvalues not converged
     c_bands:  1 eigenvalues not converged
     c_bands:  2 eigenvalues not converged
     c_bands:  1 eigenvalues not converged
     c_bands:  1 eigenvalues not converged
     c_bands:  2 eigenvalues not converged
     ethr =  1.00E-02,  avg # of iterations = 10.7

     total cpu time spent up to now is     3262.3 secs

     total energy              =   -1986.34633947 Ry
     Harris-Foulkes estimate   =   -2174.06098839 Ry
     estimated scf accuracy    <     504.85067361 Ry

     iteration #  4     ecut=    40.00 Ry     beta=0.70
     CG style diagonalization
     c_bands:  1 eigenvalues not converged
     ethr =  1.00E-02,  avg # of iterations =  7.0

     total cpu time spent up to now is     3558.8 secs

     total energy              =   -2052.93299579 Ry
     Harris-Foulkes estimate   =   -2057.25562844 Ry
     estimated scf accuracy    <       8.29723924 Ry

     iteration #  5     ecut=    40.00 Ry     beta=0.70
     CG style diagonalization
     ethr =  6.19E-03,  avg # of iterations =  3.5

     total cpu time spent up to now is     3701.6 secs

     total energy              =   -2054.18544570 Ry
     Harris-Foulkes estimate   =   -2054.90666831 Ry
     estimated scf accuracy    <       1.30423308 Ry

     iteration #  6     ecut=    40.00 Ry     beta=0.70
     CG style diagonalization
     ethr =  9.73E-04,  avg # of iterations =  3.7

     total cpu time spent up to now is     3792.2 secs

     total energy              =   -2054.49093255 Ry
     Harris-Foulkes estimate   =   -2054.60512769 Ry
     estimated scf accuracy    <       0.23637502 Ry

     iteration #  7     ecut=    40.00 Ry     beta=0.70
     CG style diagonalization
     c_bands:  1 eigenvalues not converged
     ethr =  1.76E-04,  avg # of iterations =  3.5

     total cpu time spent up to now is     3829.5 secs

     total energy              =   -2054.52799006 Ry
     Harris-Foulkes estimate   =   -2054.53814392 Ry
     estimated scf accuracy    <       0.02057756 Ry

     iteration #  8     ecut=    40.00 Ry     beta=0.70
     CG style diagonalization
     c_bands:  1 eigenvalues not converged
     c_bands:  1 eigenvalues not converged
     c_bands:  1 eigenvalues not converged
     c_bands:  1 eigenvalues not converged
     c_bands:  3 eigenvalues not converged
     c_bands:  1 eigenvalues not converged
     c_bands:  1 eigenvalues not converged
     c_bands:  1 eigenvalues not converged
     c_bands:  1 eigenvalues not converged
     c_bands:  1 eigenvalues not converged
     c_bands:  2 eigenvalues not converged
     c_bands:  1 eigenvalues not converged
     c_bands:  1 eigenvalues not converged
     c_bands:  1 eigenvalues not converged
     c_bands:  1 eigenvalues not converged
     c_bands:  1 eigenvalues not converged
     c_bands:  1 eigenvalues not converged
     c_bands:  1 eigenvalues not converged
     c_bands:  1 eigenvalues not converged
     c_bands:  1 eigenvalues not converged
     ethr =  1.54E-05,  avg # of iterations =  4.3

     total cpu time spent up to now is     3879.0 secs

     total energy              =   -2054.53422421 Ry
     Harris-Foulkes estimate   =   -2054.53528940 Ry
     estimated scf accuracy    <       0.00183284 Ry

     iteration #  9     ecut=    40.00 Ry     beta=0.70
     CG style diagonalization
     c_bands:  1 eigenvalues not converged
     c_bands:  1 eigenvalues not converged
     c_bands:  1 eigenvalues not converged
     c_bands:  1 eigenvalues not converged
     ethr =  1.37E-06,  avg # of iterations =  4.0

     total cpu time spent up to now is     3924.2 secs

     total energy              =   -2054.53475632 Ry
     Harris-Foulkes estimate   =   -2054.53477661 Ry
     estimated scf accuracy    <       0.00005444 Ry

     iteration # 10     ecut=    40.00 Ry     beta=0.70
     CG style diagonalization
     c_bands:  1 eigenvalues not converged
     ethr =  4.06E-08,  avg # of iterations =  4.3

     total cpu time spent up to now is     3972.8 secs

     total energy              =   -2054.53477895 Ry
     Harris-Foulkes estimate   =   -2054.53478875 Ry
     estimated scf accuracy    <       0.00001755 Ry

     iteration # 11     ecut=    40.00 Ry     beta=0.70
     CG style diagonalization
     ethr =  1.31E-08,  avg # of iterations =  3.2

     total cpu time spent up to now is     4009.4 secs

     End of self-consistent calculation

     Number of k-points >= 100: set verbosity='high' to print the bands.

     the Fermi energy is    29.3470 ev

!    total energy              =   -2054.53478322 Ry
     Harris-Foulkes estimate   =   -2054.53478336 Ry
     estimated scf accuracy    <       0.00000021 Ry

     The total energy is the sum of the following terms:

     one-electron contribution =    -639.22966621 Ry
     hartree contribution      =     393.32512635 Ry
     xc contribution           =    -172.41006735 Ry
     ewald contribution        =   -1636.04507459 Ry
     smearing contrib. (-TS)   =      -0.17510141 Ry

     convergence has been achieved in  11 iterations

     Forces acting on atoms (Ry/au):

     atom    1 type  1   force =     0.00000000    0.00000000    0.00000000
     atom    2 type  2   force =     0.00000000    0.00000000    0.00000000
     atom    3 type  2   force =     0.00000000    0.00000000    0.00000000
     atom    4 type  2   force =     0.00000000    0.00000000    0.00000000
     atom    5 type  2   force =     0.00000000    0.00000000    0.00000000
     atom    6 type  2   force =     0.00000000    0.00000000    0.00000000

     Total force =     0.000000     Total SCF correction =     0.000000


     entering subroutine stress ...

          total   stress  (Ry/bohr**3)                   (kbar)     P=  402.33
   0.00231859   0.00000000   0.00000000        341.08      0.00      0.00
   0.00000000   0.00231859   0.00000000          0.00    341.08      0.00
   0.00000000   0.00000000   0.00356768          0.00      0.00    524.82


     Writing output data file Prototype-La-hP6-CaCu5.save
 
     init_run     :     14.20s CPU     17.99s WALL (       2 calls)
     electrons    :   3462.74s CPU   3959.51s WALL (       5 calls)
     update_pot   :      1.42s CPU      1.47s WALL (       3 calls)
     forces       :      9.32s CPU      9.79s WALL (       5 calls)
     stress       :     23.78s CPU     24.69s WALL (       5 calls)

     Called by init_run:
     wfcinit      :     13.64s CPU     17.41s WALL (       2 calls)
     potinit      :      0.23s CPU      0.23s WALL (       2 calls)

     Called by electrons:
     c_bands      :   3359.30s CPU   3830.27s WALL (      39 calls)
     sum_band     :    103.11s CPU    127.01s WALL (      39 calls)
     v_of_rho     :      0.07s CPU      0.09s WALL (      44 calls)
     mix_rho      :      0.05s CPU      0.07s WALL (      39 calls)

     Called by c_bands:
     init_us_2    :      4.73s CPU      6.23s WALL (    9900 calls)
     ccgdiagg     :   3061.78s CPU   3427.32s WALL (    5124 calls)
     wfcrot       :    305.36s CPU    409.65s WALL (    5234 calls)

     Called by *cgdiagg:
     h_psi        :   2360.44s CPU   2696.49s WALL ( 2210919 calls)
     cdiaghg      :     15.98s CPU     17.99s WALL (    5234 calls)

     Called by h_psi:
     add_vuspsi   :    192.61s CPU    210.41s WALL ( 2210919 calls)

     General routines
     calbec       :    734.69s CPU    786.88s WALL ( 4417704 calls)
     fft          :      0.08s CPU      0.09s WALL (     199 calls)
     fftw         :   1605.81s CPU   1859.75s WALL ( 5592010 calls)
     davcio       :      4.53s CPU      9.73s WALL (   14190 calls)
 
     Parallel routines
     fft_scatter  :    915.93s CPU   1071.10s WALL ( 5592209 calls)
 
     PWSCF        :     0h58m CPU        1h 6m WALL

 
   This run was terminated on:  13:11:22  22Mar2018            

=------------------------------------------------------------------------------=
   JOB DONE.
=------------------------------------------------------------------------------=
