
     Program PWSCF v.5.0.2 starts on 22Mar2018 at 12: 7:48 

     This program is part of the open-source Quantum ESPRESSO suite
     for quantum simulation of materials; please cite
         "P. Giannozzi et al., J. Phys.:Condens. Matter 21 395502 (2009);
          URL http://www.quantum-espresso.org", 
     in publications or presentations arising from this work. More details at
     http://www.quantum-espresso.org/quote.php

     Parallel version (MPI), running on     4 processors
     R & G space division:  proc/nbgrp/npool/nimage =       4

     Current dimensions of program PWSCF are:
     Max number of different atomic species (ntypx) = 10
     Max number of k-points (npk) =  40000
     Max angular momentum in pseudopotentials (lmaxx) =  3
     Waiting for input...
     Reading input from standard input

     Subspace diagonalization in iterative solution of the eigenvalue problem:
     a serial algorithm will be used

 
     Parallelization info
     --------------------
     sticks:   dense  smooth     PW     G-vecs:    dense   smooth      PW
     Min         356     356    106                 9670     9670    1578
     Max         358     358    108                 9671     9671    1579
     Sum        1429    1429    427                38681    38681    6313
 


     bravais-lattice index     =            0
     lattice parameter (alat)  =      13.3930  a.u.
     unit-cell volume          =    1134.0956 (a.u.)^3
     number of atoms/cell      =            4
     number of atomic types    =            2
     number of electrons       =        92.00
     number of Kohn-Sham states=           55
     kinetic-energy cutoff     =      40.0000  Ry
     charge density cutoff     =     160.0000  Ry
     convergence threshold     =      1.0E-04
     mixing beta               =       0.7000
     number of iterations used =            8  plain     mixing
     Exchange-correlation      = SLA-PZ-NOGX-NOGC ( 1 1 0 0 0)
     EXX-fraction              =        0.00
     nstep                     =           50


     celldm(1)=  13.392972  celldm(2)=   0.000000  celldm(3)=   0.000000
     celldm(4)=   0.000000  celldm(5)=   0.000000  celldm(6)=   0.000000

     crystal axes: (cart. coord. in units of alat)
               a(1) = (   1.000000   0.000000   0.000000 )  
               a(2) = (  -0.776311   0.630350   0.000000 )  
               a(3) = (   0.000000   0.000000   0.748922 )  

     reciprocal axes: (cart. coord. in units 2 pi/alat)
               b(1) = (  1.000000  1.231554  0.000000 )  
               b(2) = (  0.000000  1.586419  0.000000 )  
               b(3) = (  0.000000  0.000000  1.335252 )  


     PseudoPot. # 1 for Yb read from file:
     /home/jld5415/pp.La/Yb.UPF
     MD5 check sum: 3e859b81cc28c53ec6aa3a2e888efcdf
     Pseudo is Norm-conserving, Zval = 24.0
     Generated in analytical, separable form
     Using radial grid of 1269 points,  6 beta functions with: 
                l(1) =   0
                l(2) =   0
                l(3) =   1
                l(4) =   1
                l(5) =   2
                l(6) =   3

     PseudoPot. # 2 for Er read from file:
     /home/jld5415/pp.La/Er.UPF
     MD5 check sum: e152ae21b84514339d8526f066caf99b
     Pseudo is Norm-conserving, Zval = 22.0
     Generated in analytical, separable form
     Using radial grid of 1267 points,  6 beta functions with: 
                l(1) =   0
                l(2) =   0
                l(3) =   1
                l(4) =   1
                l(5) =   2
                l(6) =   3

     atomic species   valence    mass     pseudopotential
        Tl            24.00   204.38300     Yb( 1.00)
        I             22.00   126.90400     Er( 1.00)

      2 Sym. Ops., with inversion, found
          (note:  2 additional sym.ops. were found but ignored
           their fractional translations are incommensurate with FFT grid)


   Cartesian axes

     site n.     atom                  positions (alat units)
         1           Tl  tau(   1) = (  -0.0906317   0.3870269   0.5616917  )
         2           Tl  tau(   2) = (   0.3143210   0.2433234   0.1872306  )
         3           I   tau(   3) = (  -0.5408004   0.5467760   0.5616917  )
         4           I   tau(   4) = (   0.7644896   0.0835744   0.1872306  )

     number of k points=   106  gaussian smearing, width (Ry)=  0.1000

     Number of k-points >= 100: set verbosity='high' to print them.

     Dense  grid:    38681 G-vectors     FFT dimensions: (  54,  54,  45)

     Largest allocated arrays     est. size (Mb)     dimensions
        Kohn-Sham Wavefunctions         1.03 Mb     (   1230,   55)
        NL pseudopotentials             1.50 Mb     (   1230,   80)
        Each V/rho on FFT grid          0.53 Mb     (  34992)
        Each G-vector array             0.07 Mb     (   9671)
        G-vector shells                 0.07 Mb     (   9671)
     Largest temporary arrays     est. size (Mb)     dimensions
        Each subspace H/S matrix        0.05 Mb     (  55,  55)
        Each <psi_i|beta_j> matrix      0.07 Mb     (     80,   55)
        Arrays for rho mixing           4.27 Mb     (  34992,   8)

     Initial potential from superposition of free atoms

     Starting from uniform charge
     Starting wfc are    0 randomized atomic wfcs

     total cpu time spent up to now is       10.1 secs

     Self-consistent Calculation

     iteration #  1     ecut=    40.00 Ry     beta=0.70
     CG style diagonalization
     ethr =  1.00E-02,  avg # of iterations = 22.1

     total cpu time spent up to now is      279.5 secs

     total energy              =   -1275.92943479 Ry
     Harris-Foulkes estimate   =   -2098.94625108 Ry
     estimated scf accuracy    <    1015.53845748 Ry

     iteration #  2     ecut=    40.00 Ry     beta=0.70
     CG style diagonalization
     c_bands:  2 eigenvalues not converged
     c_bands:  2 eigenvalues not converged
     c_bands:  1 eigenvalues not converged
     c_bands:  1 eigenvalues not converged
     c_bands:  2 eigenvalues not converged
     c_bands:  1 eigenvalues not converged
     c_bands:  2 eigenvalues not converged
     c_bands:  1 eigenvalues not converged
     c_bands:  1 eigenvalues not converged
     c_bands:  1 eigenvalues not converged
     c_bands:  2 eigenvalues not converged
     c_bands:  1 eigenvalues not converged
     c_bands:  1 eigenvalues not converged
     c_bands:  2 eigenvalues not converged
     c_bands:  1 eigenvalues not converged
     c_bands:  1 eigenvalues not converged
     c_bands:  1 eigenvalues not converged
     c_bands:  1 eigenvalues not converged
     c_bands:  1 eigenvalues not converged
     c_bands:  2 eigenvalues not converged
     c_bands:  1 eigenvalues not converged
     c_bands:  2 eigenvalues not converged
     c_bands:  1 eigenvalues not converged
     c_bands:  1 eigenvalues not converged
     c_bands:  1 eigenvalues not converged
     c_bands:  1 eigenvalues not converged
     c_bands:  1 eigenvalues not converged
     c_bands:  1 eigenvalues not converged
     c_bands:  2 eigenvalues not converged
     c_bands:  1 eigenvalues not converged
     c_bands:  1 eigenvalues not converged
     c_bands:  1 eigenvalues not converged
     c_bands:  1 eigenvalues not converged
     c_bands:  1 eigenvalues not converged
     c_bands:  1 eigenvalues not converged
     c_bands:  1 eigenvalues not converged
     c_bands:  1 eigenvalues not converged
     c_bands:  2 eigenvalues not converged
     c_bands:  2 eigenvalues not converged
     c_bands:  1 eigenvalues not converged
     c_bands:  1 eigenvalues not converged
     c_bands:  1 eigenvalues not converged
     c_bands:  1 eigenvalues not converged
     c_bands:  1 eigenvalues not converged
     c_bands:  1 eigenvalues not converged
     c_bands:  2 eigenvalues not converged
     c_bands:  1 eigenvalues not converged
     c_bands:  1 eigenvalues not converged
     c_bands:  1 eigenvalues not converged
     c_bands:  1 eigenvalues not converged
     c_bands:  1 eigenvalues not converged
     c_bands:  1 eigenvalues not converged
     c_bands:  1 eigenvalues not converged
     c_bands:  2 eigenvalues not converged
     c_bands:  1 eigenvalues not converged
     c_bands:  1 eigenvalues not converged
     c_bands:  2 eigenvalues not converged
     c_bands:  1 eigenvalues not converged
     c_bands:  1 eigenvalues not converged
     ethr =  1.00E-02,  avg # of iterations =  9.9

     total cpu time spent up to now is      400.8 secs

     total energy              =   -1266.83032080 Ry
     Harris-Foulkes estimate   =   -1554.01159762 Ry
     estimated scf accuracy    <     431.40111676 Ry

     iteration #  3     ecut=    40.00 Ry     beta=0.70
     CG style diagonalization
     c_bands:  1 eigenvalues not converged
     c_bands:  1 eigenvalues not converged
     c_bands:  1 eigenvalues not converged
     c_bands:  1 eigenvalues not converged
     c_bands:  1 eigenvalues not converged
     c_bands:  1 eigenvalues not converged
     c_bands:  1 eigenvalues not converged
     c_bands:  1 eigenvalues not converged
     c_bands:  1 eigenvalues not converged
     c_bands:  1 eigenvalues not converged
     c_bands:  1 eigenvalues not converged
     c_bands:  1 eigenvalues not converged
     c_bands:  1 eigenvalues not converged
     c_bands:  1 eigenvalues not converged
     c_bands:  1 eigenvalues not converged
     ethr =  1.00E-02,  avg # of iterations = 11.4

     total cpu time spent up to now is      539.5 secs

     total energy              =   -1396.82164893 Ry
     Harris-Foulkes estimate   =   -1604.05122531 Ry
     estimated scf accuracy    <     569.35848674 Ry

     iteration #  4     ecut=    40.00 Ry     beta=0.70
     CG style diagonalization
     ethr =  1.00E-02,  avg # of iterations =  7.2

     total cpu time spent up to now is      628.6 secs

     total energy              =   -1477.85505400 Ry
     Harris-Foulkes estimate   =   -1479.16515154 Ry
     estimated scf accuracy    <       2.33618342 Ry

     iteration #  5     ecut=    40.00 Ry     beta=0.70
     CG style diagonalization
     ethr =  2.54E-03,  avg # of iterations =  3.6

     total cpu time spent up to now is      672.2 secs

     total energy              =   -1478.17108906 Ry
     Harris-Foulkes estimate   =   -1478.37827367 Ry
     estimated scf accuracy    <       0.34645272 Ry

     iteration #  6     ecut=    40.00 Ry     beta=0.70
     CG style diagonalization
     ethr =  3.77E-04,  avg # of iterations =  4.2

     total cpu time spent up to now is      724.1 secs

     total energy              =   -1478.26317951 Ry
     Harris-Foulkes estimate   =   -1478.38238388 Ry
     estimated scf accuracy    <       0.27574742 Ry

     iteration #  7     ecut=    40.00 Ry     beta=0.70
     CG style diagonalization
     ethr =  3.00E-04,  avg # of iterations =  3.4

     total cpu time spent up to now is      766.5 secs

     total energy              =   -1478.31079661 Ry
     Harris-Foulkes estimate   =   -1478.31488248 Ry
     estimated scf accuracy    <       0.00982594 Ry

     iteration #  8     ecut=    40.00 Ry     beta=0.70
     CG style diagonalization
     c_bands:  1 eigenvalues not converged
     c_bands:  1 eigenvalues not converged
     c_bands:  1 eigenvalues not converged
     c_bands:  1 eigenvalues not converged
     ethr =  1.07E-05,  avg # of iterations =  4.3

     total cpu time spent up to now is      817.0 secs

     total energy              =   -1478.31360378 Ry
     Harris-Foulkes estimate   =   -1478.31430658 Ry
     estimated scf accuracy    <       0.00203026 Ry

     iteration #  9     ecut=    40.00 Ry     beta=0.70
     CG style diagonalization
     c_bands:  1 eigenvalues not converged
     ethr =  2.21E-06,  avg # of iterations =  3.4

     total cpu time spent up to now is      859.4 secs

     total energy              =   -1478.31369957 Ry
     Harris-Foulkes estimate   =   -1478.31388308 Ry
     estimated scf accuracy    <       0.00037281 Ry

     iteration # 10     ecut=    40.00 Ry     beta=0.70
     CG style diagonalization
     ethr =  4.05E-07,  avg # of iterations =  3.7

     total cpu time spent up to now is      903.4 secs

     End of self-consistent calculation

     Number of k-points >= 100: set verbosity='high' to print the bands.

     the Fermi energy is    12.0199 ev

!    total energy              =   -1478.31375834 Ry
     Harris-Foulkes estimate   =   -1478.31379834 Ry
     estimated scf accuracy    <       0.00004563 Ry

     The total energy is the sum of the following terms:

     one-electron contribution =    -855.71403856 Ry
     hartree contribution      =     416.27744014 Ry
     xc contribution           =    -117.37013673 Ry
     ewald contribution        =    -921.36584542 Ry
     smearing contrib. (-TS)   =      -0.14117777 Ry

     convergence has been achieved in  10 iterations

     Forces acting on atoms (Ry/au):

     atom    1 type  1   force =    -0.04637246    0.01594193   -0.00355802
     atom    2 type  1   force =     0.04637246   -0.01594193    0.00355802
     atom    3 type  2   force =     0.01077461   -0.00427272   -0.00304972
     atom    4 type  2   force =    -0.01077461    0.00427272    0.00304972

     Total force =     0.071566     Total SCF correction =     0.000000


     entering subroutine stress ...

          total   stress  (Ry/bohr**3)                   (kbar)     P= -498.15
  -0.00337326  -0.00001135  -0.00000001       -496.22     -1.67      0.00
  -0.00001135  -0.00340064   0.00000001         -1.67   -500.25      0.00
  -0.00000001   0.00000001  -0.00338514          0.00      0.00   -497.97


     BFGS Geometry Optimization

     number of scf cycles    =   1
     number of bfgs steps    =   0

     enthalpy new            =   -1478.3137583354 Ry

     new trust radius        =       0.5000000000 bohr
     new conv_thr            =       0.0001000000 Ry

     new unit-cell volume =    900.72005 a.u.^3 (   133.47294 Ang^3 )

CELL_PARAMETERS (alat= 13.39297219)
   0.926361917  -0.000247711  -0.000000173
  -0.719300860   0.583748196   0.000000248
  -0.000000130   0.000000135   0.693578791

ATOMIC_POSITIONS (crystal)
Tl       0.384269660   0.615635900   0.749690253
Tl       0.615730340   0.384364100   0.250309747
I        0.132943406   0.866974066   0.749734504
I        0.867056594   0.133025934   0.250265496



     Writing output data file Prototype-La-oS8-TlI.save
     NEW-OLD atomic charge density approx. for the potential
     NEW k-points: (use verbosity='high' to print them)

     total cpu time spent up to now is      911.1 secs

     Self-consistent Calculation

     iteration #  1     ecut=    40.00 Ry     beta=0.70
     CG style diagonalization
     c_bands:  5 eigenvalues not converged
     c_bands:  1 eigenvalues not converged
     c_bands:  1 eigenvalues not converged
     c_bands:  1 eigenvalues not converged
     c_bands:  1 eigenvalues not converged
     c_bands:  1 eigenvalues not converged
     c_bands:  1 eigenvalues not converged
     ethr =  1.00E-06,  avg # of iterations = 21.3

     total cpu time spent up to now is     1145.3 secs

     total energy              =   -1467.03320610 Ry
     Harris-Foulkes estimate   =   -1489.99997906 Ry
     estimated scf accuracy    <      27.80697609 Ry

     iteration #  2     ecut=    40.00 Ry     beta=0.70
     CG style diagonalization
     ethr =  1.00E-02,  avg # of iterations =  5.2

     total cpu time spent up to now is     1203.9 secs

     total energy              =   -1474.14553979 Ry
     Harris-Foulkes estimate   =   -1484.48655200 Ry
     estimated scf accuracy    <      17.61527049 Ry

     iteration #  3     ecut=    40.00 Ry     beta=0.70
     CG style diagonalization
     ethr =  1.00E-02,  avg # of iterations =  4.0

     total cpu time spent up to now is     1245.4 secs

     total energy              =   -1478.20114704 Ry
     Harris-Foulkes estimate   =   -1479.72842035 Ry
     estimated scf accuracy    <       3.29445089 Ry

     iteration #  4     ecut=    40.00 Ry     beta=0.70
     CG style diagonalization
     ethr =  3.58E-03,  avg # of iterations =  3.6

     total cpu time spent up to now is     1286.0 secs

     total energy              =   -1478.89385640 Ry
     Harris-Foulkes estimate   =   -1478.92438454 Ry
     estimated scf accuracy    <       0.04737389 Ry

     iteration #  5     ecut=    40.00 Ry     beta=0.70
     CG style diagonalization
     c_bands:  1 eigenvalues not converged
     c_bands:  1 eigenvalues not converged
     c_bands:  1 eigenvalues not converged
     c_bands:  1 eigenvalues not converged
     c_bands:  1 eigenvalues not converged
     c_bands:  1 eigenvalues not converged
     ethr =  5.15E-05,  avg # of iterations =  4.7

     total cpu time spent up to now is     1340.7 secs

     total energy              =   -1478.92352769 Ry
     Harris-Foulkes estimate   =   -1478.93121012 Ry
     estimated scf accuracy    <       0.01611367 Ry

     iteration #  6     ecut=    40.00 Ry     beta=0.70
     CG style diagonalization
     c_bands:  1 eigenvalues not converged
     c_bands:  1 eigenvalues not converged
     c_bands:  1 eigenvalues not converged
     ethr =  1.75E-05,  avg # of iterations =  3.6

     total cpu time spent up to now is     1383.1 secs

     total energy              =   -1478.92502021 Ry
     Harris-Foulkes estimate   =   -1478.92638266 Ry
     estimated scf accuracy    <       0.00300420 Ry

     iteration #  7     ecut=    40.00 Ry     beta=0.70
     CG style diagonalization
     c_bands:  1 eigenvalues not converged
     ethr =  3.27E-06,  avg # of iterations =  3.9

     total cpu time spent up to now is     1428.8 secs

     total energy              =   -1478.92528372 Ry
     Harris-Foulkes estimate   =   -1478.92563895 Ry
     estimated scf accuracy    <       0.00068929 Ry

     iteration #  8     ecut=    40.00 Ry     beta=0.70
     CG style diagonalization
     ethr =  7.49E-07,  avg # of iterations =  3.8

     total cpu time spent up to now is     1472.1 secs

     total energy              =   -1478.92542249 Ry
     Harris-Foulkes estimate   =   -1478.92548275 Ry
     estimated scf accuracy    <       0.00011855 Ry

     iteration #  9     ecut=    40.00 Ry     beta=0.70
     CG style diagonalization
     ethr =  1.29E-07,  avg # of iterations =  3.8

     total cpu time spent up to now is     1515.0 secs

     End of self-consistent calculation

     Number of k-points >= 100: set verbosity='high' to print the bands.

     the Fermi energy is    16.4566 ev

!    total energy              =   -1478.92545323 Ry
     Harris-Foulkes estimate   =   -1478.92545919 Ry
     estimated scf accuracy    <       0.00000714 Ry

     The total energy is the sum of the following terms:

     one-electron contribution =    -736.77347972 Ry
     hartree contribution      =     370.81901631 Ry
     xc contribution           =    -118.08085111 Ry
     ewald contribution        =    -994.77306364 Ry
     smearing contrib. (-TS)   =      -0.11707507 Ry

     convergence has been achieved in   9 iterations

     Forces acting on atoms (Ry/au):

     atom    1 type  1   force =     0.00616528   -0.00216231    0.00704861
     atom    2 type  1   force =    -0.00616528    0.00216231   -0.00704861
     atom    3 type  2   force =    -0.02143501    0.00759825    0.00548680
     atom    4 type  2   force =     0.02143501   -0.00759825   -0.00548680

     Total force =     0.035768     Total SCF correction =     0.000000


     entering subroutine stress ...

          total   stress  (Ry/bohr**3)                   (kbar)     P= -237.92
  -0.00160552  -0.00003557  -0.00000027       -236.18     -5.23     -0.04
  -0.00003557  -0.00169350   0.00000011         -5.23   -249.12      0.02
  -0.00000027   0.00000011  -0.00155299         -0.04      0.02   -228.45


     number of scf cycles    =   2
     number of bfgs steps    =   1

     enthalpy old            =   -1478.3137583354 Ry
     enthalpy new            =   -1478.9254532337 Ry

     CASE: enthalpy_new < enthalpy_old

     small trust_radius: resetting bfgs history

     new trust radius        =       0.2541820454 bohr
     new conv_thr            =       0.0000214350 Ry

     new unit-cell volume =    795.81717 a.u.^3 (   117.92794 Ang^3 )

CELL_PARAMETERS (alat= 13.39297219)
   0.889179774  -0.001061026  -0.000006363
  -0.690948644   0.559673481   0.000006643
  -0.000004764   0.000002022   0.666650717

ATOMIC_POSITIONS (crystal)
Tl       0.384551927   0.615359443   0.750449059
Tl       0.615448073   0.384640557   0.249550941
I        0.131970037   0.867945529   0.750325176
I        0.868029963   0.132054471   0.249674824



     Writing output data file Prototype-La-oS8-TlI.save
     NEW-OLD atomic charge density approx. for the potential
     NEW k-points: (use verbosity='high' to print them)

     total cpu time spent up to now is     1522.5 secs

     Self-consistent Calculation

     iteration #  1     ecut=    40.00 Ry     beta=0.70
     CG style diagonalization
     c_bands:  2 eigenvalues not converged
     c_bands:  5 eigenvalues not converged
     c_bands:  3 eigenvalues not converged
     c_bands:  1 eigenvalues not converged
     c_bands:  1 eigenvalues not converged
     c_bands:  4 eigenvalues not converged
     c_bands:  1 eigenvalues not converged
     c_bands:  1 eigenvalues not converged
     c_bands:  1 eigenvalues not converged
     c_bands:  1 eigenvalues not converged
     c_bands:  1 eigenvalues not converged
     c_bands:  1 eigenvalues not converged
     ethr =  1.00E-06,  avg # of iterations = 18.9

     total cpu time spent up to now is     1734.1 secs

     total energy              =   -1475.71378183 Ry
     Harris-Foulkes estimate   =   -1482.16864110 Ry
     estimated scf accuracy    <       7.83565505 Ry

     iteration #  2     ecut=    40.00 Ry     beta=0.70
     CG style diagonalization
     ethr =  8.52E-03,  avg # of iterations =  4.3

     total cpu time spent up to now is     1785.8 secs

     total energy              =   -1477.34323439 Ry
     Harris-Foulkes estimate   =   -1480.65910521 Ry
     estimated scf accuracy    <       5.81129314 Ry

     iteration #  3     ecut=    40.00 Ry     beta=0.70
     CG style diagonalization
     ethr =  6.32E-03,  avg # of iterations =  3.7

     total cpu time spent up to now is     1828.8 secs

     total energy              =   -1478.78418134 Ry
     Harris-Foulkes estimate   =   -1479.28922666 Ry
     estimated scf accuracy    <       1.11814268 Ry

     iteration #  4     ecut=    40.00 Ry     beta=0.70
     CG style diagonalization
     ethr =  1.22E-03,  avg # of iterations =  3.6

     total cpu time spent up to now is     1872.5 secs

     total energy              =   -1479.01779102 Ry
     Harris-Foulkes estimate   =   -1479.02309459 Ry
     estimated scf accuracy    <       0.00768136 Ry

     iteration #  5     ecut=    40.00 Ry     beta=0.70
     CG style diagonalization
     c_bands:  1 eigenvalues not converged
     c_bands:  1 eigenvalues not converged
     c_bands:  2 eigenvalues not converged
     c_bands:  1 eigenvalues not converged
     c_bands:  1 eigenvalues not converged
     c_bands:  2 eigenvalues not converged
     c_bands:  1 eigenvalues not converged
     ethr =  8.35E-06,  avg # of iterations =  4.9

     total cpu time spent up to now is     1931.2 secs

     total energy              =   -1479.02300240 Ry
     Harris-Foulkes estimate   =   -1479.02433937 Ry
     estimated scf accuracy    <       0.00226228 Ry

     iteration #  6     ecut=    40.00 Ry     beta=0.70
     CG style diagonalization
     c_bands:  1 eigenvalues not converged
     ethr =  2.46E-06,  avg # of iterations =  3.8

     total cpu time spent up to now is     1975.9 secs

     total energy              =   -1479.02357988 Ry
     Harris-Foulkes estimate   =   -1479.02383396 Ry
     estimated scf accuracy    <       0.00047592 Ry

     iteration #  7     ecut=    40.00 Ry     beta=0.70
     CG style diagonalization
     c_bands:  1 eigenvalues not converged
     ethr =  5.17E-07,  avg # of iterations =  3.7

     total cpu time spent up to now is     2017.4 secs

     End of self-consistent calculation

     Number of k-points >= 100: set verbosity='high' to print the bands.

     the Fermi energy is    19.2943 ev

!    total energy              =   -1479.02370808 Ry
     Harris-Foulkes estimate   =   -1479.02372360 Ry
     estimated scf accuracy    <       0.00001821 Ry

     The total energy is the sum of the following terms:

     one-electron contribution =    -669.66413838 Ry
     hartree contribution      =     346.14253741 Ry
     xc contribution           =    -118.53959505 Ry
     ewald contribution        =   -1036.85154417 Ry
     smearing contrib. (-TS)   =      -0.11096789 Ry

     convergence has been achieved in   7 iterations

     Forces acting on atoms (Ry/au):

     atom    1 type  1   force =     0.03210561   -0.01111374   -0.00658713
     atom    2 type  1   force =    -0.03210561    0.01111374    0.00658713
     atom    3 type  2   force =    -0.05556934    0.02015795   -0.00353461
     atom    4 type  2   force =     0.05556934   -0.02015795    0.00353461

     Total force =     0.097000     Total SCF correction =     0.000000


     entering subroutine stress ...

          total   stress  (Ry/bohr**3)                   (kbar)     P=  -26.53
  -0.00020776  -0.00003569   0.00000282        -30.56     -5.25      0.42
  -0.00003569  -0.00029765  -0.00000103         -5.25    -43.79     -0.15
   0.00000282  -0.00000103  -0.00003556          0.42     -0.15     -5.23


     number of scf cycles    =   3
     number of bfgs steps    =   2

     enthalpy old            =   -1478.9254532337 Ry
     enthalpy new            =   -1479.0237080765 Ry

     CASE: enthalpy_new < enthalpy_old

     Message from routine bfgs:
     history already reset at previous step: stopping
     small trust_radius: resetting bfgs history

     new trust radius        =       0.0592181430 bohr
     new conv_thr            =       0.0000555693 Ry

     new unit-cell volume =    785.09352 a.u.^3 (   116.33886 Ang^3 )

CELL_PARAMETERS (alat= 13.39297219)
   0.884562424  -0.001846584   0.000056441
  -0.687859357   0.556125377  -0.000056553
   0.000042321  -0.000015156   0.666058111

ATOMIC_POSITIONS (crystal)
Tl       0.386098030   0.613879693   0.749711319
Tl       0.613901970   0.386120307   0.250288681
I        0.129389710   0.870629910   0.749929242
I        0.870610290   0.129370090   0.250070758



     Writing output data file Prototype-La-oS8-TlI.save
     NEW-OLD atomic charge density approx. for the potential
     NEW k-points: (use verbosity='high' to print them)

     total cpu time spent up to now is     2025.0 secs

     Self-consistent Calculation

     iteration #  1     ecut=    40.00 Ry     beta=0.70
     CG style diagonalization
     c_bands:  1 eigenvalues not converged
     c_bands:  2 eigenvalues not converged
     c_bands:  1 eigenvalues not converged
     c_bands:  1 eigenvalues not converged
     c_bands:  1 eigenvalues not converged
     c_bands:  2 eigenvalues not converged
     c_bands:  1 eigenvalues not converged
     c_bands:  1 eigenvalues not converged
     c_bands:  1 eigenvalues not converged
     c_bands:  1 eigenvalues not converged
     c_bands:  1 eigenvalues not converged
     c_bands:  1 eigenvalues not converged
     c_bands:  2 eigenvalues not converged
     c_bands:  1 eigenvalues not converged
     c_bands:  1 eigenvalues not converged
     c_bands:  1 eigenvalues not converged
     ethr =  1.00E-06,  avg # of iterations = 19.4

     total cpu time spent up to now is     2244.5 secs

     total energy              =   -1471.74807535 Ry
     Harris-Foulkes estimate   =   -1481.74319689 Ry
     estimated scf accuracy    <      11.73827133 Ry

     iteration #  2     ecut=    40.00 Ry     beta=0.70
     CG style diagonalization
     ethr =  1.00E-02,  avg # of iterations =  5.2

     total cpu time spent up to now is     2309.6 secs

     total energy              =   -1471.10333529 Ry
     Harris-Foulkes estimate   =   -1488.96053038 Ry
     estimated scf accuracy    <      46.47224807 Ry

     iteration #  3     ecut=    40.00 Ry     beta=0.70
     CG style diagonalization
     ethr =  1.00E-02,  avg # of iterations =  4.3

     total cpu time spent up to now is     2361.0 secs

     total energy              =   -1478.82748155 Ry
     Harris-Foulkes estimate   =   -1478.92685854 Ry
     estimated scf accuracy    <       0.20515216 Ry

     iteration #  4     ecut=    40.00 Ry     beta=0.70
     CG style diagonalization
     c_bands:  1 eigenvalues not converged
     c_bands:  1 eigenvalues not converged
     c_bands:  1 eigenvalues not converged
     c_bands:  1 eigenvalues not converged
     ethr =  2.23E-04,  avg # of iterations =  5.3

     total cpu time spent up to now is     2425.8 secs

     total energy              =   -1479.02614404 Ry
     Harris-Foulkes estimate   =   -1479.03209857 Ry
     estimated scf accuracy    <       0.01300672 Ry

     iteration #  5     ecut=    40.00 Ry     beta=0.70
     CG style diagonalization
     c_bands:  1 eigenvalues not converged
     c_bands:  1 eigenvalues not converged
     c_bands:  1 eigenvalues not converged
     c_bands:  1 eigenvalues not converged
     c_bands:  1 eigenvalues not converged
     c_bands:  2 eigenvalues not converged
     c_bands:  1 eigenvalues not converged
     c_bands:  1 eigenvalues not converged
     c_bands:  1 eigenvalues not converged
     c_bands:  1 eigenvalues not converged
     c_bands:  1 eigenvalues not converged
     c_bands:  1 eigenvalues not converged
     c_bands:  1 eigenvalues not converged
     c_bands:  1 eigenvalues not converged
     c_bands:  1 eigenvalues not converged
     c_bands:  1 eigenvalues not converged
     c_bands:  1 eigenvalues not converged
     c_bands:  1 eigenvalues not converged
     c_bands:  1 eigenvalues not converged
     c_bands:  1 eigenvalues not converged
     c_bands:  1 eigenvalues not converged
     ethr =  1.41E-05,  avg # of iterations =  4.8

     total cpu time spent up to now is     2482.8 secs

     total energy              =   -1479.03020010 Ry
     Harris-Foulkes estimate   =   -1479.03265107 Ry
     estimated scf accuracy    <       0.00510840 Ry

     iteration #  6     ecut=    40.00 Ry     beta=0.70
     CG style diagonalization
     c_bands:  1 eigenvalues not converged
     c_bands:  1 eigenvalues not converged
     c_bands:  1 eigenvalues not converged
     c_bands:  1 eigenvalues not converged
     ethr =  5.55E-06,  avg # of iterations =  3.7

     total cpu time spent up to now is     2524.7 secs

     total energy              =   -1479.03118910 Ry
     Harris-Foulkes estimate   =   -1479.03152779 Ry
     estimated scf accuracy    <       0.00062911 Ry

     iteration #  7     ecut=    40.00 Ry     beta=0.70
     CG style diagonalization
     c_bands:  1 eigenvalues not converged
     c_bands:  1 eigenvalues not converged
     c_bands:  1 eigenvalues not converged
     c_bands:  1 eigenvalues not converged
     ethr =  6.84E-07,  avg # of iterations =  4.2

     total cpu time spent up to now is     2573.7 secs

     total energy              =   -1479.03141894 Ry
     Harris-Foulkes estimate   =   -1479.03148028 Ry
     estimated scf accuracy    <       0.00012771 Ry

     iteration #  8     ecut=    40.00 Ry     beta=0.70
     CG style diagonalization
     ethr =  1.39E-07,  avg # of iterations =  3.8

     total cpu time spent up to now is     2618.8 secs

     End of self-consistent calculation

     Number of k-points >= 100: set verbosity='high' to print the bands.

     the Fermi energy is    19.6148 ev

!    total energy              =   -1479.03143806 Ry
     Harris-Foulkes estimate   =   -1479.03145770 Ry
     estimated scf accuracy    <       0.00002332 Ry

     The total energy is the sum of the following terms:

     one-electron contribution =    -662.15832161 Ry
     hartree contribution      =     343.46916312 Ry
     xc contribution           =    -118.59015694 Ry
     ewald contribution        =   -1041.63990592 Ry
     smearing contrib. (-TS)   =      -0.11221672 Ry

     convergence has been achieved in   8 iterations

     Forces acting on atoms (Ry/au):

     atom    1 type  1   force =    -0.02243281    0.00772048   -0.00955958
     atom    2 type  1   force =     0.02243281   -0.00772048    0.00955958
     atom    3 type  2   force =    -0.00490081    0.00147196   -0.00840838
     atom    4 type  2   force =     0.00490081   -0.00147196    0.00840838

     Total force =     0.038758     Total SCF correction =     0.000000


     entering subroutine stress ...

          total   stress  (Ry/bohr**3)                   (kbar)     P=    1.93
  -0.00009018   0.00001340  -0.00000150        -13.27      1.97     -0.22
   0.00001340  -0.00005792   0.00000058          1.97     -8.52      0.08
  -0.00000150   0.00000058   0.00018744         -0.22      0.08     27.57


     The maximum number of steps has been reached.

     End of BFGS Geometry Optimization
Begin final coordinates
     new unit-cell volume =    785.09352 a.u.^3 (   116.33886 Ang^3 )

CELL_PARAMETERS (alat= 13.39297219)
   0.884562424  -0.001846584   0.000056441
  -0.687859357   0.556125377  -0.000056553
   0.000042321  -0.000015156   0.666058111

ATOMIC_POSITIONS (crystal)
Tl       0.386098030   0.613879693   0.749711319
Tl       0.613901970   0.386120307   0.250288681
I        0.129389710   0.870629910   0.749929242
I        0.870610290   0.129370090   0.250070758
End final coordinates



     A final scf calculation at the relaxed structure.
     The G-vectors are recalculated for the final unit cell
     Results may differ from those at the preceding step.
 
     Parallelization info
     --------------------
     sticks:   dense  smooth     PW     G-vecs:    dense   smooth      PW
     Min         277     277     86                 6683     6683    1129
     Max         280     280     87                 6685     6685    1130
     Sum        1111    1111    345                26737    26737    4519
 


     bravais-lattice index     =            0
     lattice parameter (alat)  =      13.3930  a.u.
     unit-cell volume          =     785.0935 (a.u.)^3
     number of atoms/cell      =            4
     number of atomic types    =            2
     number of electrons       =        92.00
     number of Kohn-Sham states=           55
     kinetic-energy cutoff     =      40.0000  Ry
     charge density cutoff     =     160.0000  Ry
     convergence threshold     =      5.6E-05
     mixing beta               =       0.7000
     number of iterations used =            8  plain     mixing
     Exchange-correlation      = SLA-PZ-NOGX-NOGC ( 1 1 0 0 0)
     EXX-fraction              =        0.00

     celldm(1)=  13.392972  celldm(2)=   0.000000  celldm(3)=   0.000000
     celldm(4)=   0.000000  celldm(5)=   0.000000  celldm(6)=   0.000000

     crystal axes: (cart. coord. in units of alat)
               a(1) = (   0.884562  -0.001847   0.000056 )  
               a(2) = (  -0.687859   0.556125  -0.000057 )  
               a(3) = (   0.000042  -0.000015   0.666058 )  

     reciprocal axes: (cart. coord. in units 2 pi/alat)
               b(1) = (  1.133429  1.401914 -0.000040 )  
               b(2) = (  0.003763  1.802811  0.000041 )  
               b(3) = ( -0.000096  0.000034  1.501371 )  


     PseudoPot. # 1 for Yb read from file:
     /home/jld5415/pp.La/Yb.UPF
     MD5 check sum: 3e859b81cc28c53ec6aa3a2e888efcdf
     Pseudo is Norm-conserving, Zval = 24.0
     Generated in analytical, separable form
     Using radial grid of 1269 points,  6 beta functions with: 
                l(1) =   0
                l(2) =   0
                l(3) =   1
                l(4) =   1
                l(5) =   2
                l(6) =   3

     PseudoPot. # 2 for Er read from file:
     /home/jld5415/pp.La/Er.UPF
     MD5 check sum: e152ae21b84514339d8526f066caf99b
     Pseudo is Norm-conserving, Zval = 22.0
     Generated in analytical, separable form
     Using radial grid of 1267 points,  6 beta functions with: 
                l(1) =   0
                l(2) =   0
                l(3) =   1
                l(4) =   1
                l(5) =   2
                l(6) =   3

     atomic species   valence    mass     pseudopotential
        Tl            24.00   204.38300     Yb( 1.00)
        I             22.00   126.90400     Er( 1.00)

      2 Sym. Ops., with inversion, found
          (note:  2 additional sym.ops. were found but ignored
           their fractional translations are incommensurate with FFT grid)


   Cartesian axes

     site n.     atom                  positions (alat units)
         1           Tl  tau(   1) = (  -0.0807034   0.3406698   0.4993384  )
         2           Tl  tau(   2) = (   0.2774487   0.2135939   0.1667196  )
         3           I   tau(   3) = (  -0.4843859   0.4839291   0.4994545  )
         4           I   tau(   4) = (   0.6811313   0.0703345   0.1666035  )

     number of k points=   106  gaussian smearing, width (Ry)=  0.1000

     Number of k-points >= 100: set verbosity='high' to print them.

     Dense  grid:    26737 G-vectors     FFT dimensions: (  48,  48,  36)

     Largest allocated arrays     est. size (Mb)     dimensions
        Kohn-Sham Wavefunctions         0.72 Mb     (    852,   55)
        NL pseudopotentials             1.04 Mb     (    852,   80)
        Each V/rho on FFT grid          0.32 Mb     (  20736)
        Each G-vector array             0.05 Mb     (   6685)
        G-vector shells                 0.05 Mb     (   6362)
     Largest temporary arrays     est. size (Mb)     dimensions
        Each subspace H/S matrix        0.05 Mb     (  55,  55)
        Each <psi_i|beta_j> matrix      0.07 Mb     (     80,   55)
        Arrays for rho mixing           2.53 Mb     (  20736,   8)

     Initial potential from superposition of free atoms

     Starting from uniform charge
     Starting wfc are    0 randomized atomic wfcs

     Writing output data file Prototype-La-oS8-TlI.save

     total cpu time spent up to now is     2631.6 secs

     Self-consistent Calculation

     iteration #  1     ecut=    40.00 Ry     beta=0.70
     CG style diagonalization
     c_bands:  3 eigenvalues not converged
     c_bands:  3 eigenvalues not converged
     c_bands:  3 eigenvalues not converged
     c_bands:  2 eigenvalues not converged
     c_bands:  3 eigenvalues not converged
     c_bands:  3 eigenvalues not converged
     c_bands:  3 eigenvalues not converged
     c_bands:  4 eigenvalues not converged
     c_bands:  3 eigenvalues not converged
     c_bands:  4 eigenvalues not converged
     c_bands:  5 eigenvalues not converged
     c_bands:  3 eigenvalues not converged
     c_bands:  3 eigenvalues not converged
     c_bands:  3 eigenvalues not converged
     c_bands:  4 eigenvalues not converged
     c_bands:  3 eigenvalues not converged
     c_bands:  3 eigenvalues not converged
     c_bands:  3 eigenvalues not converged
     c_bands:  3 eigenvalues not converged
     c_bands:  3 eigenvalues not converged
     c_bands:  5 eigenvalues not converged
     c_bands:  3 eigenvalues not converged
     c_bands:  2 eigenvalues not converged
     c_bands:  3 eigenvalues not converged
     c_bands:  3 eigenvalues not converged
     c_bands:  3 eigenvalues not converged
     c_bands:  3 eigenvalues not converged
     c_bands:  3 eigenvalues not converged
     c_bands:  5 eigenvalues not converged
     c_bands:  3 eigenvalues not converged
     c_bands:  2 eigenvalues not converged
     c_bands:  3 eigenvalues not converged
     c_bands:  3 eigenvalues not converged
     c_bands:  3 eigenvalues not converged
     c_bands:  5 eigenvalues not converged
     c_bands:  2 eigenvalues not converged
     c_bands:  3 eigenvalues not converged
     c_bands:  3 eigenvalues not converged
     c_bands:  3 eigenvalues not converged
     c_bands:  3 eigenvalues not converged
     c_bands:  4 eigenvalues not converged
     c_bands:  3 eigenvalues not converged
     c_bands:  4 eigenvalues not converged
     c_bands:  3 eigenvalues not converged
     c_bands:  3 eigenvalues not converged
     c_bands:  3 eigenvalues not converged
     c_bands:  4 eigenvalues not converged
     c_bands:  3 eigenvalues not converged
     c_bands:  3 eigenvalues not converged
     c_bands:  3 eigenvalues not converged
     c_bands:  3 eigenvalues not converged
     c_bands:  4 eigenvalues not converged
     c_bands:  3 eigenvalues not converged
     c_bands:  3 eigenvalues not converged
     c_bands:  5 eigenvalues not converged
     c_bands:  3 eigenvalues not converged
     c_bands:  3 eigenvalues not converged
     c_bands:  2 eigenvalues not converged
     c_bands:  2 eigenvalues not converged
     c_bands:  2 eigenvalues not converged
     c_bands:  3 eigenvalues not converged
     c_bands:  3 eigenvalues not converged
     c_bands:  3 eigenvalues not converged
     c_bands:  3 eigenvalues not converged
     c_bands:  4 eigenvalues not converged
     c_bands:  3 eigenvalues not converged
     c_bands:  3 eigenvalues not converged
     c_bands:  5 eigenvalues not converged
     c_bands:  3 eigenvalues not converged
     c_bands:  3 eigenvalues not converged
     c_bands:  3 eigenvalues not converged
     c_bands:  3 eigenvalues not converged
     c_bands:  2 eigenvalues not converged
     c_bands:  3 eigenvalues not converged
     c_bands:  3 eigenvalues not converged
     c_bands:  2 eigenvalues not converged
     c_bands:  3 eigenvalues not converged
     c_bands:  3 eigenvalues not converged
     c_bands:  3 eigenvalues not converged
     c_bands:  2 eigenvalues not converged
     c_bands:  3 eigenvalues not converged
     c_bands:  3 eigenvalues not converged
     c_bands:  5 eigenvalues not converged
     c_bands:  3 eigenvalues not converged
     c_bands:  3 eigenvalues not converged
     c_bands:  3 eigenvalues not converged
     c_bands:  3 eigenvalues not converged
     c_bands:  3 eigenvalues not converged
     c_bands:  3 eigenvalues not converged
     c_bands:  3 eigenvalues not converged
     c_bands:  3 eigenvalues not converged
     c_bands:  3 eigenvalues not converged
     c_bands:  5 eigenvalues not converged
     c_bands:  3 eigenvalues not converged
     c_bands:  3 eigenvalues not converged
     c_bands:  4 eigenvalues not converged
     c_bands:  3 eigenvalues not converged
     c_bands:  3 eigenvalues not converged
     c_bands:  3 eigenvalues not converged
     c_bands:  2 eigenvalues not converged
     c_bands:  3 eigenvalues not converged
     c_bands:  5 eigenvalues not converged
     c_bands:  2 eigenvalues not converged
     c_bands:  3 eigenvalues not converged
     c_bands:  3 eigenvalues not converged
     c_bands:  3 eigenvalues not converged
     ethr =  1.00E-06,  avg # of iterations = 52.2

     total cpu time spent up to now is     2951.8 secs

     total energy              =   -1276.97498764 Ry
     Harris-Foulkes estimate   =   -2004.70626831 Ry
     estimated scf accuracy    <     899.35483160 Ry

     iteration #  2     ecut=    40.00 Ry     beta=0.70
     CG style diagonalization
     c_bands:  1 eigenvalues not converged
     c_bands:  1 eigenvalues not converged
     c_bands:  1 eigenvalues not converged
     c_bands:  1 eigenvalues not converged
     c_bands:  1 eigenvalues not converged
     c_bands:  1 eigenvalues not converged
     c_bands:  1 eigenvalues not converged
     c_bands:  1 eigenvalues not converged
     c_bands:  1 eigenvalues not converged
     c_bands:  1 eigenvalues not converged
     c_bands:  1 eigenvalues not converged
     c_bands:  1 eigenvalues not converged
     c_bands:  1 eigenvalues not converged
     c_bands:  1 eigenvalues not converged
     c_bands:  1 eigenvalues not converged
     c_bands:  1 eigenvalues not converged
     ethr =  1.00E-02,  avg # of iterations =  9.2

     total cpu time spent up to now is     3011.3 secs

     total energy              =   -1332.74132263 Ry
     Harris-Foulkes estimate   =   -1541.94926368 Ry
     estimated scf accuracy    <     308.00386242 Ry

     iteration #  3     ecut=    40.00 Ry     beta=0.70
     CG style diagonalization
     ethr =  1.00E-02,  avg # of iterations =  9.7

     total cpu time spent up to now is     3075.8 secs

     total energy              =   -1412.71151935 Ry
     Harris-Foulkes estimate   =   -1547.21281017 Ry
     estimated scf accuracy    <     360.61990710 Ry

     iteration #  4     ecut=    40.00 Ry     beta=0.70
     CG style diagonalization
     ethr =  1.00E-02,  avg # of iterations =  7.3

     total cpu time spent up to now is     3124.2 secs

     total energy              =   -1477.69938422 Ry
     Harris-Foulkes estimate   =   -1478.45095473 Ry
     estimated scf accuracy    <       1.14774571 Ry

     iteration #  5     ecut=    40.00 Ry     beta=0.70
     CG style diagonalization
     ethr =  1.25E-03,  avg # of iterations =  4.2

     total cpu time spent up to now is     3151.1 secs

     total energy              =   -1477.75814990 Ry
     Harris-Foulkes estimate   =   -1478.39582296 Ry
     estimated scf accuracy    <       1.34087036 Ry

     iteration #  6     ecut=    40.00 Ry     beta=0.70
     CG style diagonalization
     ethr =  1.25E-03,  avg # of iterations =  3.7

     total cpu time spent up to now is     3174.9 secs

     total energy              =   -1478.06111917 Ry
     Harris-Foulkes estimate   =   -1478.10526933 Ry
     estimated scf accuracy    <       0.10487297 Ry

     iteration #  7     ecut=    40.00 Ry     beta=0.70
     CG style diagonalization
     ethr =  1.14E-04,  avg # of iterations =  3.8

     total cpu time spent up to now is     3200.4 secs

     total energy              =   -1478.08336273 Ry
     Harris-Foulkes estimate   =   -1478.08577851 Ry
     estimated scf accuracy    <       0.00627133 Ry

     iteration #  8     ecut=    40.00 Ry     beta=0.70
     CG style diagonalization
     c_bands:  1 eigenvalues not converged
     c_bands:  1 eigenvalues not converged
     c_bands:  1 eigenvalues not converged
     c_bands:  1 eigenvalues not converged
     c_bands:  1 eigenvalues not converged
     ethr =  6.82E-06,  avg # of iterations =  4.1

     total cpu time spent up to now is     3227.6 secs

     total energy              =   -1478.08421293 Ry
     Harris-Foulkes estimate   =   -1478.08494417 Ry
     estimated scf accuracy    <       0.00160079 Ry

     iteration #  9     ecut=    40.00 Ry     beta=0.70
     CG style diagonalization
     ethr =  1.74E-06,  avg # of iterations =  3.4

     total cpu time spent up to now is     3280.7 secs

     total energy              =   -1478.08429184 Ry
     Harris-Foulkes estimate   =   -1478.08440716 Ry
     estimated scf accuracy    <       0.00020667 Ry

     iteration # 10     ecut=    40.00 Ry     beta=0.70
     CG style diagonalization
     ethr =  2.25E-07,  avg # of iterations =  3.5

     total cpu time spent up to now is     3407.3 secs

     End of self-consistent calculation

     Number of k-points >= 100: set verbosity='high' to print the bands.

     the Fermi energy is    19.6747 ev

!    total energy              =   -1478.08433591 Ry
     Harris-Foulkes estimate   =   -1478.08434547 Ry
     estimated scf accuracy    <       0.00001146 Ry

     The total energy is the sum of the following terms:

     one-electron contribution =    -660.64255501 Ry
     hartree contribution      =     342.75722674 Ry
     xc contribution           =    -118.44841938 Ry
     ewald contribution        =   -1041.63990594 Ry
     smearing contrib. (-TS)   =      -0.11068232 Ry

     convergence has been achieved in  10 iterations

     Forces acting on atoms (Ry/au):

     atom    1 type  1   force =     0.03153706   -0.01276493    0.00687592
     atom    2 type  1   force =    -0.03153706    0.01276493   -0.00687592
     atom    3 type  2   force =    -0.03598911    0.01185055    0.00489257
     atom    4 type  2   force =     0.03598911   -0.01185055   -0.00489257

     Total force =     0.072999     Total SCF correction =     0.000000


     entering subroutine stress ...

          total   stress  (Ry/bohr**3)                   (kbar)     P= -433.29
  -0.00304200  -0.00001129  -0.00000094       -447.49     -1.66     -0.14
  -0.00001129  -0.00306700   0.00000045         -1.66   -451.17      0.07
  -0.00000094   0.00000045  -0.00272730         -0.14      0.07   -401.20


     Writing output data file Prototype-La-oS8-TlI.save
 
     init_run     :     12.00s CPU     15.62s WALL (       2 calls)
     electrons    :   2612.09s CPU   3361.64s WALL (       5 calls)
     update_pot   :      2.61s CPU      2.65s WALL (       3 calls)
     forces       :      8.12s CPU      9.90s WALL (       5 calls)
     stress       :     22.69s CPU     27.65s WALL (       5 calls)

     Called by init_run:
     wfcinit      :     10.91s CPU     14.49s WALL (       2 calls)
     potinit      :      0.57s CPU      0.58s WALL (       2 calls)

     Called by electrons:
     c_bands      :   2484.98s CPU   3171.12s WALL (      44 calls)
     sum_band     :    126.57s CPU    173.11s WALL (      44 calls)
     v_of_rho     :      0.12s CPU      0.16s WALL (      49 calls)
     mix_rho      :      0.08s CPU      0.11s WALL (      44 calls)

     Called by c_bands:
     init_us_2    :      6.51s CPU      9.55s WALL (   10600 calls)
     ccgdiagg     :   2173.59s CPU   2749.08s WALL (    5324 calls)
     wfcrot       :    315.64s CPU    423.47s WALL (    5430 calls)

     Called by *cgdiagg:
     h_psi        :   1954.45s CPU   2563.60s WALL ( 1577464 calls)
     cdiaghg      :      9.42s CPU     10.39s WALL (    5430 calls)

     Called by h_psi:
     add_vuspsi   :     97.96s CPU    137.64s WALL ( 1577464 calls)

     General routines
     calbec       :    335.78s CPU    365.38s WALL ( 3150558 calls)
     fft          :      0.31s CPU      0.44s WALL (     219 calls)
     fftw         :   1630.16s CPU   2121.15s WALL ( 3997888 calls)
     davcio       :      4.78s CPU     10.82s WALL (   15264 calls)
 
     Parallel routines
     fft_scatter  :    646.87s CPU    866.20s WALL ( 3998107 calls)
 
     PWSCF        : 44m19.50s CPU    57m 1.49s WALL

 
   This run was terminated on:  13: 4:49  22Mar2018            

=------------------------------------------------------------------------------=
   JOB DONE.
=------------------------------------------------------------------------------=
