
     Program PWSCF v.5.0.2 starts on 22Mar2018 at 10:12:22 

     This program is part of the open-source Quantum ESPRESSO suite
     for quantum simulation of materials; please cite
         "P. Giannozzi et al., J. Phys.:Condens. Matter 21 395502 (2009);
          URL http://www.quantum-espresso.org", 
     in publications or presentations arising from this work. More details at
     http://www.quantum-espresso.org/quote.php

     Parallel version (MPI), running on     4 processors
     R & G space division:  proc/nbgrp/npool/nimage =       4

     Current dimensions of program PWSCF are:
     Max number of different atomic species (ntypx) = 10
     Max number of k-points (npk) =  40000
     Max angular momentum in pseudopotentials (lmaxx) =  3
     Waiting for input...
     Reading input from standard input

     Subspace diagonalization in iterative solution of the eigenvalue problem:
     a serial algorithm will be used

 
     Parallelization info
     --------------------
     sticks:   dense  smooth     PW     G-vecs:    dense   smooth      PW
     Min         207     207     61                 7381     7381    1191
     Max         208     208     62                 7386     7386    1192
     Sum         829     829    247                29529    29529    4767
 


     bravais-lattice index     =            0
     lattice parameter (alat)  =       7.0151  a.u.
     unit-cell volume          =     862.2778 (a.u.)^3
     number of atoms/cell      =           12
     number of atomic types    =            2
     number of electrons       =       276.00
     number of Kohn-Sham states=          166
     kinetic-energy cutoff     =      40.0000  Ry
     charge density cutoff     =     160.0000  Ry
     convergence threshold     =      1.0E-04
     mixing beta               =       0.7000
     number of iterations used =            8  plain     mixing
     Exchange-correlation      = SLA-PZ-NOGX-NOGC ( 1 1 0 0 0)
     EXX-fraction              =        0.00
     nstep                     =           50


     celldm(1)=   7.015105  celldm(2)=   0.000000  celldm(3)=   0.000000
     celldm(4)=   0.000000  celldm(5)=   0.000000  celldm(6)=   0.000000

     crystal axes: (cart. coord. in units of alat)
               a(1) = (   1.000000   0.000000   0.000000 )  
               a(2) = (   0.000000   1.315963   0.000000 )  
               a(3) = (   0.000000   0.000000   1.898020 )  

     reciprocal axes: (cart. coord. in units 2 pi/alat)
               b(1) = (  1.000000  0.000000  0.000000 )  
               b(2) = (  0.000000  0.759900  0.000000 )  
               b(3) = (  0.000000  0.000000  0.526865 )  


     PseudoPot. # 1 for Lu read from file:
     /home/cwx6513/pp.La/La.UPF
     MD5 check sum: 4fc038260c66a0bf25fb4835376efb80
     Pseudo is Norm-conserving, Zval = 25.0
     Generated in analytical, separable form
     Using radial grid of 1271 points,  6 beta functions with: 
                l(1) =   0
                l(2) =   0
                l(3) =   1
                l(4) =   1
                l(5) =   2
                l(6) =   3

     PseudoPot. # 2 for Tb read from file:
     /home/cwx6513/pp.La/Tb.UPF
     MD5 check sum: 3d6088a3f0cf7fd2e110c43f7f8e95c2
     Pseudo is Norm-conserving, Zval = 19.0
     Generated in analytical, separable form
     Using radial grid of 1263 points,  6 beta functions with: 
                l(1) =   0
                l(2) =   0
                l(3) =   1
                l(4) =   1
                l(5) =   2
                l(6) =   3

     atomic species   valence    mass     pseudopotential
        Co            25.00    58.93320     Lu( 1.00)
        Si            19.00    28.08550     Tb( 1.00)

      8 Sym. Ops., with inversion, found ( 6 have fractional translation)



   Cartesian axes

     site n.     atom                  positions (alat units)
         1           Co  tau(   1) = (   0.7500000   1.0875135   0.8270358  )
         2           Co  tau(   2) = (   0.2500000   0.2284499   1.0709846  )
         3           Co  tau(   3) = (   0.7500000   0.4295318   0.1219744  )
         4           Co  tau(   4) = (   0.2500000   0.8864316   1.7760460  )
         5           Co  tau(   5) = (   0.2500000   0.7067855   0.5358966  )
         6           Co  tau(   6) = (   0.7500000   0.6091779   1.3621238  )
         7           Co  tau(   7) = (   0.2500000   0.0488038   0.4131136  )
         8           Co  tau(   8) = (   0.7500000   1.2671596   1.4849068  )
         9           Si  tau(   9) = (   0.2500000   0.2669484   1.6960710  )
        10           Si  tau(  10) = (   0.7500000   1.0490149   0.2019494  )
        11           Si  tau(  11) = (   0.2500000   0.9249301   1.1509596  )
        12           Si  tau(  12) = (   0.7500000   0.3910333   0.7470608  )

     number of k points=    12  gaussian smearing, width (Ry)=  0.1000
                       cart. coord. in units 2pi/alat
        k(    1) = (   0.0000000   0.0000000   0.0000000), wk =   0.0833333
        k(    2) = (   0.0000000   0.0000000   0.1317162), wk =   0.1666667
        k(    3) = (   0.0000000   0.0000000  -0.2634324), wk =   0.0833333
        k(    4) = (   0.0000000   0.2532999   0.0000000), wk =   0.1666667
        k(    5) = (   0.0000000   0.2532999   0.1317162), wk =   0.3333333
        k(    6) = (   0.0000000   0.2532999  -0.2634324), wk =   0.1666667
        k(    7) = (  -0.5000000   0.0000000   0.0000000), wk =   0.0833333
        k(    8) = (  -0.5000000   0.0000000   0.1317162), wk =   0.1666667
        k(    9) = (  -0.5000000   0.0000000  -0.2634324), wk =   0.0833333
        k(   10) = (  -0.5000000   0.2532999   0.0000000), wk =   0.1666667
        k(   11) = (  -0.5000000   0.2532999   0.1317162), wk =   0.3333333
        k(   12) = (  -0.5000000   0.2532999  -0.2634324), wk =   0.1666667

     Dense  grid:    29529 G-vectors     FFT dimensions: (  30,  40,  54)

     Largest allocated arrays     est. size (Mb)     dimensions
        Kohn-Sham Wavefunctions         2.34 Mb     (    922,  166)
        NL pseudopotentials             3.38 Mb     (    922,  240)
        Each V/rho on FFT grid          0.26 Mb     (  16800)
        Each G-vector array             0.06 Mb     (   7386)
        G-vector shells                 0.06 Mb     (   7386)
     Largest temporary arrays     est. size (Mb)     dimensions
        Each subspace H/S matrix        0.42 Mb     ( 166, 166)
        Each <psi_i|beta_j> matrix      0.61 Mb     (    240,  166)
        Arrays for rho mixing           2.05 Mb     (  16800,   8)

     Initial potential from superposition of free atoms

     Starting from uniform charge
     Starting wfc are    0 randomized atomic wfcs

     total cpu time spent up to now is        3.2 secs

     Self-consistent Calculation

     iteration #  1     ecut=    40.00 Ry     beta=0.70
     CG style diagonalization
     c_bands:  5 eigenvalues not converged
     ethr =  1.00E-02,  avg # of iterations = 17.8

     total cpu time spent up to now is      103.4 secs

     total energy              =   -3677.39690073 Ry
     Harris-Foulkes estimate   =   -5354.43526453 Ry
     estimated scf accuracy    <    2065.10576495 Ry

     iteration #  2     ecut=    40.00 Ry     beta=0.70
     CG style diagonalization
     c_bands:  4 eigenvalues not converged
     c_bands:  2 eigenvalues not converged
     c_bands:  2 eigenvalues not converged
     c_bands:  4 eigenvalues not converged
     ethr =  1.00E-02,  avg # of iterations = 13.7

     total cpu time spent up to now is      176.6 secs

     total energy              =   -4000.48305186 Ry
     Harris-Foulkes estimate   =   -5004.78912060 Ry
     estimated scf accuracy    <    1768.13651871 Ry

     iteration #  3     ecut=    40.00 Ry     beta=0.70
     CG style diagonalization
     c_bands:  1 eigenvalues not converged
     c_bands:  1 eigenvalues not converged
     ethr =  1.00E-02,  avg # of iterations = 10.3

     total cpu time spent up to now is      229.3 secs

     total energy              =   -4478.47724315 Ry
     Harris-Foulkes estimate   =   -4589.90473686 Ry
     estimated scf accuracy    <     223.07594348 Ry

     iteration #  4     ecut=    40.00 Ry     beta=0.70
     CG style diagonalization
     ethr =  1.00E-02,  avg # of iterations =  5.2

     total cpu time spent up to now is      254.5 secs

     total energy              =   -4520.43803721 Ry
     Harris-Foulkes estimate   =   -4527.87628773 Ry
     estimated scf accuracy    <      15.67799950 Ry

     iteration #  5     ecut=    40.00 Ry     beta=0.70
     CG style diagonalization
     ethr =  5.68E-03,  avg # of iterations =  3.6

     total cpu time spent up to now is      270.8 secs

     total energy              =   -4523.54356679 Ry
     Harris-Foulkes estimate   =   -4524.02710250 Ry
     estimated scf accuracy    <       0.97657737 Ry

     iteration #  6     ecut=    40.00 Ry     beta=0.70
     CG style diagonalization
     c_bands:  1 eigenvalues not converged
     c_bands:  1 eigenvalues not converged
     c_bands:  1 eigenvalues not converged
     ethr =  3.54E-04,  avg # of iterations =  4.5

     total cpu time spent up to now is      293.6 secs

     total energy              =   -4523.78264782 Ry
     Harris-Foulkes estimate   =   -4523.87040902 Ry
     estimated scf accuracy    <       0.16444769 Ry

     iteration #  7     ecut=    40.00 Ry     beta=0.70
     CG style diagonalization
     c_bands:  1 eigenvalues not converged
     ethr =  5.96E-05,  avg # of iterations =  4.2

     total cpu time spent up to now is      314.0 secs

     total energy              =   -4523.81921425 Ry
     Harris-Foulkes estimate   =   -4523.83740240 Ry
     estimated scf accuracy    <       0.02928339 Ry

     iteration #  8     ecut=    40.00 Ry     beta=0.70
     CG style diagonalization
     c_bands:  1 eigenvalues not converged
     ethr =  1.06E-05,  avg # of iterations =  4.0

     total cpu time spent up to now is      333.1 secs

     total energy              =   -4523.82632959 Ry
     Harris-Foulkes estimate   =   -4523.82703812 Ry
     estimated scf accuracy    <       0.00119237 Ry

     iteration #  9     ecut=    40.00 Ry     beta=0.70
     CG style diagonalization
     c_bands:  2 eigenvalues not converged
     c_bands:  1 eigenvalues not converged
     c_bands:  1 eigenvalues not converged
     ethr =  4.32E-07,  avg # of iterations =  4.4

     total cpu time spent up to now is      353.8 secs

     total energy              =   -4523.82681102 Ry
     Harris-Foulkes estimate   =   -4523.82688465 Ry
     estimated scf accuracy    <       0.00013651 Ry

     iteration # 10     ecut=    40.00 Ry     beta=0.70
     CG style diagonalization
     c_bands:  1 eigenvalues not converged
     ethr =  4.95E-08,  avg # of iterations =  3.8

     total cpu time spent up to now is      370.9 secs

     End of self-consistent calculation

          k = 0.0000 0.0000 0.0000 (  3675 PWs)   bands (ev):

   -79.4570 -79.4489 -79.4176 -79.3679 -79.1656 -79.0971 -79.0761 -79.0650
   -35.2913 -35.2840 -35.2735 -35.2562 -35.2417 -35.2160 -35.1756 -35.1622
   -35.1382 -35.1326 -35.0790 -35.0565 -34.9974 -34.9806 -34.8854 -34.8819
   -34.8752 -34.8719 -34.8200 -34.8135 -34.8010 -34.7448 -34.6571 -34.6438
   -22.9013 -22.8621 -22.8609 -22.8598   7.4192   7.5936   7.5946   7.6182
     7.6183   7.6277   7.6943   7.7035   8.0592   8.1970   8.2295   8.4136
    22.7129  22.7572  22.7792  22.8160  22.8479  23.0791  23.1148  23.1440
    23.4933  23.5322  23.5884  23.7661  23.7956  24.0465  24.0712  24.3567
    24.4550  24.5159  24.5244  24.5286  24.5950  24.6722  24.7076  24.7852
    24.9268  24.9909  25.0585  25.1564  25.2869  25.3493  25.4720  25.4902
    25.5664  25.5767  26.0504  26.1135  26.3099  26.3310  26.3346  26.4945
    30.6858  34.9107  34.9295  35.7079  39.2311  39.2661  39.4570  40.6246
    40.7469  41.3023  41.4794  41.9226  42.7227  43.0368  43.0731  43.3343
    43.5372  44.2718  44.3430  44.7322  45.1910  45.3352  45.6968  45.7806
    46.2799  47.2317  47.2590  48.2609  48.7472  49.7606  49.9243  52.5586
    52.5955  53.1834  53.8545  54.0942  54.1769  54.7797  54.8467  55.0392
    55.2761  56.2660  56.2788  56.3677  56.6694  56.7543  57.1720  57.1778
    57.3401  58.1138  58.1952  58.4525  58.5271  59.0561  59.1093  59.3403
    59.4965  59.9381  60.0174  60.8280  61.6770  61.9060  62.0846  62.4034
    62.6869  62.9834  63.0581  63.2732  63.5563  63.6552  63.8010  65.3375
    65.3996  65.4482  65.5697  65.7342  65.7565  66.0905

          k = 0.0000 0.0000 0.1317 (  3675 PWs)   bands (ev):

   -79.4830 -79.4379 -79.3949 -79.3884 -79.1777 -79.1530 -79.0796 -78.9915
   -35.2872 -35.2854 -35.2688 -35.2505 -35.2483 -35.2236 -35.1681 -35.1632
   -35.1508 -35.1366 -35.0741 -35.0600 -34.9996 -34.9867 -34.8897 -34.8730
   -34.8723 -34.8647 -34.8189 -34.8035 -34.7911 -34.7590 -34.6597 -34.6459
   -22.8978 -22.8695 -22.8607 -22.8561   7.4433   7.5462   7.6108   7.6234
     7.6249   7.6264   7.7023   7.7035   8.0715   8.1413   8.2860   8.3875
    22.5748  22.7071  22.7929  22.8158  22.9821  23.0216  23.0311  23.2321
    23.5872  23.6098  23.6719  23.8454  23.8787  24.0727  24.0801  24.3379
    24.3976  24.4398  24.5803  24.5892  24.5937  24.6091  24.6719  24.6939
    24.9462  25.0134  25.0264  25.1426  25.2087  25.2524  25.3936  25.4663
    25.6612  25.7319  25.9882  26.0329  26.3456  26.3506  26.3578  26.4505
    30.9844  33.2732  35.9965  36.4059  38.2740  38.8430  40.1523  40.4231
    40.9593  41.1922  41.6805  42.1493  42.5002  42.5177  43.0446  43.2863
    43.2996  43.5466  45.0708  45.1910  45.3533  45.7013  46.0247  46.1151
    47.0833  47.4765  47.7460  48.1380  48.6985  49.5897  49.9728  51.4714
    52.2583  52.7884  52.8222  53.5424  54.0546  54.3250  54.6209  54.8769
    55.7539  55.9470  55.9767  56.1917  56.3047  56.4685  57.5616  57.6627
    58.3370  58.3838  58.4335  58.4974  58.6459  59.2403  59.3159  59.3213
    59.4193  60.0030  60.7886  60.9722  61.3761  61.4588  61.8019  61.9056
    62.1981  62.6335  63.5694  63.8816  63.9424  64.3664  64.9341  64.9664
    65.3702  65.5543  65.6510  65.8676  65.9270  66.1301

          k = 0.0000 0.0000-0.2634 (  3690 PWs)   bands (ev):

   -79.4867 -79.4867 -79.4137 -79.4137 -79.1687 -79.1687 -79.0611 -79.0611
   -35.2888 -35.2888 -35.2650 -35.2650 -35.2347 -35.2347 -35.1637 -35.1637
   -35.1469 -35.1469 -35.0802 -35.0802 -34.9977 -34.9977 -34.8823 -34.8823
   -34.8654 -34.8654 -34.8225 -34.8225 -34.7785 -34.7785 -34.6590 -34.6590
   -22.8863 -22.8863 -22.8597 -22.8597   7.4915   7.4915   7.6145   7.6145
     7.6351   7.6351   7.6917   7.6917   8.0876   8.0876   8.3355   8.3355
    22.5773  22.5773  22.7766  22.7766  22.9378  22.9378  23.3956  23.3956
    23.4972  23.4972  23.9071  23.9071  23.9706  23.9706  24.2375  24.2375
    24.3413  24.3413  24.5188  24.5188  24.5754  24.5754  24.7248  24.7248
    24.9821  24.9821  25.1444  25.1444  25.2250  25.2250  25.2747  25.2747
    25.8640  25.8640  25.8658  25.8658  26.3726  26.3726  26.3931  26.3931
    31.8711  31.8711  36.7571  36.7571  37.9877  37.9877  40.2795  40.2795
    41.5304  41.5304  41.6023  41.6023  42.7145  42.7145  42.7460  42.7460
    43.1376  43.1376  45.6298  45.6298  45.6513  45.6513  46.9554  46.9554
    47.0871  47.0871  48.5497  48.5497  49.3007  49.3007  49.7942  49.7942
    51.8290  51.8290  52.9780  52.9780  53.5343  53.5343  54.9922  54.9922
    55.3720  55.3720  55.6906  55.6906  56.9678  56.9678  57.8928  57.8928
    58.7035  58.7035  58.7728  58.7728  58.8361  58.8361  59.1206  59.1206
    60.3920  60.3920  60.5750  60.5750  60.9505  60.9506  61.5163  61.5164
    63.2943  63.2943  63.6925  63.6926  64.5811  64.5813  64.8532  64.8534
    65.3020  65.3021  65.6376  65.6378  65.8960  65.8962

          k = 0.0000 0.2533 0.0000 (  3664 PWs)   bands (ev):

   -79.4493 -79.4048 -79.4022 -79.3936 -79.1347 -79.0807 -79.0583 -79.0531
   -35.2892 -35.2798 -35.2526 -35.2421 -35.2410 -35.2263 -35.1688 -35.1494
   -35.1438 -35.1424 -35.0783 -35.0639 -34.9479 -34.9156 -34.8839 -34.8807
   -34.8702 -34.8542 -34.8417 -34.8323 -34.7674 -34.7483 -34.7043 -34.6988
   -22.8903 -22.8679 -22.8548 -22.8494   7.4494   7.5087   7.6253   7.6268
     7.6316   7.6516   7.6520   7.6688   8.0354   8.0816   8.2812   8.3488
    22.7360  22.9006  23.0065  23.0520  23.2342  23.2681  23.3414  23.3563
    23.4463  23.6074  23.7268  23.7607  23.8066  23.8918  24.1533  24.2476
    24.2671  24.3860  24.4171  24.5092  24.5584  24.7614  24.8320  24.9141
    24.9777  25.0174  25.0386  25.1087  25.1836  25.2305  25.5325  25.5523
    25.6560  25.6938  25.8781  25.9424  26.0420  26.3028  26.3237  26.4168
    31.7383  34.1837  35.3811  35.8435  37.8092  38.4726  39.6021  40.4709
    40.6680  40.7009  41.0429  41.4791  42.1742  42.8208  43.1563  43.2310
    43.7815  44.1011  44.5057  44.6821  44.7198  45.0428  45.1865  45.2134
    46.5792  47.0290  48.1700  48.4254  49.0597  50.7704  51.1159  51.7812
    52.2450  53.0657  53.3303  53.6662  54.1129  54.3629  54.9168  55.5308
    55.5877  55.8869  56.2078  56.7582  57.3365  57.4218  57.4578  57.7740
    58.2334  58.2449  58.3624  58.5983  59.3246  59.4457  59.8276  59.8688
    59.9156  60.2060  60.7877  60.8717  60.9443  61.2776  62.0249  62.0389
    62.3109  62.4055  62.5064  63.8041  64.7550  64.8411  64.8574  64.9919
    65.2501  65.5206  65.9164  66.0957  66.2834  66.9219

          k = 0.0000 0.2533 0.1317 (  3669 PWs)   bands (ev):

   -79.4670 -79.4438 -79.3853 -79.3713 -79.1424 -79.1320 -79.0553 -79.0468
   -35.2909 -35.2842 -35.2593 -35.2465 -35.2424 -35.2294 -35.1577 -35.1524
   -35.1491 -35.1439 -35.0766 -35.0669 -34.9495 -34.9176 -34.8833 -34.8731
   -34.8685 -34.8622 -34.8474 -34.8308 -34.7641 -34.7552 -34.7050 -34.6999
   -22.8862 -22.8662 -22.8590 -22.8552   7.4589   7.5082   7.6183   7.6252
     7.6351   7.6453   7.6515   7.6627   8.0398   8.0690   8.2837   8.3385
    22.7435  22.9280  22.9446  22.9496  23.1516  23.2622  23.3646  23.4333
    23.4785  23.7169  23.8022  23.8031  23.8705  23.9299  24.0905  24.1437
    24.4103  24.4444  24.4665  24.5174  24.6776  24.7366  24.7470  24.8249
    24.8875  24.9994  25.0084  25.1179  25.1719  25.2316  25.3830  25.5413
    25.6847  25.7100  25.8703  25.9136  26.0916  26.2916  26.3174  26.4027
    32.0160  34.0022  34.6421  36.3021  37.4168  38.8306  39.6594  40.4274
    40.6241  40.8165  41.0638  41.3385  42.1154  42.6601  42.9000  43.3291
    43.7979  44.1778  44.4106  44.5811  45.0924  45.2435  45.4846  45.7485
    46.9020  47.3730  48.1671  48.8661  49.2485  50.5245  51.0194  51.2898
    51.9505  52.0127  52.6025  52.8107  54.0716  54.5122  55.0714  55.4022
    55.6213  56.1069  56.3608  56.3869  57.1151  57.3416  57.7210  57.7645
    58.0823  58.3398  58.5643  59.2168  59.5159  59.6789  59.8465  60.0111
    60.2708  60.5472  60.5728  60.9369  61.0158  61.2931  61.9163  62.0213
    62.3773  62.4028  62.8019  63.5807  64.2636  64.6518  65.0127  65.2106
    65.2429  65.6423  65.7354  66.3474  66.3867  66.7198

          k = 0.0000 0.2533-0.2634 (  3666 PWs)   bands (ev):

   -79.4527 -79.4527 -79.3658 -79.3658 -79.1255 -79.1255 -79.0641 -79.0641
   -35.2860 -35.2860 -35.2502 -35.2502 -35.2357 -35.2357 -35.1526 -35.1526
   -35.1487 -35.1487 -35.0655 -35.0655 -34.9357 -34.9357 -34.8770 -34.8770
   -34.8680 -34.8680 -34.8378 -34.8378 -34.7591 -34.7591 -34.7018 -34.7018
   -22.8743 -22.8743 -22.8584 -22.8584   7.4859   7.4859   7.6269   7.6269
     7.6353   7.6353   7.6553   7.6553   8.0548   8.0548   8.3120   8.3120
    22.8309  22.8309  22.8690  22.8690  23.2656  23.2656  23.3407  23.3407
    23.6438  23.6438  23.8868  23.8868  23.9955  23.9955  24.1181  24.1181
    24.4745  24.4745  24.5139  24.5139  24.6149  24.6149  24.7491  24.7491
    24.9553  24.9553  25.0977  25.0977  25.0979  25.0979  25.4231  25.4231
    25.7752  25.7752  25.8096  25.8096  26.2074  26.2074  26.3627  26.3627
    32.8306  32.8306  35.3403  35.3403  38.2048  38.2048  40.0858  40.0858
    40.9522  40.9522  41.0880  41.0880  42.1317  42.1317  43.1337  43.1337
    44.0346  44.0346  44.4766  44.4766  45.4260  45.4260  45.9158  45.9158
    47.8100  47.8100  48.6144  48.6144  50.0717  50.0717  50.2497  50.2497
    51.3508  51.3508  53.0257  53.0257  53.4577  53.4577  55.1354  55.1354
    55.8914  55.8914  56.5790  56.5790  57.4789  57.4789  57.5327  57.5327
    57.9190  57.9190  59.2245  59.2245  59.9540  59.9540  59.9760  59.9760
    60.6630  60.6630  60.8049  60.8049  61.3936  61.3936  61.7920  61.7920
    62.8783  62.8783  62.9478  62.9479  63.7548  63.7550  65.5654  65.5654
    65.7232  65.7233  65.7856  65.7857  66.3532  66.3534

          k =-0.5000 0.0000 0.0000 (  3722 PWs)   bands (ev):

   -79.4947 -79.4947 -79.4734 -79.4734 -79.1802 -79.1802 -79.1567 -79.1567
   -35.2965 -35.2965 -35.2786 -35.2786 -35.2598 -35.2598 -35.2156 -35.2156
   -35.1142 -35.1142 -35.1046 -35.1046 -34.9957 -34.9957 -34.9034 -34.9034
   -34.8807 -34.8807 -34.8197 -34.8197 -34.7691 -34.7691 -34.6563 -34.6563
   -22.8705 -22.8705 -22.8694 -22.8694   7.4687   7.4687   7.5865   7.5865
     7.6833   7.6833   7.7360   7.7360   8.1790   8.1790   8.2529   8.2529
    23.0161  23.0161  23.1137  23.1137  23.1886  23.1886  23.4851  23.4851
    23.7981  23.7981  23.8478  23.8478  23.8659  23.8659  23.8816  23.8816
    24.1247  24.1247  24.3420  24.3420  24.3971  24.3971  24.6218  24.6218
    24.7439  24.7439  24.8099  24.8099  25.1103  25.1103  25.2680  25.2680
    25.3571  25.3571  25.8818  25.8818  26.2087  26.2087  26.4585  26.4585
    34.8266  34.8266  37.3917  37.3917  37.4637  37.4637  40.1615  40.1615
    40.7627  40.7627  41.5205  41.5205  42.4796  42.4796  42.8801  42.8801
    43.7155  43.7155  44.1897  44.1897  45.1567  45.1567  45.2773  45.2773
    45.7905  45.7905  45.8437  45.8437  50.0630  50.0630  50.8740  50.8740
    51.1923  51.1923  52.5671  52.5671  53.2031  53.2031  55.1381  55.1381
    56.0539  56.0539  56.6959  56.6959  57.5169  57.5169  58.1204  58.1204
    58.2978  58.2978  58.4690  58.4690  58.6452  58.6452  60.0716  60.0716
    60.8893  60.8893  61.5720  61.5720  62.7951  62.7951  62.8752  62.8753
    63.1616  63.1619  63.4741  63.4742  64.0788  64.0789  64.4613  64.4614
    64.7352  64.7353  65.3643  65.3646  65.9484  65.9507

          k =-0.5000 0.0000 0.1317 (  3710 PWs)   bands (ev):

   -79.4931 -79.4931 -79.4395 -79.4395 -79.1853 -79.1853 -79.1219 -79.1219
   -35.3008 -35.3008 -35.2622 -35.2622 -35.2518 -35.2518 -35.2157 -35.2157
   -35.1144 -35.1144 -35.1013 -35.1013 -34.9976 -34.9976 -34.8956 -34.8956
   -34.8806 -34.8806 -34.8169 -34.8169 -34.7638 -34.7638 -34.6579 -34.6579
   -22.8696 -22.8696 -22.8672 -22.8672   7.4745   7.4745   7.5988   7.5988
     7.6891   7.6891   7.7330   7.7330   8.1808   8.1808   8.2502   8.2502
    23.0087  23.0087  23.1188  23.1188  23.2536  23.2536  23.5052  23.5052
    23.7017  23.7017  23.7252  23.7252  23.9384  23.9384  23.9840  23.9840
    24.0966  24.0966  24.3298  24.3298  24.4570  24.4570  24.5891  24.5891
    24.6959  24.6959  24.9160  24.9160  25.1106  25.1106  25.2172  25.2172
    25.4387  25.4387  25.8447  25.8447  26.1716  26.1716  26.4481  26.4481
    34.9670  34.9670  36.3995  36.3995  38.0184  38.0184  40.0012  40.0012
    41.1123  41.1123  41.8015  41.8015  42.6348  42.6348  42.9721  42.9721
    43.4615  43.4615  44.0760  44.0760  44.7424  44.7424  45.6315  45.6315
    45.9206  45.9206  46.3307  46.3307  49.0284  49.0284  50.9128  50.9128
    51.8812  51.8812  52.7315  52.7315  53.2374  53.2374  54.4355  54.4355
    55.7895  55.7895  56.4417  56.4417  57.1387  57.1387  58.1334  58.1334
    58.5563  58.5563  59.0786  59.0786  59.4434  59.4434  59.6232  59.6232
    60.9333  60.9333  61.3825  61.3825  62.1540  62.1540  62.6831  62.6832
    63.1512  63.1513  63.8897  63.8898  64.1496  64.1498  64.3110  64.3111
    64.8575  64.8575  65.3081  65.3082  65.3938  65.3940

          k =-0.5000 0.0000-0.2634 (  3680 PWs)   bands (ev):

   -79.4405 -79.4405 -79.4176 -79.4176 -79.1406 -79.1406 -79.0879 -79.0879
   -35.2936 -35.2936 -35.2493 -35.2493 -35.2398 -35.2398 -35.2076 -35.2076
   -35.1045 -35.1045 -35.0979 -35.0979 -35.0058 -35.0058 -34.8830 -34.8830
   -34.8806 -34.8806 -34.8081 -34.8081 -34.7486 -34.7486 -34.6501 -34.6501
   -22.8652 -22.8652 -22.8645 -22.8645   7.4848   7.4848   7.6122   7.6122
     7.6969   7.6969   7.7407   7.7407   8.1885   8.1885   8.2501   8.2501
    23.0007  23.0007  23.1040  23.1040  23.4170  23.4170  23.5562  23.5562
    23.5585  23.5585  23.6159  23.6159  23.9805  23.9805  24.0052  24.0052
    24.0777  24.0777  24.3476  24.3476  24.4402  24.4402  24.6605  24.6605
    24.7795  24.7795  24.9654  24.9654  25.0374  25.0374  25.0987  25.0987
    25.5434  25.5434  25.8815  25.8815  26.0837  26.0837  26.4387  26.4387
    35.4288  35.4288  35.5248  35.5248  38.2653  38.2653  39.7275  39.7275
    41.4207  41.4207  41.9967  41.9967  42.6546  42.6546  43.2287  43.2287
    43.6787  43.6787  43.9900  43.9900  44.3027  44.3027  45.6018  45.6018
    46.0517  46.0517  47.5143  47.5143  47.5401  47.5401  51.0867  51.0867
    52.3134  52.3134  52.8506  52.8506  53.0381  53.0381  54.5477  54.5477
    55.1494  55.1494  55.7335  55.7335  57.3165  57.3165  58.4087  58.4087
    58.6566  58.6566  59.2975  59.2975  59.6877  59.6877  60.1952  60.1952
    60.3696  60.3696  61.6175  61.6176  62.1178  62.1178  62.2322  62.2323
    62.7390  62.7390  63.4681  63.4682  63.7455  63.7456  64.6140  64.6140
    64.8816  64.8817  65.2647  65.2648  66.5153  66.5153

          k =-0.5000 0.2533 0.0000 (  3686 PWs)   bands (ev):

   -79.4451 -79.4451 -79.4354 -79.4354 -79.1278 -79.1278 -79.1228 -79.1228
   -35.2834 -35.2834 -35.2723 -35.2723 -35.2404 -35.2404 -35.2209 -35.2209
   -35.0982 -35.0982 -35.0880 -35.0880 -34.9316 -34.9316 -34.8956 -34.8956
   -34.8878 -34.8878 -34.8299 -34.8299 -34.7448 -34.7448 -34.7010 -34.7010
   -22.8636 -22.8636 -22.8611 -22.8611   7.4913   7.4913   7.5504   7.5504
     7.7035   7.7035   7.7182   7.7182   8.1751   8.1751   8.2031   8.2031
    23.0273  23.0273  23.2792  23.2792  23.4350  23.4350  23.4933  23.4933
    23.7042  23.7042  23.8483  23.8483  24.1337  24.1337  24.1840  24.1840
    24.2130  24.2130  24.3904  24.3904  24.4623  24.4623  24.5922  24.5922
    24.8187  24.8187  24.8480  24.8480  25.0743  25.0743  25.2679  25.2679
    25.4909  25.4909  25.5704  25.5704  25.9697  25.9697  26.2313  26.2313
    35.3641  35.3641  36.8215  36.8215  38.0802  38.0802  38.8706  38.8706
    40.7920  40.7920  40.8221  40.8221  42.6041  42.6041  43.1771  43.1771
    43.4359  43.4359  44.0160  44.0160  44.3250  44.3250  44.6701  44.6701
    46.0508  46.0508  46.7788  46.7788  48.9909  48.9909  49.3185  49.3185
    52.2370  52.2370  53.8145  53.8145  54.7152  54.7152  55.0457  55.0457
    56.2486  56.2486  56.7931  56.7931  57.9504  57.9504  58.0465  58.0465
    58.9086  58.9086  59.4579  59.4579  60.1805  60.1805  60.3741  60.3741
    60.8720  60.8720  61.1857  61.1858  62.0283  62.0283  62.2239  62.2240
    62.8264  62.8265  63.3171  63.3171  63.8802  63.8803  64.4230  64.4230
    65.6113  65.6115  65.9099  65.9105  66.3740  66.3742

          k =-0.5000 0.2533 0.1317 (  3692 PWs)   bands (ev):

   -79.4527 -79.4527 -79.4405 -79.4405 -79.1415 -79.1415 -79.1251 -79.1251
   -35.2843 -35.2843 -35.2679 -35.2679 -35.2382 -35.2382 -35.2218 -35.2218
   -35.1032 -35.1032 -35.0934 -35.0934 -34.9358 -34.9358 -34.8924 -34.8924
   -34.8813 -34.8813 -34.8349 -34.8349 -34.7506 -34.7506 -34.7055 -34.7055
   -22.8652 -22.8652 -22.8612 -22.8612   7.4989   7.4989   7.5538   7.5538
     7.6971   7.6971   7.7109   7.7109   8.1661   8.1661   8.2028   8.2028
    23.0230  23.0230  23.3175  23.3175  23.4604  23.4604  23.4738  23.4738
    23.7037  23.7037  23.8377  23.8377  24.0101  24.0101  24.1834  24.1834
    24.2792  24.2792  24.4222  24.4222  24.4849  24.4849  24.6590  24.6590
    24.8087  24.8087  24.9139  24.9139  25.0489  25.0489  25.1943  25.1943
    25.4421  25.4421  25.6208  25.6208  25.9386  25.9386  26.2276  26.2276
    35.4314  35.4314  36.4550  36.4550  37.9839  37.9839  38.7935  38.7935
    41.0141  41.0141  41.4752  41.4752  42.3559  42.3559  43.0773  43.0773
    43.3905  43.3905  44.0511  44.0511  44.2493  44.2493  44.6630  44.6630
    46.2153  46.2153  47.0809  47.0809  48.5428  48.5428  49.6916  49.6916
    52.3286  52.3286  53.1929  53.1929  54.2234  54.2234  55.2995  55.2995
    56.0225  56.0225  57.3657  57.3657  57.9690  57.9690  58.2595  58.2595
    58.7760  58.7760  59.3301  59.3301  59.8421  59.8421  60.5835  60.5835
    61.0120  61.0121  61.3858  61.3859  61.6353  61.6354  62.0556  62.0556
    62.4561  62.4563  63.2356  63.2356  63.5864  63.5864  64.8441  64.8444
    65.6389  65.6391  65.8621  65.8623  66.4891  66.4894

          k =-0.5000 0.2533-0.2634 (  3704 PWs)   bands (ev):

   -79.4758 -79.4758 -79.4508 -79.4508 -79.1562 -79.1562 -79.1405 -79.1405
   -35.2893 -35.2893 -35.2613 -35.2613 -35.2398 -35.2398 -35.2277 -35.2277
   -35.1078 -35.1078 -35.1064 -35.1064 -34.9394 -34.9394 -34.8869 -34.8869
   -34.8856 -34.8856 -34.8393 -34.8393 -34.7508 -34.7508 -34.7105 -34.7105
   -22.8673 -22.8673 -22.8624 -22.8624   7.4970   7.4970   7.5577   7.5577
     7.6903   7.6903   7.7042   7.7042   8.1630   8.1630   8.1935   8.1935
    23.0191  23.0191  23.3798  23.3798  23.3880  23.3880  23.5793  23.5793
    23.6326  23.6326  23.8753  23.8753  23.9015  23.9015  24.1853  24.1853
    24.3405  24.3405  24.4235  24.4235  24.4766  24.4766  24.7856  24.7856
    24.8369  24.8369  24.9290  24.9290  24.9873  24.9873  25.1720  25.1720
    25.3107  25.3107  25.7559  25.7559  25.8612  25.8612  26.2194  26.2194
    35.6153  35.6153  35.9851  35.9851  38.0455  38.0455  38.5809  38.5809
    41.6039  41.6039  41.7819  41.7819  42.1226  42.1226  42.8403  42.8403
    43.6579  43.6579  43.8095  43.8095  44.3411  44.3411  44.6113  44.6113
    46.3083  46.3083  47.1975  47.1975  48.3159  48.3159  50.3914  50.3914
    51.6986  51.6986  53.1491  53.1491  53.6723  53.6723  55.0026  55.0026
    56.6730  56.6730  57.2292  57.2292  58.3317  58.3317  58.4710  58.4710
    58.7991  58.7991  59.1128  59.1128  59.6047  59.6047  60.2833  60.2833
    61.0850  61.0851  61.4411  61.4412  61.8196  61.8196  61.8489  61.8489
    62.1565  62.1565  62.8713  62.8715  63.8056  63.8057  64.8358  64.8361
    65.3061  65.3062  65.9294  65.9296  66.7066  66.7067

     the Fermi energy is    58.7066 ev

!    total energy              =   -4523.82683853 Ry
     Harris-Foulkes estimate   =   -4523.82685591 Ry
     estimated scf accuracy    <       0.00001873 Ry

     The total energy is the sum of the following terms:

     one-electron contribution =    -181.61116402 Ry
     hartree contribution      =     478.53132430 Ry
     xc contribution           =    -379.36886906 Ry
     ewald contribution        =   -4440.86769704 Ry
     smearing contrib. (-TS)   =      -0.51043272 Ry

     convergence has been achieved in  10 iterations

     Forces acting on atoms (Ry/au):

     atom    1 type  1   force =     0.00000000   -0.01879054   -0.06584507
     atom    2 type  1   force =     0.00000000    0.01879054    0.06584507
     atom    3 type  1   force =     0.00000000   -0.01879054    0.06584507
     atom    4 type  1   force =     0.00000000    0.01879054   -0.06584507
     atom    5 type  1   force =     0.00000000    0.06130247   -0.16648946
     atom    6 type  1   force =     0.00000000   -0.06130247    0.16648946
     atom    7 type  1   force =     0.00000000    0.06130247    0.16648946
     atom    8 type  1   force =     0.00000000   -0.06130247   -0.16648946
     atom    9 type  2   force =     0.00000000   -0.17572183    0.02842315
     atom   10 type  2   force =     0.00000000    0.17572183   -0.02842315
     atom   11 type  2   force =     0.00000000   -0.17572183   -0.02842315
     atom   12 type  2   force =     0.00000000    0.17572183    0.02842315

     Total force =     0.520966     Total SCF correction =     0.000000


     entering subroutine stress ...

          total   stress  (Ry/bohr**3)                   (kbar)     P= 7158.29
   0.05142191   0.00000000   0.00000000       7564.42      0.00      0.00
   0.00000000   0.04626393   0.00000000          0.00   6805.66      0.00
   0.00000000   0.00000000   0.04829741          0.00      0.00   7104.79


     BFGS Geometry Optimization

     number of scf cycles    =   1
     number of bfgs steps    =   0

     enthalpy new            =   -4523.8268385310 Ry

     new trust radius        =       0.5000000000 bohr
     new conv_thr            =       0.0001000000 Ry

     new unit-cell volume =   1087.91214 a.u.^3 (   161.21194 Ang^3 )

CELL_PARAMETERS (alat=  7.01510508)
   1.085136619   0.000000000   0.000000000
   0.000000000   1.416761969   0.000000000
   0.000000000   0.000000000   2.049792841

ATOMIC_POSITIONS (crystal)
Co       0.750000000   0.826266200   0.435408496
Co       0.250000000   0.173733800   0.564591504
Co       0.750000000   0.326266200   0.064591504
Co       0.250000000   0.673733800   0.935408496
Co       0.250000000   0.537525773   0.281516906
Co       0.750000000   0.462474227   0.718483094
Co       0.250000000   0.037525773   0.218483094
Co       0.750000000   0.962474227   0.781516906
Si       0.250000000   0.201593404   0.893741373
Si       0.750000000   0.798406596   0.106258627
Si       0.250000000   0.701593404   0.606258627
Si       0.750000000   0.298406596   0.393741373



     Writing output data file Prototype-La-oP12-Co2Si.save
     NEW-OLD atomic charge density approx. for the potential
     NEW k-points:
        k(    1) = (   0.0000000   0.0000000   0.0000000), wk =   0.0833333
        k(    2) = (   0.0000000   0.0000000   0.1219635), wk =   0.1666667
        k(    3) = (   0.0000000   0.0000000  -0.2439271), wk =   0.0833333
        k(    4) = (   0.0000000   0.2352783   0.0000000), wk =   0.1666667
        k(    5) = (   0.0000000   0.2352783   0.1219635), wk =   0.3333333
        k(    6) = (   0.0000000   0.2352783  -0.2439271), wk =   0.1666667
        k(    7) = (  -0.4607715   0.0000000   0.0000000), wk =   0.0833333
        k(    8) = (  -0.4607715   0.0000000   0.1219635), wk =   0.1666667
        k(    9) = (  -0.4607715   0.0000000  -0.2439271), wk =   0.0833333
        k(   10) = (  -0.4607715   0.2352783   0.0000000), wk =   0.1666667
        k(   11) = (  -0.4607715   0.2352783   0.1219635), wk =   0.3333333
        k(   12) = (  -0.4607715   0.2352783  -0.2439271), wk =   0.1666667

     total cpu time spent up to now is      377.4 secs

     Self-consistent Calculation

     iteration #  1     ecut=    40.00 Ry     beta=0.70
     CG style diagonalization
     c_bands:  1 eigenvalues not converged
     c_bands:  2 eigenvalues not converged
     c_bands:  1 eigenvalues not converged
     c_bands:  3 eigenvalues not converged
     c_bands:  2 eigenvalues not converged
     ethr =  1.00E-06,  avg # of iterations = 21.7

     total cpu time spent up to now is      483.2 secs

     total energy              =   -4238.92869807 Ry
     Harris-Foulkes estimate   =   -4553.16597233 Ry
     estimated scf accuracy    <     395.86493438 Ry

     iteration #  2     ecut=    40.00 Ry     beta=0.70
     CG style diagonalization
     c_bands:  1 eigenvalues not converged
     c_bands:  1 eigenvalues not converged
     c_bands:  1 eigenvalues not converged
     c_bands:  1 eigenvalues not converged
     c_bands:  2 eigenvalues not converged
     ethr =  1.00E-02,  avg # of iterations =  9.0

     total cpu time spent up to now is      527.5 secs

     total energy              =   -4565.49593893 Ry
     Harris-Foulkes estimate   =   -4699.58569365 Ry
     estimated scf accuracy    <     231.29994245 Ry

     iteration #  3     ecut=    40.00 Ry     beta=0.70
     CG style diagonalization
     ethr =  1.00E-02,  avg # of iterations =  5.5

     total cpu time spent up to now is      554.4 secs

     total energy              =   -4543.36215852 Ry
     Harris-Foulkes estimate   =   -4562.24783778 Ry
     estimated scf accuracy    <      61.85719601 Ry

     iteration #  4     ecut=    40.00 Ry     beta=0.70
     CG style diagonalization
     ethr =  1.00E-02,  avg # of iterations =  3.7

     total cpu time spent up to now is      571.1 secs

     total energy              =   -4538.85740005 Ry
     Harris-Foulkes estimate   =   -4545.79629617 Ry
     estimated scf accuracy    <      31.46367743 Ry

     iteration #  5     ecut=    40.00 Ry     beta=0.70
     CG style diagonalization
     ethr =  1.00E-02,  avg # of iterations =  3.6

     total cpu time spent up to now is      586.7 secs

     total energy              =   -4535.17011701 Ry
     Harris-Foulkes estimate   =   -4539.42468168 Ry
     estimated scf accuracy    <      18.81963221 Ry

     iteration #  6     ecut=    40.00 Ry     beta=0.70
     CG style diagonalization
     ethr =  6.82E-03,  avg # of iterations =  3.6

     total cpu time spent up to now is      602.8 secs

     total energy              =   -4534.52454315 Ry
     Harris-Foulkes estimate   =   -4535.57713051 Ry
     estimated scf accuracy    <       1.59322441 Ry

     iteration #  7     ecut=    40.00 Ry     beta=0.70
     CG style diagonalization
     ethr =  5.77E-04,  avg # of iterations = 21.0

     total cpu time spent up to now is      704.3 secs

     total energy              =   -4539.90042105 Ry
     Harris-Foulkes estimate   =   -4539.88638230 Ry
     estimated scf accuracy    <      28.41768906 Ry

     iteration #  8     ecut=    40.00 Ry     beta=0.70
     CG style diagonalization
     ethr =  5.77E-04,  avg # of iterations = 21.5

     total cpu time spent up to now is      808.4 secs

     total energy              =   -4539.52016747 Ry
     Harris-Foulkes estimate   =   -4539.68019868 Ry
     estimated scf accuracy    <     219.88254027 Ry

     iteration #  9     ecut=    40.00 Ry     beta=0.70
     CG style diagonalization
     ethr =  5.77E-04,  avg # of iterations = 21.5

     total cpu time spent up to now is      915.6 secs

     total energy              =   -4539.60185321 Ry
     Harris-Foulkes estimate   =   -4539.72344477 Ry
     estimated scf accuracy    <     282.73007093 Ry

     iteration # 10     ecut=    40.00 Ry     beta=0.70
     CG style diagonalization
     ethr =  5.77E-04,  avg # of iterations = 21.0

     total cpu time spent up to now is     1025.4 secs

     total energy              =   -4541.94825273 Ry
     Harris-Foulkes estimate   =   -4539.75054862 Ry
     estimated scf accuracy    <     264.64102480 Ry

     iteration # 11     ecut=    40.00 Ry     beta=0.70
     CG style diagonalization
     ethr =  5.77E-04,  avg # of iterations = 19.0

     total cpu time spent up to now is     1123.1 secs

     total energy              =   -4552.60619919 Ry
     Harris-Foulkes estimate   =   -4539.16400418 Ry
     estimated scf accuracy    <     422.67704154 Ry

     iteration # 12     ecut=    40.00 Ry     beta=0.70
     CG style diagonalization
     ethr =  5.77E-04,  avg # of iterations = 18.0

     total cpu time spent up to now is     1211.5 secs

     total energy              =   -4539.53911901 Ry
     Harris-Foulkes estimate   =   -4536.51150157 Ry
     estimated scf accuracy    <     669.42586003 Ry

     iteration # 13     ecut=    40.00 Ry     beta=0.70
     CG style diagonalization
     ethr =  5.77E-04,  avg # of iterations = 18.1

     total cpu time spent up to now is     1299.2 secs

     total energy              =   -4530.91610788 Ry
     Harris-Foulkes estimate   =   -4536.11518483 Ry
     estimated scf accuracy    <     510.46967854 Ry

     iteration # 14     ecut=    40.00 Ry     beta=0.70
     CG style diagonalization
     ethr =  5.77E-04,  avg # of iterations = 18.5

     total cpu time spent up to now is     1388.8 secs

     total energy              =   -4525.53317643 Ry
     Harris-Foulkes estimate   =   -4536.91007130 Ry
     estimated scf accuracy    <     726.38790750 Ry

     iteration # 15     ecut=    40.00 Ry     beta=0.70
     CG style diagonalization
     ethr =  5.77E-04,  avg # of iterations = 18.4

     total cpu time spent up to now is     1481.8 secs

     total energy              =   -4528.58567855 Ry
     Harris-Foulkes estimate   =   -4538.52998843 Ry
     estimated scf accuracy    <     449.00531985 Ry

     iteration # 16     ecut=    40.00 Ry     beta=0.70
     CG style diagonalization
     ethr =  5.77E-04,  avg # of iterations = 18.5

     total cpu time spent up to now is     1572.5 secs

     total energy              =   -4529.26159879 Ry
     Harris-Foulkes estimate   =   -4540.52909999 Ry
     estimated scf accuracy    <     710.65182102 Ry

     iteration # 17     ecut=    40.00 Ry     beta=0.70
     CG style diagonalization
     ethr =  5.77E-04,  avg # of iterations = 18.3

     total cpu time spent up to now is     1661.6 secs

     total energy              =   -4533.23404720 Ry
     Harris-Foulkes estimate   =   -4542.98606076 Ry
     estimated scf accuracy    <     695.41336641 Ry

     iteration # 18     ecut=    40.00 Ry     beta=0.70
     CG style diagonalization
     ethr =  5.77E-04,  avg # of iterations = 18.5

     total cpu time spent up to now is     1752.6 secs

     total energy              =   -4552.78997930 Ry
     Harris-Foulkes estimate   =   -4545.98925113 Ry
     estimated scf accuracy    <     625.75941573 Ry

     iteration # 19     ecut=    40.00 Ry     beta=0.70
     CG style diagonalization
     ethr =  5.77E-04,  avg # of iterations = 18.3

     total cpu time spent up to now is     1842.3 secs

     total energy              =   -4560.00375597 Ry
     Harris-Foulkes estimate   =   -4544.17397343 Ry
     estimated scf accuracy    <     282.28229259 Ry

     iteration # 20     ecut=    40.00 Ry     beta=0.70
     CG style diagonalization
     ethr =  5.77E-04,  avg # of iterations = 18.0

     total cpu time spent up to now is     1931.3 secs

     total energy              =   -4543.57366104 Ry
     Harris-Foulkes estimate   =   -4538.83578707 Ry
     estimated scf accuracy    <     265.00366196 Ry

     iteration # 21     ecut=    40.00 Ry     beta=0.70
     CG style diagonalization
     ethr =  5.77E-04,  avg # of iterations = 17.8

     total cpu time spent up to now is     2021.0 secs

     total energy              =   -4542.70843055 Ry
     Harris-Foulkes estimate   =   -4537.66831715 Ry
     estimated scf accuracy    <     154.83191177 Ry

     iteration # 22     ecut=    40.00 Ry     beta=0.70
     CG style diagonalization
     ethr =  5.77E-04,  avg # of iterations = 17.4

     total cpu time spent up to now is     2108.1 secs

     total energy              =   -4536.76091322 Ry
     Harris-Foulkes estimate   =   -4536.18093821 Ry
     estimated scf accuracy    <      22.43867746 Ry

     iteration # 23     ecut=    40.00 Ry     beta=0.70
     CG style diagonalization
     ethr =  5.77E-04,  avg # of iterations = 18.4

     total cpu time spent up to now is     2199.7 secs

     total energy              =   -4535.66032570 Ry
     Harris-Foulkes estimate   =   -4535.75896549 Ry
     estimated scf accuracy    <       4.82858074 Ry

     iteration # 24     ecut=    40.00 Ry     beta=0.70
     CG style diagonalization
     ethr =  5.77E-04,  avg # of iterations = 17.5

     total cpu time spent up to now is     2286.3 secs

     total energy              =   -4535.75392696 Ry
     Harris-Foulkes estimate   =   -4535.79497166 Ry
     estimated scf accuracy    <       0.68191474 Ry

     iteration # 25     ecut=    40.00 Ry     beta=0.70
     CG style diagonalization
     ethr =  2.47E-04,  avg # of iterations = 19.5

     total cpu time spent up to now is     2382.6 secs

     total energy              =   -4536.05085075 Ry
     Harris-Foulkes estimate   =   -4535.86929490 Ry
     estimated scf accuracy    <       3.75409993 Ry

     iteration # 26     ecut=    40.00 Ry     beta=0.70
     CG style diagonalization
     ethr =  2.47E-04,  avg # of iterations = 14.1

     total cpu time spent up to now is     2452.1 secs

     total energy              =   -4536.16178101 Ry
     Harris-Foulkes estimate   =   -4536.18620549 Ry
     estimated scf accuracy    <      11.38807570 Ry

     iteration # 27     ecut=    40.00 Ry     beta=0.70
     CG style diagonalization
     ethr =  2.47E-04,  avg # of iterations =  7.2

     total cpu time spent up to now is     2487.0 secs

     total energy              =   -4536.07706356 Ry
     Harris-Foulkes estimate   =   -4536.17274168 Ry
     estimated scf accuracy    <       4.11218198 Ry

     iteration # 28     ecut=    40.00 Ry     beta=0.70
     CG style diagonalization
     ethr =  2.47E-04,  avg # of iterations = 19.6

     total cpu time spent up to now is     2586.4 secs

     total energy              =   -4536.16858527 Ry
     Harris-Foulkes estimate   =   -4536.02638123 Ry
     estimated scf accuracy    <       3.91910058 Ry

     iteration # 29     ecut=    40.00 Ry     beta=0.70
     CG style diagonalization
     ethr =  2.47E-04,  avg # of iterations = 19.6

     total cpu time spent up to now is     2686.6 secs

     total energy              =   -4536.21842259 Ry
     Harris-Foulkes estimate   =   -4536.26566991 Ry
     estimated scf accuracy    <       4.19085034 Ry

     iteration # 30     ecut=    40.00 Ry     beta=0.70
     CG style diagonalization
     ethr =  2.47E-04,  avg # of iterations = 14.1

     total cpu time spent up to now is     2757.1 secs

     total energy              =   -4536.24719918 Ry
     Harris-Foulkes estimate   =   -4536.18804280 Ry
     estimated scf accuracy    <      11.38313520 Ry

     iteration # 31     ecut=    40.00 Ry     beta=0.70
     CG style diagonalization
     ethr =  2.47E-04,  avg # of iterations =  7.1

     total cpu time spent up to now is     2791.8 secs

     total energy              =   -4536.28481613 Ry
     Harris-Foulkes estimate   =   -4536.24853292 Ry
     estimated scf accuracy    <       4.16498252 Ry

     iteration # 32     ecut=    40.00 Ry     beta=0.70
     CG style diagonalization
     ethr =  2.47E-04,  avg # of iterations = 19.6

     total cpu time spent up to now is     2890.9 secs

     total energy              =   -4536.24903559 Ry
     Harris-Foulkes estimate   =   -4536.30697505 Ry
     estimated scf accuracy    <       4.25489705 Ry

     iteration # 33     ecut=    40.00 Ry     beta=0.70
     CG style diagonalization
     c_bands:  1 eigenvalues not converged
     ethr =  2.47E-04,  avg # of iterations = 19.6

     total cpu time spent up to now is     2989.8 secs

     total energy              =   -4536.24241285 Ry
     Harris-Foulkes estimate   =   -4536.21119634 Ry
     estimated scf accuracy    <       4.21119420 Ry

     iteration # 34     ecut=    40.00 Ry     beta=0.70
     CG style diagonalization
     ethr =  2.47E-04,  avg # of iterations = 15.4

     total cpu time spent up to now is     3066.2 secs

     total energy              =   -4536.38557947 Ry
     Harris-Foulkes estimate   =   -4536.26474003 Ry
     estimated scf accuracy    <      11.50596528 Ry

     iteration # 35     ecut=    40.00 Ry     beta=0.70
     CG style diagonalization
     ethr =  2.47E-04,  avg # of iterations =  5.7

     total cpu time spent up to now is     3093.2 secs

     total energy              =   -4536.37303616 Ry
     Harris-Foulkes estimate   =   -4536.38744728 Ry
     estimated scf accuracy    <       4.40083038 Ry

     iteration # 36     ecut=    40.00 Ry     beta=0.70
     CG style diagonalization
     ethr =  2.47E-04,  avg # of iterations = 18.3

     total cpu time spent up to now is     3187.5 secs

     total energy              =   -4536.43543860 Ry
     Harris-Foulkes estimate   =   -4536.36198332 Ry
     estimated scf accuracy    <      11.70085388 Ry

     iteration # 37     ecut=    40.00 Ry     beta=0.70
     CG style diagonalization
     ethr =  2.47E-04,  avg # of iterations =  3.0

     total cpu time spent up to now is     3200.9 secs

     total energy              =   -4536.46450167 Ry
     Harris-Foulkes estimate   =   -4536.43817349 Ry
     estimated scf accuracy    <       4.09478335 Ry

     iteration # 38     ecut=    40.00 Ry     beta=0.70
     CG style diagonalization
     c_bands:  1 eigenvalues not converged
     c_bands:  1 eigenvalues not converged
     ethr =  2.47E-04,  avg # of iterations = 20.2

     total cpu time spent up to now is     3303.0 secs

     total energy              =   -4536.45769539 Ry
     Harris-Foulkes estimate   =   -4536.47998464 Ry
     estimated scf accuracy    <       4.02138723 Ry

     iteration # 39     ecut=    40.00 Ry     beta=0.70
     CG style diagonalization
     c_bands:  1 eigenvalues not converged
     ethr =  2.47E-04,  avg # of iterations = 13.3

     total cpu time spent up to now is     3369.4 secs

     total energy              =   -4536.61733070 Ry
     Harris-Foulkes estimate   =   -4536.44274277 Ry
     estimated scf accuracy    <      11.87236210 Ry

     iteration # 40     ecut=    40.00 Ry     beta=0.70
     CG style diagonalization
     ethr =  2.47E-04,  avg # of iterations =  8.8

     total cpu time spent up to now is     3413.0 secs

     total energy              =   -4536.66459118 Ry
     Harris-Foulkes estimate   =   -4536.61881468 Ry
     estimated scf accuracy    <       4.15893280 Ry

     iteration # 41     ecut=    40.00 Ry     beta=0.70
     CG style diagonalization
     ethr =  2.47E-04,  avg # of iterations =  7.4

     total cpu time spent up to now is     3449.3 secs

     total energy              =   -4535.56687328 Ry
     Harris-Foulkes estimate   =   -4536.69833331 Ry
     estimated scf accuracy    <      12.35779674 Ry

     iteration # 42     ecut=    40.00 Ry     beta=0.70
     CG style diagonalization
     ethr =  2.47E-04,  avg # of iterations = 14.7

     total cpu time spent up to now is     3525.3 secs

     total energy              =   -4535.65099651 Ry
     Harris-Foulkes estimate   =   -4535.59069303 Ry
     estimated scf accuracy    <       3.08856023 Ry

     iteration # 43     ecut=    40.00 Ry     beta=0.70
     CG style diagonalization
     c_bands:  1 eigenvalues not converged
     ethr =  2.47E-04,  avg # of iterations =  7.4

     total cpu time spent up to now is     3562.2 secs

     total energy              =   -4535.51518629 Ry
     Harris-Foulkes estimate   =   -4535.70029799 Ry
     estimated scf accuracy    <      10.39274475 Ry

     iteration # 44     ecut=    40.00 Ry     beta=0.70
     CG style diagonalization
     ethr =  2.47E-04,  avg # of iterations = 14.6

     total cpu time spent up to now is     3635.2 secs

     total energy              =   -4535.75644677 Ry
     Harris-Foulkes estimate   =   -4535.51475273 Ry
     estimated scf accuracy    <       2.93079156 Ry

     iteration # 45     ecut=    40.00 Ry     beta=0.70
     CG style diagonalization
     ethr =  2.47E-04,  avg # of iterations =  6.1

     total cpu time spent up to now is     3663.6 secs

     total energy              =   -4535.99618729 Ry
     Harris-Foulkes estimate   =   -4536.01037593 Ry
     estimated scf accuracy    <       0.16516422 Ry

     iteration # 46     ecut=    40.00 Ry     beta=0.70
     CG style diagonalization
     c_bands:  2 eigenvalues not converged
     c_bands:  1 eigenvalues not converged
     c_bands:  2 eigenvalues not converged
     ethr =  5.98E-05,  avg # of iterations = 19.1

     total cpu time spent up to now is     3759.3 secs

     total energy              =   -4535.69177905 Ry
     Harris-Foulkes estimate   =   -4535.92181193 Ry
     estimated scf accuracy    <       3.38697913 Ry

     iteration # 47     ecut=    40.00 Ry     beta=0.70
     CG style diagonalization
     c_bands:  2 eigenvalues not converged
     c_bands:  1 eigenvalues not converged
     c_bands:  1 eigenvalues not converged
     c_bands:  1 eigenvalues not converged
     c_bands:  2 eigenvalues not converged
     ethr =  5.98E-05,  avg # of iterations = 24.5

     total cpu time spent up to now is     3882.3 secs

     total energy              =   -4535.56394492 Ry
     Harris-Foulkes estimate   =   -4535.51247125 Ry
     estimated scf accuracy    <       1.38969741 Ry

     iteration # 48     ecut=    40.00 Ry     beta=0.70
     CG style diagonalization
     c_bands:  2 eigenvalues not converged
     c_bands:  1 eigenvalues not converged
     c_bands:  1 eigenvalues not converged
     ethr =  5.98E-05,  avg # of iterations = 24.2

     total cpu time spent up to now is     4002.9 secs

     total energy              =   -4535.25256061 Ry
     Harris-Foulkes estimate   =   -4535.37433255 Ry
     estimated scf accuracy    <       6.88146156 Ry

     iteration # 49     ecut=    40.00 Ry     beta=0.70
     CG style diagonalization
     c_bands:  2 eigenvalues not converged
     c_bands:  1 eigenvalues not converged
     c_bands:  1 eigenvalues not converged
     c_bands:  4 eigenvalues not converged
     c_bands:  1 eigenvalues not converged
     c_bands:  1 eigenvalues not converged
     ethr =  5.98E-05,  avg # of iterations = 23.7

     total cpu time spent up to now is     4120.8 secs

     total energy              =   -4535.46713056 Ry
     Harris-Foulkes estimate   =   -4535.51924043 Ry
     estimated scf accuracy    <      30.51513221 Ry

     iteration # 50     ecut=    40.00 Ry     beta=0.70
     CG style diagonalization
     c_bands:  2 eigenvalues not converged
     c_bands:  1 eigenvalues not converged
     c_bands:  2 eigenvalues not converged
     c_bands:  2 eigenvalues not converged
     ethr =  5.98E-05,  avg # of iterations = 23.9

     total cpu time spent up to now is     4238.5 secs

     total energy              =   -4535.21480500 Ry
     Harris-Foulkes estimate   =   -4535.54924915 Ry
     estimated scf accuracy    <     128.97690232 Ry

     iteration # 51     ecut=    40.00 Ry     beta=0.70
     CG style diagonalization
     c_bands:  1 eigenvalues not converged
     c_bands:  2 eigenvalues not converged
     c_bands:  1 eigenvalues not converged
     c_bands:  1 eigenvalues not converged
     c_bands:  2 eigenvalues not converged
     ethr =  5.98E-05,  avg # of iterations = 24.1

     total cpu time spent up to now is     4358.6 secs

     total energy              =   -4536.16520474 Ry
     Harris-Foulkes estimate   =   -4535.64384273 Ry
     estimated scf accuracy    <     128.16080838 Ry

     iteration # 52     ecut=    40.00 Ry     beta=0.70
     CG style diagonalization
     c_bands:  2 eigenvalues not converged
     c_bands:  2 eigenvalues not converged
     c_bands:  2 eigenvalues not converged
     c_bands:  1 eigenvalues not converged
     c_bands:  1 eigenvalues not converged
     ethr =  5.98E-05,  avg # of iterations = 24.2

     total cpu time spent up to now is     4478.2 secs

     total energy              =   -4535.76748725 Ry
     Harris-Foulkes estimate   =   -4535.49670278 Ry
     estimated scf accuracy    <     203.10046359 Ry

     iteration # 53     ecut=    40.00 Ry     beta=0.70
     CG style diagonalization
     c_bands:  1 eigenvalues not converged
     c_bands:  1 eigenvalues not converged
     c_bands:  1 eigenvalues not converged
     c_bands:  3 eigenvalues not converged
     c_bands:  1 eigenvalues not converged
     ethr =  5.98E-05,  avg # of iterations = 24.3

     total cpu time spent up to now is     4599.3 secs

     total energy              =   -4535.37614742 Ry
     Harris-Foulkes estimate   =   -4535.43658305 Ry
     estimated scf accuracy    <     246.32584614 Ry

     iteration # 54     ecut=    40.00 Ry     beta=0.70
     CG style diagonalization
     c_bands:  3 eigenvalues not converged
     c_bands:  1 eigenvalues not converged
     c_bands:  1 eigenvalues not converged
     c_bands:  1 eigenvalues not converged
     c_bands:  1 eigenvalues not converged
     ethr =  5.98E-05,  avg # of iterations = 24.3

     total cpu time spent up to now is     4720.4 secs

     total energy              =   -4535.80533694 Ry
     Harris-Foulkes estimate   =   -4535.44872509 Ry
     estimated scf accuracy    <     346.57654740 Ry

     iteration # 55     ecut=    40.00 Ry     beta=0.70
     CG style diagonalization
     c_bands:  1 eigenvalues not converged
     c_bands:  1 eigenvalues not converged
     c_bands:  1 eigenvalues not converged
     c_bands:  2 eigenvalues not converged
     ethr =  5.98E-05,  avg # of iterations = 24.3

     total cpu time spent up to now is     4842.1 secs

     total energy              =   -4536.16019968 Ry
     Harris-Foulkes estimate   =   -4535.38947400 Ry
     estimated scf accuracy    <     405.39563538 Ry

     iteration # 56     ecut=    40.00 Ry     beta=0.70
     CG style diagonalization
     c_bands:  2 eigenvalues not converged
     c_bands:  2 eigenvalues not converged
     c_bands:  1 eigenvalues not converged
     ethr =  5.98E-05,  avg # of iterations = 24.4

     total cpu time spent up to now is     4965.2 secs

     total energy              =   -4535.27710054 Ry
     Harris-Foulkes estimate   =   -4535.27098102 Ry
     estimated scf accuracy    <     529.76821662 Ry

     iteration # 57     ecut=    40.00 Ry     beta=0.70
     CG style diagonalization
     c_bands:  1 eigenvalues not converged
     c_bands:  2 eigenvalues not converged
     c_bands:  1 eigenvalues not converged
     c_bands:  4 eigenvalues not converged
     c_bands:  1 eigenvalues not converged
     ethr =  5.98E-05,  avg # of iterations = 24.3

     total cpu time spent up to now is     5088.3 secs

     total energy              =   -4533.06537221 Ry
     Harris-Foulkes estimate   =   -4535.27092586 Ry
     estimated scf accuracy    <     822.27428261 Ry

     iteration # 58     ecut=    40.00 Ry     beta=0.70
     CG style diagonalization
     c_bands:  1 eigenvalues not converged
     c_bands:  1 eigenvalues not converged
     c_bands:  1 eigenvalues not converged
     c_bands:  4 eigenvalues not converged
     ethr =  5.98E-05,  avg # of iterations = 23.8

     total cpu time spent up to now is     5206.8 secs

     total energy              =   -4525.76271304 Ry
     Harris-Foulkes estimate   =   -4535.51121936 Ry
     estimated scf accuracy    <     819.45204552 Ry

     iteration # 59     ecut=    40.00 Ry     beta=0.70
     CG style diagonalization
     c_bands:  2 eigenvalues not converged
     c_bands:  2 eigenvalues not converged
     c_bands:  2 eigenvalues not converged
     c_bands:  2 eigenvalues not converged
     ethr =  5.98E-05,  avg # of iterations = 24.1

     total cpu time spent up to now is     5327.6 secs

     total energy              =   -4539.87673960 Ry
     Harris-Foulkes estimate   =   -4536.67108833 Ry
     estimated scf accuracy    <     496.20588290 Ry

     iteration # 60     ecut=    40.00 Ry     beta=0.70
     CG style diagonalization
     c_bands:  1 eigenvalues not converged
     c_bands:  2 eigenvalues not converged
     c_bands:  1 eigenvalues not converged
     ethr =  5.98E-05,  avg # of iterations = 23.2

     total cpu time spent up to now is     5444.3 secs

     total energy              =   -4551.06717421 Ry
     Harris-Foulkes estimate   =   -4536.16734665 Ry
     estimated scf accuracy    <     495.42204511 Ry

     iteration # 61     ecut=    40.00 Ry     beta=0.70
     CG style diagonalization
     c_bands:  1 eigenvalues not converged
     ethr =  5.98E-05,  avg # of iterations = 23.4

     total cpu time spent up to now is     5555.1 secs

     total energy              =   -4536.44197479 Ry
     Harris-Foulkes estimate   =   -4534.29608089 Ry
     estimated scf accuracy    <     508.03631018 Ry

     iteration # 62     ecut=    40.00 Ry     beta=0.70
     CG style diagonalization
     c_bands:  1 eigenvalues not converged
     c_bands:  1 eigenvalues not converged
     ethr =  5.98E-05,  avg # of iterations = 23.4

     total cpu time spent up to now is     5663.4 secs

     total energy              =   -4547.09004695 Ry
     Harris-Foulkes estimate   =   -4534.05618997 Ry
     estimated scf accuracy    <     511.70561175 Ry

     iteration # 63     ecut=    40.00 Ry     beta=0.70
     CG style diagonalization
     c_bands:  3 eigenvalues not converged
     c_bands:  1 eigenvalues not converged
     ethr =  5.98E-05,  avg # of iterations = 23.2

     total cpu time spent up to now is     5770.2 secs

     total energy              =   -4526.94635498 Ry
     Harris-Foulkes estimate   =   -4533.14316289 Ry
     estimated scf accuracy    <     467.87331516 Ry

     iteration # 64     ecut=    40.00 Ry     beta=0.70
     CG style diagonalization
     c_bands:  1 eigenvalues not converged
     c_bands:  1 eigenvalues not converged
     ethr =  5.98E-05,  avg # of iterations = 23.2

     total cpu time spent up to now is     5876.6 secs

     total energy              =   -4532.60115165 Ry
     Harris-Foulkes estimate   =   -4533.51624610 Ry
     estimated scf accuracy    <     717.66051310 Ry

     iteration # 65     ecut=    40.00 Ry     beta=0.70
     CG style diagonalization
     c_bands:  2 eigenvalues not converged
     c_bands:  1 eigenvalues not converged
     c_bands:  1 eigenvalues not converged
     ethr =  5.98E-05,  avg # of iterations = 23.0

     total cpu time spent up to now is     5981.6 secs

     total energy              =   -4516.74009566 Ry
     Harris-Foulkes estimate   =   -4533.58899974 Ry
     estimated scf accuracy    <     453.68010042 Ry

     iteration # 66     ecut=    40.00 Ry     beta=0.70
     CG style diagonalization
     c_bands:  1 eigenvalues not converged
     c_bands:  2 eigenvalues not converged
     ethr =  5.98E-05,  avg # of iterations = 22.8

     total cpu time spent up to now is     6085.8 secs

     total energy              =   -4527.29227410 Ry
     Harris-Foulkes estimate   =   -4535.59504829 Ry
     estimated scf accuracy    <     428.73919950 Ry

     iteration # 67     ecut=    40.00 Ry     beta=0.70
     CG style diagonalization
     c_bands:  2 eigenvalues not converged
     ethr =  5.98E-05,  avg # of iterations = 23.1

     total cpu time spent up to now is     6192.1 secs

     total energy              =   -4547.16871384 Ry
     Harris-Foulkes estimate   =   -4537.05109769 Ry
     estimated scf accuracy    <     415.91363667 Ry

     iteration # 68     ecut=    40.00 Ry     beta=0.70
     CG style diagonalization
     ethr =  5.98E-05,  avg # of iterations = 22.6

     total cpu time spent up to now is     6295.8 secs

     total energy              =   -4536.21691621 Ry
     Harris-Foulkes estimate   =   -4535.30779261 Ry
     estimated scf accuracy    <     434.09304215 Ry

     iteration # 69     ecut=    40.00 Ry     beta=0.70
     CG style diagonalization
     c_bands:  2 eigenvalues not converged
     c_bands:  1 eigenvalues not converged
     ethr =  5.98E-05,  avg # of iterations = 22.9

     total cpu time spent up to now is     6401.3 secs

     total energy              =   -4539.64820113 Ry
     Harris-Foulkes estimate   =   -4535.18248003 Ry
     estimated scf accuracy    <     281.46202004 Ry

     iteration # 70     ecut=    40.00 Ry     beta=0.70
     CG style diagonalization
     c_bands:  2 eigenvalues not converged
     ethr =  5.98E-05,  avg # of iterations = 16.6

     total cpu time spent up to now is     6477.8 secs

     total energy              =   -4536.89332841 Ry
     Harris-Foulkes estimate   =   -4534.44313638 Ry
     estimated scf accuracy    <       8.18909654 Ry

     iteration # 71     ecut=    40.00 Ry     beta=0.70
     CG style diagonalization
     ethr =  5.98E-05,  avg # of iterations =  4.8

     total cpu time spent up to now is     6499.1 secs

     total energy              =   -4534.12999348 Ry
     Harris-Foulkes estimate   =   -4537.23940951 Ry
     estimated scf accuracy    <      13.93094485 Ry

     iteration # 72     ecut=    40.00 Ry     beta=0.70
     CG style diagonalization
     ethr =  5.98E-05,  avg # of iterations =  4.5

     total cpu time spent up to now is     6518.6 secs

     total energy              =   -4535.09309508 Ry
     Harris-Foulkes estimate   =   -4534.42707092 Ry
     estimated scf accuracy    <       7.97533635 Ry

     iteration # 73     ecut=    40.00 Ry     beta=0.70
     CG style diagonalization
     ethr =  5.98E-05,  avg # of iterations =  3.4

     total cpu time spent up to now is     6532.9 secs

     total energy              =   -4534.38904892 Ry
     Harris-Foulkes estimate   =   -4535.12036686 Ry
     estimated scf accuracy    <       9.32349945 Ry

     iteration # 74     ecut=    40.00 Ry     beta=0.70
     CG style diagonalization
     ethr =  5.98E-05,  avg # of iterations =  3.4

     total cpu time spent up to now is     6547.0 secs

     total energy              =   -4534.47736701 Ry
     Harris-Foulkes estimate   =   -4534.41744419 Ry
     estimated scf accuracy    <       7.97715376 Ry

     iteration # 75     ecut=    40.00 Ry     beta=0.70
     CG style diagonalization
     ethr =  5.98E-05,  avg # of iterations =  3.0

     total cpu time spent up to now is     6559.1 secs

     total energy              =   -4534.63316231 Ry
     Harris-Foulkes estimate   =   -4534.47971890 Ry
     estimated scf accuracy    <       8.06292618 Ry

     iteration # 76     ecut=    40.00 Ry     beta=0.70
     CG style diagonalization
     ethr =  5.98E-05,  avg # of iterations =  3.0

     total cpu time spent up to now is     6571.4 secs

     total energy              =   -4534.65974675 Ry
     Harris-Foulkes estimate   =   -4534.63585401 Ry
     estimated scf accuracy    <       8.34213297 Ry

     iteration # 77     ecut=    40.00 Ry     beta=0.70
     CG style diagonalization
     ethr =  5.98E-05,  avg # of iterations =  3.0

     total cpu time spent up to now is     6583.6 secs

     total energy              =   -4534.69315787 Ry
     Harris-Foulkes estimate   =   -4534.66020817 Ry
     estimated scf accuracy    <       8.40221271 Ry

     iteration # 78     ecut=    40.00 Ry     beta=0.70
     CG style diagonalization
     ethr =  5.98E-05,  avg # of iterations =  3.0

     total cpu time spent up to now is     6595.6 secs

     total energy              =   -4529.07083233 Ry
     Harris-Foulkes estimate   =   -4534.69328826 Ry
     estimated scf accuracy    <       8.47325295 Ry

     iteration # 79     ecut=    40.00 Ry     beta=0.70
     CG style diagonalization
     ethr =  5.98E-05,  avg # of iterations =  5.6

     total cpu time spent up to now is     6620.4 secs

     total energy              =   -4530.23587314 Ry
     Harris-Foulkes estimate   =   -4530.54845901 Ry
     estimated scf accuracy    <       0.47253184 Ry

     iteration # 80     ecut=    40.00 Ry     beta=0.70
     CG style diagonalization
     c_bands:  1 eigenvalues not converged
     ethr =  5.98E-05,  avg # of iterations =  4.3

     total cpu time spent up to now is     6638.9 secs

     total energy              =   -4530.35690425 Ry
     Harris-Foulkes estimate   =   -4530.39744030 Ry
     estimated scf accuracy    <       0.08746990 Ry

     iteration # 81     ecut=    40.00 Ry     beta=0.70
     CG style diagonalization
     ethr =  3.17E-05,  avg # of iterations =  3.4

     total cpu time spent up to now is     6653.1 secs

     total energy              =   -4530.37217841 Ry
     Harris-Foulkes estimate   =   -4530.37492632 Ry
     estimated scf accuracy    <       0.00526114 Ry

     iteration # 82     ecut=    40.00 Ry     beta=0.70
     CG style diagonalization
     c_bands:  1 eigenvalues not converged
     ethr =  1.91E-06,  avg # of iterations =  4.2

     total cpu time spent up to now is     6671.2 secs

     total energy              =   -4530.37393033 Ry
     Harris-Foulkes estimate   =   -4530.37406240 Ry
     estimated scf accuracy    <       0.00033883 Ry

     iteration # 83     ecut=    40.00 Ry     beta=0.70
     CG style diagonalization
     ethr =  1.23E-07,  avg # of iterations =  3.6

     total cpu time spent up to now is     6686.5 secs

     End of self-consistent calculation

          k = 0.0000 0.0000 0.0000 (  3675 PWs)   bands (ev):

   -89.9696 -89.9490 -89.8942 -89.8125 -89.7176 -89.6267 -89.6040 -89.6001
   -46.8670 -46.8667 -46.8638 -46.8555 -46.8437 -46.8375 -46.8190 -46.8095
   -46.7903 -46.7843 -46.7584 -46.7572 -46.6625 -46.6605 -46.6260 -46.6236
   -46.6234 -46.6220 -46.5731 -46.5619 -46.5591 -46.5436 -46.5265 -46.5201
   -32.6357 -32.6352 -32.6274 -32.6169  -1.5297  -1.4721  -1.4712  -1.4508
    -1.4470  -1.4459  -1.4406  -1.4198  -1.2102  -1.1548  -1.1311  -1.0361
    12.5594  12.5608  12.5630  12.5917  12.6035  12.7284  12.7536  12.8224
    12.9105  12.9512  12.9668  13.1137  13.1370  13.2116  13.2275  13.3510
    13.3871  13.3885  13.4414  13.4648  13.4811  13.5407  13.5740  13.5759
    13.6809  13.7220  13.7364  13.8321  13.8394  13.8537  13.9380  13.9835
    13.9904  14.0112  14.2470  14.2538  14.3281  14.3599  14.4542  14.5362
    22.2058  25.2854  25.5837  26.8193  29.1924  29.5162  30.0925  30.9119
    31.1250  31.1412  31.5549  32.4497  33.0157  33.3519  33.5754  33.6560
    33.8197  33.9778  34.4316  34.7346  34.9895  35.1242  35.4346  35.6866
    35.9501  36.1588  36.2561  37.0657  37.5594  38.1985  38.5020  40.5329
    40.7466  40.8824  41.1541  41.5896  41.6977  42.1118  42.3029  42.5482
    42.8515  43.3869  43.8135  44.1567  44.5292  44.7599  44.9443  45.1197
    45.3599  46.1299  46.4360  47.3495  47.4177  47.4502  47.5296  48.1666
    48.3275  48.5858  48.6664  49.4949  49.5544  50.2275  50.6250  50.7451
    51.2688  51.6094  51.6580  51.8533  51.9081  52.1529  52.7177  52.9368
    52.9697  53.3111  53.3385  53.3795  53.9001  54.1850

          k = 0.0000 0.0000 0.1220 (  3675 PWs)   bands (ev):

   -89.9986 -89.9330 -89.9000 -89.8643 -89.7147 -89.6718 -89.6083 -89.4930
   -46.8683 -46.8648 -46.8606 -46.8595 -46.8408 -46.8385 -46.8166 -46.8102
   -46.7915 -46.7884 -46.7598 -46.7578 -46.6666 -46.6609 -46.6304 -46.6253
   -46.6197 -46.6127 -46.5716 -46.5611 -46.5557 -46.5491 -46.5285 -46.5178
   -32.6408 -32.6331 -32.6261 -32.6158  -1.5118  -1.4855  -1.4611  -1.4596
    -1.4400  -1.4393  -1.4369  -1.4251  -1.2047  -1.1879  -1.1014  -1.0539
    12.4966  12.5288  12.5670  12.5882  12.6900  12.7163  12.7420  12.8204
    12.9489  12.9889  13.0124  13.1220  13.1441  13.1962  13.2244  13.3310
    13.3996  13.4060  13.4238  13.4848  13.4887  13.5058  13.5289  13.5645
    13.7162  13.7212  13.7299  13.7674  13.8451  13.8568  13.9277  13.9348
    14.0133  14.0847  14.2174  14.2269  14.3427  14.3598  14.4747  14.5177
    22.4310  24.1275  26.7657  27.0097  28.6808  29.5703  29.7912  30.2370
    31.2415  31.6781  31.9276  32.6465  32.7594  32.7933  33.4050  33.6006
    33.7205  33.8823  35.0319  35.0405  35.1219  35.5142  35.8733  36.0114
    36.0281  36.3591  36.6645  37.0039  37.4301  38.2689  38.2738  39.6349
    40.0238  40.3508  40.6674  41.0641  41.5545  41.9208  42.1074  43.0287
    43.4940  43.8732  43.8933  44.0077  44.1007  44.1009  45.1534  45.1946
    45.6518  46.2997  46.6384  47.0947  47.3229  47.6759  47.9284  48.5064
    48.5123  48.6745  49.3020  49.3769  49.7754  50.1048  50.1696  50.7304
    50.7445  51.3935  51.8410  52.0633  52.3853  52.5828  52.6229  52.9012
    53.2883  53.3258  53.3811  53.7068  54.0327  54.1271

          k = 0.0000 0.0000-0.2439 (  3690 PWs)   bands (ev):

   -90.0166 -90.0166 -89.8839 -89.8839 -89.7366 -89.7366 -89.5750 -89.5750
   -46.8682 -46.8682 -46.8643 -46.8643 -46.8380 -46.8380 -46.8121 -46.8121
   -46.7932 -46.7932 -46.7654 -46.7654 -46.6702 -46.6702 -46.6267 -46.6267
   -46.6157 -46.6157 -46.5723 -46.5723 -46.5527 -46.5527 -46.5275 -46.5275
   -32.6385 -32.6385 -32.6306 -32.6306  -1.4861  -1.4861  -1.4821  -1.4821
    -1.4454  -1.4454  -1.4277  -1.4277  -1.2167  -1.2167  -1.0867  -1.0867
    12.4926  12.4926  12.5778  12.5778  12.6655  12.6655  12.8705  12.8705
    12.9234  12.9234  13.1279  13.1279  13.1464  13.1464  13.2717  13.2717
    13.3775  13.3775  13.4513  13.4513  13.4811  13.4811  13.5461  13.5461
    13.7296  13.7296  13.8007  13.8007  13.8134  13.8134  13.8649  13.8649
    14.1236  14.1236  14.1635  14.1635  14.3599  14.3599  14.4878  14.4878
    23.0840  23.0840  27.4346  27.4346  28.5399  28.5399  29.9330  29.9330
    31.7490  31.7490  32.0871  32.0871  33.1262  33.1262  33.1290  33.1290
    33.5785  33.5785  35.5931  35.5931  35.6028  35.6028  36.0165  36.0165
    36.4804  36.4804  37.2467  37.2467  37.9069  37.9069  38.2011  38.2011
    39.4198  39.4198  40.9500  40.9500  41.0353  41.0353  42.7805  42.7805
    43.3499  43.3499  43.8230  43.8230  44.9343  44.9343  45.0693  45.0693
    46.3087  46.3087  46.8009  46.8009  47.1178  47.1178  48.3985  48.3985
    48.9590  48.9590  49.4256  49.4256  49.8672  49.8672  50.3159  50.3159
    51.4387  51.4387  52.2020  52.2020  52.4389  52.4389  52.9134  52.9134
    53.1689  53.1689  53.7998  53.8001  53.8788  53.8790

          k = 0.0000 0.2353 0.0000 (  3664 PWs)   bands (ev):

   -89.9427 -89.8999 -89.8851 -89.8797 -89.6638 -89.5808 -89.5702 -89.5655
   -46.8667 -46.8659 -46.8561 -46.8557 -46.8415 -46.8411 -46.8152 -46.8120
   -46.7843 -46.7831 -46.7623 -46.7569 -46.6343 -46.6277 -46.6274 -46.6219
   -46.6207 -46.6170 -46.5859 -46.5808 -46.5505 -46.5463 -46.5371 -46.5340
   -32.6422 -32.6366 -32.6129 -32.5989  -1.5046  -1.4997  -1.4801  -1.4564
    -1.4426  -1.4371  -1.4273  -1.4153  -1.2095  -1.1911  -1.0889  -1.0666
    12.5632  12.6472  12.6725  12.7259  12.7815  12.8419  12.8542  12.9167
    12.9179  12.9890  13.0717  13.0738  13.0941  13.1536  13.2643  13.3198
    13.3519  13.3823  13.3956  13.4179  13.4574  13.5726  13.6216  13.6519
    13.6549  13.6993  13.7293  13.7640  13.7686  13.8565  13.9980  14.0153
    14.0391  14.0510  14.1585  14.1740  14.2813  14.3294  14.3828  14.4156
    22.9947  24.9868  25.8909  26.5282  27.8357  28.2994  30.4390  31.1865
    31.3120  31.3292  31.6875  32.0783  32.9006  32.9365  33.3764  33.3785
    34.1226  34.4396  34.5865  34.5930  34.6339  34.8299  35.1345  35.4514
    36.1508  36.3248  36.7053  37.0125  37.8578  38.8788  39.1557  39.6056
    40.1323  40.9761  41.0483  41.1450  41.6694  41.6719  42.4122  43.1806
    43.5381  43.7290  43.9158  44.2249  44.6841  44.8670  45.2269  45.5713
    46.1437  46.1893  46.6694  47.1819  47.2911  47.6440  48.5065  48.7602
    48.7949  49.0312  49.0687  49.4339  49.4627  50.1179  50.2301  50.2488
    50.6897  50.7224  51.4343  51.8109  52.2876  52.5152  52.5383  52.9389
    53.5331  53.8212  53.8281  53.8969  54.0267  54.5443

          k = 0.0000 0.2353 0.1220 (  3669 PWs)   bands (ev):

   -89.9844 -89.9406 -89.8448 -89.8385 -89.6921 -89.6647 -89.5646 -89.5563
   -46.8687 -46.8661 -46.8602 -46.8569 -46.8431 -46.8409 -46.8111 -46.8080
   -46.7898 -46.7863 -46.7620 -46.7574 -46.6382 -46.6284 -46.6275 -46.6218
   -46.6186 -46.6167 -46.5888 -46.5798 -46.5505 -46.5497 -46.5383 -46.5321
   -32.6385 -32.6317 -32.6202 -32.6119  -1.5020  -1.4899  -1.4732  -1.4651
    -1.4623  -1.4357  -1.4246  -1.4169  -1.2122  -1.1989  -1.1011  -1.0704
    12.5664  12.6464  12.6572  12.6802  12.7453  12.8449  12.8654  12.9112
    12.9627  13.0461  13.0641  13.0957  13.1305  13.1688  13.2461  13.2670
    13.3899  13.3931  13.4052  13.4544  13.4846  13.5516  13.5826  13.6148
    13.6687  13.6835  13.7239  13.7517  13.7519  13.8600  13.9438  14.0130
    14.0524  14.0581  14.1499  14.1549  14.2981  14.3379  14.3759  14.3975
    23.2098  24.7480  25.4049  26.8765  27.5647  29.0488  30.0839  30.8001
    31.3990  31.5196  31.6934  31.8322  32.8483  33.0644  33.1369  33.6294
    34.1292  34.3266  34.5181  34.7243  34.8899  35.1530  35.5251  35.6617
    36.2597  36.5556  36.8183  37.2086  37.9480  38.5837  39.0803  39.3296
    39.8837  39.9860  40.3214  40.4353  41.6022  41.9720  42.7017  43.1525
    43.5725  43.9826  44.2361  44.3197  44.5223  44.9782  45.1879  45.4967
    45.9368  46.0210  46.6066  47.2877  47.5907  48.0386  48.4865  48.7973
    49.1929  49.2590  49.3405  49.5349  49.7944  49.8923  50.1609  50.2413
    50.6076  50.9799  51.2850  51.5093  52.1791  52.3464  52.6536  53.0326
    53.4991  53.6396  53.8017  53.9722  54.2066  54.5412

          k = 0.0000 0.2353-0.2439 (  3666 PWs)   bands (ev):

   -89.9490 -89.9490 -89.8102 -89.8102 -89.6754 -89.6754 -89.5852 -89.5852
   -46.8652 -46.8652 -46.8581 -46.8581 -46.8421 -46.8421 -46.8083 -46.8083
   -46.7886 -46.7886 -46.7572 -46.7572 -46.6351 -46.6351 -46.6252 -46.6252
   -46.6173 -46.6173 -46.5832 -46.5832 -46.5473 -46.5473 -46.5357 -46.5357
   -32.6299 -32.6299 -32.6195 -32.6195  -1.4905  -1.4905  -1.4716  -1.4716
    -1.4417  -1.4417  -1.4269  -1.4269  -1.2022  -1.2022  -1.0863  -1.0863
    12.5995  12.5995  12.6357  12.6357  12.8152  12.8152  12.8628  12.8628
    13.0324  13.0324  13.1241  13.1241  13.1799  13.1799  13.2463  13.2463
    13.3993  13.3993  13.4213  13.4213  13.5088  13.5088  13.5965  13.5965
    13.6697  13.6697  13.7182  13.7182  13.8066  13.8066  13.9519  13.9519
    14.1060  14.1060  14.1126  14.1126  14.3566  14.3566  14.3627  14.3627
    23.8371  23.8371  25.9504  25.9504  28.6903  28.6903  30.2410  30.2410
    31.5959  31.5959  31.6555  31.6555  32.8040  32.8040  33.4540  33.4540
    34.2726  34.2726  34.6493  34.6493  35.3016  35.3016  35.8603  35.8603
    36.7347  36.7347  37.2839  37.2839  38.0949  38.0949  38.5887  38.5887
    39.3924  39.3924  40.6580  40.6580  41.1929  41.1929  42.6987  42.6987
    44.0100  44.0100  44.3933  44.3933  44.8874  44.8874  45.6001  45.6001
    45.7702  45.7702  46.8206  46.8206  48.1238  48.1238  48.7567  48.7567
    49.1660  49.1660  49.7473  49.7473  49.9598  49.9598  50.4408  50.4408
    50.5735  50.5735  51.6019  51.6019  51.7584  51.7584  52.8849  52.8849
    53.7169  53.7169  54.0638  54.0638  54.2489  54.2490

          k =-0.4608 0.0000 0.0000 (  3722 PWs)   bands (ev):

   -90.0195 -90.0195 -89.9700 -89.9700 -89.7686 -89.7686 -89.7428 -89.7428
   -46.8728 -46.8728 -46.8689 -46.8689 -46.8459 -46.8459 -46.8365 -46.8365
   -46.7759 -46.7759 -46.7754 -46.7754 -46.6713 -46.6713 -46.6345 -46.6345
   -46.6304 -46.6304 -46.5695 -46.5695 -46.5551 -46.5551 -46.5260 -46.5260
   -32.6485 -32.6485 -32.6476 -32.6476  -1.5402  -1.5402  -1.4880  -1.4880
    -1.4680  -1.4680  -1.4355  -1.4355  -1.1665  -1.1665  -1.1215  -1.1215
    12.6290  12.6290  12.7361  12.7361  12.7802  12.7802  12.9245  12.9245
    13.0928  13.0928  13.1079  13.1079  13.1352  13.1352  13.1509  13.1509
    13.2880  13.2880  13.3444  13.3444  13.4125  13.4125  13.5476  13.5476
    13.5571  13.5571  13.6140  13.6140  13.7689  13.7689  13.8593  13.8593
    13.9359  13.9359  14.1530  14.1530  14.2856  14.2856  14.5149  14.5149
    25.2031  25.2031  27.6022  27.6022  27.6116  27.6116  30.0926  30.0926
    31.0710  31.0710  32.1549  32.1549  32.7694  32.7694  33.1100  33.1100
    33.7968  33.7968  34.3075  34.3075  34.9162  34.9162  35.3173  35.3173
    35.5150  35.5150  35.8827  35.8827  38.6354  38.6354  39.0408  39.0408
    39.3274  39.3274  40.3953  40.3953  40.8082  40.8082  42.4754  42.4754
    43.7101  43.7101  44.4579  44.4579  45.2272  45.2272  46.4345  46.4345
    46.8223  46.8223  47.9293  47.9293  47.9786  47.9786  48.2538  48.2538
    49.3796  49.3796  49.5430  49.5431  50.3158  50.3158  50.7935  50.7936
    51.2925  51.2925  51.6597  51.6597  51.9810  51.9811  52.4937  52.4937
    53.1594  53.1594  53.7386  53.7388  54.0707  54.0711

          k =-0.4608 0.0000 0.1220 (  3710 PWs)   bands (ev):

   -90.0084 -90.0084 -89.9237 -89.9237 -89.7853 -89.7853 -89.6792 -89.6792
   -46.8736 -46.8736 -46.8626 -46.8626 -46.8426 -46.8426 -46.8349 -46.8349
   -46.7780 -46.7780 -46.7728 -46.7728 -46.6694 -46.6694 -46.6320 -46.6320
   -46.6290 -46.6290 -46.5691 -46.5691 -46.5521 -46.5521 -46.5265 -46.5265
   -32.6454 -32.6454 -32.6407 -32.6407  -1.5291  -1.5291  -1.4843  -1.4843
    -1.4519  -1.4519  -1.4323  -1.4323  -1.1629  -1.1629  -1.1244  -1.1244
    12.6359  12.6359  12.7519  12.7519  12.8082  12.8082  12.9413  12.9413
[...]
    10.3264  10.6618  10.9328  11.0981  11.2159  11.2930  11.3885  11.6723
    11.6872  11.7711  11.7866  11.9622  11.9840  11.9864  12.0860  12.2058
    12.2247  12.2828  12.3441  12.3939  12.4872  12.5124  12.7206  12.7929
    12.9394  13.3137  13.4365  13.4941  13.5617  14.0377  14.8496  14.8645
    14.9086  14.9201  15.5069  15.5470  15.5501  15.5756  15.9328  15.9426
    15.9563  16.6890  17.3010  17.3144  18.0460  18.1798  18.6323  19.5066
    20.2102  20.6966  20.9127  21.7872  22.0167  22.2208  22.2894  22.4818
    22.7857  23.0626  23.0715  23.2658  23.4698  23.9209  23.9879  24.0416
    24.1151  24.7921  24.9300  25.0216  25.0865  25.2654

          k = 0.0000 0.0000-0.1840 (  3690 PWs)   bands (ev):

  -116.5619-116.5619-116.4214-116.4214-116.3781-116.3781-116.2118-116.2118
   -80.3727 -80.3727 -80.3245 -80.3245 -80.2743 -80.2743 -80.2551 -80.2551
   -80.1747 -80.1747 -80.1385 -80.1385 -80.0223 -80.0223 -79.9929 -79.9929
   -79.9675 -79.9675 -79.8847 -79.8847 -79.7869 -79.7869 -79.7032 -79.7032
   -53.6680 -53.6680 -53.6030 -53.6030 -24.7549 -24.7549 -24.7473 -24.7473
   -24.7385 -24.7385 -24.7370 -24.7370 -24.7350 -24.7350 -24.7296 -24.7296
   -13.3062 -13.3062 -13.1520 -13.1520 -13.0733 -13.0733 -13.0204 -13.0204
   -12.9725 -12.9725 -12.9060 -12.9060 -12.8083 -12.8083 -12.7788 -12.7788
   -12.6947 -12.6947 -12.6373 -12.6373 -12.6065 -12.6065 -12.5888 -12.5888
   -12.4804 -12.4804 -12.4224 -12.4224 -12.3240 -12.3240 -12.2230 -12.2230
   -12.1185 -12.1185 -12.1166 -12.1166 -11.9330 -11.9330 -11.8250 -11.8250
     3.3137   3.3137   4.8164   4.8164   5.1813   5.1813   5.4305   5.4305
    10.4885  10.4885  11.0311  11.0311  11.3858  11.3858  11.5022  11.5022
    11.7482  11.7482  11.7547  11.7547  12.1273  12.1273  12.2337  12.2337
    12.2700  12.2700  12.3627  12.3627  12.5278  12.5278  12.9111  12.9111
    12.9200  12.9200  12.9646  12.9646  13.7252  13.7252  15.0796  15.0796
    15.0852  15.0852  15.4475  15.4475  15.5183  15.5183  15.8513  15.8513
    16.1992  16.1992  17.3114  17.3114  18.1799  18.1799  19.5760  19.5760
    20.5762  20.5762  20.9341  20.9341  22.0550  22.0550  22.4006  22.4006
    22.8033  22.8033  23.1993  23.1993  23.4573  23.4573  23.6898  23.6898
    24.4461  24.4461  25.0760  25.0761  25.2053  25.2056

          k = 0.0000 0.1797 0.0000 (  3664 PWs)   bands (ev):

  -116.4844-116.4531-116.4468-116.4294-116.2623-116.2199-116.2089-116.1657
   -80.3090 -80.2775 -80.2544 -80.2377 -80.1979 -80.1832 -80.1706 -80.1524
   -80.1160 -80.1089 -80.1049 -80.0929 -80.0670 -80.0397 -80.0228 -80.0143
   -79.9813 -79.9628 -79.9347 -79.8945 -79.8004 -79.7914 -79.7035 -79.6441
   -53.6769 -53.6361 -53.5198 -53.4786 -24.7481 -24.7460 -24.7437 -24.7437
   -24.7435 -24.7378 -24.7355 -24.7318 -24.7317 -24.7315 -24.7234 -24.7216
   -13.1205 -13.0686 -13.0162 -12.9620 -12.9270 -12.9107 -12.9032 -12.8896
   -12.8641 -12.8491 -12.7934 -12.7858 -12.7777 -12.7762 -12.7385 -12.7376
   -12.6878 -12.6836 -12.6120 -12.5996 -12.5332 -12.4833 -12.4826 -12.4696
   -12.4631 -12.4196 -12.3753 -12.3450 -12.3230 -12.2618 -12.2317 -12.1550
   -12.1269 -12.1112 -12.0322 -12.0142 -11.9530 -11.9399 -11.8136 -11.7904
     3.3203   4.0034   4.1472   4.5113   4.9448   5.0099   5.7082   5.7229
    10.5975  10.8347  10.9590  10.9955  11.0201  11.0692  11.4068  11.4874
    11.5197  11.5394  11.8343  11.8617  11.9055  11.9293  12.0130  12.1533
    12.1638  12.2960  12.3266  12.4061  12.4623  12.5654  12.8427  13.0121
    13.4136  13.8252  13.8527  14.1408  14.1846  14.3633  14.3960  14.4138
    14.9950  15.0721  15.2283  15.2924  15.4912  15.5179  15.7588  15.8455
    16.1563  16.5918  16.6377  17.1719  18.2527  18.5791  19.2971  19.7624
    20.3586  20.7733  21.1858  21.5597  21.6515  21.7251  21.7484  21.9809
    22.8590  22.8888  23.0985  23.1634  23.2515  23.5153  23.6642  24.2409
    24.2734  24.5555  24.6180  24.7463  24.9988  25.2963

          k = 0.0000 0.1797 0.0920 (  3669 PWs)   bands (ev):

  -116.5306-116.4568-116.4382-116.3976-116.3042-116.2638-116.1969-116.1799
   -80.3339 -80.3051 -80.2713 -80.2582 -80.2437 -80.2139 -80.1970 -80.1777
   -80.1517 -80.1348 -80.0936 -80.0681 -80.0582 -80.0473 -80.0290 -80.0129
   -80.0123 -79.9354 -79.8911 -79.8712 -79.8088 -79.7480 -79.7040 -79.6704
   -53.6661 -53.6148 -53.5664 -53.5167 -24.7523 -24.7465 -24.7452 -24.7424
   -24.7418 -24.7392 -24.7362 -24.7327 -24.7323 -24.7318 -24.7247 -24.7221
   -13.1633 -13.1062 -13.0567 -13.0448 -12.9638 -12.9553 -12.9290 -12.9168
   -12.9078 -12.8563 -12.8256 -12.8100 -12.8010 -12.7817 -12.7673 -12.7283
   -12.7196 -12.6447 -12.6190 -12.5912 -12.5787 -12.5696 -12.5582 -12.5045
   -12.4653 -12.4522 -12.4058 -12.3430 -12.3062 -12.3047 -12.1873 -12.1571
   -12.0993 -12.0478 -12.0319 -11.9957 -11.9781 -11.9591 -11.8386 -11.7154
     3.3866   3.8377   4.1784   4.5040   4.9602   5.2134   5.6049   5.6614
    10.6996  10.8430  10.8826  10.9477  11.0616  11.2827  11.3953  11.4345
    11.4940  11.5962  11.8725  11.8769  11.9260  11.9406  12.0506  12.1236
    12.2252  12.2812  12.3435  12.3799  12.4462  12.5883  12.9315  13.0144
    13.1033  13.4606  13.7310  13.8830  13.9504  14.1391  14.4456  14.6617
    14.9919  15.1005  15.2885  15.4592  15.5834  15.6331  15.9107  16.0730
    16.2727  16.5217  16.8038  16.9395  18.2766  18.5756  19.5371  19.9023
    20.3535  20.8514  20.8749  21.3456  21.3879  21.5925  21.9546  22.2385
    22.5649  22.7466  22.8896  23.2080  23.2392  23.7576  23.8087  24.1595
    24.1730  24.6552  24.6830  24.8705  24.9954  25.3388

          k = 0.0000 0.1797-0.1840 (  3666 PWs)   bands (ev):

  -116.4549-116.4549-116.3890-116.3890-116.2989-116.2989-116.2095-116.2095
   -80.2996 -80.2996 -80.2555 -80.2555 -80.2252 -80.2252 -80.1828 -80.1828
   -80.1241 -80.1241 -80.0999 -80.0999 -80.0468 -80.0468 -80.0079 -80.0079
   -79.9803 -79.9803 -79.8784 -79.8784 -79.7811 -79.7811 -79.7059 -79.7059
   -53.6196 -53.6196 -53.5494 -53.5494 -24.7469 -24.7469 -24.7448 -24.7448
   -24.7387 -24.7387 -24.7334 -24.7334 -24.7325 -24.7325 -24.7237 -24.7237
   -13.0599 -13.0599 -13.0140 -13.0140 -12.9581 -12.9581 -12.8584 -12.8584
   -12.8400 -12.8400 -12.7837 -12.7837 -12.7261 -12.7261 -12.7228 -12.7228
   -12.6661 -12.6661 -12.6583 -12.6583 -12.5572 -12.5572 -12.5524 -12.5524
   -12.4377 -12.4377 -12.3508 -12.3508 -12.2993 -12.2993 -12.1672 -12.1672
   -12.1391 -12.1391 -12.0792 -12.0792 -12.0095 -12.0095 -11.7949 -11.7949
     3.5730   3.5730   4.3229   4.3229   5.2481   5.2481   5.5214   5.5214
    10.8096  10.8096  10.8892  10.8892  11.2975  11.2975  11.4384  11.4384
    11.5306  11.5306  11.8576  11.8576  11.9043  11.9043  12.1035  12.1035
    12.3414  12.3414  12.3814  12.3814  12.5923  12.5923  12.8037  12.8037
    13.2205  13.2205  13.4600  13.4600  14.1979  14.1979  14.2449  14.2449
    15.2765  15.2765  15.4212  15.4212  15.6372  15.6372  16.2173  16.2173
    16.5533  16.5533  16.6968  16.6968  18.5290  18.5290  19.9241  19.9241
    20.2162  20.2162  21.0408  21.0409  21.6545  21.6545  22.2120  22.2120
    22.6923  22.6923  22.7160  22.7160  23.5220  23.5220  23.9290  23.9290
    24.4968  24.4971  24.7494  24.7495  25.0314  25.4736

          k =-0.3431 0.0000 0.0000 (  3722 PWs)   bands (ev):

  -116.5376-116.5376-116.4975-116.4975-116.4371-116.4371-116.3668-116.3668
   -80.2890 -80.2890 -80.2819 -80.2819 -80.2636 -80.2636 -80.2388 -80.2388
   -80.2103 -80.2103 -80.1692 -80.1692 -80.1446 -80.1446 -80.0996 -80.0996
   -80.0093 -80.0093 -80.0026 -80.0026 -79.9635 -79.9635 -79.9231 -79.9231
   -53.7321 -53.7321 -53.7060 -53.7060 -24.7531 -24.7531 -24.7511 -24.7511
   -24.7457 -24.7457 -24.7429 -24.7429 -24.7326 -24.7326 -24.7312 -24.7312
   -13.2462 -13.2462 -13.1543 -13.1543 -13.0824 -13.0824 -13.0643 -13.0643
   -13.0313 -13.0313 -12.9668 -12.9668 -12.8455 -12.8455 -12.8411 -12.8411
   -12.7807 -12.7807 -12.7321 -12.7321 -12.6980 -12.6980 -12.6191 -12.6191
   -12.6040 -12.6040 -12.5244 -12.5244 -12.4298 -12.4298 -12.4249 -12.4249
   -12.4056 -12.4056 -12.3884 -12.3884 -12.2983 -12.2983 -12.2335 -12.2335
     3.8309   3.8309   4.6441   4.6441   4.8039   4.8039   5.4526   5.4526
    10.4739  10.4739  11.0420  11.0420  11.0685  11.0685  11.4824  11.4824
    11.4979  11.4979  11.9121  11.9121  11.9965  11.9965  12.1157  12.1157
    12.1706  12.1706  12.3569  12.3569  12.3748  12.3748  12.6321  12.6321
    12.9338  12.9338  13.2058  13.2058  13.3849  13.3849  14.2413  14.2413
    15.3340  15.3340  15.4951  15.4951  15.6091  15.6091  16.3660  16.3660
    16.9186  16.9186  17.5314  17.5314  18.0315  18.0315  19.5691  19.5691
    21.4506  21.4506  22.4383  22.4383  22.5926  22.5926  23.0639  23.0639
    23.3473  23.3473  23.6732  23.6732  23.8621  23.8621  23.9144  23.9145
    24.7430  24.7432  24.8195  24.8198  25.0799  25.1640

          k =-0.3431 0.0000 0.0920 (  3710 PWs)   bands (ev):

  -116.5147-116.5147-116.4755-116.4755-116.4192-116.4192-116.3276-116.3276
   -80.2976 -80.2976 -80.2739 -80.2739 -80.2388 -80.2388 -80.2170 -80.2170
   -80.1947 -80.1947 -80.1694 -80.1694 -80.1078 -80.1078 -80.0719 -80.0719
   -80.0230 -80.0230 -79.9885 -79.9885 -79.9260 -79.9260 -79.8578 -79.8578
   -53.6949 -53.6949 -53.6877 -53.6877 -24.7530 -24.7530 -24.7479 -24.7479
   -24.7431 -24.7431 -24.7405 -24.7405 -24.7340 -24.7340 -24.7311 -24.7311
   -13.1805 -13.1805 -13.1326 -13.1326 -13.0726 -13.0726 -13.0328 -13.0328
   -12.9541 -12.9541 -12.9050 -12.9050 -12.8352 -12.8352 -12.7971 -12.7971
   -12.7114 -12.7114 -12.6743 -12.6743 -12.6660 -12.6660 -12.6024 -12.6024
   -12.5626 -12.5626 -12.5337 -12.5337 -12.4359 -12.4359 -12.3914 -12.3914
   -12.3500 -12.3500 -12.2721 -12.2721 -12.2443 -12.2443 -12.2033 -12.2033
     3.8478   3.8478   4.5635   4.5635   4.8682   4.8682   5.4480   5.4480
    10.5075  10.5075  10.9748  10.9748  11.2838  11.2838  11.4806  11.4806
    11.5899  11.5899  11.9243  11.9243  11.9299  11.9299  12.0762  12.0762
    12.1639  12.1639  12.3221  12.3221  12.4286  12.4286  12.6433  12.6433
    12.8017  12.8017  13.0604  13.0604  13.6304  13.6304  14.1500  14.1500
    14.6305  14.6305  15.6321  15.6321  16.0298  16.0298  16.4840  16.4840
    17.1329  17.1329  17.5665  17.5665  18.1502  18.1502  19.5649  19.5649
    21.5266  21.5266  22.0254  22.0254  22.5388  22.5388  23.1054  23.1054
    23.1949  23.1950  23.3922  23.3922  23.7264  23.7264  24.2938  24.2938
    24.3967  24.3968  24.7579  24.7579  25.0421  25.0422

          k =-0.3431 0.0000-0.1840 (  3680 PWs)   bands (ev):

  -116.4392-116.4392-116.4305-116.4305-116.3466-116.3466-116.2566-116.2566
   -80.2808 -80.2808 -80.2775 -80.2775 -80.2238 -80.2238 -80.2209 -80.2209
   -80.1231 -80.1231 -80.0898 -80.0898 -80.0728 -80.0728 -80.0030 -80.0030
   -79.9628 -79.9628 -79.9545 -79.9545 -79.8867 -79.8867 -79.7700 -79.7700
   -53.6455 -53.6455 -53.5979 -53.5979 -24.7474 -24.7474 -24.7453 -24.7453
   -24.7387 -24.7387 -24.7377 -24.7377 -24.7307 -24.7307 -24.7269 -24.7269
   -13.1212 -13.1212 -13.0138 -13.0138 -12.9278 -12.9278 -12.9128 -12.9128
   -12.9076 -12.9076 -12.8345 -12.8345 -12.7873 -12.7873 -12.7662 -12.7662
   -12.6929 -12.6929 -12.5947 -12.5947 -12.5529 -12.5529 -12.5205 -12.5205
   -12.4871 -12.4871 -12.4728 -12.4728 -12.2875 -12.2875 -12.2755 -12.2755
   -12.2118 -12.2118 -12.1866 -12.1866 -12.0547 -12.0547 -12.0456 -12.0456
     3.8705   3.8705   4.5042   4.5042   4.9113   4.9113   5.4420   5.4420
    10.5018  10.5018  11.1110  11.1110  11.3710  11.3710  11.4864  11.4864
    11.7909  11.7909  11.7952  11.7952  11.9231  11.9231  12.0100  12.0100
    12.1532  12.1532  12.3125  12.3125  12.3719  12.3719  12.6274  12.6274
    12.7824  12.7824  13.1544  13.1544  13.6880  13.6880  14.1281  14.1281
    14.2256  14.2256  15.5117  15.5117  16.4314  16.4314  16.4780  16.4780
    17.4086  17.4086  17.6434  17.6434  18.3587  18.3587  19.4670  19.4670
    21.5664  21.5664  21.9533  21.9533  22.2733  22.2733  23.0120  23.0120
    23.0218  23.0218  23.5731  23.5731  23.7772  23.7772  23.8053  23.8053
    24.5057  24.5058  24.8659  24.8659  25.3813  25.3816

          k =-0.3431 0.1797 0.0000 (  3686 PWs)   bands (ev):

  -116.4286-116.4286-116.4256-116.4256-116.3646-116.3646-116.2958-116.2958
   -80.2537 -80.2537 -80.2316 -80.2316 -80.1941 -80.1941 -80.1860 -80.1860
   -80.1445 -80.1445 -80.1312 -80.1312 -80.0751 -80.0751 -80.0646 -80.0646
   -80.0049 -80.0049 -79.9786 -79.9786 -79.9737 -79.9737 -79.8795 -79.8795
   -53.6503 -53.6503 -53.6328 -53.6328 -24.7459 -24.7459 -24.7450 -24.7450
   -24.7413 -24.7413 -24.7395 -24.7395 -24.7267 -24.7267 -24.7241 -24.7241
   -13.0938 -13.0938 -12.9659 -12.9659 -12.9320 -12.9320 -12.9167 -12.9167
   -12.8688 -12.8688 -12.8205 -12.8205 -12.7675 -12.7675 -12.7567 -12.7567
   -12.6732 -12.6732 -12.5890 -12.5890 -12.5845 -12.5845 -12.5631 -12.5631
   -12.5260 -12.5260 -12.4468 -12.4468 -12.4415 -12.4415 -12.4004 -12.4004
   -12.3768 -12.3768 -12.2550 -12.2550 -12.2192 -12.2192 -12.2022 -12.2022
     4.0716   4.0716   4.5361   4.5361   4.8843   4.8843   5.1218   5.1218
    10.5681  10.5681  10.5850  10.5850  11.2780  11.2780  11.5715  11.5715
    11.6029  11.6029  11.9057  11.9057  11.9891  11.9891  11.9913  11.9913
    12.1174  12.1174  12.3222  12.3222  12.5340  12.5340  12.7584  12.7584
    12.9822  12.9822  13.2782  13.2782  13.9656  13.9656  14.5912  14.5912
    15.0096  15.0096  15.2183  15.2183  16.1782  16.1782  16.4041  16.4041
    16.8524  16.8524  17.0630  17.0630  18.4137  18.4137  19.5237  19.5237
    21.3117  21.3117  21.9310  21.9310  22.0782  22.0782  22.4948  22.4948
    23.1410  23.1410  23.2040  23.2040  23.6338  23.6338  24.0818  24.0818
    24.5785  24.5786  24.9061  24.9062  25.1622  25.1623

          k =-0.3431 0.1797 0.0920 (  3692 PWs)   bands (ev):

  -116.4432-116.4432-116.4234-116.4234-116.3722-116.3722-116.3323-116.3323
   -80.2860 -80.2860 -80.2728 -80.2728 -80.2275 -80.2275 -80.1879 -80.1879
   -80.1470 -80.1470 -80.1273 -80.1273 -80.0742 -80.0742 -80.0681 -80.0681
   -79.9869 -79.9869 -79.9760 -79.9760 -79.9416 -79.9416 -79.8625 -79.8625
   -53.6954 -53.6954 -53.6117 -53.6117 -24.7488 -24.7488 -24.7468 -24.7468
   -24.7414 -24.7414 -24.7397 -24.7397 -24.7298 -24.7298 -24.7235 -24.7235
   -13.0663 -13.0663 -13.0452 -13.0452 -13.0074 -13.0074 -12.9283 -12.9283
   -12.9040 -12.9040 -12.8474 -12.8474 -12.7993 -12.7993 -12.7305 -12.7305
   -12.7149 -12.7149 -12.6636 -12.6636 -12.5831 -12.5831 -12.5526 -12.5526
   -12.5358 -12.5358 -12.4608 -12.4608 -12.4133 -12.4133 -12.3864 -12.3864
   -12.3048 -12.3048 -12.2654 -12.2654 -12.2323 -12.2323 -12.1906 -12.1906
     4.0868   4.0868   4.5173   4.5173   4.8943   4.8943   5.0992   5.0992
    10.6669  10.6669  10.7664  10.7664  11.2475  11.2475  11.4817  11.4817
    11.6167  11.6167  11.8437  11.8437  11.9452  11.9452  12.0206  12.0206
    12.1016  12.1016  12.3147  12.3147  12.5165  12.5165  12.7410  12.7410
    12.8866  12.8866  13.1278  13.1278  13.9513  13.9513  14.4390  14.4390
    15.1434  15.1434  15.4042  15.4042  16.1880  16.1880  16.5265  16.5265
    16.7509  16.7509  17.1543  17.1543  18.5067  18.5067  19.6113  19.6113
    21.2076  21.2076  21.8678  21.8678  22.0081  22.0081  22.3034  22.3034
    22.8610  22.8610  23.1833  23.1833  23.5511  23.5511  24.1434  24.1434
    24.4004  24.4004  24.9375  24.9375  25.4263  25.4263

          k =-0.3431 0.1797-0.1840 (  3704 PWs)   bands (ev):

  -116.4894-116.4894-116.4439-116.4439-116.3852-116.3852-116.3672-116.3672
   -80.3215 -80.3215 -80.3118 -80.3118 -80.2794 -80.2794 -80.2120 -80.2120
   -80.1591 -80.1591 -80.1081 -80.1081 -80.0612 -80.0612 -80.0583 -80.0583
   -79.9928 -79.9928 -79.9906 -79.9906 -79.9489 -79.9489 -79.8723 -79.8723
   -53.7316 -53.7316 -53.6326 -53.6326 -24.7503 -24.7503 -24.7502 -24.7502
   -24.7422 -24.7422 -24.7413 -24.7413 -24.7299 -24.7299 -24.7289 -24.7289
   -13.1982 -13.1982 -13.0785 -13.0785 -13.0159 -13.0159 -12.9390 -12.9390
   -12.9338 -12.9338 -12.9226 -12.9226 -12.9099 -12.9099 -12.7620 -12.7620
   -12.7371 -12.7371 -12.7031 -12.7031 -12.6695 -12.6695 -12.6274 -12.6274
   -12.5446 -12.5446 -12.5397 -12.5397 -12.4711 -12.4711 -12.4014 -12.4014
   -12.2624 -12.2624 -12.2548 -12.2548 -12.2004 -12.2004 -12.1391 -12.1391
     4.1057   4.1057   4.4952   4.4952   4.9102   4.9102   5.0710   5.0710
    10.8658  10.8658  10.9325  10.9325  11.2957  11.2957  11.3290  11.3290
    11.5052  11.5052  11.7679  11.7679  11.8994  11.8994  12.0323  12.0323
    12.0483  12.0483  12.3067  12.3067  12.4915  12.4915  12.7252  12.7252
    12.7513  12.7513  13.3844  13.3844  13.4700  13.4700  14.5492  14.5492
    15.2985  15.2985  15.4965  15.4965  16.2470  16.2470  16.3215  16.3215
    16.9242  16.9242  17.2105  17.2105  18.6734  18.6734  19.6449  19.6449
    21.0312  21.0312  21.6246  21.6246  22.0743  22.0743  22.1135  22.1135
    22.6749  22.6749  23.2565  23.2565  23.7787  23.7787  23.8038  23.8038
    24.5020  24.5020  24.7413  24.7414  25.3631  25.3632

     the Fermi energy is    17.1680 ev

!    total energy              =   -4494.44203071 Ry
     Harris-Foulkes estimate   =   -4494.44203468 Ry
     estimated scf accuracy    <       0.00000485 Ry

     The total energy is the sum of the following terms:

     one-electron contribution =   -2065.79321526 Ry
     hartree contribution      =    1020.09517440 Ry
     xc contribution           =    -347.67812709 Ry
     ewald contribution        =   -3100.65173338 Ry
     smearing contrib. (-TS)   =      -0.41412938 Ry

     convergence has been achieved in   9 iterations

     Forces acting on atoms (Ry/au):

     atom    1 type  1   force =     0.00000000   -0.01213319   -0.00817792
     atom    2 type  1   force =     0.00000000    0.01213319    0.00817792
     atom    3 type  1   force =     0.00000000   -0.01213319    0.00817792
     atom    4 type  1   force =     0.00000000    0.01213319   -0.00817792
     atom    5 type  1   force =     0.00000000   -0.01748927    0.02958481
     atom    6 type  1   force =     0.00000000    0.01748927   -0.02958481
     atom    7 type  1   force =     0.00000000   -0.01748927   -0.02958481
     atom    8 type  1   force =     0.00000000    0.01748927    0.02958481
     atom    9 type  2   force =     0.00000000   -0.00289890    0.00605584
     atom   10 type  2   force =     0.00000000    0.00289890   -0.00605584
     atom   11 type  2   force =     0.00000000   -0.00289890   -0.00605584
     atom   12 type  2   force =     0.00000000    0.00289890    0.00605584

     Total force =     0.075903     Total SCF correction =     0.000000


     entering subroutine stress ...

          total   stress  (Ry/bohr**3)                   (kbar)     P=-6571.32
  -0.04731621   0.00000000   0.00000000      -6960.45      0.00      0.00
   0.00000000  -0.04228700   0.00000000          0.00  -6220.63      0.00
   0.00000000   0.00000000  -0.04440955          0.00      0.00  -6532.87


     The maximum number of steps has been reached.

     End of BFGS Geometry Optimization
Begin final coordinates
     new unit-cell volume =   2536.91680 a.u.^3 (   375.93228 Ang^3 )

CELL_PARAMETERS (alat=  7.01510508)
   1.457183417   0.000000000   0.000000000
   0.000000000   1.855333441   0.000000000
   0.000000000   0.000000000   2.718112890

ATOMIC_POSITIONS (crystal)
Co       0.750000000   0.823869899   0.433613027
Co       0.250000000   0.176130101   0.566386973
Co       0.750000000   0.323869899   0.066386973
Co       0.250000000   0.676130101   0.933613027
Co       0.250000000   0.540717011   0.276231915
Co       0.750000000   0.459282989   0.723768085
Co       0.250000000   0.040717011   0.223768085
Co       0.750000000   0.959282989   0.776231915
Si       0.250000000   0.193529155   0.895532951
Si       0.750000000   0.806470845   0.104467049
Si       0.250000000   0.693529155   0.604467049
Si       0.750000000   0.306470845   0.395532951
End final coordinates



     A final scf calculation at the relaxed structure.
     The G-vectors are recalculated for the final unit cell
     Results may differ from those at the preceding step.
