
     Program PWSCF v.5.0.2 starts on 22Mar2018 at 21:11:54 

     This program is part of the open-source Quantum ESPRESSO suite
     for quantum simulation of materials; please cite
         "P. Giannozzi et al., J. Phys.:Condens. Matter 21 395502 (2009);
          URL http://www.quantum-espresso.org", 
     in publications or presentations arising from this work. More details at
     http://www.quantum-espresso.org/quote.php

     Parallel version (MPI), running on     4 processors
     R & G space division:  proc/nbgrp/npool/nimage =       4

     Current dimensions of program PWSCF are:
     Max number of different atomic species (ntypx) = 10
     Max number of k-points (npk) =  40000
     Max angular momentum in pseudopotentials (lmaxx) =  3
     Waiting for input...
     Reading input from standard input

     Subspace diagonalization in iterative solution of the eigenvalue problem:
     a serial algorithm will be used

 
     Parallelization info
     --------------------
     sticks:   dense  smooth     PW     G-vecs:    dense   smooth      PW
     Min         238     238     75                 4969     4969     869
     Max         239     239     76                 4974     4974     872
     Sum         955     955    301                19891    19891    3479
 


     bravais-lattice index     =            0
     lattice parameter (alat)  =       9.3790  a.u.
     unit-cell volume          =     583.3913 (a.u.)^3
     number of atoms/cell      =            6
     number of atomic types    =            2
     number of electrons       =        82.00
     number of Kohn-Sham states=           49
     kinetic-energy cutoff     =      40.0000  Ry
     charge density cutoff     =     160.0000  Ry
     convergence threshold     =      1.0E-04
     mixing beta               =       0.7000
     number of iterations used =            8  plain     mixing
     Exchange-correlation      = SLA-PZ-NOGX-NOGC ( 1 1 0 0 0)
     EXX-fraction              =        0.00
     nstep                     =           50


     celldm(1)=   9.379038  celldm(2)=   0.000000  celldm(3)=   0.000000
     celldm(4)=   0.000000  celldm(5)=   0.000000  celldm(6)=   0.000000

     crystal axes: (cart. coord. in units of alat)
               a(1) = (   1.000000   0.000000   0.000000 )  
               a(2) = (   0.500000   0.866025   0.000000 )  
               a(3) = (   0.500000   0.288675   0.816497 )  

     reciprocal axes: (cart. coord. in units 2 pi/alat)
               b(1) = (  1.000000 -0.577350 -0.408248 )  
               b(2) = (  0.000000  1.154701 -0.408248 )  
               b(3) = (  0.000000  0.000000  1.224745 )  


     PseudoPot. # 1 for Eu read from file:
     /home/cwx6513/pp.La/Eu.UPF
     MD5 check sum: 5efdbbfc50c6a10138933a6429836ad2
     Pseudo is Norm-conserving, Zval = 17.0
     Generated in analytical, separable form
     Using radial grid of 1261 points,  6 beta functions with: 
                l(1) =   0
                l(2) =   0
                l(3) =   1
                l(4) =   1
                l(5) =   2
                l(6) =   3

     PseudoPot. # 2 for Ce read from file:
     /home/cwx6513/pp.La/Ce.UPF
     MD5 check sum: 44451aa79a44a00cf2bc029dc19922f6
     Pseudo is Norm-conserving, Zval = 12.0
     Generated in analytical, separable form
     Using radial grid of 1255 points,  6 beta functions with: 
                l(1) =   0
                l(2) =   0
                l(3) =   1
                l(4) =   1
                l(5) =   2
                l(6) =   3

     atomic species   valence    mass     pseudopotential
        Mg            17.00    24.30500     Eu( 1.00)
        Cu            12.00    63.54600     Ce( 1.00)

     12 Sym. Ops., with inversion, found ( 6 have fractional translation)



   Cartesian axes

     site n.     atom                  positions (alat units)
         1           Mg  tau(   1) = (   1.5000000   0.8660254   0.6123724  )
         2           Mg  tau(   2) = (   1.0000000   0.5773503   0.4082483  )
         3           Cu  tau(   3) = (   0.2500000   0.1443376   0.1020621  )
         4           Cu  tau(   4) = (   0.7500000   0.1443376   0.1020621  )
         5           Cu  tau(   5) = (   0.5000000   0.5773503   0.1020621  )
         6           Cu  tau(   6) = (   0.5000000   0.2886751   0.5103104  )

     number of k points=   170  gaussian smearing, width (Ry)=  0.1000

     Number of k-points >= 100: set verbosity='high' to print them.

     Dense  grid:    19891 G-vectors     FFT dimensions: (  40,  40,  40)

     Largest allocated arrays     est. size (Mb)     dimensions
        Kohn-Sham Wavefunctions         0.48 Mb     (    644,   49)
        NL pseudopotentials             1.18 Mb     (    644,  120)
        Each V/rho on FFT grid          0.24 Mb     (  16000)
        Each G-vector array             0.04 Mb     (   4969)
        G-vector shells                 0.04 Mb     (   4969)
     Largest temporary arrays     est. size (Mb)     dimensions
        Each subspace H/S matrix        0.04 Mb     (  49,  49)
        Each <psi_i|beta_j> matrix      0.09 Mb     (    120,   49)
        Arrays for rho mixing           1.95 Mb     (  16000,   8)

     Initial potential from superposition of free atoms

     Starting from uniform charge
     Starting wfc are    0 randomized atomic wfcs

     total cpu time spent up to now is        7.4 secs

     Self-consistent Calculation

     iteration #  1     ecut=    40.00 Ry     beta=0.70
     CG style diagonalization
     c_bands:  3 eigenvalues not converged
     c_bands:  5 eigenvalues not converged
     c_bands:  4 eigenvalues not converged
     c_bands:  2 eigenvalues not converged
     c_bands:  2 eigenvalues not converged
     c_bands:  2 eigenvalues not converged
     c_bands:  4 eigenvalues not converged
     c_bands:  3 eigenvalues not converged
     c_bands:  2 eigenvalues not converged
     c_bands:  4 eigenvalues not converged
     c_bands:  4 eigenvalues not converged
     c_bands:  3 eigenvalues not converged
     c_bands:  4 eigenvalues not converged
     c_bands:  4 eigenvalues not converged
     c_bands:  3 eigenvalues not converged
     c_bands:  1 eigenvalues not converged
     c_bands:  4 eigenvalues not converged
     c_bands:  2 eigenvalues not converged
     c_bands:  3 eigenvalues not converged
     c_bands:  5 eigenvalues not converged
     c_bands:  2 eigenvalues not converged
     c_bands:  2 eigenvalues not converged
     c_bands:  3 eigenvalues not converged
     c_bands:  3 eigenvalues not converged
     c_bands:  5 eigenvalues not converged
     c_bands:  2 eigenvalues not converged
     c_bands:  2 eigenvalues not converged
     c_bands:  4 eigenvalues not converged
     c_bands:  4 eigenvalues not converged
     c_bands:  1 eigenvalues not converged
     c_bands:  4 eigenvalues not converged
     c_bands:  5 eigenvalues not converged
     c_bands:  4 eigenvalues not converged
     c_bands:  3 eigenvalues not converged
     c_bands:  5 eigenvalues not converged
     c_bands:  4 eigenvalues not converged
     c_bands:  1 eigenvalues not converged
     c_bands:  5 eigenvalues not converged
     c_bands:  3 eigenvalues not converged
     c_bands:  2 eigenvalues not converged
     c_bands:  5 eigenvalues not converged
     c_bands:  2 eigenvalues not converged
     c_bands:  2 eigenvalues not converged
     c_bands:  2 eigenvalues not converged
     c_bands:  2 eigenvalues not converged
     c_bands:  2 eigenvalues not converged
     c_bands:  4 eigenvalues not converged
     c_bands:  2 eigenvalues not converged
     c_bands:  4 eigenvalues not converged
     c_bands:  2 eigenvalues not converged
     c_bands:  3 eigenvalues not converged
     c_bands:  4 eigenvalues not converged
     c_bands:  2 eigenvalues not converged
     c_bands:  1 eigenvalues not converged
     c_bands:  1 eigenvalues not converged
     c_bands:  3 eigenvalues not converged
     c_bands:  2 eigenvalues not converged
     c_bands:  2 eigenvalues not converged
     c_bands:  3 eigenvalues not converged
     c_bands:  4 eigenvalues not converged
     c_bands:  4 eigenvalues not converged
     c_bands:  4 eigenvalues not converged
     c_bands:  3 eigenvalues not converged
     c_bands:  4 eigenvalues not converged
     c_bands:  1 eigenvalues not converged
     c_bands:  4 eigenvalues not converged
     c_bands:  1 eigenvalues not converged
     c_bands:  2 eigenvalues not converged
     c_bands:  3 eigenvalues not converged
     c_bands:  2 eigenvalues not converged
     c_bands:  1 eigenvalues not converged
     c_bands:  4 eigenvalues not converged
     c_bands:  3 eigenvalues not converged
     c_bands:  3 eigenvalues not converged
     c_bands:  3 eigenvalues not converged
     c_bands:  4 eigenvalues not converged
     c_bands:  2 eigenvalues not converged
     c_bands:  5 eigenvalues not converged
     c_bands:  2 eigenvalues not converged
     c_bands:  2 eigenvalues not converged
     c_bands:  3 eigenvalues not converged
     c_bands:  1 eigenvalues not converged
     c_bands:  4 eigenvalues not converged
     c_bands:  1 eigenvalues not converged
     c_bands:  4 eigenvalues not converged
     c_bands:  5 eigenvalues not converged
     c_bands:  3 eigenvalues not converged
     c_bands:  3 eigenvalues not converged
     c_bands:  2 eigenvalues not converged
     c_bands:  3 eigenvalues not converged
     c_bands:  4 eigenvalues not converged
     c_bands:  4 eigenvalues not converged
     c_bands:  3 eigenvalues not converged
     c_bands:  5 eigenvalues not converged
     c_bands:  2 eigenvalues not converged
     c_bands:  1 eigenvalues not converged
     c_bands:  1 eigenvalues not converged
     c_bands:  4 eigenvalues not converged
     c_bands:  4 eigenvalues not converged
     c_bands:  3 eigenvalues not converged
     c_bands:  3 eigenvalues not converged
     c_bands:  3 eigenvalues not converged
     c_bands:  1 eigenvalues not converged
     c_bands:  2 eigenvalues not converged
     c_bands:  4 eigenvalues not converged
     c_bands:  3 eigenvalues not converged
     c_bands:  4 eigenvalues not converged
     c_bands:  4 eigenvalues not converged
     c_bands:  2 eigenvalues not converged
     c_bands:  2 eigenvalues not converged
     c_bands:  4 eigenvalues not converged
     c_bands:  3 eigenvalues not converged
     c_bands:  4 eigenvalues not converged
     c_bands:  2 eigenvalues not converged
     c_bands:  3 eigenvalues not converged
     c_bands:  4 eigenvalues not converged
     c_bands:  2 eigenvalues not converged
     c_bands:  3 eigenvalues not converged
     c_bands:  3 eigenvalues not converged
     c_bands:  2 eigenvalues not converged
     c_bands:  4 eigenvalues not converged
     c_bands:  2 eigenvalues not converged
     c_bands:  2 eigenvalues not converged
     c_bands:  1 eigenvalues not converged
     ethr =  1.00E-02,  avg # of iterations = 13.9

     total cpu time spent up to now is      104.6 secs

     total energy              =    -515.23741773 Ry
     Harris-Foulkes estimate   =    -735.59624831 Ry
     estimated scf accuracy    <     278.21112853 Ry

     iteration #  2     ecut=    40.00 Ry     beta=0.70
     CG style diagonalization
     c_bands:  2 eigenvalues not converged
     c_bands:  1 eigenvalues not converged
     c_bands:  1 eigenvalues not converged
     c_bands:  1 eigenvalues not converged
     c_bands:  4 eigenvalues not converged
     c_bands:  3 eigenvalues not converged
     c_bands:  1 eigenvalues not converged
     c_bands:  1 eigenvalues not converged
     c_bands:  1 eigenvalues not converged
     c_bands:  1 eigenvalues not converged
     c_bands:  2 eigenvalues not converged
     c_bands:  1 eigenvalues not converged
     c_bands:  2 eigenvalues not converged
     c_bands:  1 eigenvalues not converged
     c_bands:  2 eigenvalues not converged
     c_bands:  1 eigenvalues not converged
     c_bands:  1 eigenvalues not converged
     c_bands:  1 eigenvalues not converged
     c_bands:  1 eigenvalues not converged
     c_bands:  2 eigenvalues not converged
     c_bands:  1 eigenvalues not converged
     c_bands:  1 eigenvalues not converged
     c_bands:  1 eigenvalues not converged
     c_bands:  2 eigenvalues not converged
     c_bands:  2 eigenvalues not converged
     c_bands:  2 eigenvalues not converged
     c_bands:  1 eigenvalues not converged
     c_bands:  2 eigenvalues not converged
     c_bands:  2 eigenvalues not converged
     c_bands:  1 eigenvalues not converged
     c_bands:  2 eigenvalues not converged
     c_bands:  1 eigenvalues not converged
     c_bands:  2 eigenvalues not converged
     c_bands:  1 eigenvalues not converged
     c_bands:  1 eigenvalues not converged
     c_bands:  1 eigenvalues not converged
     c_bands:  2 eigenvalues not converged
     c_bands:  1 eigenvalues not converged
     c_bands:  1 eigenvalues not converged
     c_bands:  2 eigenvalues not converged
     c_bands:  1 eigenvalues not converged
     c_bands:  1 eigenvalues not converged
     c_bands:  1 eigenvalues not converged
     c_bands:  1 eigenvalues not converged
     c_bands:  2 eigenvalues not converged
     c_bands:  1 eigenvalues not converged
     c_bands:  1 eigenvalues not converged
     c_bands:  1 eigenvalues not converged
     c_bands:  1 eigenvalues not converged
     c_bands:  2 eigenvalues not converged
     c_bands:  2 eigenvalues not converged
     c_bands:  1 eigenvalues not converged
     c_bands:  3 eigenvalues not converged
     c_bands:  1 eigenvalues not converged
     c_bands:  1 eigenvalues not converged
     c_bands:  1 eigenvalues not converged
     c_bands:  1 eigenvalues not converged
     c_bands:  1 eigenvalues not converged
     c_bands:  2 eigenvalues not converged
     c_bands:  1 eigenvalues not converged
     c_bands:  2 eigenvalues not converged
     c_bands:  1 eigenvalues not converged
     c_bands:  1 eigenvalues not converged
     c_bands:  1 eigenvalues not converged
     c_bands:  2 eigenvalues not converged
     c_bands:  1 eigenvalues not converged
     c_bands:  2 eigenvalues not converged
     c_bands:  2 eigenvalues not converged
     c_bands:  1 eigenvalues not converged
     c_bands:  1 eigenvalues not converged
     c_bands:  1 eigenvalues not converged
     c_bands:  1 eigenvalues not converged
     c_bands:  1 eigenvalues not converged
     c_bands:  2 eigenvalues not converged
     c_bands:  2 eigenvalues not converged
     c_bands:  1 eigenvalues not converged
     c_bands:  1 eigenvalues not converged
     c_bands:  2 eigenvalues not converged
     c_bands:  1 eigenvalues not converged
     c_bands:  1 eigenvalues not converged
     c_bands:  2 eigenvalues not converged
     c_bands:  1 eigenvalues not converged
     c_bands:  2 eigenvalues not converged
     c_bands:  1 eigenvalues not converged
     c_bands:  1 eigenvalues not converged
     c_bands:  1 eigenvalues not converged
     c_bands:  1 eigenvalues not converged
     c_bands:  2 eigenvalues not converged
     c_bands:  2 eigenvalues not converged
     c_bands:  1 eigenvalues not converged
     c_bands:  2 eigenvalues not converged
     c_bands:  1 eigenvalues not converged
     c_bands:  2 eigenvalues not converged
     c_bands:  2 eigenvalues not converged
     c_bands:  1 eigenvalues not converged
     c_bands:  1 eigenvalues not converged
     c_bands:  2 eigenvalues not converged
     c_bands:  1 eigenvalues not converged
     c_bands:  2 eigenvalues not converged
     c_bands:  2 eigenvalues not converged
     c_bands:  1 eigenvalues not converged
     ethr =  1.00E-02,  avg # of iterations = 11.3

     total cpu time spent up to now is      183.2 secs

     total energy              =    -573.22659384 Ry
     Harris-Foulkes estimate   =    -781.71489540 Ry
     estimated scf accuracy    <     418.13093949 Ry

     iteration #  3     ecut=    40.00 Ry     beta=0.70
     CG style diagonalization
     c_bands:  1 eigenvalues not converged
     c_bands:  1 eigenvalues not converged
     c_bands:  1 eigenvalues not converged
     c_bands:  1 eigenvalues not converged
     c_bands:  1 eigenvalues not converged
     c_bands:  1 eigenvalues not converged
     c_bands:  1 eigenvalues not converged
     c_bands:  1 eigenvalues not converged
     c_bands:  1 eigenvalues not converged
     ethr =  1.00E-02,  avg # of iterations = 11.1

     total cpu time spent up to now is      261.6 secs

     total energy              =    -654.16177523 Ry
     Harris-Foulkes estimate   =    -662.87095966 Ry
     estimated scf accuracy    <      16.02115791 Ry

     iteration #  4     ecut=    40.00 Ry     beta=0.70
     CG style diagonalization
     ethr =  1.00E-02,  avg # of iterations =  4.1

     total cpu time spent up to now is      293.9 secs

     total energy              =    -656.83976049 Ry
     Harris-Foulkes estimate   =    -657.26686112 Ry
     estimated scf accuracy    <       0.76406951 Ry

     iteration #  5     ecut=    40.00 Ry     beta=0.70
     CG style diagonalization
     c_bands:  1 eigenvalues not converged
     c_bands:  1 eigenvalues not converged
     c_bands:  1 eigenvalues not converged
     c_bands:  1 eigenvalues not converged
     ethr =  9.32E-04,  avg # of iterations =  4.7

     total cpu time spent up to now is      327.7 secs

     total energy              =    -657.09642918 Ry
     Harris-Foulkes estimate   =    -657.12798532 Ry
     estimated scf accuracy    <       0.05711859 Ry

     iteration #  6     ecut=    40.00 Ry     beta=0.70
     CG style diagonalization
     c_bands:  1 eigenvalues not converged
     c_bands:  2 eigenvalues not converged
     c_bands:  1 eigenvalues not converged
     c_bands:  1 eigenvalues not converged
     c_bands:  1 eigenvalues not converged
     c_bands:  1 eigenvalues not converged
     c_bands:  1 eigenvalues not converged
     c_bands:  1 eigenvalues not converged
     c_bands:  1 eigenvalues not converged
     c_bands:  1 eigenvalues not converged
     c_bands:  1 eigenvalues not converged
     c_bands:  1 eigenvalues not converged
     c_bands:  1 eigenvalues not converged
     c_bands:  1 eigenvalues not converged
     c_bands:  1 eigenvalues not converged
     c_bands:  1 eigenvalues not converged
     c_bands:  1 eigenvalues not converged
     c_bands:  1 eigenvalues not converged
     c_bands:  1 eigenvalues not converged
     c_bands:  1 eigenvalues not converged
     c_bands:  1 eigenvalues not converged
     c_bands:  1 eigenvalues not converged
     c_bands:  1 eigenvalues not converged
     c_bands:  1 eigenvalues not converged
     c_bands:  1 eigenvalues not converged
     c_bands:  1 eigenvalues not converged
     c_bands:  1 eigenvalues not converged
     c_bands:  1 eigenvalues not converged
     ethr =  6.97E-05,  avg # of iterations =  5.1

     total cpu time spent up to now is      364.2 secs

     total energy              =    -657.12765932 Ry
     Harris-Foulkes estimate   =    -657.13294005 Ry
     estimated scf accuracy    <       0.01393288 Ry

     iteration #  7     ecut=    40.00 Ry     beta=0.70
     CG style diagonalization
     c_bands:  1 eigenvalues not converged
     c_bands:  1 eigenvalues not converged
     c_bands:  1 eigenvalues not converged
     c_bands:  1 eigenvalues not converged
     c_bands:  1 eigenvalues not converged
     c_bands:  1 eigenvalues not converged
     c_bands:  1 eigenvalues not converged
     c_bands:  1 eigenvalues not converged
     c_bands:  1 eigenvalues not converged
     c_bands:  1 eigenvalues not converged
     c_bands:  1 eigenvalues not converged
     c_bands:  1 eigenvalues not converged
     c_bands:  1 eigenvalues not converged
     ethr =  1.70E-05,  avg # of iterations =  3.8

     total cpu time spent up to now is      391.0 secs

     total energy              =    -657.12979352 Ry
     Harris-Foulkes estimate   =    -657.13042966 Ry
     estimated scf accuracy    <       0.00141694 Ry

     iteration #  8     ecut=    40.00 Ry     beta=0.70
     CG style diagonalization
     c_bands:  1 eigenvalues not converged
     c_bands:  1 eigenvalues not converged
     c_bands:  1 eigenvalues not converged
     c_bands:  1 eigenvalues not converged
     c_bands:  1 eigenvalues not converged
     c_bands:  1 eigenvalues not converged
     c_bands:  1 eigenvalues not converged
     c_bands:  1 eigenvalues not converged
     c_bands:  1 eigenvalues not converged
     c_bands:  1 eigenvalues not converged
     c_bands:  1 eigenvalues not converged
     c_bands:  1 eigenvalues not converged
     c_bands:  1 eigenvalues not converged
     ethr =  1.73E-06,  avg # of iterations =  4.8

     total cpu time spent up to now is      424.6 secs

     End of self-consistent calculation

     Number of k-points >= 100: set verbosity='high' to print the bands.

     the Fermi energy is    32.9397 ev

!    total energy              =    -657.13035636 Ry
     Harris-Foulkes estimate   =    -657.13041750 Ry
     estimated scf accuracy    <       0.00008653 Ry

     The total energy is the sum of the following terms:

     one-electron contribution =      95.05357420 Ry
     hartree contribution      =      44.56591986 Ry
     xc contribution           =     -81.59088074 Ry
     ewald contribution        =    -714.93033442 Ry
     smearing contrib. (-TS)   =      -0.22863525 Ry

     convergence has been achieved in   8 iterations

     Forces acting on atoms (Ry/au):

     atom    1 type  1   force =     0.00000000    0.00000000   -0.01190318
     atom    2 type  1   force =     0.00000000    0.00000000    0.01190318
     atom    3 type  2   force =     0.00000000    0.00000000    0.00000000
     atom    4 type  2   force =     0.00000000    0.00000000    0.00000000
     atom    5 type  2   force =     0.00000000    0.00000000    0.00000000
     atom    6 type  2   force =     0.00000000    0.00000000    0.00000000

     Total force =     0.016834     Total SCF correction =     0.000000


     entering subroutine stress ...

          total   stress  (Ry/bohr**3)                   (kbar)     P= 2058.76
   0.01399136   0.00000000   0.00000000       2058.20      0.00      0.00
   0.00000000   0.01399136   0.00000000          0.00   2058.20      0.00
   0.00000000   0.00000000   0.01400285          0.00      0.00   2059.89


     BFGS Geometry Optimization

     number of scf cycles    =   1
     number of bfgs steps    =   0

     enthalpy new            =    -657.1303563590 Ry

     new trust radius        =       0.5000000000 bohr
     new conv_thr            =       0.0001000000 Ry

     new unit-cell volume =    783.81868 a.u.^3 (   116.14994 Ang^3 )

CELL_PARAMETERS (alat=  9.37903830)
   1.103419733   0.000000000   0.000000000
   0.551709867   0.955589520   0.000000000
   0.551709867   0.318529840   0.901007810

ATOMIC_POSITIONS (crystal)
Mg       0.750153191   0.750153191   0.749540428
Mg       0.499846809   0.499846809   0.500459572
Cu       0.125000000   0.125000000   0.125000000
Cu       0.625000000   0.125000000   0.125000000
Cu       0.125000000   0.625000000   0.125000000
Cu       0.125000000   0.125000000   0.625000000



     Writing output data file Prototype-La-cF24-Cu2Mg.save
     NEW-OLD atomic charge density approx. for the potential
     NEW k-points: (use verbosity='high' to print them)

     total cpu time spent up to now is      432.4 secs

     Self-consistent Calculation

     iteration #  1     ecut=    40.00 Ry     beta=0.70
     CG style diagonalization
     c_bands:  3 eigenvalues not converged
     c_bands:  1 eigenvalues not converged
     c_bands:  2 eigenvalues not converged
     c_bands:  1 eigenvalues not converged
     c_bands:  1 eigenvalues not converged
     c_bands:  1 eigenvalues not converged
     c_bands:  2 eigenvalues not converged
     c_bands:  1 eigenvalues not converged
     c_bands:  1 eigenvalues not converged
     c_bands:  2 eigenvalues not converged
     c_bands:  1 eigenvalues not converged
     c_bands:  2 eigenvalues not converged
     c_bands:  1 eigenvalues not converged
     c_bands:  2 eigenvalues not converged
     c_bands:  2 eigenvalues not converged
     c_bands:  2 eigenvalues not converged
     c_bands:  1 eigenvalues not converged
     c_bands:  1 eigenvalues not converged
     c_bands:  1 eigenvalues not converged
     c_bands:  2 eigenvalues not converged
     c_bands:  1 eigenvalues not converged
     c_bands:  1 eigenvalues not converged
     c_bands:  1 eigenvalues not converged
     c_bands:  1 eigenvalues not converged
     c_bands:  1 eigenvalues not converged
     c_bands:  1 eigenvalues not converged
     c_bands:  2 eigenvalues not converged
     c_bands:  1 eigenvalues not converged
     c_bands:  2 eigenvalues not converged
     c_bands:  1 eigenvalues not converged
     c_bands:  1 eigenvalues not converged
     c_bands:  1 eigenvalues not converged
     c_bands:  1 eigenvalues not converged
     c_bands:  2 eigenvalues not converged
     c_bands:  1 eigenvalues not converged
     c_bands:  2 eigenvalues not converged
     c_bands:  1 eigenvalues not converged
     c_bands:  1 eigenvalues not converged
     c_bands:  1 eigenvalues not converged
     c_bands:  1 eigenvalues not converged
     c_bands:  1 eigenvalues not converged
     c_bands:  1 eigenvalues not converged
     c_bands:  1 eigenvalues not converged
     c_bands:  1 eigenvalues not converged
     c_bands:  1 eigenvalues not converged
     c_bands:  1 eigenvalues not converged
     c_bands:  1 eigenvalues not converged
     c_bands:  1 eigenvalues not converged
     c_bands:  1 eigenvalues not converged
     c_bands:  1 eigenvalues not converged
     c_bands:  2 eigenvalues not converged
     c_bands:  2 eigenvalues not converged
     c_bands:  1 eigenvalues not converged
     c_bands:  2 eigenvalues not converged
     c_bands:  2 eigenvalues not converged
     c_bands:  2 eigenvalues not converged
     c_bands:  2 eigenvalues not converged
     c_bands:  1 eigenvalues not converged
     ethr =  1.00E-06,  avg # of iterations = 21.8

     total cpu time spent up to now is      573.5 secs

     total energy              =    -651.74028095 Ry
     Harris-Foulkes estimate   =    -664.23210645 Ry
     estimated scf accuracy    <      16.09348088 Ry

     iteration #  2     ecut=    40.00 Ry     beta=0.70
     CG style diagonalization
     ethr =  1.00E-02,  avg # of iterations =  4.5

     total cpu time spent up to now is      605.8 secs

     total energy              =    -648.30043171 Ry
     Harris-Foulkes estimate   =    -666.73795910 Ry
     estimated scf accuracy    <      45.90376146 Ry

     iteration #  3     ecut=    40.00 Ry     beta=0.70
     CG style diagonalization
     ethr =  1.00E-02,  avg # of iterations =  5.2

     total cpu time spent up to now is      643.3 secs

     total energy              =    -657.61598260 Ry
     Harris-Foulkes estimate   =    -659.63881844 Ry
     estimated scf accuracy    <       5.76098735 Ry

     iteration #  4     ecut=    40.00 Ry     beta=0.70
     CG style diagonalization
     ethr =  7.03E-03,  avg # of iterations =  3.3

     total cpu time spent up to now is      666.4 secs

     total energy              =    -658.16594505 Ry
     Harris-Foulkes estimate   =    -658.32324837 Ry
     estimated scf accuracy    <       0.55777076 Ry

     iteration #  5     ecut=    40.00 Ry     beta=0.70
     CG style diagonalization
     c_bands:  1 eigenvalues not converged
     c_bands:  1 eigenvalues not converged
     c_bands:  1 eigenvalues not converged
     c_bands:  1 eigenvalues not converged
     c_bands:  1 eigenvalues not converged
     c_bands:  1 eigenvalues not converged
     c_bands:  2 eigenvalues not converged
     c_bands:  1 eigenvalues not converged
     ethr =  6.80E-04,  avg # of iterations =  4.5

     total cpu time spent up to now is      698.0 secs

     total energy              =    -658.38145241 Ry
     Harris-Foulkes estimate   =    -658.39638913 Ry
     estimated scf accuracy    <       0.02919228 Ry

     iteration #  6     ecut=    40.00 Ry     beta=0.70
     CG style diagonalization
     c_bands:  1 eigenvalues not converged
     c_bands:  1 eigenvalues not converged
     c_bands:  2 eigenvalues not converged
     c_bands:  3 eigenvalues not converged
     c_bands:  1 eigenvalues not converged
     c_bands:  1 eigenvalues not converged
     c_bands:  1 eigenvalues not converged
     c_bands:  1 eigenvalues not converged
     c_bands:  1 eigenvalues not converged
     c_bands:  1 eigenvalues not converged
     c_bands:  1 eigenvalues not converged
     c_bands:  1 eigenvalues not converged
     c_bands:  1 eigenvalues not converged
     c_bands:  1 eigenvalues not converged
     c_bands:  1 eigenvalues not converged
     c_bands:  1 eigenvalues not converged
     c_bands:  1 eigenvalues not converged
     c_bands:  1 eigenvalues not converged
     c_bands:  2 eigenvalues not converged
     c_bands:  3 eigenvalues not converged
     c_bands:  1 eigenvalues not converged
     c_bands:  4 eigenvalues not converged
     c_bands:  1 eigenvalues not converged
     c_bands:  2 eigenvalues not converged
     c_bands:  1 eigenvalues not converged
     c_bands:  1 eigenvalues not converged
     c_bands:  2 eigenvalues not converged
     c_bands:  1 eigenvalues not converged
     c_bands:  1 eigenvalues not converged
     c_bands:  1 eigenvalues not converged
     c_bands:  2 eigenvalues not converged
     c_bands:  3 eigenvalues not converged
     c_bands:  1 eigenvalues not converged
     c_bands:  1 eigenvalues not converged
     c_bands:  1 eigenvalues not converged
     c_bands:  2 eigenvalues not converged
     c_bands:  1 eigenvalues not converged
     c_bands:  1 eigenvalues not converged
     c_bands:  1 eigenvalues not converged
     c_bands:  1 eigenvalues not converged
     c_bands:  1 eigenvalues not converged
     c_bands:  1 eigenvalues not converged
     c_bands:  2 eigenvalues not converged
     c_bands:  2 eigenvalues not converged
     c_bands:  1 eigenvalues not converged
     c_bands:  2 eigenvalues not converged
     c_bands:  2 eigenvalues not converged
     c_bands:  5 eigenvalues not converged
     c_bands:  1 eigenvalues not converged
     c_bands:  1 eigenvalues not converged
     c_bands:  1 eigenvalues not converged
     c_bands:  1 eigenvalues not converged
     c_bands:  1 eigenvalues not converged
     c_bands:  2 eigenvalues not converged
     c_bands:  1 eigenvalues not converged
     c_bands:  1 eigenvalues not converged
     c_bands:  2 eigenvalues not converged
     c_bands:  3 eigenvalues not converged
     ethr =  3.56E-05,  avg # of iterations =  5.2

     total cpu time spent up to now is      734.6 secs

     total energy              =    -658.40083487 Ry
     Harris-Foulkes estimate   =    -658.40318741 Ry
     estimated scf accuracy    <       0.00940750 Ry

     iteration #  7     ecut=    40.00 Ry     beta=0.70
     CG style diagonalization
     c_bands:  1 eigenvalues not converged
     c_bands:  1 eigenvalues not converged
     c_bands:  1 eigenvalues not converged
     c_bands:  1 eigenvalues not converged
     c_bands:  1 eigenvalues not converged
     c_bands:  1 eigenvalues not converged
     c_bands:  2 eigenvalues not converged
     c_bands:  1 eigenvalues not converged
     c_bands:  1 eigenvalues not converged
     c_bands:  1 eigenvalues not converged
     c_bands:  1 eigenvalues not converged
     c_bands:  2 eigenvalues not converged
     c_bands:  1 eigenvalues not converged
     c_bands:  1 eigenvalues not converged
     c_bands:  1 eigenvalues not converged
     c_bands:  1 eigenvalues not converged
     c_bands:  1 eigenvalues not converged
     c_bands:  1 eigenvalues not converged
     c_bands:  1 eigenvalues not converged
     c_bands:  1 eigenvalues not converged
     c_bands:  1 eigenvalues not converged
     c_bands:  1 eigenvalues not converged
     c_bands:  1 eigenvalues not converged
     c_bands:  2 eigenvalues not converged
     ethr =  1.15E-05,  avg # of iterations =  3.5

     total cpu time spent up to now is      760.0 secs

     total energy              =    -658.40004404 Ry
     Harris-Foulkes estimate   =    -658.40205800 Ry
     estimated scf accuracy    <       0.00541920 Ry

     iteration #  8     ecut=    40.00 Ry     beta=0.70
     CG style diagonalization
     c_bands:  1 eigenvalues not converged
     ethr =  6.61E-06,  avg # of iterations =  3.3

     total cpu time spent up to now is      783.3 secs

     End of self-consistent calculation

     Number of k-points >= 100: set verbosity='high' to print the bands.

     the Fermi energy is    23.6625 ev

!    total energy              =    -658.40076965 Ry
     Harris-Foulkes estimate   =    -658.40085422 Ry
     estimated scf accuracy    <       0.00009321 Ry

     The total energy is the sum of the following terms:

     one-electron contribution =       5.12817348 Ry
     hartree contribution      =      63.20888132 Ry
     xc contribution           =     -78.51893524 Ry
     ewald contribution        =    -647.90552381 Ry
     smearing contrib. (-TS)   =      -0.31336540 Ry

     convergence has been achieved in   8 iterations

     Forces acting on atoms (Ry/au):

     atom    1 type  1   force =     0.00000000    0.00000000    0.00550686
     atom    2 type  1   force =     0.00000000    0.00000000   -0.00550686
     atom    3 type  2   force =     0.00000000    0.00000000    0.00000000
     atom    4 type  2   force =     0.00000000    0.00000000    0.00000000
     atom    5 type  2   force =     0.00000000    0.00000000    0.00000000
     atom    6 type  2   force =     0.00000000    0.00000000    0.00000000

     Total force =     0.007788     Total SCF correction =     0.000000


     entering subroutine stress ...

          total   stress  (Ry/bohr**3)                   (kbar)     P=  185.28
   0.00125505   0.00000000   0.00000000        184.62      0.00      0.00
   0.00000000   0.00125505   0.00000000          0.00    184.62      0.00
   0.00000000   0.00000000   0.00126845          0.00      0.00    186.59


     number of scf cycles    =   2
     number of bfgs steps    =   1

     enthalpy old            =    -657.1303563590 Ry
     enthalpy new            =    -658.4007696503 Ry

     CASE: enthalpy_new < enthalpy_old

     small trust_radius: resetting bfgs history

     new trust radius        =       0.1775620790 bohr
     new conv_thr            =       0.0000055069 Ry

     new unit-cell volume =    860.21711 a.u.^3 (   127.47102 Ang^3 )

CELL_PARAMETERS (alat=  9.37903830)
   1.138041006   0.000000000   0.000000000
   0.569020503   0.985572422   0.000000000
   0.569020503   0.328524141   0.929579833

ATOMIC_POSITIONS (crystal)
Mg       0.749935973   0.749935973   0.750192082
Mg       0.500064027   0.500064027   0.499807918
Cu       0.125000000   0.125000000   0.125000000
Cu       0.625000000   0.125000000   0.125000000
Cu       0.125000000   0.625000000   0.125000000
Cu       0.125000000   0.125000000   0.625000000



     Writing output data file Prototype-La-cF24-Cu2Mg.save
     NEW-OLD atomic charge density approx. for the potential
     NEW k-points: (use verbosity='high' to print them)

     total cpu time spent up to now is      790.1 secs

     Self-consistent Calculation

     iteration #  1     ecut=    40.00 Ry     beta=0.70
     CG style diagonalization
     c_bands:  1 eigenvalues not converged
     c_bands:  5 eigenvalues not converged
     c_bands:  3 eigenvalues not converged
     c_bands:  4 eigenvalues not converged
     c_bands:  2 eigenvalues not converged
     c_bands:  1 eigenvalues not converged
     c_bands:  4 eigenvalues not converged
     c_bands:  3 eigenvalues not converged
     c_bands:  4 eigenvalues not converged
     c_bands:  4 eigenvalues not converged
     c_bands:  5 eigenvalues not converged
     c_bands:  4 eigenvalues not converged
     c_bands:  5 eigenvalues not converged
     c_bands:  5 eigenvalues not converged
     c_bands:  5 eigenvalues not converged
     c_bands:  1 eigenvalues not converged
     c_bands:  1 eigenvalues not converged
     c_bands:  1 eigenvalues not converged
     c_bands:  1 eigenvalues not converged
     c_bands:  1 eigenvalues not converged
     c_bands:  1 eigenvalues not converged
     c_bands:  1 eigenvalues not converged
     c_bands:  1 eigenvalues not converged
     c_bands:  1 eigenvalues not converged
     c_bands:  3 eigenvalues not converged
     c_bands:  1 eigenvalues not converged
     c_bands:  1 eigenvalues not converged
     c_bands:  3 eigenvalues not converged
     c_bands:  1 eigenvalues not converged
     c_bands:  1 eigenvalues not converged
     c_bands:  2 eigenvalues not converged
     c_bands:  1 eigenvalues not converged
     c_bands:  5 eigenvalues not converged
     ethr =  1.00E-06,  avg # of iterations = 16.3

     total cpu time spent up to now is     1126.3 secs

     total energy              =    -657.32625582 Ry
     Harris-Foulkes estimate   =    -659.03868274 Ry
     estimated scf accuracy    <       2.14983647 Ry

     iteration #  2     ecut=    40.00 Ry     beta=0.70
     CG style diagonalization
     ethr =  2.62E-03,  avg # of iterations =  4.2

     total cpu time spent up to now is     1228.6 secs

     total energy              =    -655.64518390 Ry
     Harris-Foulkes estimate   =    -660.55690927 Ry
     estimated scf accuracy    <      17.62274218 Ry

     iteration #  3     ecut=    40.00 Ry     beta=0.70
     CG style diagonalization
     ethr =  2.62E-03,  avg # of iterations =  4.3

     total cpu time spent up to now is     1338.2 secs

     total energy              =    -658.31580534 Ry
     Harris-Foulkes estimate   =    -658.49613340 Ry
     estimated scf accuracy    <       0.50945051 Ry

     iteration #  4     ecut=    40.00 Ry     beta=0.70
     CG style diagonalization
     ethr =  6.21E-04,  avg # of iterations =  3.5

     total cpu time spent up to now is     1408.2 secs

     total energy              =    -658.38189501 Ry
     Harris-Foulkes estimate   =    -658.39667346 Ry
     estimated scf accuracy    <       0.06560184 Ry

     iteration #  5     ecut=    40.00 Ry     beta=0.70
     CG style diagonalization
     c_bands:  1 eigenvalues not converged
     c_bands:  1 eigenvalues not converged
     c_bands:  1 eigenvalues not converged
     ethr =  8.00E-05,  avg # of iterations =  3.9

     total cpu time spent up to now is     1482.9 secs

     total energy              =    -658.39361404 Ry
     Harris-Foulkes estimate   =    -658.39525239 Ry
     estimated scf accuracy    <       0.00537312 Ry

     iteration #  6     ecut=    40.00 Ry     beta=0.70
     CG style diagonalization
     c_bands:  1 eigenvalues not converged
     c_bands:  1 eigenvalues not converged
     c_bands:  1 eigenvalues not converged
     c_bands:  1 eigenvalues not converged
     c_bands:  1 eigenvalues not converged
     c_bands:  1 eigenvalues not converged
     c_bands:  1 eigenvalues not converged
     c_bands:  1 eigenvalues not converged
     c_bands:  1 eigenvalues not converged
     c_bands:  1 eigenvalues not converged
     c_bands:  1 eigenvalues not converged
     ethr =  6.55E-06,  avg # of iterations =  4.4

     total cpu time spent up to now is     1569.0 secs

     total energy              =    -658.39536480 Ry
     Harris-Foulkes estimate   =    -658.39568295 Ry
     estimated scf accuracy    <       0.00073028 Ry

     iteration #  7     ecut=    40.00 Ry     beta=0.70
     CG style diagonalization
     c_bands:  1 eigenvalues not converged
     c_bands:  1 eigenvalues not converged
     c_bands:  1 eigenvalues not converged
     c_bands:  1 eigenvalues not converged
     c_bands:  1 eigenvalues not converged
     c_bands:  1 eigenvalues not converged
     ethr =  8.91E-07,  avg # of iterations =  4.3

     total cpu time spent up to now is     1653.6 secs

     total energy              =    -658.39562332 Ry
     Harris-Foulkes estimate   =    -658.39567302 Ry
     estimated scf accuracy    <       0.00021442 Ry

     iteration #  8     ecut=    40.00 Ry     beta=0.70
     CG style diagonalization
     c_bands:  1 eigenvalues not converged
     ethr =  2.61E-07,  avg # of iterations =  3.2

     total cpu time spent up to now is     1685.0 secs

     total energy              =    -658.39564110 Ry
     Harris-Foulkes estimate   =    -658.39564713 Ry
     estimated scf accuracy    <       0.00002408 Ry

     iteration #  9     ecut=    40.00 Ry     beta=0.70
     CG style diagonalization
     ethr =  2.94E-08,  avg # of iterations =  4.1

     total cpu time spent up to now is     1716.1 secs

     End of self-consistent calculation

     Number of k-points >= 100: set verbosity='high' to print the bands.

     the Fermi energy is    21.2557 ev

!    total energy              =    -658.39564832 Ry
     Harris-Foulkes estimate   =    -658.39564873 Ry
     estimated scf accuracy    <       0.00000051 Ry

     The total energy is the sum of the following terms:

     one-electron contribution =     -21.77904389 Ry
     hartree contribution      =      69.57068218 Ry
     xc contribution           =     -77.71242102 Ry
     ewald contribution        =    -628.12726263 Ry
     smearing contrib. (-TS)   =      -0.34760295 Ry

     convergence has been achieved in   9 iterations

     Forces acting on atoms (Ry/au):

     atom    1 type  1   force =     0.00000000    0.00000000    0.00113269
     atom    2 type  1   force =     0.00000000    0.00000000   -0.00113269
     atom    3 type  2   force =     0.00000000    0.00000000    0.00000000
     atom    4 type  2   force =     0.00000000    0.00000000    0.00000000
     atom    5 type  2   force =     0.00000000    0.00000000    0.00000000
     atom    6 type  2   force =     0.00000000    0.00000000    0.00000000

     Total force =     0.001602     Total SCF correction =     0.000000


     entering subroutine stress ...

          total   stress  (Ry/bohr**3)                   (kbar)     P= -162.37
  -0.00110050   0.00000000   0.00000000       -161.89      0.00      0.00
   0.00000000  -0.00110050   0.00000000          0.00   -161.89      0.00
   0.00000000   0.00000000  -0.00111035          0.00      0.00   -163.34


     number of scf cycles    =   3
     number of bfgs steps    =   2

     enthalpy old            =    -658.4007696503 Ry
     enthalpy new            =    -658.3956483160 Ry

     CASE: enthalpy_new > enthalpy_old

     new trust radius        =       0.0854586014 bohr

     trust_radius < trust_radius_min

     resetting bfgs history

     Message from routine bfgs:
     history already reset at previous step: stopping
     new conv_thr            =       0.0000055069 Ry

     new unit-cell volume =    857.81461 a.u.^3 (   127.11501 Ang^3 )

CELL_PARAMETERS (alat=  9.37903830)
   1.136976869   0.000000000   0.000000000
   0.568488435   0.984650852   0.000000000
   0.568488435   0.328216951   0.928719614

ATOMIC_POSITIONS (crystal)
Mg       0.749949121   0.749949121   0.750152638
Mg       0.500050879   0.500050879   0.499847362
Cu       0.125000000   0.125000000   0.125000000
Cu       0.625000000   0.125000000   0.125000000
Cu       0.125000000   0.625000000   0.125000000
Cu       0.125000000   0.125000000   0.625000000



     Writing output data file Prototype-La-cF24-Cu2Mg.save
     NEW-OLD atomic charge density approx. for the potential
     NEW k-points: (use verbosity='high' to print them)

     total cpu time spent up to now is     1722.7 secs

     Self-consistent Calculation

     iteration #  1     ecut=    40.00 Ry     beta=0.70
     CG style diagonalization
     ethr =  1.00E-06,  avg # of iterations =  4.5

     total cpu time spent up to now is     1754.8 secs

     total energy              =    -658.39729647 Ry
     Harris-Foulkes estimate   =    -658.39885862 Ry
     estimated scf accuracy    <       0.00195908 Ry

     iteration #  2     ecut=    40.00 Ry     beta=0.70
     CG style diagonalization
     ethr =  2.39E-06,  avg # of iterations =  3.9

     total cpu time spent up to now is     1783.5 secs

     total energy              =    -658.39638790 Ry
     Harris-Foulkes estimate   =    -658.39994020 Ry
     estimated scf accuracy    <       0.01082421 Ry

     iteration #  3     ecut=    40.00 Ry     beta=0.70
     CG style diagonalization
     ethr =  2.39E-06,  avg # of iterations =  3.7

     total cpu time spent up to now is     1811.1 secs

     total energy              =    -658.39816250 Ry
     Harris-Foulkes estimate   =    -658.39832136 Ry
     estimated scf accuracy    <       0.00046699 Ry

     iteration #  4     ecut=    40.00 Ry     beta=0.70
     CG style diagonalization
     ethr =  5.69E-07,  avg # of iterations =  3.3

     total cpu time spent up to now is     1835.6 secs

     total energy              =    -658.39823958 Ry
     Harris-Foulkes estimate   =    -658.39824471 Ry
     estimated scf accuracy    <       0.00001057 Ry

     iteration #  5     ecut=    40.00 Ry     beta=0.70
     CG style diagonalization
     ethr =  1.29E-08,  avg # of iterations =  4.3

     total cpu time spent up to now is     1867.1 secs

     End of self-consistent calculation

     Number of k-points >= 100: set verbosity='high' to print the bands.

     the Fermi energy is    21.3254 ev

!    total energy              =    -658.39824441 Ry
     Harris-Foulkes estimate   =    -658.39824726 Ry
     estimated scf accuracy    <       0.00000319 Ry

     The total energy is the sum of the following terms:

     one-electron contribution =     -20.96888616 Ry
     hartree contribution      =      69.36401039 Ry
     xc contribution           =     -77.73370917 Ry
     ewald contribution        =    -628.71313332 Ry
     smearing contrib. (-TS)   =      -0.34652615 Ry

     convergence has been achieved in   5 iterations

     Forces acting on atoms (Ry/au):

     atom    1 type  1   force =     0.00000000    0.00000000    0.00186958
     atom    2 type  1   force =     0.00000000    0.00000000   -0.00186958
     atom    3 type  2   force =     0.00000000    0.00000000    0.00000000
     atom    4 type  2   force =     0.00000000    0.00000000    0.00000000
     atom    5 type  2   force =     0.00000000    0.00000000    0.00000000
     atom    6 type  2   force =     0.00000000    0.00000000    0.00000000

     Total force =     0.002644     Total SCF correction =     0.000000


     entering subroutine stress ...

          total   stress  (Ry/bohr**3)                   (kbar)     P= -155.53
  -0.00105543   0.00000000   0.00000000       -155.26      0.00      0.00
   0.00000000  -0.00105543   0.00000000          0.00   -155.26      0.00
   0.00000000   0.00000000  -0.00106100          0.00      0.00   -156.08


     The maximum number of steps has been reached.

     End of BFGS Geometry Optimization
Begin final coordinates
     new unit-cell volume =    857.81461 a.u.^3 (   127.11501 Ang^3 )

CELL_PARAMETERS (alat=  9.37903830)
   1.136976869   0.000000000   0.000000000
   0.568488435   0.984650852   0.000000000
   0.568488435   0.328216951   0.928719614

ATOMIC_POSITIONS (crystal)
Mg       0.749949121   0.749949121   0.750152638
Mg       0.500050879   0.500050879   0.499847362
Cu       0.125000000   0.125000000   0.125000000
Cu       0.625000000   0.125000000   0.125000000
Cu       0.125000000   0.625000000   0.125000000
Cu       0.125000000   0.125000000   0.625000000
End final coordinates



     A final scf calculation at the relaxed structure.
     The G-vectors are recalculated for the final unit cell
     Results may differ from those at the preceding step.
 
     Parallelization info
     --------------------
     sticks:   dense  smooth     PW     G-vecs:    dense   smooth      PW
     Min         315     315     94                 7340     7340    1233
     Max         316     316     95                 7342     7342    1234
     Sum        1261    1261    379                29363    29363    4933
 


     bravais-lattice index     =            0
     lattice parameter (alat)  =       9.3790  a.u.
     unit-cell volume          =     857.8146 (a.u.)^3
     number of atoms/cell      =            6
     number of atomic types    =            2
     number of electrons       =        82.00
     number of Kohn-Sham states=           49
     kinetic-energy cutoff     =      40.0000  Ry
     charge density cutoff     =     160.0000  Ry
     convergence threshold     =      5.5E-06
     mixing beta               =       0.7000
     number of iterations used =            8  plain     mixing
     Exchange-correlation      = SLA-PZ-NOGX-NOGC ( 1 1 0 0 0)
     EXX-fraction              =        0.00

     celldm(1)=   9.379038  celldm(2)=   0.000000  celldm(3)=   0.000000
     celldm(4)=   0.000000  celldm(5)=   0.000000  celldm(6)=   0.000000

     crystal axes: (cart. coord. in units of alat)
               a(1) = (   1.136977   0.000000   0.000000 )  
               a(2) = (   0.568488   0.984651   0.000000 )  
               a(3) = (   0.568488   0.328217   0.928720 )  

     reciprocal axes: (cart. coord. in units 2 pi/alat)
               b(1) = (  0.879525 -0.507794 -0.358917 )  
               b(2) = (  0.000000  1.015588 -0.358917 )  
               b(3) = (  0.000000  0.000000  1.076751 )  


     PseudoPot. # 1 for Eu read from file:
     /home/cwx6513/pp.La/Eu.UPF
     MD5 check sum: 5efdbbfc50c6a10138933a6429836ad2
     Pseudo is Norm-conserving, Zval = 17.0
     Generated in analytical, separable form
     Using radial grid of 1261 points,  6 beta functions with: 
                l(1) =   0
                l(2) =   0
                l(3) =   1
                l(4) =   1
                l(5) =   2
                l(6) =   3

     PseudoPot. # 2 for Ce read from file:
     /home/cwx6513/pp.La/Ce.UPF
     MD5 check sum: 44451aa79a44a00cf2bc029dc19922f6
     Pseudo is Norm-conserving, Zval = 12.0
     Generated in analytical, separable form
     Using radial grid of 1255 points,  6 beta functions with: 
                l(1) =   0
                l(2) =   0
                l(3) =   1
                l(4) =   1
                l(5) =   2
                l(6) =   3

     atomic species   valence    mass     pseudopotential
        Mg            17.00    24.30500     Eu( 1.00)
        Cu            12.00    63.54600     Ce( 1.00)

     12 Sym. Ops., with inversion, found ( 6 have fractional translation)



   Cartesian axes

     site n.     atom                  positions (alat units)
         1           Mg  tau(   1) = (   1.7054653   0.9846509   0.6966815  )
         2           Mg  tau(   2) = (   1.1369769   0.6564339   0.4642180  )
         3           Cu  tau(   3) = (   0.2842442   0.1641085   0.1160900  )
         4           Cu  tau(   4) = (   0.8527327   0.1641085   0.1160900  )
         5           Cu  tau(   5) = (   0.5684884   0.6564339   0.1160900  )
         6           Cu  tau(   6) = (   0.5684884   0.3282170   0.5804498  )

     number of k points=   170  gaussian smearing, width (Ry)=  0.1000

     Number of k-points >= 100: set verbosity='high' to print them.

     Dense  grid:    29363 G-vectors     FFT dimensions: (  45,  45,  45)

     Largest allocated arrays     est. size (Mb)     dimensions
        Kohn-Sham Wavefunctions         0.70 Mb     (    932,   49)
        NL pseudopotentials             1.71 Mb     (    932,  120)
        Each V/rho on FFT grid          0.37 Mb     (  24300)
        Each G-vector array             0.06 Mb     (   7340)
        G-vector shells                 0.02 Mb     (   2010)
     Largest temporary arrays     est. size (Mb)     dimensions
        Each subspace H/S matrix        0.04 Mb     (  49,  49)
        Each <psi_i|beta_j> matrix      0.09 Mb     (    120,   49)
        Arrays for rho mixing           2.97 Mb     (  24300,   8)

     Initial potential from superposition of free atoms

     Starting from uniform charge
     Starting wfc are    0 randomized atomic wfcs

     Writing output data file Prototype-La-cF24-Cu2Mg.save

     total cpu time spent up to now is     1882.8 secs

     Self-consistent Calculation

     iteration #  1     ecut=    40.00 Ry     beta=0.70
     CG style diagonalization
     c_bands:  3 eigenvalues not converged
     c_bands:  5 eigenvalues not converged
     ethr =  1.00E-06,  avg # of iterations = 40.1

     total cpu time spent up to now is     2742.2 secs

     total energy              =    -340.11075203 Ry
     Harris-Foulkes estimate   =    -787.96228826 Ry
     estimated scf accuracy    <     551.39794545 Ry

     iteration #  2     ecut=    40.00 Ry     beta=0.70
     CG style diagonalization
     c_bands:  1 eigenvalues not converged
     c_bands:  5 eigenvalues not converged
     c_bands:  3 eigenvalues not converged
     c_bands:  4 eigenvalues not converged
     c_bands:  4 eigenvalues not converged
     c_bands:  4 eigenvalues not converged
     c_bands:  5 eigenvalues not converged
     c_bands:  3 eigenvalues not converged
     c_bands:  4 eigenvalues not converged
     c_bands:  4 eigenvalues not converged
     c_bands:  1 eigenvalues not converged
     c_bands:  3 eigenvalues not converged
     c_bands:  3 eigenvalues not converged
     c_bands:  5 eigenvalues not converged
     c_bands:  5 eigenvalues not converged
     c_bands:  5 eigenvalues not converged
     c_bands:  2 eigenvalues not converged
     c_bands:  5 eigenvalues not converged
     c_bands:  4 eigenvalues not converged
     c_bands:  3 eigenvalues not converged
     c_bands:  2 eigenvalues not converged
     c_bands:  5 eigenvalues not converged
     c_bands:  5 eigenvalues not converged
     c_bands:  5 eigenvalues not converged
     c_bands:  4 eigenvalues not converged
     c_bands:  3 eigenvalues not converged
     c_bands:  5 eigenvalues not converged
     c_bands:  3 eigenvalues not converged
     c_bands:  5 eigenvalues not converged
     c_bands:  4 eigenvalues not converged
     c_bands:  5 eigenvalues not converged
     c_bands:  2 eigenvalues not converged
     c_bands:  3 eigenvalues not converged
     c_bands:  3 eigenvalues not converged
     c_bands:  5 eigenvalues not converged
     c_bands:  4 eigenvalues not converged
     c_bands:  4 eigenvalues not converged
     c_bands:  5 eigenvalues not converged
     c_bands:  4 eigenvalues not converged
     c_bands:  3 eigenvalues not converged
     c_bands:  3 eigenvalues not converged
     c_bands:  3 eigenvalues not converged
     c_bands:  3 eigenvalues not converged
     c_bands:  3 eigenvalues not converged
     c_bands:  2 eigenvalues not converged
     c_bands:  4 eigenvalues not converged
     c_bands:  4 eigenvalues not converged
     c_bands:  3 eigenvalues not converged
     c_bands:  1 eigenvalues not converged
     c_bands:  3 eigenvalues not converged
     c_bands:  3 eigenvalues not converged
     c_bands:  4 eigenvalues not converged
     c_bands:  1 eigenvalues not converged
     c_bands:  3 eigenvalues not converged
     c_bands:  5 eigenvalues not converged
     c_bands:  2 eigenvalues not converged
     c_bands:  3 eigenvalues not converged
     c_bands:  4 eigenvalues not converged
     c_bands:  3 eigenvalues not converged
     c_bands:  5 eigenvalues not converged
     c_bands:  3 eigenvalues not converged
     c_bands:  3 eigenvalues not converged
     c_bands:  5 eigenvalues not converged
     c_bands:  4 eigenvalues not converged
     c_bands:  3 eigenvalues not converged
     c_bands:  3 eigenvalues not converged
     c_bands:  4 eigenvalues not converged
     c_bands:  3 eigenvalues not converged
     c_bands:  5 eigenvalues not converged
     c_bands:  4 eigenvalues not converged
     c_bands:  3 eigenvalues not converged
     c_bands:  3 eigenvalues not converged
     c_bands:  3 eigenvalues not converged
     c_bands:  3 eigenvalues not converged
     c_bands:  4 eigenvalues not converged
     c_bands:  5 eigenvalues not converged
     c_bands:  5 eigenvalues not converged
     c_bands:  4 eigenvalues not converged
     c_bands:  2 eigenvalues not converged
     c_bands:  5 eigenvalues not converged
     c_bands:  4 eigenvalues not converged
     c_bands:  3 eigenvalues not converged
     c_bands:  2 eigenvalues not converged
     c_bands:  4 eigenvalues not converged
     c_bands:  3 eigenvalues not converged
     c_bands:  1 eigenvalues not converged
     c_bands:  3 eigenvalues not converged
     c_bands:  3 eigenvalues not converged
     c_bands:  4 eigenvalues not converged
     c_bands:  4 eigenvalues not converged
     c_bands:  3 eigenvalues not converged
     c_bands:  5 eigenvalues not converged
     c_bands:  3 eigenvalues not converged
     c_bands:  3 eigenvalues not converged
     c_bands:  2 eigenvalues not converged
     c_bands:  3 eigenvalues not converged
     c_bands:  3 eigenvalues not converged
     c_bands:  4 eigenvalues not converged
     c_bands:  1 eigenvalues not converged
     c_bands:  4 eigenvalues not converged
     c_bands:  5 eigenvalues not converged
     c_bands:  3 eigenvalues not converged
     c_bands:  3 eigenvalues not converged
     c_bands:  5 eigenvalues not converged
     c_bands:  5 eigenvalues not converged
     c_bands:  5 eigenvalues not converged
     c_bands:  5 eigenvalues not converged
     c_bands:  5 eigenvalues not converged
     c_bands:  4 eigenvalues not converged
     c_bands:  5 eigenvalues not converged
     c_bands:  2 eigenvalues not converged
     c_bands:  5 eigenvalues not converged
     c_bands:  5 eigenvalues not converged
     c_bands:  2 eigenvalues not converged
     c_bands:  5 eigenvalues not converged
     c_bands:  5 eigenvalues not converged
     c_bands:  5 eigenvalues not converged
     c_bands:  5 eigenvalues not converged
     c_bands:  3 eigenvalues not converged
     c_bands:  5 eigenvalues not converged
     c_bands:  5 eigenvalues not converged
     c_bands:  5 eigenvalues not converged
     c_bands:  2 eigenvalues not converged
     c_bands:  3 eigenvalues not converged
     ethr =  1.00E-02,  avg # of iterations = 13.7

     total cpu time spent up to now is     2986.4 secs

     total energy              =    -604.66285174 Ry
     Harris-Foulkes estimate   =    -981.51050032 Ry
     estimated scf accuracy    <     728.63521972 Ry

     iteration #  3     ecut=    40.00 Ry     beta=0.70
     CG style diagonalization
     c_bands:  1 eigenvalues not converged
     c_bands:  1 eigenvalues not converged
     ethr =  1.00E-02,  avg # of iterations =  9.4

     total cpu time spent up to now is     3089.5 secs

     total energy              =    -655.80058445 Ry
     Harris-Foulkes estimate   =    -674.47410029 Ry
     estimated scf accuracy    <      40.37610630 Ry

     iteration #  4     ecut=    40.00 Ry     beta=0.70
     CG style diagonalization
     ethr =  1.00E-02,  avg # of iterations =  4.4

     total cpu time spent up to now is     3137.0 secs

     total energy              =    -656.34349426 Ry
     Harris-Foulkes estimate   =    -660.06654038 Ry
     estimated scf accuracy    <       7.98083428 Ry

     iteration #  5     ecut=    40.00 Ry     beta=0.70
     CG style diagonalization
     ethr =  9.73E-03,  avg # of iterations =  3.9

     total cpu time spent up to now is     3179.5 secs

     total energy              =    -664.66130622 Ry
     Harris-Foulkes estimate   =    -660.08951465 Ry
     estimated scf accuracy    <       4.29374847 Ry

     iteration #  6     ecut=    40.00 Ry     beta=0.70
     CG style diagonalization
     ethr =  5.24E-03,  avg # of iterations =  3.9

     negative rho (up, down):  0.357E-03 0.000E+00

     total cpu time spent up to now is     3221.7 secs

     total energy              =    -650.13736529 Ry
     Harris-Foulkes estimate   =    -666.58766027 Ry
     estimated scf accuracy    <      24.00389167 Ry

     iteration #  7     ecut=    40.00 Ry     beta=0.70
     CG style diagonalization
     c_bands:  1 eigenvalues not converged
     c_bands:  1 eigenvalues not converged
     c_bands:  1 eigenvalues not converged
     c_bands:  1 eigenvalues not converged
     c_bands:  1 eigenvalues not converged
     c_bands:  1 eigenvalues not converged
     c_bands:  1 eigenvalues not converged
     c_bands:  1 eigenvalues not converged
     c_bands:  2 eigenvalues not converged
     c_bands:  1 eigenvalues not converged
     c_bands:  1 eigenvalues not converged
     c_bands:  1 eigenvalues not converged
     c_bands:  1 eigenvalues not converged
     c_bands:  1 eigenvalues not converged
     ethr =  5.24E-03,  avg # of iterations =  6.3

     negative rho (up, down):  0.169E-03 0.000E+00

     total cpu time spent up to now is     3289.1 secs

     total energy              =    -657.20612298 Ry
     Harris-Foulkes estimate   =    -666.95300354 Ry
     estimated scf accuracy    <      46.28927878 Ry

     iteration #  8     ecut=    40.00 Ry     beta=0.70
     CG style diagonalization
     ethr =  5.24E-03,  avg # of iterations =  4.5

     total cpu time spent up to now is     3337.7 secs

     total energy              =    -657.91532395 Ry
     Harris-Foulkes estimate   =    -659.57090332 Ry
     estimated scf accuracy    <       6.49643636 Ry

     iteration #  9     ecut=    40.00 Ry     beta=0.70
     CG style diagonalization
     ethr =  5.24E-03,  avg # of iterations =  3.5

     total cpu time spent up to now is     3377.2 secs

     total energy              =    -658.98517466 Ry
     Harris-Foulkes estimate   =    -658.98797967 Ry
     estimated scf accuracy    <       0.02164373 Ry

     iteration # 10     ecut=    40.00 Ry     beta=0.70
     CG style diagonalization
     c_bands:  3 eigenvalues not converged
     c_bands:  1 eigenvalues not converged
     c_bands:  3 eigenvalues not converged
     c_bands:  5 eigenvalues not converged
     c_bands:  1 eigenvalues not converged
     c_bands:  2 eigenvalues not converged
     c_bands:  5 eigenvalues not converged
     c_bands:  5 eigenvalues not converged
     c_bands:  3 eigenvalues not converged
     c_bands:  3 eigenvalues not converged
     c_bands:  4 eigenvalues not converged
     c_bands:  3 eigenvalues not converged
     c_bands:  2 eigenvalues not converged
     c_bands:  1 eigenvalues not converged
     c_bands:  4 eigenvalues not converged
     c_bands:  4 eigenvalues not converged
     c_bands:  1 eigenvalues not converged
     c_bands:  5 eigenvalues not converged
     c_bands:  5 eigenvalues not converged
     c_bands:  5 eigenvalues not converged
     c_bands:  1 eigenvalues not converged
     c_bands:  2 eigenvalues not converged
     c_bands:  4 eigenvalues not converged
     c_bands:  4 eigenvalues not converged
     c_bands:  3 eigenvalues not converged
     c_bands:  2 eigenvalues not converged
     c_bands:  3 eigenvalues not converged
     c_bands:  2 eigenvalues not converged
     c_bands:  3 eigenvalues not converged
     c_bands:  2 eigenvalues not converged
     c_bands:  3 eigenvalues not converged
     c_bands:  4 eigenvalues not converged
     c_bands:  2 eigenvalues not converged
     c_bands:  4 eigenvalues not converged
     c_bands:  4 eigenvalues not converged
     c_bands:  2 eigenvalues not converged
     c_bands:  3 eigenvalues not converged
     c_bands:  4 eigenvalues not converged
     c_bands:  3 eigenvalues not converged
     c_bands:  5 eigenvalues not converged
     c_bands:  4 eigenvalues not converged
     c_bands:  1 eigenvalues not converged
     c_bands:  4 eigenvalues not converged
     c_bands:  4 eigenvalues not converged
     c_bands:  4 eigenvalues not converged
     c_bands:  5 eigenvalues not converged
     c_bands:  2 eigenvalues not converged
     c_bands:  5 eigenvalues not converged
     c_bands:  5 eigenvalues not converged
     c_bands:  4 eigenvalues not converged
     c_bands:  4 eigenvalues not converged
     c_bands:  3 eigenvalues not converged
     c_bands:  4 eigenvalues not converged
     c_bands:  5 eigenvalues not converged
     c_bands:  3 eigenvalues not converged
     c_bands:  4 eigenvalues not converged
     c_bands:  5 eigenvalues not converged
     c_bands:  5 eigenvalues not converged
     c_bands:  4 eigenvalues not converged
     c_bands:  5 eigenvalues not converged
     c_bands:  3 eigenvalues not converged
     c_bands:  5 eigenvalues not converged
     c_bands:  5 eigenvalues not converged
     c_bands:  3 eigenvalues not converged
     c_bands:  2 eigenvalues not converged
     c_bands:  4 eigenvalues not converged
     c_bands:  5 eigenvalues not converged
     c_bands:  5 eigenvalues not converged
     c_bands:  4 eigenvalues not converged
     c_bands:  3 eigenvalues not converged
     c_bands:  2 eigenvalues not converged
     c_bands:  2 eigenvalues not converged
     c_bands:  3 eigenvalues not converged
     c_bands:  4 eigenvalues not converged
     c_bands:  2 eigenvalues not converged
     c_bands:  3 eigenvalues not converged
     c_bands:  3 eigenvalues not converged
     c_bands:  3 eigenvalues not converged
     c_bands:  3 eigenvalues not converged
     c_bands:  2 eigenvalues not converged
     c_bands:  2 eigenvalues not converged
     c_bands:  4 eigenvalues not converged
     c_bands:  2 eigenvalues not converged
     c_bands:  2 eigenvalues not converged
     c_bands:  1 eigenvalues not converged
     c_bands:  4 eigenvalues not converged
     c_bands:  4 eigenvalues not converged
     c_bands:  4 eigenvalues not converged
     c_bands:  4 eigenvalues not converged
     c_bands:  5 eigenvalues not converged
     c_bands:  1 eigenvalues not converged
     c_bands:  2 eigenvalues not converged
     c_bands:  1 eigenvalues not converged
     c_bands:  4 eigenvalues not converged
     c_bands:  1 eigenvalues not converged
     c_bands:  5 eigenvalues not converged
     c_bands:  3 eigenvalues not converged
     c_bands:  4 eigenvalues not converged
     c_bands:  1 eigenvalues not converged
     c_bands:  2 eigenvalues not converged
     c_bands:  5 eigenvalues not converged
     c_bands:  3 eigenvalues not converged
     c_bands:  2 eigenvalues not converged
     c_bands:  2 eigenvalues not converged
     c_bands:  3 eigenvalues not converged
     c_bands:  1 eigenvalues not converged
     c_bands:  2 eigenvalues not converged
     c_bands:  2 eigenvalues not converged
     c_bands:  4 eigenvalues not converged
     c_bands:  2 eigenvalues not converged
     c_bands:  3 eigenvalues not converged
     c_bands:  5 eigenvalues not converged
     c_bands:  1 eigenvalues not converged
     c_bands:  1 eigenvalues not converged
     c_bands:  1 eigenvalues not converged
     c_bands:  5 eigenvalues not converged
     c_bands:  3 eigenvalues not converged
     c_bands:  2 eigenvalues not converged
     c_bands:  5 eigenvalues not converged
     c_bands:  3 eigenvalues not converged
     c_bands:  5 eigenvalues not converged
     c_bands:  4 eigenvalues not converged
     c_bands:  2 eigenvalues not converged
     c_bands:  1 eigenvalues not converged
     c_bands:  5 eigenvalues not converged
     c_bands:  5 eigenvalues not converged
     c_bands:  3 eigenvalues not converged
     c_bands:  4 eigenvalues not converged
     c_bands:  3 eigenvalues not converged
     c_bands:  5 eigenvalues not converged
     c_bands:  2 eigenvalues not converged
     c_bands:  5 eigenvalues not converged
     c_bands:  2 eigenvalues not converged
     c_bands:  1 eigenvalues not converged
     c_bands:  1 eigenvalues not converged
     c_bands:  3 eigenvalues not converged
     c_bands:  4 eigenvalues not converged
     c_bands:  3 eigenvalues not converged
     c_bands:  1 eigenvalues not converged
     c_bands:  5 eigenvalues not converged
     c_bands:  5 eigenvalues not converged
     c_bands:  4 eigenvalues not converged
     c_bands:  3 eigenvalues not converged
     c_bands:  2 eigenvalues not converged
     ethr =  2.64E-05,  avg # of iterations =  8.5

     total cpu time spent up to now is     3466.7 secs

     total energy              =    -659.06569394 Ry
     Harris-Foulkes estimate   =    -659.11003755 Ry
     estimated scf accuracy    <       0.10859584 Ry

     iteration # 11     ecut=    40.00 Ry     beta=0.70
     CG style diagonalization
     c_bands:  1 eigenvalues not converged
     c_bands:  2 eigenvalues not converged
     c_bands:  1 eigenvalues not converged
     c_bands:  1 eigenvalues not converged
     c_bands:  1 eigenvalues not converged
     c_bands:  2 eigenvalues not converged
     c_bands:  1 eigenvalues not converged
     c_bands:  1 eigenvalues not converged
     c_bands:  1 eigenvalues not converged
     c_bands:  1 eigenvalues not converged
     c_bands:  2 eigenvalues not converged
     c_bands:  1 eigenvalues not converged
     c_bands:  1 eigenvalues not converged
     c_bands:  1 eigenvalues not converged
     c_bands:  1 eigenvalues not converged
     c_bands:  1 eigenvalues not converged
     c_bands:  1 eigenvalues not converged
     c_bands:  1 eigenvalues not converged
     ethr =  2.64E-05,  avg # of iterations =  4.8

     total cpu time spent up to now is     3518.8 secs

     total energy              =    -659.12037191 Ry
     Harris-Foulkes estimate   =    -659.11092170 Ry
     estimated scf accuracy    <       0.10295091 Ry

     iteration # 12     ecut=    40.00 Ry     beta=0.70
     CG style diagonalization
     ethr =  2.64E-05,  avg # of iterations =  3.1

     negative rho (up, down):  0.431E-06 0.000E+00

     total cpu time spent up to now is     3554.6 secs

     total energy              =    -659.13667297 Ry
     Harris-Foulkes estimate   =    -659.12293564 Ry
     estimated scf accuracy    <       0.18874139 Ry

     iteration # 13     ecut=    40.00 Ry     beta=0.70
     CG style diagonalization
     ethr =  2.64E-05,  avg # of iterations =  3.3

     negative rho (up, down):  0.550E-05 0.000E+00

     total cpu time spent up to now is     3590.2 secs

     total energy              =    -659.12280314 Ry
     Harris-Foulkes estimate   =    -659.13975601 Ry
     estimated scf accuracy    <       0.32624862 Ry

     iteration # 14     ecut=    40.00 Ry     beta=0.70
     CG style diagonalization
     ethr =  2.64E-05,  avg # of iterations =  3.0

     negative rho (up, down):  0.681E-05 0.000E+00

     total cpu time spent up to now is     3623.1 secs

     total energy              =    -659.11759111 Ry
     Harris-Foulkes estimate   =    -659.12397964 Ry
     estimated scf accuracy    <       0.24143001 Ry

     iteration # 15     ecut=    40.00 Ry     beta=0.70
     CG style diagonalization
     ethr =  2.64E-05,  avg # of iterations =  3.0

     negative rho (up, down):  0.490E-05 0.000E+00

     total cpu time spent up to now is     3656.1 secs

     total energy              =    -659.11528027 Ry
     Harris-Foulkes estimate   =    -659.11806346 Ry
     estimated scf accuracy    <       0.20554760 Ry

     iteration # 16     ecut=    40.00 Ry     beta=0.70
     CG style diagonalization
     ethr =  2.64E-05,  avg # of iterations =  3.0

     total cpu time spent up to now is     3689.7 secs

     total energy              =    -659.08856406 Ry
     Harris-Foulkes estimate   =    -659.11549312 Ry
     estimated scf accuracy    <       0.18633395 Ry

     iteration # 17     ecut=    40.00 Ry     beta=0.70
     CG style diagonalization
     ethr =  2.64E-05,  avg # of iterations =  3.5

     total cpu time spent up to now is     3727.7 secs

     total energy              =    -659.09347278 Ry
     Harris-Foulkes estimate   =    -659.09637995 Ry
     estimated scf accuracy    <       0.03944114 Ry

     iteration # 18     ecut=    40.00 Ry     beta=0.70
     CG style diagonalization
     ethr =  2.64E-05,  avg # of iterations =  3.0

     total cpu time spent up to now is     3760.4 secs

     total energy              =    -659.08789442 Ry
     Harris-Foulkes estimate   =    -659.09419515 Ry
     estimated scf accuracy    <       0.02087277 Ry

     iteration # 19     ecut=    40.00 Ry     beta=0.70
     CG style diagonalization
     ethr =  2.55E-05,  avg # of iterations =  3.4

     total cpu time spent up to now is     3798.6 secs

     total energy              =    -659.09189204 Ry
     Harris-Foulkes estimate   =    -659.09192669 Ry
     estimated scf accuracy    <       0.00066344 Ry

     iteration # 20     ecut=    40.00 Ry     beta=0.70
     CG style diagonalization
     c_bands:  1 eigenvalues not converged
     c_bands:  1 eigenvalues not converged
     c_bands:  1 eigenvalues not converged
     c_bands:  1 eigenvalues not converged
     c_bands:  1 eigenvalues not converged
     c_bands:  1 eigenvalues not converged
     c_bands:  1 eigenvalues not converged
     c_bands:  1 eigenvalues not converged
     c_bands:  1 eigenvalues not converged
     c_bands:  1 eigenvalues not converged
     c_bands:  1 eigenvalues not converged
     c_bands:  1 eigenvalues not converged
     c_bands:  1 eigenvalues not converged
     c_bands:  1 eigenvalues not converged
     c_bands:  1 eigenvalues not converged
     c_bands:  1 eigenvalues not converged
     c_bands:  1 eigenvalues not converged
     c_bands:  1 eigenvalues not converged
     c_bands:  1 eigenvalues not converged
     c_bands:  1 eigenvalues not converged
     c_bands:  1 eigenvalues not converged
     c_bands:  1 eigenvalues not converged
     c_bands:  1 eigenvalues not converged
     c_bands:  1 eigenvalues not converged
     ethr =  8.09E-07,  avg # of iterations =  4.5

     total cpu time spent up to now is     3846.9 secs

     total energy              =    -659.09220292 Ry
     Harris-Foulkes estimate   =    -659.09228040 Ry
     estimated scf accuracy    <       0.00118011 Ry

     iteration # 21     ecut=    40.00 Ry     beta=0.70
     CG style diagonalization
     c_bands:  1 eigenvalues not converged
     c_bands:  1 eigenvalues not converged
     c_bands:  1 eigenvalues not converged
     c_bands:  1 eigenvalues not converged
     c_bands:  1 eigenvalues not converged
     c_bands:  1 eigenvalues not converged
     ethr =  8.09E-07,  avg # of iterations =  3.0

     total cpu time spent up to now is     3880.8 secs

     total energy              =    -659.09197754 Ry
     Harris-Foulkes estimate   =    -659.09221342 Ry
     estimated scf accuracy    <       0.00086316 Ry

     iteration # 22     ecut=    40.00 Ry     beta=0.70
     CG style diagonalization
     c_bands:  1 eigenvalues not converged
     ethr =  8.09E-07,  avg # of iterations =  3.3

     total cpu time spent up to now is     3917.3 secs

     total energy              =    -659.09207318 Ry
     Harris-Foulkes estimate   =    -659.09207926 Ry
     estimated scf accuracy    <       0.00000982 Ry

     iteration # 23     ecut=    40.00 Ry     beta=0.70
     CG style diagonalization
     ethr =  1.20E-08,  avg # of iterations =  5.3

     total cpu time spent up to now is     3973.4 secs

     total energy              =    -659.09209736 Ry
     Harris-Foulkes estimate   =    -659.09211100 Ry
     estimated scf accuracy    <       0.00015339 Ry

     iteration # 24     ecut=    40.00 Ry     beta=0.70
     CG style diagonalization
     ethr =  1.20E-08,  avg # of iterations =  3.2

     total cpu time spent up to now is     4009.1 secs

     total energy              =    -659.09208431 Ry
     Harris-Foulkes estimate   =    -659.09209900 Ry
     estimated scf accuracy    <       0.00008202 Ry

     iteration # 25     ecut=    40.00 Ry     beta=0.70
     CG style diagonalization
     ethr =  1.20E-08,  avg # of iterations =  3.8

     total cpu time spent up to now is     4049.9 secs

     total energy              =    -659.09208373 Ry
     Harris-Foulkes estimate   =    -659.09208862 Ry
     estimated scf accuracy    <       0.00001199 Ry

     iteration # 26     ecut=    40.00 Ry     beta=0.70
     CG style diagonalization
     ethr =  1.20E-08,  avg # of iterations =  3.7

     total cpu time spent up to now is     4089.1 secs

     End of self-consistent calculation

     Number of k-points >= 100: set verbosity='high' to print the bands.

     the Fermi energy is    21.2955 ev

!    total energy              =    -659.09208473 Ry
     Harris-Foulkes estimate   =    -659.09208727 Ry
     estimated scf accuracy    <       0.00000270 Ry

     The total energy is the sum of the following terms:

     one-electron contribution =     -21.91333046 Ry
     hartree contribution      =      69.68389959 Ry
     xc contribution           =     -77.80118619 Ry
     ewald contribution        =    -628.71313034 Ry
     smearing contrib. (-TS)   =      -0.34833732 Ry

     convergence has been achieved in  26 iterations

     Forces acting on atoms (Ry/au):

     atom    1 type  1   force =     0.00000000    0.00000000   -0.00059869
     atom    2 type  1   force =     0.00000000    0.00000000    0.00059869
     atom    3 type  2   force =     0.00000000    0.00000000    0.00000000
     atom    4 type  2   force =     0.00000000    0.00000000    0.00000000
     atom    5 type  2   force =     0.00000000    0.00000000    0.00000000
     atom    6 type  2   force =     0.00000000    0.00000000    0.00000000

     Total force =     0.000847     Total SCF correction =     0.000000


     entering subroutine stress ...

          total   stress  (Ry/bohr**3)                   (kbar)     P=  179.95
   0.00122547   0.00000000   0.00000000        180.27      0.00      0.00
   0.00000000   0.00122547   0.00000000          0.00    180.27      0.00
   0.00000000   0.00000000   0.00121895          0.00      0.00    179.31


     Writing output data file Prototype-La-cF24-Cu2Mg.save
 
     init_run     :     12.39s CPU     16.40s WALL (       2 calls)
     electrons    :   3098.64s CPU   4044.85s WALL (       5 calls)
     update_pot   :      1.26s CPU      1.30s WALL (       3 calls)
     forces       :      7.62s CPU      7.86s WALL (       5 calls)
     stress       :     22.35s CPU     22.76s WALL (       5 calls)

     Called by init_run:
     wfcinit      :     11.68s CPU     15.59s WALL (       2 calls)
     potinit      :      0.27s CPU      0.27s WALL (       2 calls)

     Called by electrons:
     c_bands      :   2950.27s CPU   3821.29s WALL (      56 calls)
     sum_band     :    147.63s CPU    199.91s WALL (      56 calls)
     v_of_rho     :      0.09s CPU      0.10s WALL (      61 calls)
     mix_rho      :      0.10s CPU      0.13s WALL (      56 calls)

     Called by c_bands:
     init_us_2    :      8.89s CPU     11.91s WALL (   21080 calls)
     ccgdiagg     :   2540.75s CPU   3248.10s WALL (   10292 calls)
     wfcrot       :    412.90s CPU    566.78s WALL (   10462 calls)

     Called by *cgdiagg:
     h_psi        :   2244.88s CPU   2942.32s WALL ( 2276972 calls)
     cdiaghg      :     11.93s CPU     13.78s WALL (   10462 calls)

     Called by h_psi:
     add_vuspsi   :    151.60s CPU    202.19s WALL ( 2276972 calls)

     General routines
     calbec       :    497.92s CPU    585.93s WALL ( 4545182 calls)
     fft          :      0.19s CPU      0.30s WALL (     267 calls)
     fftw         :   1853.14s CPU   2403.26s WALL ( 6024776 calls)
     davcio       :      4.96s CPU     17.54s WALL (   30600 calls)
 
     Parallel routines
     fft_scatter  :    951.70s CPU   1231.88s WALL ( 6025043 calls)
 
     PWSCF        :     0h52m CPU        1h 8m WALL

 
   This run was terminated on:  22:20:11  22Mar2018            

=------------------------------------------------------------------------------=
   JOB DONE.
=------------------------------------------------------------------------------=
