
     Program PWSCF v.5.0.2 starts on 22Mar2018 at 21:11:54 

     This program is part of the open-source Quantum ESPRESSO suite
     for quantum simulation of materials; please cite
         "P. Giannozzi et al., J. Phys.:Condens. Matter 21 395502 (2009);
          URL http://www.quantum-espresso.org", 
     in publications or presentations arising from this work. More details at
     http://www.quantum-espresso.org/quote.php

     Parallel version (MPI), running on     4 processors
     R & G space division:  proc/nbgrp/npool/nimage =       4

     Current dimensions of program PWSCF are:
     Max number of different atomic species (ntypx) = 10
     Max number of k-points (npk) =  40000
     Max angular momentum in pseudopotentials (lmaxx) =  3
     Waiting for input...
     Reading input from standard input

     Subspace diagonalization in iterative solution of the eigenvalue problem:
     a serial algorithm will be used

 
     Parallelization info
     --------------------
     sticks:   dense  smooth     PW     G-vecs:    dense   smooth      PW
     Min         396     396    112                10116    10116    1566
     Max         397     397    113                10119    10119    1567
     Sum        1585    1585    451                40467    40467    6267
 


     bravais-lattice index     =            0
     lattice parameter (alat)  =      12.0168  a.u.
     unit-cell volume          =    1187.3413 (a.u.)^3
     number of atoms/cell      =            8
     number of atomic types    =            2
     number of electrons       =       126.00
     number of Kohn-Sham states=           76
     kinetic-energy cutoff     =      40.0000  Ry
     charge density cutoff     =     160.0000  Ry
     convergence threshold     =      1.0E-04
     mixing beta               =       0.7000
     number of iterations used =            8  plain     mixing
     Exchange-correlation      = SLA-PZ-NOGX-NOGC ( 1 1 0 0 0)
     EXX-fraction              =        0.00
     nstep                     =           50


     celldm(1)=  12.016801  celldm(2)=   0.000000  celldm(3)=   0.000000
     celldm(4)=   0.000000  celldm(5)=   0.000000  celldm(6)=   0.000000

     crystal axes: (cart. coord. in units of alat)
               a(1) = (   1.000000   0.000000   0.000000 )  
               a(2) = (  -0.500000   0.866025   0.000000 )  
               a(3) = (   0.000000   0.000000   0.790093 )  

     reciprocal axes: (cart. coord. in units 2 pi/alat)
               b(1) = (  1.000000  0.577350  0.000000 )  
               b(2) = (  0.000000  1.154701  0.000000 )  
               b(3) = (  0.000000  0.000000  1.265674 )  


     PseudoPot. # 1 for Eu read from file:
     /home/cwx6513/pp.La/Eu.UPF
     MD5 check sum: 5efdbbfc50c6a10138933a6429836ad2
     Pseudo is Norm-conserving, Zval = 17.0
     Generated in analytical, separable form
     Using radial grid of 1261 points,  6 beta functions with: 
                l(1) =   0
                l(2) =   0
                l(3) =   1
                l(4) =   1
                l(5) =   2
                l(6) =   3

     PseudoPot. # 2 for Ce read from file:
     /home/cwx6513/pp.La/Ce.UPF
     MD5 check sum: 44451aa79a44a00cf2bc029dc19922f6
     Pseudo is Norm-conserving, Zval = 12.0
     Generated in analytical, separable form
     Using radial grid of 1255 points,  6 beta functions with: 
                l(1) =   0
                l(2) =   0
                l(3) =   1
                l(4) =   1
                l(5) =   2
                l(6) =   3

     atomic species   valence    mass     pseudopotential
        Mg            17.00    24.30500     Eu( 1.00)
        Cd            12.00   112.41100     Ce( 1.00)

     24 Sym. Ops., with inversion, found (12 have fractional translation)



   Cartesian axes

     site n.     atom                  positions (alat units)
         1           Mg  tau(   1) = (   0.2478935   0.7204716   0.1975233  )
         2           Mg  tau(   2) = (   0.7478935   0.1455538   0.5925699  )
         3           Mg  tau(   3) = (   0.2521065   0.1455538   0.5925699  )
         4           Mg  tau(   4) = (  -0.2478935   0.7204716   0.1975233  )
         5           Mg  tau(   5) = (   0.0000000   0.2911075   0.1975233  )
         6           Mg  tau(   6) = (   0.5000000   0.5749179   0.5925699  )
         7           Cd  tau(   7) = (   0.5000005   0.2886748   0.1975233  )
         8           Cd  tau(   8) = (  -0.0000005   0.5773506   0.5925699  )

     number of k points=    64  gaussian smearing, width (Ry)=  0.1000
                       cart. coord. in units 2pi/alat
        k(    1) = (   0.0000000   0.0000000   0.0000000), wk =   0.0095238
        k(    2) = (   0.0000000   0.0000000   0.1808105), wk =   0.0190476
        k(    3) = (   0.0000000   0.0000000   0.3616210), wk =   0.0190476
        k(    4) = (   0.0000000   0.0000000   0.5424315), wk =   0.0190476
        k(    5) = (   0.0000000   0.1924501   0.0000000), wk =   0.0190476
        k(    6) = (   0.0000000   0.1924501   0.1808105), wk =   0.0380952
        k(    7) = (   0.0000000   0.1924501   0.3616210), wk =   0.0380952
        k(    8) = (   0.0000000   0.1924501   0.5424315), wk =   0.0380952
        k(    9) = (   0.0000000   0.3849002   0.0000000), wk =   0.0190476
        k(   10) = (   0.0000000   0.3849002   0.1808105), wk =   0.0380952
        k(   11) = (   0.0000000   0.3849002   0.3616210), wk =   0.0380952
        k(   12) = (   0.0000000   0.3849002   0.5424315), wk =   0.0380952
        k(   13) = (   0.0000000  -0.5773503   0.0000000), wk =   0.0095238
        k(   14) = (   0.0000000  -0.5773503   0.1808105), wk =   0.0190476
        k(   15) = (   0.0000000  -0.5773503   0.3616210), wk =   0.0190476
        k(   16) = (   0.0000000  -0.5773503   0.5424315), wk =   0.0190476
        k(   17) = (   0.2000000   0.1154701   0.0000000), wk =   0.0190476
        k(   18) = (   0.2000000   0.1154701   0.1808105), wk =   0.0380952
        k(   19) = (   0.2000000   0.1154701   0.3616210), wk =   0.0380952
        k(   20) = (   0.2000000   0.1154701   0.5424315), wk =   0.0380952
        k(   21) = (   0.2000000   0.3079201   0.0000000), wk =   0.0190476
        k(   22) = (   0.2000000   0.3079201   0.1808105), wk =   0.0380952
        k(   23) = (   0.2000000   0.3079201   0.3616210), wk =   0.0380952
        k(   24) = (   0.2000000   0.3079201   0.5424315), wk =   0.0380952
        k(   25) = (   0.2000000   0.5003702   0.0000000), wk =   0.0190476
        k(   26) = (   0.2000000   0.5003702   0.1808105), wk =   0.0380952
        k(   27) = (   0.2000000   0.5003702   0.3616210), wk =   0.0380952
        k(   28) = (   0.2000000   0.5003702   0.5424315), wk =   0.0380952
        k(   29) = (   0.2000000  -0.4618802   0.0000000), wk =   0.0190476
        k(   30) = (   0.2000000  -0.4618802   0.1808105), wk =   0.0380952
        k(   31) = (   0.2000000  -0.4618802   0.3616210), wk =   0.0380952
        k(   32) = (   0.2000000  -0.4618802   0.5424315), wk =   0.0380952
        k(   33) = (   0.2000000  -0.2694301   0.0000000), wk =   0.0190476
        k(   34) = (   0.2000000  -0.2694301   0.1808105), wk =   0.0380952
        k(   35) = (   0.2000000  -0.2694301   0.3616210), wk =   0.0380952
        k(   36) = (   0.2000000  -0.2694301   0.5424315), wk =   0.0380952
        k(   37) = (   0.2000000  -0.0769800   0.0000000), wk =   0.0190476
        k(   38) = (   0.2000000  -0.0769800   0.1808105), wk =   0.0380952
        k(   39) = (   0.2000000  -0.0769800   0.3616210), wk =   0.0380952
        k(   40) = (   0.2000000  -0.0769800   0.5424315), wk =   0.0380952
        k(   41) = (   0.4000000   0.2309401   0.0000000), wk =   0.0190476
        k(   42) = (   0.4000000   0.2309401   0.1808105), wk =   0.0380952
        k(   43) = (   0.4000000   0.2309401   0.3616210), wk =   0.0380952
        k(   44) = (   0.4000000   0.2309401   0.5424315), wk =   0.0380952
        k(   45) = (   0.4000000   0.4233902   0.0000000), wk =   0.0190476
        k(   46) = (   0.4000000   0.4233902   0.1808105), wk =   0.0380952
        k(   47) = (   0.4000000   0.4233902   0.3616210), wk =   0.0380952
        k(   48) = (   0.4000000   0.4233902   0.5424315), wk =   0.0380952
        k(   49) = (   0.4000000   0.6158403   0.0000000), wk =   0.0190476
        k(   50) = (   0.4000000   0.6158403   0.1808105), wk =   0.0380952
        k(   51) = (   0.4000000   0.6158403   0.3616210), wk =   0.0380952
        k(   52) = (   0.4000000   0.6158403   0.5424315), wk =   0.0380952
        k(   53) = (   0.4000000  -0.3464102   0.0000000), wk =   0.0190476
        k(   54) = (   0.4000000  -0.3464102   0.1808105), wk =   0.0380952
        k(   55) = (   0.4000000  -0.3464102   0.3616210), wk =   0.0380952
        k(   56) = (   0.4000000  -0.3464102   0.5424315), wk =   0.0380952
        k(   57) = (   0.4000000  -0.1539601   0.0000000), wk =   0.0190476
        k(   58) = (   0.4000000  -0.1539601   0.1808105), wk =   0.0380952
        k(   59) = (   0.4000000  -0.1539601   0.3616210), wk =   0.0380952
        k(   60) = (   0.4000000  -0.1539601   0.5424315), wk =   0.0380952
        k(   61) = (   0.4000000   0.0384900   0.0000000), wk =   0.0190476
        k(   62) = (   0.4000000   0.0384900   0.1808105), wk =   0.0380952
        k(   63) = (   0.4000000   0.0384900   0.3616210), wk =   0.0380952
        k(   64) = (   0.4000000   0.0384900   0.5424315), wk =   0.0380952

     Dense  grid:    40467 G-vectors     FFT dimensions: (  50,  50,  40)

     Largest allocated arrays     est. size (Mb)     dimensions
        Kohn-Sham Wavefunctions         1.51 Mb     (   1298,   76)
        NL pseudopotentials             3.17 Mb     (   1298,  160)
        Each V/rho on FFT grid          0.38 Mb     (  25000)
        Each G-vector array             0.08 Mb     (  10119)
        G-vector shells                 0.08 Mb     (  10119)
     Largest temporary arrays     est. size (Mb)     dimensions
        Each subspace H/S matrix        0.09 Mb     (  76,  76)
        Each <psi_i|beta_j> matrix      0.19 Mb     (    160,   76)
        Arrays for rho mixing           3.05 Mb     (  25000,   8)

     Initial potential from superposition of free atoms

     Starting from uniform charge
     Starting wfc are    0 randomized atomic wfcs

     total cpu time spent up to now is        7.7 secs

     Self-consistent Calculation

     iteration #  1     ecut=    40.00 Ry     beta=0.70
     CG style diagonalization
     ethr =  1.00E-02,  avg # of iterations = 16.0

     total cpu time spent up to now is      167.8 secs

     total energy              =    -973.65975920 Ry
     Harris-Foulkes estimate   =   -1466.91852960 Ry
     estimated scf accuracy    <     625.64737438 Ry

     iteration #  2     ecut=    40.00 Ry     beta=0.70
     CG style diagonalization
     c_bands:  4 eigenvalues not converged
     c_bands:  1 eigenvalues not converged
     c_bands:  2 eigenvalues not converged
     ethr =  1.00E-02,  avg # of iterations = 16.6

     total cpu time spent up to now is      330.9 secs

     total energy              =    -972.36484075 Ry
     Harris-Foulkes estimate   =   -1395.40056803 Ry
     estimated scf accuracy    <     850.53201548 Ry

     iteration #  3     ecut=    40.00 Ry     beta=0.70
     CG style diagonalization
     c_bands:  1 eigenvalues not converged
     c_bands:  1 eigenvalues not converged
     c_bands:  1 eigenvalues not converged
     c_bands:  2 eigenvalues not converged
     c_bands:  3 eigenvalues not converged
     c_bands:  2 eigenvalues not converged
     c_bands:  2 eigenvalues not converged
     c_bands:  2 eigenvalues not converged
     c_bands:  1 eigenvalues not converged
     c_bands:  3 eigenvalues not converged
     c_bands:  1 eigenvalues not converged
     c_bands:  1 eigenvalues not converged
     c_bands:  4 eigenvalues not converged
     c_bands:  2 eigenvalues not converged
     c_bands:  2 eigenvalues not converged
     c_bands:  1 eigenvalues not converged
     c_bands:  2 eigenvalues not converged
     c_bands:  1 eigenvalues not converged
     c_bands:  4 eigenvalues not converged
     c_bands:  1 eigenvalues not converged
     c_bands:  3 eigenvalues not converged
     c_bands:  2 eigenvalues not converged
     c_bands:  1 eigenvalues not converged
     c_bands:  1 eigenvalues not converged
     c_bands:  1 eigenvalues not converged
     c_bands:  1 eigenvalues not converged
     c_bands:  2 eigenvalues not converged
     c_bands:  1 eigenvalues not converged
     c_bands:  2 eigenvalues not converged
     c_bands:  1 eigenvalues not converged
     c_bands:  2 eigenvalues not converged
     c_bands:  4 eigenvalues not converged
     c_bands:  2 eigenvalues not converged
     c_bands:  2 eigenvalues not converged
     c_bands:  1 eigenvalues not converged
     c_bands:  3 eigenvalues not converged
     ethr =  1.00E-02,  avg # of iterations = 10.3

     total cpu time spent up to now is      430.7 secs

     total energy              =   -1181.85244404 Ry
     Harris-Foulkes estimate   =   -1246.30960763 Ry
     estimated scf accuracy    <     158.16583338 Ry

     iteration #  4     ecut=    40.00 Ry     beta=0.70
     CG style diagonalization
     ethr =  1.00E-02,  avg # of iterations =  6.2

     total cpu time spent up to now is      497.8 secs

     total energy              =   -1203.81273565 Ry
     Harris-Foulkes estimate   =   -1213.55082709 Ry
     estimated scf accuracy    <      25.54505319 Ry

     iteration #  5     ecut=    40.00 Ry     beta=0.70
     CG style diagonalization
     ethr =  1.00E-02,  avg # of iterations =  3.6

     total cpu time spent up to now is      535.2 secs

     total energy              =   -1205.28590354 Ry
     Harris-Foulkes estimate   =   -1207.24641871 Ry
     estimated scf accuracy    <       4.39228459 Ry

     iteration #  6     ecut=    40.00 Ry     beta=0.70
     CG style diagonalization
     ethr =  3.49E-03,  avg # of iterations =  3.6

     total cpu time spent up to now is      572.4 secs

     total energy              =   -1205.54092301 Ry
     Harris-Foulkes estimate   =   -1205.93830704 Ry
     estimated scf accuracy    <       0.84035483 Ry

     iteration #  7     ecut=    40.00 Ry     beta=0.70
     CG style diagonalization
     c_bands:  1 eigenvalues not converged
     c_bands:  1 eigenvalues not converged
     ethr =  6.67E-04,  avg # of iterations =  4.3

     total cpu time spent up to now is      615.5 secs

     total energy              =   -1205.78051953 Ry
     Harris-Foulkes estimate   =   -1205.83112908 Ry
     estimated scf accuracy    <       0.08999109 Ry

     iteration #  8     ecut=    40.00 Ry     beta=0.70
     CG style diagonalization
     c_bands:  1 eigenvalues not converged
     c_bands:  1 eigenvalues not converged
     c_bands:  1 eigenvalues not converged
     c_bands:  1 eigenvalues not converged
     ethr =  7.14E-05,  avg # of iterations =  4.7

     negative rho (up, down):  0.129E-04 0.000E+00

     total cpu time spent up to now is      670.4 secs

     total energy              =   -1205.77275262 Ry
     Harris-Foulkes estimate   =   -1205.85038768 Ry
     estimated scf accuracy    <       0.15604066 Ry

     iteration #  9     ecut=    40.00 Ry     beta=0.70
     CG style diagonalization
     ethr =  7.14E-05,  avg # of iterations =  3.8

     total cpu time spent up to now is      712.2 secs

     total energy              =   -1205.81051918 Ry
     Harris-Foulkes estimate   =   -1205.81771659 Ry
     estimated scf accuracy    <       0.02516551 Ry

     iteration # 10     ecut=    40.00 Ry     beta=0.70
     CG style diagonalization
     ethr =  2.00E-05,  avg # of iterations =  3.2

     total cpu time spent up to now is      748.1 secs

     total energy              =   -1205.81111830 Ry
     Harris-Foulkes estimate   =   -1205.81295032 Ry
     estimated scf accuracy    <       0.00356753 Ry

     iteration # 11     ecut=    40.00 Ry     beta=0.70
     CG style diagonalization
     c_bands:  1 eigenvalues not converged
     c_bands:  1 eigenvalues not converged
     c_bands:  1 eigenvalues not converged
     c_bands:  1 eigenvalues not converged
     c_bands:  1 eigenvalues not converged
     c_bands:  1 eigenvalues not converged
     ethr =  2.83E-06,  avg # of iterations =  4.5

     total cpu time spent up to now is      800.4 secs

     total energy              =   -1205.81271564 Ry
     Harris-Foulkes estimate   =   -1205.81352176 Ry
     estimated scf accuracy    <       0.00316466 Ry

     iteration # 12     ecut=    40.00 Ry     beta=0.70
     CG style diagonalization
     ethr =  2.51E-06,  avg # of iterations =  3.0

     total cpu time spent up to now is      833.9 secs

     total energy              =   -1205.81286569 Ry
     Harris-Foulkes estimate   =   -1205.81296584 Ry
     estimated scf accuracy    <       0.00050778 Ry

     iteration # 13     ecut=    40.00 Ry     beta=0.70
     CG style diagonalization
     ethr =  4.03E-07,  avg # of iterations =  3.8

     total cpu time spent up to now is      876.5 secs

     End of self-consistent calculation

          k = 0.0000 0.0000 0.0000 (  5047 PWs)   bands (ev):

   -42.0100 -41.9499 -41.9498 -41.9400 -41.9158 -41.9158 -17.3102 -17.3021
   -15.0093 -14.9698 -14.8411 -14.8145 -14.8144 -14.7897 -14.7896 -14.7685
   -14.7685 -14.6408 -14.5029 -14.5029 -14.4083 -14.4083 -14.4076 -14.4070
   -14.3968 -14.3968   0.7854   0.8033   0.8033   0.8417   0.8566   0.8566
    14.5130  15.0347  15.0347  15.0817  15.1130  15.7195  15.7195  15.8033
    15.8398  15.8398  16.1189  17.0983  17.5343  17.5343  17.9512  17.9512
    17.9589  18.5477  18.5477  18.7104  18.7881  18.7881  19.0764  19.0765
    19.1274  19.1274  19.4676  19.4676  20.4352  20.6050  20.9877  21.3697
    21.4083  22.7285  23.1746  23.1746  23.2780  23.2780  23.2946  23.2946
    24.6198  24.6199  26.1345  26.1348

          k = 0.0000 0.0000 0.1808 (  5065 PWs)   bands (ev):

   -42.0077 -41.9497 -41.9496 -41.9437 -41.9172 -41.9171 -17.3115 -17.3058
   -14.9907 -14.9793 -14.8879 -14.8879 -14.8397 -14.7952 -14.7952 -14.7070
   -14.7070 -14.6234 -14.4948 -14.4947 -14.4325 -14.4223 -14.4118 -14.4118
   -14.3979 -14.3979   0.7867   0.8079   0.8079   0.8332   0.8574   0.8574
    14.7108  15.1239  15.1239  15.1487  15.1784  15.2286  15.2287  15.4881
    16.4073  16.4073  16.5167  17.2425  17.3550  17.3550  17.6519  17.9811
    17.9811  18.2725  18.3649  18.3649  18.5072  18.5073  18.6873  18.6874
    19.3078  19.3078  20.4238  20.4238  20.6126  20.8657  21.1688  21.1949
    21.3557  22.1328  23.2503  23.2503  23.2812  23.2813  23.3116  23.3116
    24.0374  24.0378  25.8123  25.8128

          k = 0.0000 0.0000 0.3616 (  5047 PWs)   bands (ev):

   -41.9994 -41.9505 -41.9446 -41.9445 -41.9216 -41.9215 -17.3145 -17.3115
   -14.9982 -14.9457 -14.9280 -14.9280 -14.8538 -14.8538 -14.7849 -14.6035
   -14.6035 -14.5964 -14.4915 -14.4811 -14.4810 -14.4547 -14.4037 -14.4037
   -14.4037 -14.4036   0.7903   0.8156   0.8222   0.8222   0.8570   0.8570
    14.9758  14.9758  15.1111  15.1591  15.3538  15.3538  15.4868  15.4992
    16.5916  16.5916  16.6523  16.6523  16.7462  16.8193  17.6646  17.9679
    17.9679  18.0127  18.1600  18.1601  18.6288  18.6288  19.0287  19.0287
    19.6469  19.6470  20.1337  20.3510  21.0837  21.0837  21.1445  21.3171
    21.4153  22.3242  23.0830  23.0831  23.1449  23.1450  23.3739  23.3739
    23.5348  23.5349  25.1936  25.1937

          k = 0.0000 0.0000 0.5424 (  5041 PWs)   bands (ev):

   -41.9831 -41.9666 -41.9365 -41.9364 -41.9295 -41.9295 -17.3170 -17.3163
   -14.9823 -14.9652 -14.9342 -14.9342 -14.9052 -14.9052 -14.6777 -14.5641
   -14.5523 -14.5327 -14.5326 -14.4992 -14.4881 -14.4881 -14.4108 -14.4108
   -14.4052 -14.4051   0.7936   0.8005   0.8386   0.8387   0.8516   0.8516
    15.0731  15.0732  15.2026  15.3789  15.4114  15.4114  15.7373  15.8985
    16.1466  16.1466  16.2669  16.4317  16.4317  16.5524  17.8840  17.8840
    17.9681  17.9681  18.2078  18.3348  19.1296  19.1616  19.1617  19.1955
    19.6378  19.6379  20.0185  20.0185  20.8952  20.8953  21.1952  21.2590
    22.1280  22.5875  22.5875  22.7850  22.7851  22.9282  23.4917  23.4918
    23.6304  23.6307  24.6950  25.3162

          k = 0.0000 0.1925 0.0000 (  5083 PWs)   bands (ev):

   -42.0081 -41.9555 -41.9514 -41.9394 -41.9168 -41.9166 -17.3135 -17.3066
   -14.9960 -14.9546 -14.8310 -14.8161 -14.8070 -14.7984 -14.7956 -14.7574
   -14.7453 -14.6514 -14.5205 -14.5062 -14.4485 -14.4371 -14.4230 -14.4226
   -14.4068 -14.3987   0.7841   0.7879   0.7928   0.8338   0.8375   0.8519
    14.7355  15.1439  15.2526  15.2756  15.2989  15.7198  15.7841  15.9149
    15.9194  16.0210  16.2566  17.1477  17.5077  17.6044  17.6106  18.0768
    18.1796  18.4533  18.6591  18.6928  18.7044  18.7850  18.8356  18.8822
    19.1454  19.1860  19.1870  19.2251  19.9035  20.2753  20.8498  21.0629
    21.3100  21.6684  22.9095  23.0911  23.1978  23.2917  23.5201  24.3942
    24.5417  24.6692  24.7827  24.8771

          k = 0.0000 0.1925 0.1808 (  5077 PWs)   bands (ev):

   -42.0053 -41.9527 -41.9497 -41.9423 -41.9186 -41.9185 -17.3150 -17.3096
   -14.9696 -14.9598 -14.8786 -14.8775 -14.8253 -14.7875 -14.7758 -14.7199
   -14.7087 -14.6307 -14.5080 -14.4975 -14.4519 -14.4409 -14.4283 -14.4197
   -14.4184 -14.3984   0.7810   0.7977   0.7987   0.8225   0.8418   0.8525
    14.9201  15.2147  15.3028  15.3303  15.3386  15.3606  15.4336  15.6018
    16.4864  16.4943  16.6225  17.2192  17.2934  17.4164  17.5667  17.8597
    18.0927  18.2005  18.3244  18.3477  18.4573  18.5901  18.6428  18.6831
    19.2440  19.2629  19.9835  20.0593  20.4348  20.4929  20.8106  20.9526
    21.1099  21.4624  22.8522  23.1007  23.2022  23.4068  23.6193  23.8030
    24.1077  24.2583  24.7429  24.8576

          k = 0.0000 0.1925 0.3616 (  5061 PWs)   bands (ev):

   -41.9961 -41.9514 -41.9464 -41.9447 -41.9239 -41.9221 -17.3182 -17.3158
   -14.9681 -14.9400 -14.9150 -14.9123 -14.8410 -14.8345 -14.7799 -14.6474
   -14.6132 -14.5704 -14.5067 -14.5063 -14.4737 -14.4510 -14.4488 -14.4186
   -14.4183 -14.3980   0.7816   0.8049   0.8134   0.8135   0.8437   0.8518
    15.0709  15.1216  15.2436  15.3672  15.5000  15.5832  15.6680  15.6892
    16.5847  16.6129  16.7018  16.8293  16.8666  16.8929  17.4808  17.8797
    17.9247  17.9757  18.0970  18.2561  18.4058  18.5544  19.0002  19.1032
    19.6078  19.6377  19.8846  20.0171  20.5186  20.8332  20.8838  21.2045
    21.2089  21.3477  22.5222  23.0180  23.0514  23.0972  23.2470  23.7370
    23.9030  23.9582  24.5186  24.8588

          k = 0.0000 0.1925 0.5424 (  5050 PWs)   bands (ev):

   -41.9806 -41.9642 -41.9395 -41.9376 -41.9316 -41.9296 -17.3211 -17.3205
   -14.9666 -14.9482 -14.9230 -14.9225 -14.8923 -14.8922 -14.6749 -14.5941
   -14.5678 -14.5432 -14.5371 -14.5052 -14.4943 -14.4631 -14.4395 -14.4237
   -14.4150 -14.4064   0.7841   0.7910   0.8291   0.8314   0.8400   0.8453
    15.1738  15.2276  15.3414  15.5091  15.5815  15.6076  15.9303  16.0891
    16.2164  16.2307  16.3387  16.5269  16.5841  16.7077  17.6529  17.7149
    17.9803  18.0850  18.1919  18.1970  18.8492  18.9995  19.1091  19.1153
    19.5589  19.5901  19.8548  20.0060  20.5636  20.5812  20.7688  20.9802
    21.6109  21.9051  22.2890  22.6796  22.7214  22.9058  23.3269  23.5874
    23.6587  24.2160  24.5318  24.9991

          k = 0.0000 0.3849 0.0000 (  5079 PWs)   bands (ev):

   -42.0004 -41.9654 -41.9517 -41.9369 -41.9169 -41.9168 -17.3188 -17.3146
   -14.9719 -14.8934 -14.8109 -14.8107 -14.7906 -14.7899 -14.7861 -14.6969
   -14.6855 -14.6648 -14.5387 -14.5310 -14.4997 -14.4960 -14.4953 -14.4443
   -14.3962 -14.3937   0.7465   0.7736   0.7895   0.7966   0.8284   0.8428
    15.2730  15.4488  15.6744  15.7223  15.8108  15.8294  15.8455  16.0975
    16.3468  16.4552  16.5854  17.2576  17.2838  17.4395  17.7988  17.9763
    18.2048  18.2154  18.2682  18.3362  18.4056  18.6453  18.6546  18.7661
    18.9105  18.9692  19.1381  19.1677  19.3678  19.4890  20.1275  20.8943
    20.9787  21.1551  22.2854  22.5310  22.9114  22.9360  23.5441  23.7634
    24.1937  24.3399  24.3964  26.1594

          k = 0.0000 0.3849 0.1808 (  5090 PWs)   bands (ev):

   -41.9971 -41.9636 -41.9506 -41.9396 -41.9204 -41.9185 -17.3209 -17.3177
   -14.9515 -14.9021 -14.8577 -14.8478 -14.8126 -14.7438 -14.7427 -14.7230
   -14.6917 -14.6337 -14.5398 -14.5330 -14.5267 -14.4820 -14.4748 -14.4392
   -14.4125 -14.4000   0.7476   0.7801   0.7838   0.8009   0.8284   0.8425
    15.3549  15.5340  15.6196  15.6367  15.7059  15.8717  15.9336  15.9940
    16.6011  16.6701  16.8300  17.1049  17.2173  17.4245  17.5999  17.6292
    17.9584  18.0979  18.1250  18.3719  18.4540  18.5266  18.5817  18.7965
    18.9256  19.1394  19.3880  19.4539  19.5375  19.8623  20.1015  20.6519
    20.8739  21.0576  22.2248  22.6702  22.8101  22.9972  23.4852  23.6033
    23.6734  24.2232  24.6139  25.6730

          k = 0.0000 0.3849 0.3616 (  5078 PWs)   bands (ev):

   -41.9876 -41.9588 -41.9451 -41.9451 -41.9280 -41.9230 -17.3254 -17.3239
   -14.9322 -14.9091 -14.8856 -14.8770 -14.8159 -14.7863 -14.7364 -14.6979
   -14.6340 -14.5721 -14.5439 -14.5383 -14.5347 -14.4654 -14.4577 -14.4485
   -14.4306 -14.4051   0.7511   0.7725   0.7970   0.8103   0.8287   0.8404
    15.3387  15.5121  15.5828  15.7646  15.8550  16.0628  16.1839  16.2176
    16.5221  16.5944  16.7973  17.0141  17.0855  17.1652  17.3383  17.6641
    17.7432  17.8229  18.1217  18.3457  18.3792  18.6215  18.6235  18.9266
    19.0268  19.3933  19.5874  19.6107  19.8304  19.8425  20.1150  20.3299
    20.9835  21.2560  21.9559  22.4300  22.6432  23.0360  23.1408  23.3157
    23.3871  24.5260  24.5310  25.0394

          k = 0.0000 0.3849 0.5424 (  5051 PWs)   bands (ev):

   -41.9739 -41.9602 -41.9453 -41.9375 -41.9369 -41.9294 -17.3290 -17.3283
   -14.9310 -14.9193 -14.8851 -14.8609 -14.8497 -14.8240 -14.6772 -14.6471
   -14.6036 -14.5986 -14.5518 -14.5370 -14.4860 -14.4808 -14.4617 -14.4424
   -14.4288 -14.4103   0.7554   0.7619   0.8171   0.8207   0.8271   0.8324
    15.4482  15.6145  15.6749  15.7829  15.9460  15.9948  16.2401  16.4181
    16.4899  16.5602  16.5644  16.8524  16.9786  17.0183  17.3966  17.4606
    17.7512  18.0606  18.3065  18.4227  18.4655  18.6400  18.6880  18.8436
    19.0162  19.1392  19.4760  19.5699  19.7199  19.7806  20.4376  20.6700
    21.0036  21.0404  22.1158  22.3061  22.6569  22.7657  23.0605  23.1018
    23.7506  24.0004  24.5986  24.8887

          k = 0.0000-0.5774 0.0000 (  5068 PWs)   bands (ev):

   -41.9920 -41.9740 -41.9521 -41.9357 -41.9175 -41.9151 -17.3206 -17.3193
   -14.9645 -14.8404 -14.8271 -14.8217 -14.7899 -14.7575 -14.7351 -14.6963
   -14.6206 -14.6074 -14.6049 -14.5694 -14.5518 -14.5378 -14.5044 -14.4496
   -14.3996 -14.3856   0.7279   0.7642   0.7683   0.8029   0.8213   0.8385
    15.5524  15.7238  15.7860  15.8503  15.9271  15.9790  16.4032  16.4975
    16.6223  16.6909  16.7501  17.3210  17.3658  17.4091  17.4142  17.6129
    17.7615  17.7899  17.9151  18.2625  18.4664  18.5972  18.6802  18.7878
    18.7994  18.8025  18.9418  19.1283  19.3999  19.4186  19.7036  20.7990
    20.8395  21.0927  21.9207  22.1500  22.4192  22.5824  23.5718  23.7153
    24.0608  24.1816  24.5174  26.1409

          k = 0.0000-0.5774 0.1808 (  5072 PWs)   bands (ev):

   -41.9885 -41.9720 -41.9499 -41.9378 -41.9214 -41.9171 -17.3229 -17.3221
   -14.9484 -14.8764 -14.8399 -14.8225 -14.8087 -14.7492 -14.7096 -14.6704
   -14.6454 -14.6135 -14.6047 -14.5975 -14.5548 -14.4996 -14.4744 -14.4420
   -14.4060 -14.4019   0.7301   0.7637   0.7713   0.8056   0.8224   0.8376
    15.5609  15.7615  15.7968  15.8879  15.9314  16.0461  16.3654  16.5386
    16.7417  16.7534  16.8760  17.0017  17.0119  17.3347  17.4259  17.7836
    17.8554  17.9385  17.9559  18.0847  18.3707  18.6010  18.6198  18.7432
    18.7666  18.9949  19.0956  19.1760  19.3634  19.6963  19.7099  20.5007
    20.6797  21.0267  21.9093  22.3173  22.5177  22.5239  23.3904  23.5214
    23.5419  24.2706  24.7266  26.4968

          k = 0.0000-0.5774 0.3616 (  5090 PWs)   bands (ev):

   -41.9785 -41.9677 -41.9454 -41.9426 -41.9315 -41.9239 -17.3287 -17.3284
   -14.9211 -14.9021 -14.8660 -14.8420 -14.7982 -14.7523 -14.7260 -14.6742
   -14.6500 -14.6098 -14.6017 -14.5869 -14.5397 -14.4707 -14.4559 -14.4544
   -14.4270 -14.4125   0.7339   0.7531   0.7890   0.8118   0.8238   0.8345
    15.6101  15.7206  15.9312  15.9640  16.0871  16.1751  16.2577  16.3499
    16.7799  16.9198  16.9236  16.9434  16.9752  17.2473  17.5633  17.6918
    17.7427  17.9595  18.0174  18.2083  18.2226  18.2710  18.6771  18.6943
    18.7189  18.8651  19.2557  19.4201  19.6123  19.7675  19.9045  20.0087
    20.5119  21.2711  21.8667  22.0643  22.3782  22.7276  23.1106  23.1667
    23.1706  24.6781  25.0080  25.1683

          k = 0.0000-0.5774 0.5424 (  5080 PWs)   bands (ev):

   -41.9659 -41.9622 -41.9473 -41.9438 -41.9378 -41.9310 -17.3329 -17.3329
   -14.9176 -14.9117 -14.8627 -14.8179 -14.7950 -14.7814 -14.6876 -14.6805
   -14.6793 -14.6425 -14.5858 -14.5498 -14.5046 -14.4777 -14.4734 -14.4397
   -14.4287 -14.4214   0.7379   0.7439   0.8100   0.8188   0.8231   0.8259
    15.7681  15.8022  15.9775  16.0132  16.0315  16.0552  16.1202  16.3844
    16.7551  16.9826  17.0553  17.0710  17.1273  17.2148  17.4859  17.5941
    17.8232  17.9758  18.1771  18.2777  18.2881  18.3634  18.5269  18.5469
    18.6643  18.7107  18.7899  19.3554  19.4788  19.6100  20.3232  20.3823
    20.4671  21.0106  21.9948  22.1998  22.4019  22.5825  22.9860  22.9980
    23.6143  24.2630  24.5938  24.7403

          k = 0.2000 0.1155 0.0000 (  5087 PWs)   bands (ev):

   -42.0078 -41.9571 -41.9514 -41.9392 -41.9169 -41.9162 -17.3148 -17.3081
   -14.9924 -14.9444 -14.8269 -14.8126 -14.8066 -14.7995 -14.7939 -14.7478
   -14.7370 -14.6516 -14.5224 -14.5057 -14.4729 -14.4453 -14.4360 -14.4266
   -14.4042 -14.3978   0.7770   0.7891   0.7893   0.8246   0.8361   0.8503
    14.8282  15.1877  15.3457  15.3540  15.3801  15.7199  15.7944  15.9487
    15.9798  16.0956  16.3153  17.1674  17.4965  17.5271  17.6426  18.1254
    18.1963  18.4189  18.6584  18.6644  18.6673  18.7796  18.7960  18.8311
    19.0993  19.1204  19.1252  19.1888  19.7430  20.1397  20.7441  21.0008
    21.2770  21.4815  22.7843  22.9976  23.1729  23.3368  23.5209  24.3911
    24.5090  24.5542  24.5905  24.9590

          k = 0.2000 0.1155 0.1808 (  5078 PWs)   bands (ev):

   -42.0043 -41.9548 -41.9495 -41.9418 -41.9188 -41.9181 -17.3162 -17.3111
   -14.9668 -14.9479 -14.8769 -14.8712 -14.8189 -14.7800 -14.7666 -14.7218
   -14.7094 -14.6297 -14.5118 -14.4982 -14.4689 -14.4487 -14.4327 -14.4245
   -14.4229 -14.3995   0.7757   0.7950   0.7969   0.8163   0.8382   0.8508
    15.0048  15.2543  15.3617  15.3897  15.4076  15.4426  15.5205  15.6487
    16.5183  16.5250  16.6641  17.2132  17.2640  17.4434  17.5316  17.8248
    18.1205  18.1568  18.2948  18.3543  18.4643  18.6107  18.6366  18.6674
    19.2154  19.2318  19.8537  19.9299  20.2237  20.3851  20.7217  20.8605
    21.0894  21.3107  22.7185  23.0287  23.1791  23.4327  23.5598  23.7954
    24.1318  24.4588  24.4641  24.7647

          k = 0.2000 0.1155 0.3616 (  5067 PWs)   bands (ev):

   -41.9948 -41.9519 -41.9470 -41.9450 -41.9245 -41.9223 -17.3196 -17.3175
   -14.9597 -14.9357 -14.9105 -14.9083 -14.8362 -14.8284 -14.7766 -14.6593
   -14.6161 -14.5663 -14.5152 -14.5111 -14.4756 -14.4593 -14.4479 -14.4268
   -14.4228 -14.3993   0.7764   0.7997   0.8104   0.8118   0.8399   0.8496
    15.1131  15.1833  15.2990  15.4455  15.5631  15.6807  15.7351  15.7744
    16.5855  16.6206  16.7116  16.8910  16.9018  16.9502  17.4075  17.8449
    17.8738  17.9339  18.1488  18.2862  18.3355  18.5613  18.9605  19.0940
    19.5809  19.5870  19.7986  19.9679  20.3390  20.6706  20.6771  20.9715
    21.2157  21.3547  22.3485  22.9616  22.9915  23.0565  23.2275  23.8341
    23.9100  23.9165  24.3866  24.8924

          k = 0.2000 0.1155 0.5424 (  5053 PWs)   bands (ev):

   -41.9792 -41.9634 -41.9407 -41.9377 -41.9326 -41.9302 -17.3227 -17.3221
   -14.9576 -14.9425 -14.9167 -14.9137 -14.8855 -14.8852 -14.6749 -14.6059
   -14.5693 -14.5567 -14.5399 -14.5018 -14.5013 -14.4589 -14.4478 -14.4319
   -14.4189 -14.4038   0.7795   0.7862   0.8266   0.8286   0.8368   0.8427
    15.2165  15.2914  15.3984  15.5531  15.6581  15.6856  16.0071  16.1583
    16.2478  16.2700  16.3720  16.5689  16.6494  16.7726  17.5901  17.6267
    17.9797  18.1168  18.1740  18.1915  18.7736  18.9449  19.0404  19.0793
    19.5202  19.5481  19.7844  19.9564  20.3987  20.4131  20.6504  20.9819
    21.3711  21.7682  22.2213  22.6553  22.7030  22.9073  23.2614  23.5147
    23.6954  24.1575  24.5401  25.0033

          k = 0.2000 0.3079 0.0000 (  5075 PWs)   bands (ev):

   -42.0009 -41.9616 -41.9550 -41.9353 -41.9175 -41.9168 -17.3184 -17.3140
   -14.9755 -14.9011 -14.8082 -14.8074 -14.8025 -14.7946 -14.7782 -14.7288
   -14.6733 -14.6635 -14.5302 -14.5269 -14.5043 -14.5019 -14.4509 -14.4296
   -14.4183 -14.3913   0.7576   0.7625   0.7959   0.8037   0.8294   0.8367
    15.2542  15.4936  15.5700  15.6061  15.6941  15.8707  16.0931  16.1320
    16.1587  16.3086  16.6223  17.2278  17.2317  17.5018  17.7143  18.0108
    18.2558  18.3119  18.3410  18.3839  18.4039  18.5327  18.5330  18.7877
    18.9466  19.0761  19.1062  19.2198  19.3912  19.5521  20.4122  20.6717
    21.0590  21.1601  22.4498  22.5948  22.8852  22.9970  23.4736  23.9784
    24.2296  24.2456  24.3175  26.2053

          k = 0.2000 0.3079 0.1808 (  5088 PWs)   bands (ev):

   -41.9972 -41.9603 -41.9548 -41.9376 -41.9200 -41.9192 -17.3205 -17.3171
   -14.9518 -14.9083 -14.8660 -14.8539 -14.7965 -14.7717 -14.7307 -14.7284
   -14.6954 -14.6358 -14.5460 -14.5293 -14.4954 -14.4908 -14.4520 -14.4265
   -14.4200 -14.4110   0.7596   0.7654   0.7981   0.8010   0.8309   0.8364
    15.3805  15.5412  15.5496  15.5683  15.7294  15.7713  15.8766  16.0014
    16.6127  16.6348  16.8146  17.1267  17.2615  17.4020  17.4974  17.6279
    17.9713  17.9818  18.2700  18.4115  18.4701  18.4884  18.6349  18.7709
    18.8385  19.2597  19.3861  19.5104  19.6381  19.8844  20.3587  20.6507
    20.8430  20.9618  22.3351  22.7094  22.8951  22.9956  23.4307  23.7827
    23.9644  24.1219  24.2747  25.5868

          k = 0.2000 0.3079 0.3616 (  5068 PWs)   bands (ev):

   -41.9884 -41.9540 -41.9524 -41.9412 -41.9262 -41.9239 -17.3247 -17.3233
   -14.9207 -14.9157 -14.8893 -14.8791 -14.8095 -14.8017 -14.7388 -14.6939
   -14.6231 -14.5692 -14.5661 -14.5364 -14.4890 -14.4781 -14.4609 -14.4417
   -14.4201 -14.4154   0.7596   0.7733   0.7943   0.8127   0.8331   0.8350
    15.3454  15.4532  15.5522  15.7886  15.8767  15.9960  16.0183  16.2284
    16.5768  16.6814  16.7150  16.9894  17.0156  17.1541  17.3214  17.6171
    17.7252  17.8563  18.1414  18.3081  18.3544  18.6241  18.7735  18.8762
    18.9970  19.5608  19.5717  19.6474  19.9338  20.0257  20.1929  20.3235
    21.0246  21.1092  21.9573  22.3950  22.8217  23.0651  23.1497  23.5447
    23.6762  24.1347  24.5442  24.6944

          k = 0.2000 0.3079 0.5424 (  5058 PWs)   bands (ev):

   -41.9746 -41.9605 -41.9454 -41.9387 -41.9347 -41.9305 -17.3284 -17.3281
   -14.9287 -14.9124 -14.8958 -14.8767 -14.8535 -14.8352 -14.6780 -14.6504
   -14.6035 -14.5845 -14.5488 -14.5147 -14.4905 -14.4850 -14.4747 -14.4404
   -14.4242 -14.4152   0.7612   0.7667   0.8090   0.8197   0.8310   0.8338
    15.4373  15.5605  15.6606  15.7863  15.9013  16.0086  16.3040  16.3796
    16.4166  16.4717  16.5660  16.8215  16.9143  17.0483  17.3470  17.4586
    17.7413  17.9678  18.2750  18.3918  18.5758  18.6833  18.7890  18.8146
    19.0411  19.0922  19.5696  19.5918  19.9070  20.0546  20.4897  20.5705
    20.9381  21.0597  22.0757  22.1797  22.8341  22.9106  23.0916  23.2788
    23.9652  24.1259  24.4552  24.5909

          k = 0.2000 0.5004 0.0000 (  5072 PWs)   bands (ev):

   -41.9912 -41.9694 -41.9599 -41.9306 -41.9198 -41.9162 -17.3214 -17.3198
   -14.9577 -14.8445 -14.8158 -14.8001 -14.7994 -14.7559 -14.7508 -14.7068
   -14.6699 -14.6270 -14.5855 -14.5509 -14.5280 -14.5091 -14.4957 -14.4627
   -14.4279 -14.3829   0.7301   0.7589   0.7780   0.8048   0.8199   0.8221
    15.5258  15.7649  15.9457  16.0322  16.0681  16.2660  16.2753  16.4999
    16.6241  16.6319  16.9029  17.0049  17.1834  17.2183  17.4649  17.5152
    17.7263  17.7790  17.9683  18.1786  18.3879  18.4108  18.4855  18.6958
    18.9120  18.9966  19.1658  19.2800  19.3243  19.4647  19.8390  20.4695
    20.9091  21.0698  21.9954  22.2124  22.5498  22.8285  23.3391  23.6411
    23.9474  24.0116  24.2072  26.3962

          k = 0.2000 0.5004 0.1808 (  5079 PWs)   bands (ev):

   -41.9881 -41.9678 -41.9584 -41.9323 -41.9220 -41.9196 -17.3238 -17.3226
   -14.9419 -14.8637 -14.8382 -14.8291 -14.8004 -14.7574 -14.7144 -14.6864
   -14.6529 -14.6307 -14.6231 -14.5799 -14.5120 -14.4940 -14.4691 -14.4572
   -14.4272 -14.4040   0.7360   0.7583   0.7739   0.8088   0.8191   0.8245
    15.6438  15.7738  15.9295  16.0251  16.0994  16.1723  16.2950  16.5646
    16.6640  16.7457  16.8161  16.9580  17.0945  17.1548  17.3595  17.5753
    17.8146  17.8814  17.9186  18.1158  18.2979  18.5671  18.5858  18.7997
    18.8263  18.9078  19.0236  19.3151  19.5292  19.5973  19.9021  20.4966
    20.6104  20.7517  22.0526  22.2793  22.6467  22.8301  23.2600  23.4975
    23.6654  23.9201  24.1692  26.6232

          k = 0.2000 0.5004 0.3616 (  5085 PWs)   bands (ev):

   -41.9789 -41.9631 -41.9551 -41.9362 -41.9302 -41.9257 -17.3292 -17.3288
   -14.9016 -14.8841 -14.8688 -14.8406 -14.8042 -14.7815 -14.7035 -14.6719
   -14.6370 -14.6342 -14.6015 -14.5819 -14.5225 -14.4750 -14.4585 -14.4541
   -14.4348 -14.4250   0.7444   0.7563   0.7738   0.8131   0.8200   0.8292
    15.7130  15.8784  15.9165  16.0305  16.2363  16.2809  16.3872  16.4211
    16.5873  16.6943  16.7279  16.9440  17.1325  17.2575  17.5473  17.6579
    17.7875  17.8331  17.8718  18.0483  18.2436  18.3977  18.5575  18.6039
    18.8071  19.1128  19.1846  19.2877  19.5475  19.8419  19.9407  20.1652
    20.4418  20.8768  21.9861  22.0620  22.6586  22.8572  23.0813  23.2663
    23.3352  24.0137  24.3309  25.4410

          k = 0.2000 0.5004 0.5424 (  5080 PWs)   bands (ev):

   -41.9663 -41.9590 -41.9518 -41.9431 -41.9357 -41.9320 -17.3336 -17.3335
   -14.8956 -14.8901 -14.8617 -14.8382 -14.8051 -14.7979 -14.6918 -14.6836
   -14.6472 -14.6355 -14.5642 -14.5503 -14.5131 -14.5080 -14.4635 -14.4464
   -14.4340 -14.4272   0.7464   0.7499   0.7900   0.8052   0.8277   0.8312
    15.7778  15.9552  15.9662  16.0413  16.1438  16.1727  16.2717  16.3690
    16.8284  16.8682  16.9695  17.0227  17.1606  17.3150  17.5653  17.6143
    17.7898  17.8469  17.9370  18.0079  18.1804  18.2490  18.4146  18.4579
    18.5825  18.8327  19.3104  19.4351  19.4775  19.6893  20.0728  20.2305
    20.5630  20.8718  22.0423  22.1310  22.6364  22.7117  23.0945  23.1637
    23.7414  24.1986  24.2428  24.6299

          k = 0.2000-0.4619 0.0000 (  5078 PWs)   bands (ev):

   -41.9929 -41.9680 -41.9596 -41.9313 -41.9196 -41.9165 -17.3212 -17.3189
   -14.9630 -14.8527 -14.8170 -14.8000 -14.7980 -14.7626 -14.7581 -14.7077
   -14.6751 -14.6139 -14.5997 -14.5454 -14.5291 -14.5063 -14.4889 -14.4539
   -14.4288 -14.3851   0.7338   0.7574   0.7830   0.8031   0.8215   0.8239
    15.5353  15.7002  15.8386  15.9659  16.0112  16.2039  16.2593  16.4710
    16.5195  16.5241  16.8808  17.0191  17.2122  17.3562  17.4879  17.6709
    17.7255  17.8815  18.0203  18.1933  18.3992  18.4223  18.4817  18.7304
    18.8907  19.0518  19.1818  19.2494  19.2828  19.4477  19.9446  20.4882
    20.9201  21.0807  22.0466  22.3069  22.5357  22.8268  23.5000  23.6074
    24.0001  24.0086  24.2208  26.3548

          k = 0.2000-0.4619 0.1808 (  5075 PWs)   bands (ev):

   -41.9894 -41.9661 -41.9581 -41.9330 -41.9213 -41.9195 -17.3233 -17.3217
   -14.9421 -14.8671 -14.8463 -14.8308 -14.7918 -14.7636 -14.7156 -14.6980
   -14.6468 -14.6372 -14.6143 -14.5679 -14.5076 -14.4953 -14.4653 -14.4510
   -14.4272 -14.4045   0.7398   0.7568   0.7790   0.8072   0.8217   0.8257
    15.6324  15.7228  15.8734  15.9166  16.0498  16.1222  16.1950  16.5150
    16.6206  16.7201  16.8292  17.0193  17.1366  17.2154  17.4050  17.5767
    17.8506  17.8749  17.9457  18.1682  18.3476  18.5443  18.5672  18.8086
    18.8493  18.9657  19.1105  19.2823  19.5251  19.6294  19.9716  20.5087
    20.6463  20.7719  22.1212  22.2850  22.6614  22.8480  23.3446  23.5659
    23.6885  23.9256  24.1656  26.5321

          k = 0.2000-0.4619 0.3616 (  5078 PWs)   bands (ev):

   -41.9805 -41.9610 -41.9548 -41.9371 -41.9292 -41.9256 -17.3286 -17.3280
   -14.9036 -14.8874 -14.8730 -14.8469 -14.8008 -14.7851 -14.7065 -14.6865
   -14.6314 -14.6256 -14.5894 -14.5748 -14.5152 -14.4769 -14.4552 -14.4502
   -14.4346 -14.4226   0.7471   0.7570   0.7774   0.8135   0.8215   0.8299
    15.6392  15.7999  15.8527  16.0134  16.1998  16.2291  16.3857  16.4664
    16.5209  16.6987  16.7157  16.9836  17.0157  17.2420  17.5725  17.6643
    17.7306  17.8313  17.9590  18.0519  18.2668  18.4031  18.6231  18.6260
    18.9048  19.1674  19.2224  19.3295  19.6090  19.8828  19.9346  20.1495
    20.5472  20.8929  21.9881  22.0845  22.6659  22.8680  23.0919  23.3329
    23.4409  24.0004  24.3418  25.2983

          k = 0.2000-0.4619 0.5424 (  5069 PWs)   bands (ev):

   -41.9679 -41.9585 -41.9506 -41.9420 -41.9355 -41.9316 -17.3329 -17.3328
   -14.9004 -14.8923 -14.8659 -14.8474 -14.8080 -14.8004 -14.6883 -14.6845
   -14.6401 -14.6223 -14.5601 -14.5407 -14.5101 -14.5031 -14.4649 -14.4412
   -14.4344 -14.4244   0.7485   0.7519   0.7926   0.8076   0.8281   0.8317
    15.7076  15.8872  15.9270  15.9924  16.1294  16.1550  16.3098  16.3953
    16.7355  16.7771  16.9764  17.0289  17.0484  17.2276  17.5435  17.5497
    17.7826  17.8203  18.0548  18.1485  18.2136  18.3074  18.4692  18.5150
    18.6638  18.8507  19.3696  19.4649  19.5581  19.7009  20.1124  20.3118
    20.5767  20.8779  22.0523  22.1226  22.6594  22.7148  23.1093  23.2231
    23.8112  24.1657  24.2633  24.5776

          k = 0.2000-0.2694 0.0000 (  5077 PWs)   bands (ev):

   -42.0022 -41.9608 -41.9541 -41.9364 -41.9174 -41.9167 -17.3175 -17.3128
   -14.9787 -14.9124 -14.8103 -14.8093 -14.8071 -14.7937 -14.7877 -14.7349
   -14.6889 -14.6594 -14.5255 -14.5150 -14.5013 -14.4921 -14.4472 -14.4273
   -14.4109 -14.3924   0.7616   0.7687   0.7942   0.8081   0.8313   0.8406
    15.1441  15.4087  15.5072  15.6114  15.6304  15.7523  16.0078  16.0814
    16.1232  16.2633  16.5434  17.2179  17.3011  17.4952  17.7053  18.1073
    18.2695  18.3201  18.4390  18.4635  18.5021  18.5955  18.5997  18.7791
    18.9929  19.0337  19.0644  19.2178  19.4333  19.6946  20.4915  20.7523
    21.1253  21.1855  22.5051  22.7308  22.9395  23.1534  23.4439  24.0010
    24.2921  24.3568  24.3600  25.8981

          k = 0.2000-0.2694 0.1808 (  5087 PWs)   bands (ev):

   -41.9992 -41.9590 -41.9533 -41.9388 -41.9198 -41.9189 -17.3196 -17.3157
   -14.9553 -14.9179 -14.8683 -14.8582 -14.8030 -14.7749 -14.7366 -14.7302
   -14.7042 -14.6334 -14.5304 -14.5232 -14.4934 -14.4832 -14.4479 -14.4250
   -14.4148 -14.4113   0.7622   0.7731   0.7998   0.8022   0.8322   0.8405
    15.2852  15.4631  15.5137  15.5159  15.6444  15.6929  15.8152  15.8764
    16.5981  16.6105  16.7849  17.1418  17.2971  17.3756  17.5057  17.6931
    18.0088  18.0302  18.2864  18.4415  18.4809  18.5056  18.5953  18.7938
    18.8941  19.2539  19.5094  19.5812  19.7356  20.0027  20.4441  20.6963
    20.9007  21.0320  22.3944  22.8906  22.9353  23.0547  23.4656  23.7942
    23.9979  24.1344  24.4026  25.3496

          k = 0.2000-0.2694 0.3616 (  5068 PWs)   bands (ev):

   -41.9900 -41.9532 -41.9510 -41.9424 -41.9260 -41.9234 -17.3236 -17.3220
   -14.9302 -14.9207 -14.8939 -14.8870 -14.8175 -14.8058 -14.7517 -14.6871
   -14.6210 -14.5654 -14.5542 -14.5271 -14.4877 -14.4683 -14.4614 -14.4430
   -14.4185 -14.4102   0.7630   0.7796   0.7983   0.8123   0.8342   0.8388
    15.2819  15.3829  15.4868  15.7033  15.7958  15.9209  15.9538  16.1130
    16.5788  16.6585  16.7240  16.9667  17.0837  17.1026  17.2474  17.6751
    17.7600  17.8578  18.1663  18.3189  18.3364  18.6346  18.7942  18.9404
    19.1413  19.5830  19.6451  19.7506  19.9677  20.1579  20.2997  20.4331
    21.0732  21.2314  21.9911  22.4898  22.8757  23.1553  23.1753  23.4892
    23.7482  24.1524  24.5258  24.6997

          k = 0.2000-0.2694 0.5424 (  5058 PWs)   bands (ev):

   -41.9760 -41.9614 -41.9444 -41.9381 -41.9343 -41.9302 -17.3272 -17.3267
   -14.9325 -14.9190 -14.9007 -14.8849 -14.8657 -14.8474 -14.6768 -14.6402
   -14.5905 -14.5795 -14.5467 -14.5147 -14.4871 -14.4761 -14.4733 -14.4429
   -14.4213 -14.4156   0.7652   0.7711   0.8135   0.8221   0.8324   0.8350
    15.3788  15.4912  15.5943  15.7303  15.8351  15.9462  16.2430  16.3424
    16.3596  16.4335  16.4928  16.7438  16.8558  16.9889  17.3891  17.4704
    17.8007  18.0198  18.2525  18.3481  18.6165  18.7482  18.8460  18.9009
    19.2033  19.2415  19.5911  19.6527  20.0003  20.1290  20.5119  20.7336
    20.9676  21.2443  22.0845  22.2343  22.8894  22.9837  23.0797  23.2442
    23.9097  24.1282  24.5035  24.6903

          k = 0.2000-0.0770 0.0000 (  5083 PWs)   bands (ev):

   -42.0079 -41.9565 -41.9514 -41.9389 -41.9168 -41.9165 -17.3142 -17.3074
   -14.9938 -14.9477 -14.8286 -14.8128 -14.8057 -14.7998 -14.7937 -14.7535
   -14.7407 -14.6517 -14.5211 -14.5046 -14.4612 -14.4432 -14.4297 -14.4231
   -14.4054 -14.3991   0.7805   0.7888   0.7902   0.8291   0.8367   0.8508
    14.7866  15.1720  15.2856  15.3299  15.3467  15.7102  15.8055  15.9380
    15.9445  16.0588  16.2900  17.1584  17.5030  17.5597  17.6267  18.1044
    18.1912  18.4339  18.6592  18.6808  18.6955  18.7849  18.8008  18.8503
    19.1289  19.1305  19.1743  19.1928  19.8119  20.2001  20.8056  21.0141
    21.2912  21.5604  22.8414  23.0448  23.1759  23.3151  23.5307  24.4074
    24.5175  24.5675  24.7981  24.8258

          k = 0.2000-0.0770 0.1808 (  5080 PWs)   bands (ev):

   -42.0046 -41.9541 -41.9499 -41.9419 -41.9189 -41.9182 -17.3157 -17.3105
   -14.9678 -14.9542 -14.8784 -14.8743 -14.8208 -14.7842 -14.7706 -14.7208
   -14.7110 -14.6311 -14.5110 -14.4986 -14.4601 -14.4473 -14.4302 -14.4241
   -14.4191 -14.3988   0.7783   0.7958   0.7975   0.8195   0.8399   0.8512
    14.9671  15.2402  15.3278  15.3655  15.3784  15.4033  15.4831  15.6278
    16.5035  16.5119  16.6457  17.2130  17.2841  17.4256  17.5476  17.8400
    18.1072  18.1752  18.3043  18.3614  18.4577  18.6159  18.6272  18.6728
    19.2169  19.2579  19.9091  19.9850  20.3215  20.4286  20.7780  20.8969
    21.0840  21.3781  22.7747  23.0753  23.1859  23.3868  23.6322  23.7998
    24.0957  24.3947  24.5734  24.8033

          k = 0.2000-0.0770 0.3616 (  5063 PWs)   bands (ev):

   -41.9955 -41.9516 -41.9469 -41.9446 -41.9240 -41.9223 -17.3190 -17.3167
   -14.9620 -14.9378 -14.9128 -14.9095 -14.8386 -14.8309 -14.7783 -14.6537
   -14.6144 -14.5680 -14.5124 -14.5083 -14.4738 -14.4557 -14.4465 -14.4305
   -14.4159 -14.3977   0.7790   0.8020   0.8117   0.8127   0.8416   0.8503
    15.0949  15.1547  15.2740  15.4117  15.5358  15.6331  15.7053  15.7380
    16.5855  16.6172  16.7083  16.8681  16.8796  16.9257  17.4384  17.8635
    17.8974  17.9457  18.1290  18.2645  18.3794  18.5498  18.9837  19.0972
    19.5807  19.6310  19.8253  19.9913  20.4162  20.7273  20.8029  21.0632
    21.1961  21.3612  22.4263  22.8899  23.0750  23.1413  23.2279  23.7841
    23.8841  23.9518  24.4614  24.8555

          k = 0.2000-0.0770 0.5424 (  5055 PWs)   bands (ev):

   -41.9798 -41.9638 -41.9405 -41.9380 -41.9321 -41.9297 -17.3220 -17.3215
   -14.9622 -14.9453 -14.9204 -14.9178 -14.8912 -14.8867 -14.6751 -14.5997
   -14.5685 -14.5528 -14.5388 -14.5047 -14.4982 -14.4614 -14.4440 -14.4302
   -14.4160 -14.4057   0.7815   0.7884   0.8276   0.8296   0.8385   0.8436
    15.1980  15.2618  15.3732  15.5362  15.6153  15.6570  15.9731  16.1283
    16.2328  16.2525  16.3567  16.5494  16.6195  16.7439  17.6165  17.6640
    17.9850  18.1037  18.1762  18.1928  18.8096  18.9665  19.0712  19.0976
    19.5344  19.5764  19.8065  19.9836  20.4691  20.4910  20.7116  20.9733
    21.4791  21.8256  22.2447  22.5702  22.8095  22.9276  23.2782  23.5216
    23.6998  24.2066  24.5341  24.9487

          k = 0.4000 0.2309 0.0000 (  5085 PWs)   bands (ev):

   -41.9959 -41.9698 -41.9522 -41.9369 -41.9178 -41.9164 -17.3203 -17.3174
   -14.9690 -14.8672 -14.8230 -14.8144 -14.7918 -14.7784 -14.7600 -14.6929
   -14.6523 -14.6509 -14.5751 -14.5350 -14.5322 -14.5249 -14.5029 -14.4493
   -14.3970 -14.3888   0.7346   0.7678   0.7762   0.8000   0.8244   0.8400
    15.4416  15.6590  15.7231  15.7711  15.8422  15.9821  16.1331  16.2335
    16.5596  16.6114  16.6737  17.2659  17.2958  17.4061  17.7090  17.8688
    17.8792  17.9613  18.0559  18.2988  18.4132  18.5826  18.6076  18.7841
    18.8715  18.9397  19.1371  19.1467  19.2788  19.3864  19.8694  20.8593
    20.8616  21.1151  22.0747  22.3098  22.5978  22.7311  23.6213  23.6406
    24.1116  24.2512  24.4667  26.1428

          k = 0.4000 0.2309 0.1808 (  5088 PWs)   bands (ev):

   -41.9930 -41.9683 -41.9505 -41.9388 -41.9213 -41.9177 -17.3224 -17.3203
   -14.9482 -14.8856 -14.8473 -14.8344 -14.8096 -14.7473 -14.7269 -14.6968
   -14.6627 -14.6377 -14.5755 -14.5590 -14.5436 -14.4975 -14.4773 -14.4427
   -14.4101 -14.4016   0.7365   0.7713   0.7746   0.8034   0.8248   0.8394
    15.4749  15.6886  15.7232  15.7907  15.8219  15.9744  16.1999  16.2605
    16.6137  16.7203  16.9009  17.0374  17.1779  17.3881  17.4972  17.7192
    17.8622  18.0269  18.0374  18.2169  18.4018  18.5459  18.6260  18.7635
    18.7961  19.1512  19.2232  19.3013  19.3322  19.7202  19.8602  20.5647
    20.7502  21.0421  22.0411  22.4950  22.5373  22.7712  23.4264  23.5242
    23.5924  24.2529  24.6839  26.1684

          k = 0.4000 0.2309 0.3616 (  5084 PWs)   bands (ev):

   -41.9831 -41.9632 -41.9459 -41.9437 -41.9296 -41.9233 -17.3274 -17.3265
   -14.9253 -14.9045 -14.8727 -14.8565 -14.8061 -14.7693 -14.7164 -14.7077
   -14.6403 -14.5919 -14.5724 -14.5674 -14.5381 -14.4673 -14.4561 -14.4501
   -14.4295 -14.4090   0.7406   0.7607   0.7920   0.8109   0.8257   0.8370
    15.4696  15.7076  15.7149  15.8642  15.9684  16.2200  16.3231  16.4231
    16.4872  16.6365  16.8889  17.0089  17.0235  17.2263  17.5564  17.6436
    17.7477  17.7672  18.1420  18.2933  18.3666  18.3886  18.5563  18.7882
    18.9313  19.1923  19.2320  19.4873  19.6924  19.8088  19.9844  20.1248
    20.6973  21.2667  21.9146  22.1889  22.4831  22.8858  23.1098  23.1943
    23.2464  24.6239  24.8294  25.0796

          k = 0.4000 0.2309 0.5424 (  5068 PWs)   bands (ev):

   -41.9700 -41.9600 -41.9472 -41.9406 -41.9378 -41.9303 -17.3316 -17.3310
   -14.9225 -14.9143 -14.8723 -14.8312 -14.8282 -14.7971 -14.6873 -14.6714
   -14.6351 -14.6257 -14.5698 -14.5493 -14.4965 -14.4760 -14.4690 -14.4365
   -14.4322 -14.4160   0.7448   0.7508   0.8126   0.8195   0.8246   0.8285
    15.5883  15.7870  15.7993  15.9066  16.0071  16.0595  16.2062  16.4364
    16.6720  16.7771  16.8007  16.9468  17.0981  17.1051  17.4666  17.4913
    17.7341  18.0525  18.2946  18.3180  18.4838  18.5096  18.5700  18.6588
    18.6847  18.8564  19.1503  19.4212  19.5654  19.6639  20.4040  20.4595
    20.6978  21.0089  22.0598  22.2164  22.5106  22.6732  22.9990  23.0273
    23.6618  24.1397  24.6049  24.8076

          k = 0.4000 0.4234 0.0000 (  5078 PWs)   bands (ev):

   -41.9903 -41.9719 -41.9586 -41.9314 -41.9195 -41.9164 -17.3214 -17.3202
   -14.9572 -14.8411 -14.8190 -14.8120 -14.7980 -14.7540 -14.7385 -14.7083
   -14.6604 -14.6311 -14.5748 -14.5650 -14.5321 -14.5199 -14.5093 -14.4601
   -14.4205 -14.3847   0.7274   0.7618   0.7713   0.8052   0.8190   0.8253
    15.5443  15.7389  15.9643  16.0426  16.0876  16.1951  16.3476  16.5085
    16.6916  16.7361  16.8561  17.0969  17.1851  17.2044  17.4196  17.4353
    17.7174  17.7741  17.8888  18.1937  18.4170  18.4384  18.5113  18.6919
    18.8993  18.9266  19.1528  19.2497  19.3860  19.4364  19.7264  20.5674
    20.8799  21.0687  21.9671  22.0783  22.6014  22.7801  23.2305  23.6807
    23.9353  24.1644  24.1963  26.4029

          k = 0.4000 0.4234 0.1808 (  5071 PWs)   bands (ev):

   -41.9871 -41.9699 -41.9567 -41.9328 -41.9215 -41.9189 -17.3238 -17.3229
   -14.9396 -14.8653 -14.8302 -14.8219 -14.8130 -14.7424 -14.7174 -14.6683
   -14.6578 -14.6325 -14.6076 -14.5940 -14.5258 -14.4917 -14.4736 -14.4565
   -14.4213 -14.4034   0.7327   0.7634   0.7673   0.8094   0.8190   0.8265
    15.6661  15.7412  15.9300  16.0595  16.1149  16.1562  16.3671  16.6077
    16.6776  16.7764  16.8172  16.9715  17.0500  17.2070  17.2545  17.6255
    17.7699  17.8800  17.9982  18.0582  18.2752  18.6227  18.6364  18.7473
    18.8150  18.8612  18.9559  19.3586  19.4955  19.5846  19.8020  20.4966
    20.6433  20.7817  21.9740  22.2708  22.6573  22.7431  23.1684  23.4875
    23.6311  23.9924  24.3268  26.6450

          k = 0.4000 0.4234 0.3616 (  5075 PWs)   bands (ev):

   -41.9772 -41.9656 -41.9532 -41.9358 -41.9308 -41.9248 -17.3292 -17.3289
   -14.9024 -14.8849 -14.8627 -14.8328 -14.8057 -14.7703 -14.7061 -14.6548
   -14.6440 -14.6372 -14.6007 -14.5854 -14.5314 -14.4700 -14.4593 -14.4547
   -14.4316 -14.4219   0.7398   0.7560   0.7750   0.8156   0.8181   0.8301
    15.7537  15.8305  15.9726  16.0774  16.1972  16.2699  16.3040  16.3781
    16.7223  16.7552  16.8056  16.8807  17.1857  17.2709  17.5663  17.6709
    17.7286  17.8022  17.8800  18.1399  18.2124  18.3765  18.5376  18.6245
    18.7488  19.0129  19.1981  19.2757  19.5087  19.8364  19.9220  20.1540
    20.3763  20.9713  21.9494  22.0643  22.5932  22.8114  23.0806  23.1889
    23.2279  24.1657  24.5032  25.4831

          k = 0.4000 0.4234 0.5424 (  5077 PWs)   bands (ev):

   -41.9642 -41.9607 -41.9509 -41.9434 -41.9367 -41.9316 -17.3340 -17.3335
   -14.8979 -14.8959 -14.8587 -14.8245 -14.8032 -14.7903 -14.6952 -14.6793
   -14.6522 -14.6485 -14.5682 -14.5579 -14.5060 -14.5039 -14.4622 -14.4452
   -14.4301 -14.4279   0.7430   0.7475   0.7924   0.8076   0.8265   0.8309
    15.8440  15.8949  16.0327  16.0764  16.1099  16.1421  16.2382  16.3277
    16.9015  16.9064  16.9962  17.0470  17.2266  17.3611  17.5659  17.6200
    17.7526  17.8577  17.8792  18.1008  18.2255  18.2591  18.3866  18.4309
    18.4926  18.7752  19.2851  19.3111  19.4600  19.6529  20.1052  20.2300
    20.5338  20.9190  22.0198  22.1514  22.5647  22.6832  23.0514  23.0651
    23.6687  24.2924  24.3575  24.8208

          k = 0.4000 0.6158 0.0000 (  5071 PWs)   bands (ev):

   -41.9883 -41.9686 -41.9638 -41.9278 -41.9222 -41.9161 -17.3218 -17.3210
   -14.9544 -14.8345 -14.8136 -14.8070 -14.7831 -14.7548 -14.7402 -14.7168
   -14.6691 -14.6506 -14.5606 -14.5511 -14.5254 -14.5172 -14.4937 -14.4656
   -14.4450 -14.3818   0.7262   0.7625   0.7735   0.8081   0.8140   0.8162
    15.4876  15.9807  16.1059  16.1389  16.2275  16.3418  16.4533  16.5049
    16.7103  16.7658  16.8812  16.9633  17.0049  17.0396  17.2237  17.4916
    17.6171  17.6361  18.0301  18.1204  18.2672  18.3862  18.4270  18.6302
    18.9920  19.0395  19.1305  19.3522  19.3741  19.4906  19.8522  20.2248
    20.9320  21.0501  22.0294  22.2031  22.4366  22.9191  23.3005  23.6692
    23.6797  23.8333  24.1954  26.4333

          k = 0.4000 0.6158 0.1808 (  5066 PWs)   bands (ev):

   -41.9850 -41.9669 -41.9624 -41.9288 -41.9232 -41.9199 -17.3242 -17.3235
   -14.9385 -14.8472 -14.8358 -14.8203 -14.7915 -14.7648 -14.6973 -14.6793
   -14.6605 -14.6503 -14.6031 -14.5896 -14.5053 -14.4859 -14.4687 -14.4660
   -14.4452 -14.3992   0.7341   0.7598   0.7689   0.8112   0.8140   0.8203
    15.6369  15.9769  16.0430  16.1393  16.2794  16.3236  16.3823  16.5950
    16.6791  16.7628  16.7954  16.8325  16.8859  17.1058  17.3282  17.4977
    17.7930  17.8510  17.9497  18.0272  18.1848  18.5439  18.5693  18.7259
    18.8510  18.9033  18.9686  19.3639  19.5093  19.5527  19.9956  20.3785
    20.4990  20.7150  22.0727  22.2486  22.6604  22.8972  23.2212  23.4182
    23.6760  23.8076  23.8853  26.6316

          k = 0.4000 0.6158 0.3616 (  5090 PWs)   bands (ev):

   -41.9757 -41.9635 -41.9593 -41.9333 -41.9302 -41.9282 -17.3301 -17.3300
   -14.8947 -14.8734 -14.8668 -14.8295 -14.8097 -14.7961 -14.6822 -14.6574
   -14.6517 -14.6316 -14.6186 -14.5956 -14.5220 -14.4747 -14.4620 -14.4548
   -14.4377 -14.4331   0.7483   0.7556   0.7639   0.8073   0.8217   0.8265
    15.8896  15.9920  16.0444  16.1500  16.1764  16.3519  16.4174  16.4677
    16.5390  16.6570  16.7299  16.9468  17.1156  17.3986  17.4467  17.5301
    17.8491  17.8551  17.9174  18.0447  18.2483  18.3677  18.3792  18.5847
    18.6127  19.0268  19.0560  19.3970  19.5079  19.7359  19.9883  20.2379
    20.3624  20.6607  22.0098  22.0503  22.8135  22.9074  23.0602  23.2349
    23.2747  23.8373  24.0012  25.7597

          k = 0.4000 0.6158 0.5424 (  5076 PWs)   bands (ev):

   -41.9626 -41.9584 -41.9548 -41.9437 -41.9347 -41.9331 -17.3345 -17.3343
   -14.8836 -14.8774 -14.8491 -14.8315 -14.8114 -14.8021 -14.6838 -14.6795
   -14.6537 -14.6456 -14.5640 -14.5530 -14.5294 -14.5070 -14.4593 -14.4520
   -14.4307 -14.4295   0.7485   0.7502   0.7813   0.7976   0.8292   0.8309
    15.9105  16.0055  16.1023  16.1463  16.1572  16.2011  16.2740  16.3226
    16.8503  16.9551  17.0265  17.1718  17.3302  17.3688  17.4996  17.6245
    17.7116  17.7932  17.9042  18.0061  18.0545  18.1452  18.2334  18.2870
    18.4994  18.8525  19.2418  19.3052  19.6148  19.7366  19.9620  20.0313
    20.6119  20.7669  22.0715  22.1145  22.7277  22.7673  23.1292  23.1855
    23.7629  23.9596  23.9926  24.6900

          k = 0.4000-0.3464 0.0000 (  5079 PWs)   bands (ev):

   -41.9921 -41.9723 -41.9551 -41.9341 -41.9183 -41.9164 -17.3210 -17.3192
   -14.9585 -14.8535 -14.8213 -14.8212 -14.7949 -14.7618 -14.7431 -14.7035
   -14.6518 -14.6102 -14.5999 -14.5585 -14.5350 -14.5259 -14.5074 -14.4529
   -14.4053 -14.3850   0.7296   0.7624   0.7727   0.8029   0.8214   0.8335
    15.5908  15.6155  15.8483  15.8818  16.0174  16.0440  16.2811  16.4784
    16.5922  16.6880  16.7866  17.2236  17.2702  17.4040  17.4138  17.6523
    17.8200  17.8417  17.8630  18.2436  18.4437  18.5344  18.5576  18.7643
    18.8365  18.9292  19.0938  19.1513  19.3543  19.4225  19.7544  20.7446
    20.8459  21.0882  21.9738  22.1406  22.5012  22.7413  23.4306  23.6775
    24.0276  24.2039  24.3824  26.2575

          k = 0.4000-0.3464 0.1808 (  5074 PWs)   bands (ev):

   -41.9889 -41.9701 -41.9530 -41.9358 -41.9213 -41.9182 -17.3232 -17.3220
   -14.9432 -14.8734 -14.8366 -14.8273 -14.8079 -14.7470 -14.7214 -14.6787
   -14.6460 -14.6288 -14.6103 -14.5822 -14.5376 -14.4962 -14.4735 -14.4452
   -14.4090 -14.4055   0.7327   0.7640   0.7712   0.8066   0.8221   0.8337
    15.6040  15.6956  15.8296  15.9323  15.9777  16.0680  16.3182  16.4986
    16.6638  16.7555  16.8809  16.9859  17.1541  17.2622  17.3544  17.7280
    17.8281  17.9335  17.9562  18.1259  18.3391  18.6031  18.6469  18.7243
    18.7860  18.9863  19.0531  19.3284  19.3798  19.6574  19.7784  20.5125
    20.6916  20.9286  21.9707  22.3081  22.5422  22.7247  23.3000  23.5056
    23.6032  24.1437  24.5713  26.5678

          k = 0.4000-0.3464 0.3616 (  5081 PWs)   bands (ev):

   -41.9793 -41.9654 -41.9496 -41.9394 -41.9308 -41.9238 -17.3286 -17.3281
   -14.9125 -14.8968 -14.8644 -14.8412 -14.8029 -14.7625 -14.7220 -14.6782
   -14.6431 -14.6207 -14.5878 -14.5841 -14.5334 -14.4685 -14.4564 -14.4528
   -14.4290 -14.4140   0.7376   0.7558   0.7839   0.8143   0.8219   0.8330
    15.6129  15.7807  15.8733  15.9616  16.1187  16.2486  16.2985  16.3732
    16.6415  16.8324  16.8913  16.9391  16.9978  17.2829  17.5782  17.6968
    17.7307  17.8147  18.0278  18.1572  18.2161  18.3572  18.6321  18.6703
    18.8311  19.0022  19.2136  19.3656  19.5971  19.8185  19.9253  20.0754
    20.5019  21.1534  21.9177  22.0803  22.4828  22.7954  23.0983  23.1820
    23.2212  24.4278  24.8056  25.2408

          k = 0.4000-0.3464 0.5424 (  5079 PWs)   bands (ev):

   -41.9670 -41.9610 -41.9489 -41.9428 -41.9372 -41.9310 -17.3331 -17.3327
   -14.9122 -14.9074 -14.8621 -14.8270 -14.8048 -14.7878 -14.6929 -14.6832
   -14.6519 -14.6424 -14.5741 -14.5516 -14.5036 -14.4892 -14.4663 -14.4413
   -14.4311 -14.4247   0.7414   0.7469   0.8020   0.8158   0.8237   0.8298
    15.7278  15.8669  15.9292  16.0009  16.0795  16.0924  16.1831  16.3918
    16.7902  16.8989  16.9717  17.0691  17.0818  17.2445  17.5053  17.5778
    17.8074  17.9377  18.0985  18.2038  18.3088  18.3615  18.4661  18.5667
    18.5832  18.7265  19.1412  19.3449  19.5499  19.5924  20.2275  20.4072
    20.4912  20.9910  22.0091  22.1776  22.4931  22.6429  23.0191  23.0249
    23.6503  24.2617  24.5313  24.7726

          k = 0.4000-0.1540 0.0000 (  5078 PWs)   bands (ev):

   -41.9972 -41.9673 -41.9531 -41.9361 -41.9175 -41.9167 -17.3197 -17.3162
   -14.9671 -14.8812 -14.8169 -14.8109 -14.7920 -14.7818 -14.7728 -14.6970
   -14.6710 -14.6533 -14.5602 -14.5306 -14.5226 -14.5026 -14.4952 -14.4457
   -14.4019 -14.3878   0.7403   0.7671   0.7844   0.7988   0.8262   0.8392
    15.3957  15.5750  15.6634  15.7555  15.8912  15.9225  16.0250  16.1844
    16.4493  16.5103  16.6812  17.2316  17.2696  17.4375  17.8032  17.8191
    18.0312  18.0898  18.1464  18.3173  18.3933  18.5474  18.5931  18.7852
    18.8992  18.9951  19.1698  19.2148  19.2749  19.3841  19.9997  20.8292
    20.9170  21.1275  22.1937  22.3944  22.6289  22.9436  23.5872  23.6262
    24.1416  24.2825  24.3968  26.1858

          k = 0.4000-0.1540 0.1808 (  5082 PWs)   bands (ev):

   -41.9945 -41.9656 -41.9514 -41.9380 -41.9207 -41.9182 -17.3219 -17.3192
   -14.9488 -14.8890 -14.8513 -14.8414 -14.8063 -14.7486 -14.7338 -14.7089
   -14.6740 -14.6341 -14.5647 -14.5474 -14.5231 -14.4903 -14.4728 -14.4412
   -14.4106 -14.4052   0.7422   0.7708   0.7816   0.8027   0.8263   0.8390
    15.4481  15.6334  15.6645  15.7393  15.7950  15.9445  16.0505  16.1817
    16.6067  16.7048  16.8609  17.0591  17.2341  17.3863  17.5266  17.6459
    17.9010  17.9980  18.1305  18.2892  18.4206  18.5130  18.6502  18.7384
    18.8478  19.1988  19.2259  19.3740  19.4431  19.7519  19.9830  20.5989
    20.7971  21.0051  22.1429  22.5499  22.6113  22.9368  23.4831  23.5057
    23.6502  24.1810  24.6029  25.9782

          k = 0.4000-0.1540 0.3616 (  5080 PWs)   bands (ev):

   -41.9852 -41.9609 -41.9478 -41.9422 -41.9289 -41.9230 -17.3267 -17.3256
   -14.9224 -14.9052 -14.8776 -14.8628 -14.8104 -14.7793 -14.7208 -14.7068
   -14.6370 -14.5861 -14.5611 -14.5555 -14.5284 -14.4692 -14.4580 -14.4494
   -14.4319 -14.4103   0.7460   0.7657   0.7916   0.8119   0.8266   0.8369
    15.4246  15.6196  15.6704  15.8453  15.9384  16.1543  16.2805  16.3762
    16.4780  16.6205  16.8261  17.0133  17.0166  17.2116  17.4724  17.6548
    17.7065  17.7945  18.1087  18.3199  18.3999  18.4592  18.6178  18.8545
    18.9241  19.2997  19.3771  19.5364  19.7457  19.8290  20.0559  20.1824
    20.8021  21.2174  21.9347  22.2683  22.5882  22.9625  23.1195  23.2335
    23.3684  24.4365  24.7581  24.9974

          k = 0.4000-0.1540 0.5424 (  5062 PWs)   bands (ev):

   -41.9717 -41.9598 -41.9467 -41.9394 -41.9371 -41.9301 -17.3307 -17.3301
   -14.9242 -14.9144 -14.8779 -14.8490 -14.8335 -14.8086 -14.6823 -14.6638
   -14.6185 -14.6140 -14.5562 -14.5452 -14.4946 -14.4800 -14.4679 -14.4389
   -14.4321 -14.4160   0.7500   0.7559   0.8101   0.8206   0.8250   0.8312
    15.5331  15.7110  15.7606  15.8619  15.9936  16.0531  16.2497  16.4344
    16.6061  16.6341  16.7259  16.9148  17.0340  17.0860  17.4264  17.4685
    17.7151  18.0129  18.3196  18.3713  18.4690  18.5739  18.6046  18.6954
    18.8278  18.9302  19.3786  19.4749  19.6602  19.7015  20.4008  20.5274
    20.7856  21.0184  22.0726  22.2171  22.6212  22.7345  23.0494  23.0634
    23.7251  24.0896  24.5738  24.8535

          k = 0.4000 0.0385 0.0000 (  5079 PWs)   bands (ev):

   -41.9993 -41.9633 -41.9561 -41.9342 -41.9183 -41.9167 -17.3194 -17.3153
   -14.9692 -14.8858 -14.8117 -14.8050 -14.7958 -14.7923 -14.7751 -14.7191
   -14.6722 -14.6581 -14.5485 -14.5286 -14.5198 -14.5034 -14.4626 -14.4363
   -14.4177 -14.3919   0.7499   0.7604   0.7975   0.7977   0.8271   0.8337
    15.3739  15.5643  15.5891  15.6778  15.7808  15.9863  16.1192  16.1883
    16.2600  16.3706  16.6995  17.1689  17.2363  17.5007  17.7295  17.8668
    18.1582  18.2111  18.2682  18.2827  18.3983  18.4957  18.4993  18.7971
    18.9015  19.1041  19.1648  19.2132  19.3720  19.4041  20.2689  20.6409
    20.9995  21.1356  22.3835  22.4434  22.7520  22.9499  23.5116  23.8662
    24.1614  24.1827  24.2878  26.2436

          k = 0.4000 0.0385 0.1808 (  5082 PWs)   bands (ev):

   -41.9953 -41.9621 -41.9553 -41.9363 -41.9200 -41.9193 -17.3214 -17.3185
   -14.9481 -14.8964 -14.8605 -14.8470 -14.7935 -14.7668 -14.7284 -14.7204
   -14.6817 -14.6375 -14.5628 -14.5372 -14.5013 -14.4932 -14.4555 -14.4346
   -14.4190 -14.4094   0.7538   0.7617   0.7928   0.8024   0.8288   0.8335
    15.4739  15.5768  15.6226  15.6555  15.8108  15.8750  15.9444  16.1364
    16.6190  16.6632  16.8364  17.1056  17.2243  17.4224  17.5089  17.5495
    17.9219  17.9536  18.2131  18.3500  18.4595  18.4881  18.6479  18.7111
    18.8664  19.2519  19.2639  19.4272  19.5594  19.7812  20.2320  20.6108
    20.8018  20.8995  22.2830  22.5332  22.8088  22.9634  23.4191  23.7515
    23.8869  24.0086  24.2862  25.8395

          k = 0.4000 0.0385 0.3616 (  5063 PWs)   bands (ev):

   -41.9864 -41.9560 -41.9522 -41.9401 -41.9269 -41.9238 -17.3258 -17.3245
   -14.9152 -14.9074 -14.8840 -14.8687 -14.8041 -14.7939 -14.7259 -14.7000
   -14.6259 -14.5817 -14.5679 -14.5456 -14.4964 -14.4783 -14.4576 -14.4416
   -14.4247 -14.4160   0.7554   0.7678   0.7903   0.8133   0.8299   0.8335
    15.4139  15.5382  15.6267  15.8655  15.9640  16.0659  16.1136  16.3431
    16.5617  16.7062  16.7139  16.9388  17.0119  17.2005  17.4209  17.5788
    17.6980  17.8536  18.1098  18.2712  18.3811  18.5275  18.7757  18.8533
    18.8657  19.4515  19.4879  19.5809  19.8562  19.9175  20.1247  20.2157
    20.9215  21.0353  21.9496  22.3004  22.7604  22.9784  23.1344  23.4678
    23.6687  24.0807  24.5219  24.8362

          k = 0.4000 0.0385 0.5424 (  5064 PWs)   bands (ev):

   -41.9734 -41.9602 -41.9470 -41.9392 -41.9351 -41.9305 -17.3298 -17.3296
   -14.9212 -14.9060 -14.8886 -14.8705 -14.8392 -14.8232 -14.6805 -14.6591
   -14.6141 -14.5938 -14.5520 -14.5240 -14.4991 -14.4911 -14.4734 -14.4392
   -14.4299 -14.4188   0.7568   0.7618   0.8048   0.8170   0.8293   0.8331
    15.5019  15.6421  15.7322  15.8416  15.9750  16.0595  16.3349  16.4032
    16.5042  16.5186  16.6712  16.9083  16.9663  17.0849  17.3524  17.4623
    17.7003  17.9221  18.2806  18.4148  18.5173  18.6158  18.6845  18.7082
    18.9092  18.9559  19.5268  19.5565  19.8008  19.9276  20.4144  20.4812
    20.8469  20.9541  22.0714  22.1514  22.7722  22.8235  23.1006  23.2782
    23.9685  24.0846  24.4218  24.5967

     the Fermi energy is    20.6067 ev

!    total energy              =   -1205.81291749 Ry
     Harris-Foulkes estimate   =   -1205.81296146 Ry
     estimated scf accuracy    <       0.00004874 Ry

     The total energy is the sum of the following terms:

     one-electron contribution =    -136.89256926 Ry
     hartree contribution      =     152.98898776 Ry
     xc contribution           =    -128.78311978 Ry
     ewald contribution        =   -1092.68234356 Ry
     smearing contrib. (-TS)   =      -0.44387265 Ry

     convergence has been achieved in  13 iterations

     Forces acting on atoms (Ry/au):

     atom    1 type  1   force =     0.04071293    0.02350562    0.00000000
     atom    2 type  1   force =     0.04071293   -0.02350562    0.00000000
     atom    3 type  1   force =    -0.04071293   -0.02350562    0.00000000
     atom    4 type  1   force =    -0.04071293    0.02350562    0.00000000
     atom    5 type  1   force =     0.00000000   -0.04701125    0.00000000
     atom    6 type  1   force =     0.00000000    0.04701125    0.00000000
     atom    7 type  2   force =     0.00000000    0.00000000    0.00000000
     atom    8 type  2   force =     0.00000000    0.00000000    0.00000000

     Total force =     0.115154     Total SCF correction =     0.000000


     entering subroutine stress ...

          total   stress  (Ry/bohr**3)                   (kbar)     P= -265.19
  -0.00188586   0.00000000   0.00000000       -277.42      0.00      0.00
   0.00000000  -0.00188586   0.00000000          0.00   -277.42      0.00
   0.00000000   0.00000000  -0.00163642          0.00      0.00   -240.73


     BFGS Geometry Optimization

     number of scf cycles    =   1
     number of bfgs steps    =   0

     enthalpy new            =   -1205.8129174918 Ry

     new trust radius        =       0.3249127793 bohr
     new conv_thr            =       0.0001000000 Ry

     new unit-cell volume =   1033.92019 a.u.^3 (   153.21116 Ang^3 )

CELL_PARAMETERS (alat= 12.01680127)
   0.952853548   0.000000000   0.000000000
  -0.476426774   0.825195379   0.000000000
   0.000000000   0.000000000   0.757770049

ATOMIC_POSITIONS (crystal)
Mg       0.668375334   0.834187667   0.250000000
Mg       0.834187667   0.165812333   0.750000000
Mg       0.331624666   0.165812333   0.750000000
Mg       0.165812333   0.834187667   0.250000000
Mg       0.165812333   0.331624666   0.250000000
Mg       0.834187667   0.668375334   0.750000000
Cd       0.666667000   0.333333000   0.250000000
Cd       0.333333000   0.666667000   0.750000000



     Writing output data file Prototype-La-hP8-Mg3Cd.save
     NEW-OLD atomic charge density approx. for the potential
     NEW k-points:
        k(    1) = (   0.0000000   0.0000000   0.0000000), wk =   0.0095238
        k(    2) = (   0.0000000   0.0000000   0.1885231), wk =   0.0190476
        k(    3) = (   0.0000000   0.0000000   0.3770462), wk =   0.0190476
        k(    4) = (   0.0000000   0.0000000   0.5655692), wk =   0.0190476
        k(    5) = (   0.0000000   0.2019724   0.0000000), wk =   0.0190476
        k(    6) = (   0.0000000   0.2019724   0.1885231), wk =   0.0380952
        k(    7) = (   0.0000000   0.2019724   0.3770462), wk =   0.0380952
        k(    8) = (   0.0000000   0.2019724   0.5655692), wk =   0.0380952
        k(    9) = (   0.0000000   0.4039447   0.0000000), wk =   0.0190476
        k(   10) = (   0.0000000   0.4039447   0.1885231), wk =   0.0380952
        k(   11) = (   0.0000000   0.4039447   0.3770462), wk =   0.0380952
        k(   12) = (   0.0000000   0.4039447   0.5655692), wk =   0.0380952
        k(   13) = (   0.0000000  -0.6059171   0.0000000), wk =   0.0095238
        k(   14) = (   0.0000000  -0.6059171   0.1885231), wk =   0.0190476
        k(   15) = (   0.0000000  -0.6059171   0.3770462), wk =   0.0190476
        k(   16) = (   0.0000000  -0.6059171   0.5655692), wk =   0.0190476
        k(   17) = (   0.2098958   0.1211834   0.0000000), wk =   0.0190476
        k(   18) = (   0.2098958   0.1211834   0.1885231), wk =   0.0380952
        k(   19) = (   0.2098958   0.1211834   0.3770462), wk =   0.0380952
        k(   20) = (   0.2098958   0.1211834   0.5655692), wk =   0.0380952
        k(   21) = (   0.2098958   0.3231558   0.0000000), wk =   0.0190476
        k(   22) = (   0.2098958   0.3231558   0.1885231), wk =   0.0380952
        k(   23) = (   0.2098958   0.3231558   0.3770462), wk =   0.0380952
        k(   24) = (   0.2098958   0.3231558   0.5655692), wk =   0.0380952
        k(   25) = (   0.2098958   0.5251282   0.0000000), wk =   0.0190476
        k(   26) = (   0.2098958   0.5251282   0.1885231), wk =   0.0380952
        k(   27) = (   0.2098958   0.5251282   0.3770462), wk =   0.0380952
        k(   28) = (   0.2098958   0.5251282   0.5655692), wk =   0.0380952
        k(   29) = (   0.2098958  -0.4847337   0.0000000), wk =   0.0190476
        k(   30) = (   0.2098958  -0.4847337   0.1885231), wk =   0.0380952
        k(   31) = (   0.2098958  -0.4847337   0.3770462), wk =   0.0380952
        k(   32) = (   0.2098958  -0.4847337   0.5655692), wk =   0.0380952
        k(   33) = (   0.2098958  -0.2827613   0.0000000), wk =   0.0190476
        k(   34) = (   0.2098958  -0.2827613   0.1885231), wk =   0.0380952
        k(   35) = (   0.2098958  -0.2827613   0.3770462), wk =   0.0380952
        k(   36) = (   0.2098958  -0.2827613   0.5655692), wk =   0.0380952
        k(   37) = (   0.2098958  -0.0807889   0.0000000), wk =   0.0190476
        k(   38) = (   0.2098958  -0.0807889   0.1885231), wk =   0.0380952
        k(   39) = (   0.2098958  -0.0807889   0.3770462), wk =   0.0380952
        k(   40) = (   0.2098958  -0.0807889   0.5655692), wk =   0.0380952
        k(   41) = (   0.4197917   0.2423668   0.0000000), wk =   0.0190476
        k(   42) = (   0.4197917   0.2423668   0.1885231), wk =   0.0380952
        k(   43) = (   0.4197917   0.2423668   0.3770462), wk =   0.0380952
        k(   44) = (   0.4197917   0.2423668   0.5655692), wk =   0.0380952
        k(   45) = (   0.4197917   0.4443392   0.0000000), wk =   0.0190476
        k(   46) = (   0.4197917   0.4443392   0.1885231), wk =   0.0380952
        k(   47) = (   0.4197917   0.4443392   0.3770462), wk =   0.0380952
        k(   48) = (   0.4197917   0.4443392   0.5655692), wk =   0.0380952
        k(   49) = (   0.4197917   0.6463116   0.0000000), wk =   0.0190476
        k(   50) = (   0.4197917   0.6463116   0.1885231), wk =   0.0380952
        k(   51) = (   0.4197917   0.6463116   0.3770462), wk =   0.0380952
        k(   52) = (   0.4197917   0.6463116   0.5655692), wk =   0.0380952
        k(   53) = (   0.4197917  -0.3635503   0.0000000), wk =   0.0190476
        k(   54) = (   0.4197917  -0.3635503   0.1885231), wk =   0.0380952
        k(   55) = (   0.4197917  -0.3635503   0.3770462), wk =   0.0380952
        k(   56) = (   0.4197917  -0.3635503   0.5655692), wk =   0.0380952
        k(   57) = (   0.4197917  -0.1615779   0.0000000), wk =   0.0190476
        k(   58) = (   0.4197917  -0.1615779   0.1885231), wk =   0.0380952
        k(   59) = (   0.4197917  -0.1615779   0.3770462), wk =   0.0380952
        k(   60) = (   0.4197917  -0.1615779   0.5655692), wk =   0.0380952
        k(   61) = (   0.4197917   0.0403945   0.0000000), wk =   0.0190476
        k(   62) = (   0.4197917   0.0403945   0.1885231), wk =   0.0380952
        k(   63) = (   0.4197917   0.0403945   0.3770462), wk =   0.0380952
        k(   64) = (   0.4197917   0.0403945   0.5655692), wk =   0.0380952

     total cpu time spent up to now is      888.7 secs

     Self-consistent Calculation

     iteration #  1     ecut=    40.00 Ry     beta=0.70
     CG style diagonalization
     c_bands:  2 eigenvalues not converged
     c_bands:  3 eigenvalues not converged
     c_bands:  4 eigenvalues not converged
     c_bands:  1 eigenvalues not converged
     c_bands:  1 eigenvalues not converged
     c_bands:  1 eigenvalues not converged
     c_bands:  1 eigenvalues not converged
     c_bands:  1 eigenvalues not converged
     ethr =  1.00E-06,  avg # of iterations = 21.6

     total cpu time spent up to now is     1118.1 secs

     total energy              =   -1199.56041181 Ry
     Harris-Foulkes estimate   =   -1210.14003611 Ry
     estimated scf accuracy    <      13.02126457 Ry

     iteration #  2     ecut=    40.00 Ry     beta=0.70
     CG style diagonalization
     ethr =  1.00E-02,  avg # of iterations =  4.5

     total cpu time spent up to now is     1155.5 secs

     total energy              =   -1199.97473207 Ry
     Harris-Foulkes estimate   =   -1211.36294726 Ry
     estimated scf accuracy    <      24.82546585 Ry

     iteration #  3     ecut=    40.00 Ry     beta=0.70
     CG style diagonalization
     ethr =  1.00E-02,  avg # of iterations =  3.7

     total cpu time spent up to now is     1184.9 secs

     total energy              =   -1205.09136549 Ry
     Harris-Foulkes estimate   =   -1206.23594878 Ry
     estimated scf accuracy    <       2.66094747 Ry

     iteration #  4     ecut=    40.00 Ry     beta=0.70
     CG style diagonalization
     ethr =  2.11E-03,  avg # of iterations =  3.6

     total cpu time spent up to now is     1213.1 secs

     total energy              =   -1205.84766625 Ry
     Harris-Foulkes estimate   =   -1205.89188157 Ry
     estimated scf accuracy    <       0.09304918 Ry

     iteration #  5     ecut=    40.00 Ry     beta=0.70
     CG style diagonalization
     ethr =  7.38E-05,  avg # of iterations =  4.9

     total cpu time spent up to now is     1256.1 secs

     total energy              =   -1205.89820050 Ry
     Harris-Foulkes estimate   =   -1205.91155784 Ry
     estimated scf accuracy    <       0.03409172 Ry

     iteration #  6     ecut=    40.00 Ry     beta=0.70
     CG style diagonalization
     ethr =  2.71E-05,  avg # of iterations =  3.5

     total cpu time spent up to now is     1289.3 secs

     total energy              =   -1205.90160043 Ry
     Harris-Foulkes estimate   =   -1205.90333385 Ry
     estimated scf accuracy    <       0.00248352 Ry

     iteration #  7     ecut=    40.00 Ry     beta=0.70
     CG style diagonalization
     c_bands:  2 eigenvalues not converged
     c_bands:  1 eigenvalues not converged
     c_bands:  1 eigenvalues not converged
     c_bands:  1 eigenvalues not converged
     c_bands:  1 eigenvalues not converged
     c_bands:  1 eigenvalues not converged
     ethr =  1.97E-06,  avg # of iterations =  5.4

     total cpu time spent up to now is     1343.8 secs

     total energy              =   -1205.90334582 Ry
     Harris-Foulkes estimate   =   -1205.90417060 Ry
     estimated scf accuracy    <       0.00244522 Ry

     iteration #  8     ecut=    40.00 Ry     beta=0.70
     CG style diagonalization
     ethr =  1.94E-06,  avg # of iterations =  3.2

     total cpu time spent up to now is     1373.7 secs

     total energy              =   -1205.90326902 Ry
     Harris-Foulkes estimate   =   -1205.90352594 Ry
     estimated scf accuracy    <       0.00047894 Ry

     iteration #  9     ecut=    40.00 Ry     beta=0.70
     CG style diagonalization
     ethr =  3.80E-07,  avg # of iterations =  4.3

     total cpu time spent up to now is     1417.0 secs

     End of self-consistent calculation

          k = 0.0000 0.0000 0.0000 (  5047 PWs)   bands (ev):

   -38.5373 -38.4197 -38.4197 -38.3976 -38.3512 -38.3512 -13.3557 -13.3378
   -11.8330 -11.7590 -11.5435 -11.5397 -11.5397 -11.4800 -11.4799 -11.4544
   -11.4544 -11.2377 -11.0205 -11.0204 -10.8860 -10.8772 -10.8771 -10.8741
   -10.8688 -10.8688   4.5957   4.6500   4.6500   4.6899   4.7280   4.7280
    17.4979  17.6376  17.6376  17.8727  17.9208  18.5163  18.5163  18.5654
    18.7627  18.7627  19.1811  20.1497  20.7170  20.7170  21.1501  21.2020
    21.2020  21.9509  21.9509  22.2636  22.2637  22.3532  22.5660  22.5661
    22.6370  22.6370  23.3168  23.3168  24.1870  24.4168  25.0704  25.5512
    25.5772  26.8899  27.3716  27.3716  27.7570  27.7570  27.7624  27.7625
    29.0722  29.0722  31.0316  31.0324

          k = 0.0000 0.0000 0.1885 (  5065 PWs)   bands (ev):

   -38.5307 -38.4166 -38.4166 -38.4046 -38.3546 -38.3545 -13.3562 -13.3502
   -11.7842 -11.7716 -11.6424 -11.6424 -11.5545 -11.4976 -11.4975 -11.3529
   -11.3529 -11.2171 -11.0078 -11.0077 -10.9060 -10.8974 -10.8800 -10.8800
   -10.8661 -10.8661   4.6017   4.6576   4.6575   4.6755   4.7306   4.7306
    17.6469  17.7439  17.7439  17.8957  17.9701  17.9701  18.1229  18.2752
    19.3658  19.3658  19.5726  20.3274  20.5099  20.5099  20.8416  21.2399
    21.2400  21.7087  21.7118  21.7118  21.9316  21.9317  22.1557  22.1558
    22.9212  22.9212  24.3807  24.3807  24.4398  24.9283  25.0898  25.2653
    25.5319  26.2339  27.5049  27.5049  27.7099  27.7099  27.7731  27.7731
    28.3447  28.3447  30.6139  30.6140

          k = 0.0000 0.0000 0.3770 (  5047 PWs)   bands (ev):

   -38.5118 -38.4235 -38.4071 -38.4070 -38.3639 -38.3639 -13.3686 -13.3602
[...]

   -39.1169 -39.0916 -39.0685 -39.0557 -39.0494 -39.0351 -14.1166 -14.1137
   -12.2306 -12.2179 -12.1663 -12.1204 -12.1016 -12.0754 -11.8561 -11.8146
   -11.7518 -11.7427 -11.7060 -11.6760 -11.6213 -11.5913 -11.5694 -11.5293
   -11.5065 -11.4919   3.8501   3.8596   3.9594   3.9823   3.9879   3.9941
    17.8594  18.0323  18.0585  18.2668  18.2971  18.3412  18.6047  18.7549
    19.1926  19.2755  19.3034  19.4467  19.5779  19.6942  20.1940  20.2070
    20.3907  20.9108  21.1234  21.2069  21.3505  21.4180  21.4431  21.6311
    21.7299  21.8338  22.1083  22.3825  22.4815  22.7299  23.6035  23.6300
    23.9011  24.4564  25.3850  25.7420  25.7944  26.0029  26.4437  26.4887
    26.9556  27.5563  28.1407  28.3242

          k = 0.4177 0.4421 0.0000 (  4538 PWs)   bands (ev):

   -39.1617 -39.1004 -39.0833 -39.0316 -39.0282 -39.0132 -14.0929 -14.0899
   -12.3138 -12.1432 -12.0817 -12.0455 -12.0432 -11.9554 -11.9393 -11.9240
   -11.8935 -11.8500 -11.7006 -11.6672 -11.6351 -11.6185 -11.6074 -11.5322
   -11.4933 -11.4282   3.8099   3.8734   3.8817   3.9688   3.9762   3.9968
    17.7657  18.0269  18.3977  18.4970  18.6165  18.6361  18.7685  19.0426
    19.1461  19.1552  19.5058  19.6787  19.8005  19.9928  20.0964  20.2998
    20.4331  20.5422  20.6000  20.7383  21.0719  21.3158  21.4879  21.5443
    21.8075  21.9859  22.1364  22.1372  22.2380  22.3902  22.4866  23.6788
    23.8296  24.4547  25.1879  25.5483  26.0160  26.1876  26.8297  27.2315
    27.4205  27.6208  27.6886  30.2483

          k = 0.4177 0.4421 0.1860 (  4516 PWs)   bands (ev):

   -39.1550 -39.0971 -39.0797 -39.0351 -39.0321 -39.0159 -14.0995 -14.0952
   -12.2828 -12.1507 -12.0969 -12.0874 -12.0601 -11.9366 -11.9135 -11.8811
   -11.8550 -11.8486 -11.7227 -11.6996 -11.6283 -11.5913 -11.5697 -11.5237
   -11.4964 -11.4572   3.8185   3.8710   3.8861   3.9663   3.9799   3.9990
    17.9036  18.0528  18.3817  18.4578  18.5012  18.6295  18.7515  19.0065
    19.1348  19.3736  19.4620  19.5271  19.6175  19.9300  19.9969  20.3477
    20.4679  20.6260  20.6426  20.8953  21.0438  21.4428  21.5266  21.6892
    21.7544  21.7969  21.9435  22.3050  22.3634  22.5286  22.7241  23.6534
    23.8110  23.9483  25.1873  25.6766  26.0630  26.1826  26.6551  26.9401
    27.0292  27.5630  27.8708  30.4834

          k = 0.4177 0.4421 0.3719 (  4504 PWs)   bands (ev):

   -39.1370 -39.0889 -39.0718 -39.0520 -39.0396 -39.0246 -14.1136 -14.1084
   -12.2251 -12.1710 -12.1473 -12.0856 -12.0750 -12.0181 -11.8759 -11.8523
   -11.7687 -11.7509 -11.7460 -11.7251 -11.6500 -11.5567 -11.5469 -11.5377
   -11.5091 -11.5003   3.8353   3.8636   3.9019   3.9591   3.9883   4.0010
    18.0727  18.1481  18.2567  18.3960  18.5189  18.6776  18.7083  18.8476
    19.0857  19.1929  19.4129  19.5177  19.8651  19.8944  20.2618  20.3698
    20.4077  20.4818  20.7488  20.9505  21.0398  21.3592  21.4292  21.5088
    21.6294  21.8921  22.2122  22.2727  22.5942  22.8807  23.0059  23.2082
    23.4069  24.2958  25.2146  25.4948  25.9018  26.0933  26.3595  26.6518
    26.6857  27.8331  28.0820  29.2275

          k = 0.4177 0.4421 0.5579 (  4521 PWs)   bands (ev):

   -39.1118 -39.0864 -39.0715 -39.0670 -39.0450 -39.0362 -14.1237 -14.1213
   -12.1985 -12.1887 -12.1507 -12.1067 -12.0712 -12.0674 -11.8284 -11.8241
   -11.7833 -11.7803 -11.7085 -11.6794 -11.6417 -11.6136 -11.5626 -11.5294
   -11.5200 -11.5079   3.8475   3.8554   3.9249   3.9453   3.9959   4.0006
    18.1261  18.1814  18.3068  18.3465  18.3705  18.5122  18.6466  18.6863
    19.3606  19.4606  19.5320  19.6789  19.8324  20.0009  20.2864  20.3090
    20.3278  20.5777  20.7337  21.0351  21.1132  21.1876  21.3105  21.3198
    21.3915  21.7776  22.2168  22.2739  22.4662  22.6161  23.1913  23.3143
    23.7513  24.2946  25.4267  25.7024  25.7958  25.9562  26.5285  26.5380
    26.9586  27.7999  27.9053  28.3253

          k = 0.4177 0.6431 0.0000 (  4533 PWs)   bands (ev):

   -39.1600 -39.0968 -39.0898 -39.0282 -39.0241 -39.0179 -14.0937 -14.0922
   -12.3079 -12.1332 -12.0724 -12.0583 -11.9912 -11.9572 -11.9454 -11.9345
   -11.8986 -11.8706 -11.6852 -11.6577 -11.6308 -11.6180 -11.5931 -11.5411
   -11.5321 -11.4250   3.8113   3.8714   3.8881   3.9429   3.9806   3.9921
    17.6980  18.3210  18.5404  18.6408  18.7163  18.7741  18.8374  19.0834
    19.1032  19.2089  19.5637  19.5865  19.7031  19.8478  20.0721  20.1674
    20.3036  20.5102  20.5763  20.6514  20.8688  21.2793  21.3621  21.4177
    21.9762  22.0633  22.1276  22.1754  22.3196  22.3418  22.7345  23.2662
    23.9053  24.4305  25.3321  25.6805  26.0512  26.3095  26.6852  27.1035
    27.1935  27.3430  27.5809  30.0889

          k = 0.4177 0.6431 0.1860 (  4515 PWs)   bands (ev):

   -39.1535 -39.0933 -39.0865 -39.0340 -39.0272 -39.0200 -14.1002 -14.0982
   -12.2800 -12.1340 -12.1010 -12.0919 -12.0127 -11.9733 -11.8929 -11.8831
   -11.8712 -11.8593 -11.7189 -11.6961 -11.6079 -11.5798 -11.5666 -11.5390
   -11.5305 -11.4556   3.8232   3.8708   3.8855   3.9409   3.9847   3.9951
    17.8674  18.3304  18.4403  18.6262  18.6469  18.7890  18.8302  19.0145
    19.1021  19.2278  19.4246  19.4889  19.5144  19.8299  20.0824  20.2933
    20.4289  20.5596  20.6622  20.8144  20.9144  21.3250  21.4726  21.5543
    21.8410  21.8712  21.9434  22.2841  22.3847  22.4530  23.0024  23.4983
    23.7092  23.8167  25.3365  25.6474  26.2540  26.3624  26.6374  26.9232
    26.9450  27.2871  27.3265  30.2949

          k = 0.4177 0.6431 0.3719 (  4499 PWs)   bands (ev):

   -39.1356 -39.0854 -39.0787 -39.0518 -39.0342 -39.0277 -14.1144 -14.1121
   -12.2146 -12.1486 -12.1340 -12.1021 -12.0539 -12.0275 -11.8647 -11.8580
   -11.7826 -11.7583 -11.7414 -11.7226 -11.6399 -11.5562 -11.5471 -11.5382
   -11.5204 -11.5166   3.8491   3.8694   3.8836   3.9340   3.9929   3.9994
    18.2263  18.2393  18.3949  18.4726  18.5499  18.7117  18.8737  18.9027
    19.0006  19.1142  19.2626  19.5033  19.7569  20.1383  20.2283  20.3191
    20.4693  20.6012  20.7286  20.7955  21.0051  21.2054  21.3020  21.4724
    21.5357  21.9140  22.0063  22.4716  22.5840  22.8129  23.0440  23.2385
    23.4655  23.8892  25.3206  25.4488  26.1630  26.1896  26.3897  26.7767
    26.7927  27.3162  27.4534  29.5489

          k = 0.4177 0.6431 0.5579 (  4517 PWs)   bands (ev):

   -39.1100 -39.0814 -39.0744 -39.0709 -39.0422 -39.0384 -14.1252 -14.1244
   -12.1755 -12.1687 -12.1488 -12.1143 -12.0746 -12.0678 -11.8285 -11.8169
   -11.7930 -11.7840 -11.6931 -11.6638 -11.6524 -11.6379 -11.5539 -11.5336
   -11.5253 -11.5139   3.8622   3.8662   3.8995   3.9205   3.9997   4.0016
    18.2116  18.2924  18.3578  18.3930  18.4474  18.4833  18.6990  18.7949
    19.4068  19.4354  19.5110  19.8486  19.9634  20.0458  20.1678  20.3134
    20.4547  20.5287  20.6875  20.8652  20.9035  21.0188  21.1164  21.1395
    21.4481  21.8586  22.1675  22.2614  22.6389  22.7610  22.9677  23.0804
    23.8553  24.0783  25.5408  25.6497  25.9920  26.0417  26.6344  26.7335
    27.1130  27.4174  27.5009  28.2234

          k = 0.4177-0.3617 0.0000 (  4520 PWs)   bands (ev):

   -39.1633 -39.1011 -39.0781 -39.0356 -39.0267 -39.0105 -14.0912 -14.0871
   -12.3139 -12.1512 -12.0777 -12.0628 -12.0356 -11.9641 -11.9508 -11.9136
   -11.8789 -11.8265 -11.7181 -11.6588 -11.6343 -11.6258 -11.5994 -11.5171
   -11.4729 -11.4287   3.8116   3.8708   3.8898   3.9728   3.9866   4.0009
    17.8498  17.8555  18.2560  18.3108  18.4943  18.5492  18.7080  18.9530
    19.0856  19.0876  19.4267  19.7306  19.8916  20.0684  20.2049  20.4973
    20.5563  20.5576  20.6847  20.8494  21.2024  21.3592  21.5420  21.6287
    21.8076  21.9170  22.0327  22.0787  22.1656  22.3605  22.5603  23.7805
    23.8774  24.4800  25.2120  25.5860  25.8451  26.1340  27.1785  27.2502
    27.4810  27.6857  27.9460  30.0970

          k = 0.4177-0.3617 0.1860 (  4523 PWs)   bands (ev):

   -39.1569 -39.0981 -39.0756 -39.0394 -39.0321 -39.0141 -14.0980 -14.0926
   -12.2862 -12.1642 -12.1014 -12.0938 -12.0746 -11.9279 -11.9247 -11.8903
   -11.8471 -11.8391 -11.7279 -11.6876 -11.6414 -11.5955 -11.5705 -11.5129
   -11.4800 -11.4593   3.8182   3.8682   3.8967   3.9757   3.9841   4.0013
    17.8885  17.9417  18.2726  18.3239  18.3380  18.5489  18.6942  18.9175
    19.1190  19.3881  19.4263  19.5380  19.7173  19.9200  20.1301  20.3780
    20.5792  20.6473  20.7362  20.9467  21.1512  21.4049  21.5688  21.6442
    21.7293  21.8869  22.0872  22.2420  22.3408  22.6051  22.6455  23.6777
    23.8230  24.1531  25.1980  25.6880  25.9036  26.1469  26.7647  26.9800
    27.0683  27.7967  28.1647  30.5035

          k = 0.4177-0.3617 0.3719 (  4511 PWs)   bands (ev):

   -39.1387 -39.0898 -39.0671 -39.0540 -39.0424 -39.0231 -14.1120 -14.1056
   -12.2335 -12.1838 -12.1520 -12.0984 -12.0757 -12.0203 -11.8832 -11.8601
   -11.7736 -11.7453 -11.7255 -11.7218 -11.6614 -11.5589 -11.5464 -11.5373
   -11.4995 -11.4872   3.8319   3.8605   3.9175   3.9768   3.9847   4.0010
    17.9150  18.0733  18.2151  18.2298  18.5131  18.5678  18.6971  18.8523
    19.0311  19.3101  19.4947  19.5009  19.6347  19.8458  20.2503  20.3620
    20.4390  20.5332  20.9364  21.0092  21.0744  21.3234  21.5144  21.5340
    21.7410  21.9534  22.1660  22.3984  22.6829  22.8320  23.0024  23.1264
    23.5782  24.5491  25.1750  25.5101  25.7449  26.0850  26.3615  26.6378
    26.6909  28.1727  28.4458  28.9480

          k = 0.4177-0.3617 0.5579 (  4517 PWs)   bands (ev):

   -39.1135 -39.0887 -39.0704 -39.0616 -39.0472 -39.0357 -14.1211 -14.1183
   -12.2159 -12.2011 -12.1567 -12.1077 -12.0775 -12.0622 -11.8365 -11.8243
   -11.7750 -11.7658 -11.7137 -11.6803 -11.6340 -11.5984 -11.5697 -11.5275
   -11.5093 -11.5008   3.8436   3.8521   3.9433   3.9639   3.9925   3.9982
    18.0089  18.1243  18.2038  18.3151  18.3518  18.4230  18.5991  18.7133
    19.2835  19.4509  19.5418  19.5935  19.6284  19.8368  20.2323  20.2821
    20.3997  20.7565  20.9259  21.1043  21.2180  21.3108  21.4206  21.4684
    21.4795  21.7381  22.0792  22.2999  22.4919  22.6207  23.3385  23.5443
    23.6889  24.4092  25.3613  25.7169  25.7352  25.9369  26.4807  26.4854
    26.9361  27.7117  28.0829  28.2939

          k = 0.4177-0.1608 0.0000 (  4529 PWs)   bands (ev):

   -39.1685 -39.0971 -39.0769 -39.0426 -39.0221 -39.0100 -14.0860 -14.0816
   -12.3233 -12.1902 -12.0690 -12.0600 -12.0316 -12.0068 -12.0000 -11.9108
   -11.8801 -11.8619 -11.6781 -11.6316 -11.6158 -11.5982 -11.5963 -11.5103
   -11.4690 -11.4356   3.8327   3.8850   3.9068   3.9654   3.9984   4.0085
    17.6612  17.9041  18.1213  18.1620  18.2040  18.2906  18.4313  18.6407
    18.8269  19.0039  19.3092  19.7302  19.8514  20.0849  20.4664  20.5147
    20.8459  20.9637  21.0287  21.1067  21.2933  21.3084  21.3850  21.7494
    21.8416  21.8910  22.0857  22.1077  22.1684  22.2822  22.9559  23.8863
    24.0153  24.5264  25.5671  25.8787  25.9760  26.4176  27.1532  27.3769
    27.5883  27.8143  27.9753  30.0242

          k = 0.4177-0.1608 0.1860 (  4522 PWs)   bands (ev):

   -39.1613 -39.0935 -39.0741 -39.0469 -39.0269 -39.0133 -14.0915 -14.0873
   -12.2914 -12.1993 -12.1170 -12.1094 -12.0700 -11.9540 -11.9274 -11.9230
   -11.8831 -11.8311 -11.6796 -11.6447 -11.6253 -11.5809 -11.5650 -11.5053
   -11.4687 -11.4603   3.8381   3.8856   3.9119   3.9698   3.9970   4.0071
    17.7079  17.8968  18.0644  18.1408  18.2176  18.2904  18.4214  18.5899
    19.0814  19.2457  19.3921  19.6160  19.7541  20.0648  20.1724  20.2563
    20.6575  20.7146  20.9753  21.1368  21.3410  21.3941  21.5335  21.6202
    21.7032  22.1260  22.1644  22.3660  22.3906  22.7998  22.9490  23.8228
    23.9158  24.2758  25.5036  25.9023  26.0262  26.4526  26.9055  27.0346
    27.1143  27.8512  28.2191  29.8315

          k = 0.4177-0.1608 0.3719 (  4525 PWs)   bands (ev):

   -39.1436 -39.0858 -39.0671 -39.0600 -39.0382 -39.0231 -14.1055 -14.0993
   -12.2483 -12.2120 -12.1726 -12.1350 -12.0768 -12.0450 -11.9274 -11.8698
   -11.7853 -11.7203 -11.6913 -11.6700 -11.6496 -11.5542 -11.5462 -11.5363
   -11.4991 -11.4759   3.8498   3.8793   3.9316   3.9793   3.9918   4.0034
    17.6974  17.8908  17.9196  18.1545  18.3707  18.5500  18.6535  18.7810
    18.9305  19.1090  19.3168  19.5210  19.5896  19.7851  20.0117  20.3672
    20.4307  20.5275  20.9333  21.1688  21.2758  21.4071  21.5514  21.7360
    21.9098  22.2289  22.4012  22.5852  22.7915  22.9089  23.1194  23.2709
    23.9994  24.6656  25.3108  25.6245  25.8833  26.2711  26.5313  26.6765
    26.8025  28.1550  28.4462  28.6589

          k = 0.4177-0.1608 0.5579 (  4523 PWs)   bands (ev):

   -39.1188 -39.0923 -39.0680 -39.0551 -39.0481 -39.0357 -14.1140 -14.1110
   -12.2365 -12.2202 -12.1760 -12.1291 -12.1210 -12.0887 -11.8631 -11.8063
   -11.7417 -11.7394 -11.6938 -11.6631 -11.6146 -11.5974 -11.5664 -11.5339
   -11.5066 -11.4896   3.8608   3.8699   3.9577   3.9779   3.9912   3.9984
    17.7998  17.9704  17.9979  18.2097  18.2902  18.3434  18.6360  18.7694
    19.0332  19.1761  19.1879  19.4332  19.4970  19.7039  20.1180  20.1807
    20.3916  20.8295  21.1439  21.2402  21.3063  21.4595  21.5197  21.7124
    21.8331  21.9395  22.3729  22.4532  22.6120  22.7772  23.6061  23.7209
    24.0125  24.4512  25.4306  25.7230  25.9355  26.0719  26.5111  26.5274
    27.0496  27.5090  28.1211  28.3714

          k = 0.4177 0.0402 0.0000 (  4526 PWs)   bands (ev):

   -39.1694 -39.0924 -39.0810 -39.0431 -39.0188 -39.0118 -14.0836 -14.0803
   -12.3264 -12.2028 -12.0632 -12.0441 -12.0393 -12.0195 -12.0060 -11.9559
   -11.8695 -11.8614 -11.6682 -11.6271 -11.6055 -11.5942 -11.5534 -11.5068
   -11.4861 -11.4349   3.8545   3.8718   3.9311   3.9632   3.9869   4.0106
    17.7427  17.8179  17.8828  18.1493  18.1992  18.3896  18.3941  18.6325
    18.6555  18.8779  19.3271  19.7164  19.7338  20.1405  20.3823  20.6003
    20.9290  21.0573  21.1123  21.2078  21.2133  21.2896  21.3096  21.6562
    21.8390  22.0065  22.1000  22.1597  22.1886  22.3479  23.3319  23.8239
    24.0081  24.5341  25.7765  25.8533  26.2732  26.6091  27.0460  27.3635
    27.6932  27.7647  27.7667  30.0905

          k = 0.4177 0.0402 0.1860 (  4525 PWs)   bands (ev):

   -39.1626 -39.0897 -39.0780 -39.0478 -39.0233 -39.0154 -14.0883 -14.0870
   -12.2925 -12.2092 -12.1227 -12.1177 -12.0464 -12.0042 -11.9254 -11.9203
   -11.8967 -11.8274 -11.6766 -11.6329 -11.5971 -11.5763 -11.5468 -11.5067
   -11.4891 -11.4610   3.8607   3.8752   3.9290   3.9683   3.9866   4.0095
    17.7815  17.8225  17.9373  18.1261  18.1403  18.2681  18.3148  18.5516
    19.1128  19.1381  19.3955  19.6434  19.8109  20.0186  20.1304  20.1835
    20.6164  20.6511  21.0781  21.1882  21.3762  21.4390  21.4920  21.5814
    21.7345  22.1567  22.2151  22.4127  22.4882  22.8727  23.2864  23.9175
    23.9466  24.0748  25.7006  25.8680  26.2704  26.6017  26.9985  27.0556
    27.4552  27.5469  27.8607  29.6902

          k = 0.4177 0.0402 0.3719 (  4523 PWs)   bands (ev):

   -39.1449 -39.0807 -39.0741 -39.0592 -39.0342 -39.0242 -14.1028 -14.0977
   -12.2420 -12.2263 -12.1631 -12.1532 -12.0761 -12.0577 -11.9480 -11.8625
   -11.7867 -11.7185 -11.6970 -11.6512 -11.6060 -11.5610 -11.5459 -11.5351
   -11.4984 -11.4858   3.8700   3.8846   3.9305   3.9751   3.9881   4.0066
    17.6898  17.8235  17.8376  18.2017  18.3096  18.4608  18.6013  18.7389
    19.0014  19.1327  19.2045  19.4467  19.5963  19.7912  19.9974  20.2029
    20.3738  20.5790  20.9235  21.1222  21.2388  21.4620  21.7055  21.7478
    21.8599  22.4277  22.5351  22.6289  22.9400  23.0459  23.1665  23.3251
    24.1532  24.4022  25.3874  25.6391  26.0822  26.2418  26.6131  26.9878
    27.2817  27.6296  28.1155  28.5086

          k = 0.4177 0.0402 0.5579 (  4514 PWs)   bands (ev):

   -39.1196 -39.0928 -39.0671 -39.0562 -39.0447 -39.0360 -14.1115 -14.1083
   -12.2319 -12.2206 -12.1739 -12.1496 -12.1333 -12.1017 -11.8664 -11.8014
   -11.7397 -11.7275 -11.6830 -11.6402 -11.6015 -11.5977 -11.5700 -11.5389
   -11.4984 -11.4936   3.8772   3.8836   3.9482   3.9671   3.9968   4.0036
    17.7692  17.8966  17.9684  18.1940  18.2688  18.3569  18.6420  18.8509
    18.8791  18.9826  19.1152  19.4135  19.5365  19.7783  19.9471  20.1252
    20.3860  20.6750  21.1139  21.2686  21.3764  21.4591  21.6510  21.7320
    21.8681  21.9758  22.5271  22.5685  22.8994  23.0119  23.5765  23.7326
    24.0371  24.3360  25.4979  25.6202  26.0958  26.1419  26.5489  26.8270
    27.4257  27.5512  27.9701  28.2039

     the Fermi energy is    23.7456 ev

!    total energy              =   -1205.70173709 Ry
     Harris-Foulkes estimate   =   -1205.70173806 Ry
     estimated scf accuracy    <       0.00000113 Ry

     The total energy is the sum of the following terms:

     one-electron contribution =     -81.58135893 Ry
     hartree contribution      =     139.03506801 Ry
     xc contribution           =    -129.96488090 Ry
     ewald contribution        =   -1132.81231853 Ry
     smearing contrib. (-TS)   =      -0.37824674 Ry

     convergence has been achieved in  15 iterations

     Forces acting on atoms (Ry/au):

     atom    1 type  1   force =    -0.01216317   -0.00702241    0.00000000
     atom    2 type  1   force =    -0.01216317    0.00702241    0.00000000
     atom    3 type  1   force =     0.01216317    0.00702241    0.00000000
     atom    4 type  1   force =     0.01216317   -0.00702241    0.00000000
     atom    5 type  1   force =     0.00000000    0.01404482    0.00000000
     atom    6 type  1   force =     0.00000000   -0.01404482    0.00000000
     atom    7 type  2   force =     0.00000000    0.00000000    0.00000000
     atom    8 type  2   force =     0.00000000    0.00000000    0.00000000

     Total force =     0.034403     Total SCF correction =     0.000000


     entering subroutine stress ...

          total   stress  (Ry/bohr**3)                   (kbar)     P=  -35.82
  -0.00029794   0.00000000   0.00000000        -43.83      0.00      0.00
   0.00000000  -0.00029794   0.00000000          0.00    -43.83      0.00
   0.00000000   0.00000000  -0.00013466          0.00      0.00    -19.81


     Writing output data file Prototype-La-hP8-Mg3Cd.save
 
     init_run     :     11.03s CPU     13.86s WALL (       2 calls)
     electrons    :   3365.38s CPU   4382.05s WALL (       5 calls)
     update_pot   :      2.62s CPU      2.64s WALL (       3 calls)
     forces       :     10.70s CPU     11.42s WALL (       5 calls)
     stress       :     34.79s CPU     35.80s WALL (       5 calls)

     Called by init_run:
     wfcinit      :     10.11s CPU     12.87s WALL (       2 calls)
     potinit      :      0.41s CPU      0.41s WALL (       2 calls)

     Called by electrons:
     c_bands      :   3263.33s CPU   4226.72s WALL (      52 calls)
     sum_band     :    100.88s CPU    140.99s WALL (      52 calls)
     v_of_rho     :      0.11s CPU      0.13s WALL (      57 calls)
     mix_rho      :      0.13s CPU      0.19s WALL (      52 calls)

     Called by c_bands:
     init_us_2    :      7.26s CPU      8.59s WALL (    7424 calls)
     ccgdiagg     :   2937.48s CPU   3780.44s WALL (    3931 calls)
     wfcrot       :    329.19s CPU    448.02s WALL (    3995 calls)

     Called by *cgdiagg:
     h_psi        :   2258.53s CPU   2983.35s WALL ( 1447828 calls)
     cdiaghg      :     10.14s CPU     11.42s WALL (    3995 calls)

     Called by h_psi:
     add_vuspsi   :    274.26s CPU    320.93s WALL ( 1447828 calls)

     General routines
     calbec       :    778.57s CPU    903.75s WALL ( 2892301 calls)
     fft          :      0.23s CPU      0.30s WALL (     251 calls)
     fftw         :   1502.62s CPU   2024.38s WALL ( 3747834 calls)
     davcio       :      3.99s CPU      8.94s WALL (   10752 calls)
 
     Parallel routines
     fft_scatter  :    756.01s CPU   1075.16s WALL ( 3748085 calls)
 
     PWSCF        :     0h57m CPU        1h14m WALL

 
   This run was terminated on:  22:26: 2  22Mar2018            

=------------------------------------------------------------------------------=
   JOB DONE.
=------------------------------------------------------------------------------=
