
     Program PWSCF v.5.0.2 starts on 22Mar2018 at  0:36:53 

     This program is part of the open-source Quantum ESPRESSO suite
     for quantum simulation of materials; please cite
         "P. Giannozzi et al., J. Phys.:Condens. Matter 21 395502 (2009);
          URL http://www.quantum-espresso.org", 
     in publications or presentations arising from this work. More details at
     http://www.quantum-espresso.org/quote.php

     Parallel version (MPI), running on     4 processors
     R & G space division:  proc/nbgrp/npool/nimage =       4

     Current dimensions of program PWSCF are:
     Max number of different atomic species (ntypx) = 10
     Max number of k-points (npk) =  40000
     Max angular momentum in pseudopotentials (lmaxx) =  3
     Waiting for input...
     Reading input from standard input

     Subspace diagonalization in iterative solution of the eigenvalue problem:
     a serial algorithm will be used

 
     Parallelization info
     --------------------
     sticks:   dense  smooth     PW     G-vecs:    dense   smooth      PW
     Min         233     233     69                 5311     5311     851
     Max         234     234     70                 5314     5314     854
     Sum         933     933    277                21247    21247    3407
 


     bravais-lattice index     =            0
     lattice parameter (alat)  =       8.5346  a.u.
     unit-cell volume          =     621.6493 (a.u.)^3
     number of atoms/cell      =            8
     number of atomic types    =            2
     number of electrons       =       100.00
     number of Kohn-Sham states=           60
     kinetic-energy cutoff     =      40.0000  Ry
     charge density cutoff     =     160.0000  Ry
     convergence threshold     =      1.0E-04
     mixing beta               =       0.7000
     number of iterations used =            8  plain     mixing
     Exchange-correlation      = SLA-PZ-NOGX-NOGC ( 1 1 0 0 0)
     EXX-fraction              =        0.00
     nstep                     =           50


     celldm(1)=   8.534573  celldm(2)=   0.000000  celldm(3)=   0.000000
     celldm(4)=   0.000000  celldm(5)=   0.000000  celldm(6)=   0.000000

     crystal axes: (cart. coord. in units of alat)
               a(1) = (   1.000000   0.000000   0.000000 )  
               a(2) = (   0.000000   1.000000   0.000000 )  
               a(3) = (   0.000000   0.000000   1.000000 )  

     reciprocal axes: (cart. coord. in units 2 pi/alat)
               b(1) = (  1.000000  0.000000  0.000000 )  
               b(2) = (  0.000000  1.000000  0.000000 )  
               b(3) = (  0.000000  0.000000  1.000000 )  


     PseudoPot. # 1 for Ce read from file:
     /home/jld5415/pp.La/Ce.UPF
     MD5 check sum: 44451aa79a44a00cf2bc029dc19922f6
     Pseudo is Norm-conserving, Zval = 12.0
     Generated in analytical, separable form
     Using radial grid of 1255 points,  6 beta functions with: 
                l(1) =   0
                l(2) =   0
                l(3) =   1
                l(4) =   1
                l(5) =   2
                l(6) =   3

     PseudoPot. # 2 for Nd read from file:
     /home/jld5415/pp.La/Nd.UPF
     MD5 check sum: c66c5b6abe7b5840ced9b1e244e3bed6
     Pseudo is Norm-conserving, Zval = 14.0
     Generated in analytical, separable form
     Using radial grid of 1257 points,  6 beta functions with: 
                l(1) =   0
                l(2) =   0
                l(3) =   1
                l(4) =   1
                l(5) =   2
                l(6) =   3

     atomic species   valence    mass     pseudopotential
        Cr            12.00    51.99610     Ce( 1.00)
        Si            14.00    28.08550     Nd( 1.00)

     48 Sym. Ops., with inversion, found (24 have fractional translation)



   Cartesian axes

     site n.     atom                  positions (alat units)
         1           Cr  tau(   1) = (   0.0000000   0.5000000   0.2500000  )
         2           Cr  tau(   2) = (   0.0000000   0.5000000   0.7500000  )
         3           Cr  tau(   3) = (   0.5000000   0.7500000   0.0000000  )
         4           Cr  tau(   4) = (   0.5000000   0.2500000   0.0000000  )
         5           Cr  tau(   5) = (   0.7500000   0.0000000   0.5000000  )
         6           Cr  tau(   6) = (   0.2500000   0.0000000   0.5000000  )
         7           Si  tau(   7) = (   0.5000000   0.5000000   0.5000000  )
         8           Si  tau(   8) = (   0.0000000   0.0000000   0.0000000  )

     number of k points=    48  gaussian smearing, width (Ry)=  0.1000
                       cart. coord. in units 2pi/alat
        k(    1) = (   0.0000000   0.0000000   0.0000000), wk =   0.0095238
        k(    2) = (   0.0000000   0.0000000   0.1428571), wk =   0.0190476
        k(    3) = (   0.0000000   0.0000000   0.2857143), wk =   0.0190476
        k(    4) = (   0.0000000   0.0000000   0.4285714), wk =   0.0190476
        k(    5) = (   0.0000000   0.1666667   0.0000000), wk =   0.0190476
        k(    6) = (   0.0000000   0.1666667   0.1428571), wk =   0.0380952
        k(    7) = (   0.0000000   0.1666667   0.2857143), wk =   0.0380952
        k(    8) = (   0.0000000   0.1666667   0.4285714), wk =   0.0380952
        k(    9) = (   0.0000000   0.3333333   0.0000000), wk =   0.0190476
        k(   10) = (   0.0000000   0.3333333   0.1428571), wk =   0.0380952
        k(   11) = (   0.0000000   0.3333333   0.2857143), wk =   0.0380952
        k(   12) = (   0.0000000   0.3333333   0.4285714), wk =   0.0380952
        k(   13) = (   0.0000000  -0.5000000   0.0000000), wk =   0.0095238
        k(   14) = (   0.0000000  -0.5000000   0.1428571), wk =   0.0190476
        k(   15) = (   0.0000000  -0.5000000   0.2857143), wk =   0.0190476
        k(   16) = (   0.0000000  -0.5000000   0.4285714), wk =   0.0190476
        k(   17) = (   0.2000000   0.0000000   0.0000000), wk =   0.0190476
        k(   18) = (   0.2000000   0.0000000   0.1428571), wk =   0.0380952
        k(   19) = (   0.2000000   0.0000000   0.2857143), wk =   0.0380952
        k(   20) = (   0.2000000   0.0000000   0.4285714), wk =   0.0380952
        k(   21) = (   0.2000000   0.1666667   0.0000000), wk =   0.0380952
        k(   22) = (   0.2000000   0.1666667   0.1428571), wk =   0.0761905
        k(   23) = (   0.2000000   0.1666667   0.2857143), wk =   0.0761905
        k(   24) = (   0.2000000   0.1666667   0.4285714), wk =   0.0761905
        k(   25) = (   0.2000000   0.3333333   0.0000000), wk =   0.0380952
        k(   26) = (   0.2000000   0.3333333   0.1428571), wk =   0.0761905
        k(   27) = (   0.2000000   0.3333333   0.2857143), wk =   0.0761905
        k(   28) = (   0.2000000   0.3333333   0.4285714), wk =   0.0761905
        k(   29) = (   0.2000000  -0.5000000   0.0000000), wk =   0.0190476
        k(   30) = (   0.2000000  -0.5000000   0.1428571), wk =   0.0380952
        k(   31) = (   0.2000000  -0.5000000   0.2857143), wk =   0.0380952
        k(   32) = (   0.2000000  -0.5000000   0.4285714), wk =   0.0380952
        k(   33) = (   0.4000000   0.0000000   0.0000000), wk =   0.0190476
        k(   34) = (   0.4000000   0.0000000   0.1428571), wk =   0.0380952
        k(   35) = (   0.4000000   0.0000000   0.2857143), wk =   0.0380952
        k(   36) = (   0.4000000   0.0000000   0.4285714), wk =   0.0380952
        k(   37) = (   0.4000000   0.1666667   0.0000000), wk =   0.0380952
        k(   38) = (   0.4000000   0.1666667   0.1428571), wk =   0.0761905
        k(   39) = (   0.4000000   0.1666667   0.2857143), wk =   0.0761905
        k(   40) = (   0.4000000   0.1666667   0.4285714), wk =   0.0761905
        k(   41) = (   0.4000000   0.3333333   0.0000000), wk =   0.0380952
        k(   42) = (   0.4000000   0.3333333   0.1428571), wk =   0.0761905
        k(   43) = (   0.4000000   0.3333333   0.2857143), wk =   0.0761905
        k(   44) = (   0.4000000   0.3333333   0.4285714), wk =   0.0761905
        k(   45) = (   0.4000000  -0.5000000   0.0000000), wk =   0.0190476
        k(   46) = (   0.4000000  -0.5000000   0.1428571), wk =   0.0380952
        k(   47) = (   0.4000000  -0.5000000   0.2857143), wk =   0.0380952
        k(   48) = (   0.4000000  -0.5000000   0.4285714), wk =   0.0380952

     Dense  grid:    21247 G-vectors     FFT dimensions: (  36,  36,  36)

     Largest allocated arrays     est. size (Mb)     dimensions
        Kohn-Sham Wavefunctions         0.63 Mb     (    683,   60)
        NL pseudopotentials             1.67 Mb     (    683,  160)
        Each V/rho on FFT grid          0.18 Mb     (  11664)
        Each G-vector array             0.04 Mb     (   5314)
        G-vector shells                 0.04 Mb     (   5314)
     Largest temporary arrays     est. size (Mb)     dimensions
        Each subspace H/S matrix        0.05 Mb     (  60,  60)
        Each <psi_i|beta_j> matrix      0.15 Mb     (    160,   60)
        Arrays for rho mixing           1.42 Mb     (  11664,   8)

     Initial potential from superposition of free atoms

     Starting from uniform charge
     Starting wfc are    0 randomized atomic wfcs

     total cpu time spent up to now is        2.7 secs

     Self-consistent Calculation

     iteration #  1     ecut=    40.00 Ry     beta=0.70
     CG style diagonalization
     c_bands:  1 eigenvalues not converged
     c_bands:  1 eigenvalues not converged
     c_bands:  1 eigenvalues not converged
     c_bands:  1 eigenvalues not converged
     ethr =  1.00E-02,  avg # of iterations = 11.3

     total cpu time spent up to now is       32.9 secs

     total energy              =    -654.90741633 Ry
     Harris-Foulkes estimate   =    -702.63111159 Ry
     estimated scf accuracy    <      65.64458990 Ry

     iteration #  2     ecut=    40.00 Ry     beta=0.70
     CG style diagonalization
     ethr =  1.00E-02,  avg # of iterations =  6.2

     total cpu time spent up to now is       48.6 secs

     total energy              =    -669.14352770 Ry
     Harris-Foulkes estimate   =    -689.85240320 Ry
     estimated scf accuracy    <      34.04429566 Ry

     iteration #  3     ecut=    40.00 Ry     beta=0.70
     CG style diagonalization
     ethr =  1.00E-02,  avg # of iterations =  4.8

     total cpu time spent up to now is       61.3 secs

     total energy              =    -677.51654815 Ry
     Harris-Foulkes estimate   =    -678.10601480 Ry
     estimated scf accuracy    <       1.05052419 Ry

     iteration #  4     ecut=    40.00 Ry     beta=0.70
     CG style diagonalization
     ethr =  1.05E-03,  avg # of iterations =  4.5

     total cpu time spent up to now is       73.1 secs

     total energy              =    -677.95284270 Ry
     Harris-Foulkes estimate   =    -677.95574865 Ry
     estimated scf accuracy    <       0.01150680 Ry

     iteration #  5     ecut=    40.00 Ry     beta=0.70
     CG style diagonalization
     c_bands:  1 eigenvalues not converged
     c_bands:  1 eigenvalues not converged
     c_bands:  1 eigenvalues not converged
     c_bands:  2 eigenvalues not converged
     c_bands:  2 eigenvalues not converged
     c_bands:  1 eigenvalues not converged
     c_bands:  3 eigenvalues not converged
     c_bands:  1 eigenvalues not converged
     c_bands:  1 eigenvalues not converged
     c_bands:  1 eigenvalues not converged
     c_bands:  2 eigenvalues not converged
     c_bands:  1 eigenvalues not converged
     c_bands:  1 eigenvalues not converged
     c_bands:  3 eigenvalues not converged
     c_bands:  3 eigenvalues not converged
     c_bands:  1 eigenvalues not converged
     c_bands:  2 eigenvalues not converged
     c_bands:  2 eigenvalues not converged
     c_bands:  1 eigenvalues not converged
     c_bands:  4 eigenvalues not converged
     c_bands:  1 eigenvalues not converged
     c_bands:  3 eigenvalues not converged
     c_bands:  1 eigenvalues not converged
     c_bands:  1 eigenvalues not converged
     c_bands:  1 eigenvalues not converged
     c_bands:  2 eigenvalues not converged
     c_bands:  1 eigenvalues not converged
     c_bands:  2 eigenvalues not converged
     c_bands:  3 eigenvalues not converged
     c_bands:  2 eigenvalues not converged
     c_bands:  1 eigenvalues not converged
     c_bands:  2 eigenvalues not converged
     c_bands:  2 eigenvalues not converged
     c_bands:  1 eigenvalues not converged
     c_bands:  3 eigenvalues not converged
     c_bands:  2 eigenvalues not converged
     c_bands:  1 eigenvalues not converged
     c_bands:  1 eigenvalues not converged
     c_bands:  3 eigenvalues not converged
     ethr =  1.15E-05,  avg # of iterations =  6.6

     total cpu time spent up to now is       90.7 secs

     total energy              =    -677.97194600 Ry
     Harris-Foulkes estimate   =    -677.97188097 Ry
     estimated scf accuracy    <       0.00048843 Ry

     iteration #  6     ecut=    40.00 Ry     beta=0.70
     CG style diagonalization
     c_bands:  2 eigenvalues not converged
     c_bands:  1 eigenvalues not converged
     c_bands:  1 eigenvalues not converged
     c_bands:  1 eigenvalues not converged
     c_bands:  1 eigenvalues not converged
     c_bands:  1 eigenvalues not converged
     c_bands:  1 eigenvalues not converged
     c_bands:  1 eigenvalues not converged
     c_bands:  1 eigenvalues not converged
     c_bands:  1 eigenvalues not converged
     c_bands:  2 eigenvalues not converged
     c_bands:  1 eigenvalues not converged
     c_bands:  3 eigenvalues not converged
     c_bands:  1 eigenvalues not converged
     c_bands:  1 eigenvalues not converged
     c_bands:  1 eigenvalues not converged
     ethr =  4.88E-07,  avg # of iterations =  5.2

     total cpu time spent up to now is      104.0 secs

     End of self-consistent calculation

          k = 0.0000 0.0000 0.0000 (  2601 PWs)   bands (ev):

    -8.9356  -8.4218  -1.1447   0.1214   0.1214   3.3706   3.3706   3.3706
    10.7322  10.7322  10.7322  11.3614  11.3614  11.3614  12.0942  12.0942
    14.1280  18.2330  18.2330  18.2330  18.4154  18.4154  18.4154  21.1594
    21.1594  21.1594  22.2028  22.2028  22.2028  27.5409  27.5409  27.5409
    33.9595  34.0405  34.0405  34.0405  34.5892  34.5892  34.7145  38.3453
    38.3453  38.3453  38.4330  38.4330  38.6845  38.7431  38.7431  38.7431
    39.6744  39.6744  40.0322  40.0322  40.0322  43.9245  43.9247  43.9246
    44.0580  44.3764  44.3769  44.3812

          k = 0.0000 0.0000 0.1429 (  2657 PWs)   bands (ev):

    -8.8989  -8.4336  -1.1446  -0.0598   0.2292   3.1665   3.3949   3.3949
    10.6752  10.6752  10.8257  11.0392  11.2756  11.2756  12.4723  12.7301
    14.3468  17.7179  17.7179  18.3713  18.5171  19.0896  19.0896  20.9699
    21.3222  21.3222  21.4048  22.2392  22.2392  26.3249  27.4894  27.4894
    33.0829  34.2162  34.2162  34.3235  34.7154  34.7581  35.7513  36.8335
    36.8335  37.9413  38.2361  38.2572  38.5013  38.5013  38.8946  39.2525
    39.3794  39.9148  40.5173  40.8883  40.8883  43.1511  43.3851  43.3853
    44.1093  44.2127  44.4660  44.6842

          k = 0.0000 0.0000 0.2857 (  2677 PWs)   bands (ev):

    -8.8007  -8.4751  -1.1296  -0.4535   0.5627   2.5949   3.4555   3.4555
    10.4614  10.4614  10.8545  11.2155  11.2155  11.3253  12.6142  13.7180
    15.7702  17.1979  17.1979  18.4808  18.8192  19.6724  20.0809  20.0809
    20.4896  21.5886  21.5886  22.3265  22.3265  23.7635  27.3704  27.3704
    32.0911  34.7286  34.7286  34.7692  34.7692  34.8903  35.0743  35.2707
    35.9626  37.5250  37.5671  37.9652  38.1250  38.1250  38.6283  39.4029
    39.6480  40.8679  41.2379  41.2379  42.1766  42.1766  43.0069  43.2466
    43.5756  43.8567  45.1697  45.2202

          k = 0.0000 0.0000 0.4286 (  2658 PWs)   bands (ev):

    -8.6735  -8.5562  -1.0441  -0.8198   1.1194   1.8401   3.5068   3.5068
    10.2509  10.2509  10.9910  11.2347  11.2347  11.3273  13.3969  14.1951
    16.8764  16.8764  17.8946  18.2716  18.4608  19.2929  19.8818  20.9160
    21.0141  21.0141  21.5843  21.5843  22.4098  22.4098  27.2753  27.2753
    32.2603  33.3958  33.3958  33.5630  35.4960  35.4960  35.6029  35.7274
    36.4297  36.7892  36.8121  37.3781  37.8523  37.8523  39.7085  39.7085
    39.7124  39.8705  40.3958  41.9542  41.9817  42.5385  42.9016  42.9016
    44.3655  45.1283  45.4970  46.0652

          k = 0.0000 0.1667 0.0000 (  2653 PWs)   bands (ev):

    -8.8861  -8.4382  -1.1438  -0.1176   0.2688   3.0940   3.4036   3.4036
    10.6507  10.6507  10.8858  10.9870  11.2585  11.2585  12.5273  12.8935
    14.4843  17.6248  17.6248  18.4064  18.5541  19.2420  19.2420  20.9061
    21.1495  21.3705  21.3705  22.2515  22.2515  25.9515  27.4729  27.4729
    32.8643  34.2822  34.2822  34.4489  34.7597  34.7902  36.0566  36.4666
    36.4666  37.7370  38.1389  38.2249  38.4453  38.4453  38.9528  39.0380
    39.4379  40.0358  40.9353  41.0537  41.0537  43.1329  43.1329  43.1482
    44.0027  44.1533  44.5554  44.9250

          k = 0.0000 0.1667 0.1429 (  2662 PWs)   bands (ev):

    -8.8522  -8.4467  -1.1376  -0.1287   0.2104   3.0136   3.2590   3.4295
    10.6424  10.6771  10.8189  10.8739  11.1402  11.5681  12.9940  13.1316
    14.5316  17.2766  17.8069  18.1808  18.9095  19.4549  19.6075  21.0180
    21.1861  21.3226  21.3297  21.5633  22.2837  25.8757  26.2866  27.4234
    33.0328  33.4456  33.9971  34.8640  35.1579  35.6857  35.8536  36.2263
    36.3947  37.0815  37.1940  37.8774  37.9294  38.9133  39.2225  39.3719
    40.1706  40.2343  40.5584  40.8260  41.8020  42.7743  42.8973  43.2231
    43.2756  44.1952  45.1192  45.2545

          k = 0.0000 0.1667 0.2857 (  2666 PWs)   bands (ev):

    -8.7624  -8.4787  -1.1098  -0.4189   0.4489   2.4865   3.1788   3.4892
    10.5089  10.5617  10.7664  11.0210  11.2030  11.9279  13.1922  13.9436
    15.6574  16.7493  17.6033  18.3171  19.3157  19.5557  20.2339  20.4652
    20.7733  21.1975  21.5277  21.5567  22.3558  23.7325  25.8014  27.3115
    32.3786  33.7206  34.1491  34.3371  34.7484  35.2504  35.5916  35.9145
    36.3195  36.9991  37.0098  37.6555  37.9765  38.3616  38.9994  39.7955
    40.1897  40.8295  41.0139  41.2981  42.3691  42.4917  42.7467  42.8543
    43.2376  45.0823  45.1984  45.4643

          k = 0.0000 0.1667 0.4286 (  2658 PWs)   bands (ev):

    -8.6481  -8.5459  -1.0226  -0.7604   0.9927   1.7194   3.1741   3.5388
    10.3163  10.3297  10.9667  11.0365  11.3414  12.1928  13.7011  14.4139
    16.4080  17.2416  17.8504  18.1478  18.4557  19.7441  20.2450  20.4510
    20.9766  21.1410  21.3269  21.6408  21.9286  22.4161  25.6899  27.2213
    32.3507  32.9996  33.3284  34.0411  34.9333  34.9543  35.8010  35.8650
    36.0761  36.6813  36.9145  37.2359  38.5586  38.5799  39.0888  39.3677
    39.6540  40.6459  41.1086  41.7759  42.0343  42.5187  43.3040  43.9896
    44.3116  44.4147  45.2444  45.6049

          k = 0.0000 0.3333 0.0000 (  2677 PWs)   bands (ev):

    -8.7595  -8.4975  -1.1127  -0.5875   0.7249   2.3509   3.4763   3.4763
    10.3766  10.3766  10.8664  11.2182  11.2182  11.4298  12.7517  13.9880
    16.4758  17.0604  17.0604  18.4437  18.9602  19.0978  20.2931  20.4210
    20.4210  21.6315  21.6315  22.3587  22.3587  22.8194  27.3302  27.3301
    32.0038  34.1670  34.1670  34.6545  35.0136  35.0136  35.2401  35.6507
    35.6549  37.2587  37.3478  37.8074  38.0110  38.0110  39.0655  39.6684
    39.7325  40.6903  40.6903  41.2816  42.4177  42.4177  42.9499  43.1369
    43.3913  44.7599  45.4811  45.4809

          k = 0.0000 0.3333 0.1429 (  2660 PWs)   bands (ev):

    -8.7339  -8.4967  -1.0945  -0.5528   0.6289   2.2688   3.2491   3.5010
    10.4211  10.4655  10.7847  11.0682  11.2963  11.9226  13.1281  14.1283
    16.3370  16.7047  17.4118  18.3523  19.0766  19.3400  20.4260  20.5624
    20.6345  21.2793  21.6256  21.7280  22.3753  22.8742  26.1223  27.2897
    32.2363  33.6150  34.0489  34.4011  34.5897  35.0377  35.4825  36.1012
    36.4406  36.7497  37.0078  37.5327  37.9273  38.5069  38.9905  39.7221
    39.8736  40.6040  41.1254  41.6316  42.1820  42.5457  42.8796  43.0492
    44.0440  44.7075  44.7958  45.2954

          k = 0.0000 0.3333 0.2857 (  2658 PWs)   bands (ev):

    -8.6682  -8.5023  -1.0634  -0.5163   0.5604   1.9997   2.7663   3.5582
    10.2978  10.5103  10.7645  11.1912  11.6173  12.6090  13.8517  14.9078
    16.1000  16.3369  17.9038  18.1602  19.0710  19.9820  20.0584  20.7645
    20.8444  20.9381  21.0131  21.7036  22.4064  22.6624  23.7632  27.1908
    32.4164  33.2713  33.6533  33.6970  34.5246  34.8095  35.3147  35.6348
    35.7664  36.7153  37.4722  38.2957  38.7022  38.8175  39.1901  39.3818
    39.7742  40.1546  40.9370  42.1208  42.1559  42.9158  43.3117  43.7626
    43.8944  45.3284  45.4016  45.4408

          k = 0.0000 0.3333 0.4286 (  2654 PWs)   bands (ev):

    -8.5907  -8.5310  -1.0356  -0.5833   0.8653   1.4571   2.4813   3.6063
    10.0807  10.4562  10.6713  11.5434  12.0732  13.0728  14.3571  15.6995
    15.7087  17.3065  17.6559  17.9443  18.8897  19.6926  20.3838  20.4286
    20.6225  20.7305  21.3525  21.5707  21.8560  22.4145  22.8239  27.1062
    32.1464  32.7243  32.9644  33.8039  34.2105  34.9287  35.0634  36.1660
    36.3975  36.4095  37.1426  37.9720  38.4537  38.6572  38.7739  39.1818
    40.2323  40.6080  40.7409  41.6144  42.9725  43.1997  43.9058  44.1591
    44.8153  45.3769  45.6655  46.3159

          k = 0.0000-0.5000 0.0000 (  2666 PWs)   bands (ev):

    -8.6115  -8.6115  -0.9522  -0.9522   1.4649   1.4649   3.5142   3.5142
    10.2190  10.2190  11.1502  11.1502  11.2393  11.2393  13.9232  13.9232
    16.8332  16.8332  18.0628  18.0628  19.5400  19.5400  19.5777  19.5777
    21.2561  21.2561  21.4766  21.4766  22.4225  22.4225  27.2610  27.2610
    32.7985  32.7985  33.2107  33.2107  35.6515  35.6515  35.7861  35.7861
    36.6224  36.6224  36.9484  36.9484  37.8142  37.8142  39.4233  39.4233
    39.8789  39.8789  41.1209  41.1209  42.2463  42.2463  43.0342  43.0342
    45.2369  45.2370  45.6206  45.6203

          k = 0.0000-0.5000 0.1429 (  2666 PWs)   bands (ev):

    -8.5980  -8.5980  -0.9693  -0.8723   1.3546   1.3840   3.2587   3.5384
    10.2689  10.2986  11.0026  11.0899  11.2313  12.0445  14.0164  14.1755
    16.4663  17.1518  18.0430  18.0494  19.3193  19.4016  19.8671  19.9256
    21.0926  21.3077  21.3223  21.5455  22.0274  22.4253  26.0413  27.2200
    32.4069  33.0142  33.1678  33.5763  35.1586  35.2048  35.9401  36.0285
    36.3208  36.4341  36.9541  36.9590  38.1633  38.5011  39.0519  39.1962
    39.7236  41.1088  41.1345  41.1577  41.9706  42.9724  43.3562  43.8992
    44.0752  44.7315  45.3420  45.4078

          k = 0.0000-0.5000 0.2857 (  2658 PWs)   bands (ev):

    -8.5674  -8.5674  -1.0133  -0.6737   1.1553   1.2225   2.6626   3.5941
    10.1354  10.3869  10.7758  11.4183  11.8619  12.9375  14.3269  15.2075
    15.8257  17.6410  17.7447  17.9475  19.2138  19.2154  20.4206  20.4426
    20.4710  20.7757  21.3347  21.5742  21.7553  22.4199  23.6128  27.1263
    32.1132  32.9688  33.0217  33.9694  34.4615  34.5349  34.9581  36.0670
    36.4795  36.5239  36.7571  37.9539  38.3010  38.7707  39.3509  39.4187
    40.2788  40.3130  40.8890  42.1838  42.2845  42.5312  43.6363  43.7118
    44.5868  45.3104  46.3865  46.3922

          k = 0.0000-0.5000 0.4286 (  2662 PWs)   bands (ev):

    -8.5424  -8.5424  -1.0555  -0.4950   1.0887   1.1106   2.1102   3.6413
     9.9191  10.4924  10.5417  11.8686  12.5378  13.4359  14.8891  15.3983
    16.8852  17.2094  17.3408  17.8190  19.0871  19.4801  19.8581  20.4575
    20.7578  20.7583  20.8052  21.3333  21.9807  22.0099  22.3848  27.0439
    31.8746  32.0073  32.4331  33.8742  34.9027  35.0436  35.3039  36.2435
    36.7568  36.9073  37.2945  37.5672  37.6554  37.9633  38.1493  39.3240
    39.5956  40.2505  41.0246  42.2400  42.6542  44.2129  44.5887  45.5522
    45.7066  45.8776  45.8661  47.0776

          k = 0.2000 0.0000 0.0000 (  2661 PWs)   bands (ev):

    -8.8654  -8.4460  -1.1427  -0.2064   0.3349   2.9753   3.4172   3.4172
    10.6074  10.6074  10.9258  10.9953  11.2371  11.2371  12.5691  13.1277
    14.7513  17.4970  17.4970  18.4480  18.6152  19.4667  19.4667  20.7579
    20.8043  21.4394  21.4394  22.2707  22.2707  25.3813  27.4455  27.4455
    32.5832  34.3924  34.3924  34.6501  34.8325  34.8378  35.9544  35.9544
    36.4126  37.4752  37.9835  38.1690  38.3582  38.3582  38.7576  39.0513
    39.5007  40.2353  41.2690  41.2690  41.5826  42.7372  42.7372  43.1646
    43.8513  44.0458  44.7005  44.7000

          k = 0.2000 0.0000 0.1429 (  2667 PWs)   bands (ev):

    -8.8328  -8.4531  -1.1337  -0.1992   0.2593   2.9017   3.2484   3.4428
    10.6147  10.6626  10.8061  10.9137  11.1072  11.6348  13.0372  13.3378
    14.7429  17.1508  17.7366  18.2320  18.9929  19.6373  19.7417  20.8518
    20.9537  21.3279  21.3859  21.5870  22.3001  25.3226  26.2481  27.3981
    32.7823  33.5569  34.0343  34.8925  35.3223  35.4857  35.7327  36.0139
    36.5612  36.9862  37.0392  37.7972  37.8289  38.7115  39.1251  39.4875
    40.1675  40.3128  40.7875  41.4006  41.9743  42.4014  42.8034  43.0862
    43.1006  44.3887  45.1992  45.5340

          k = 0.2000 0.0000 0.2857 (  2659 PWs)   bands (ev):

    -8.7467  -8.4810  -1.1022  -0.4165   0.4282   2.4310   3.0798   3.5022
    10.5241  10.5364  10.8378  10.9535  11.2324  12.0827  13.3788  14.0838
    15.6642  16.6088  17.7297  18.2651  19.4686  19.5329  20.3226  20.5208
    20.8431  21.0112  21.3330  21.5595  22.3666  23.6953  25.2589  27.2896
    32.4300  33.6017  34.0699  34.2050  34.7531  35.3392  35.5630  35.6545
    36.0358  37.0675  37.2309  37.5767  38.2218  38.4148  39.0458  39.8927
    40.3174  40.6621  40.8403  41.5783  42.1528  42.3024  42.8382  43.0350
    43.3229  45.3279  45.4960  45.6759

          k = 0.2000 0.0000 0.4286 (  2660 PWs)   bands (ev):

    -8.6380  -8.5423  -1.0208  -0.7306   0.9523   1.6735   3.0454   3.5512
    10.3044  10.3422  10.9640  11.0540  11.4434  12.4076  13.8284  14.5507
    16.2561  17.3385  17.8246  18.0949  18.5009  19.8944  20.2916  20.3631
    20.9169  21.1946  21.1995  21.6696  21.7857  22.4176  25.1375  27.1999
    32.3377  33.0046  33.2940  34.0706  34.8365  34.8684  35.5139  35.7463
    35.9304  36.7993  36.8240  37.5558  38.7816  38.8795  38.9474  39.4002
    39.8100  40.5413  41.1837  41.7507  41.7736  42.6892  43.3565  43.9360
    44.3356  44.5881  45.7175  45.7228

          k = 0.2000 0.1667 0.0000 (  2672 PWs)   bands (ev):

    -8.8216  -8.4560  -1.1305  -0.2119   0.2553   2.8610   3.2043   3.4513
    10.6118  10.6986  10.7750  10.9131  11.0715  11.7173  13.1498  13.4270
    14.7868  17.0588  17.7898  18.1924  19.0845  19.7135  19.8015  20.8796
    20.9744  21.2289  21.3866  21.4442  22.3098  25.2868  25.8973  27.3818
    32.8005  33.4331  34.0104  34.8855  35.3911  35.4107  35.8795  35.9807
    36.6392  36.7223  36.8563  37.6982  37.8308  38.8613  39.1203  39.6038
    40.0509  40.4622  40.9343  41.4081  42.0225  42.3538  42.7175  42.8311
    43.1627  44.5771  45.2683  45.6382

          k = 0.2000 0.1667 0.1429 (  2665 PWs)   bands (ev):

    -8.7914  -8.4606  -1.1098  -0.1187   0.0974   2.8534   3.0450   3.3400
    10.4778  10.6999  10.7960  11.2262  11.4086  11.5474  13.5563  13.6425
    14.6432  17.3724  17.5697  17.9795  19.2082  19.9833  20.0387  20.7046
    20.9423  21.3056  21.4007  21.5550  21.7067  25.2404  25.8325  26.1897
    32.9902  33.3460  33.4877  34.9402  35.3417  35.5567  35.7720  36.0851
    36.1625  36.7411  36.9396  37.4147  38.6743  38.8373  39.3912  39.6229
    39.9190  40.6082  40.8664  41.5248  41.5623  42.5370  43.0112  43.0510
    44.0237  44.1936  44.5812  45.1494

          k = 0.2000 0.1667 0.2857 (  2655 PWs)   bands (ev):

    -8.7126  -8.4813  -1.0511  -0.3118   0.2476   2.3835   2.9081   3.2416
    10.4190  10.8114  11.0341  11.1648  11.6363  11.8830  13.8794  14.2630
    15.4345  17.1356  17.4762  18.1270  19.1393  20.0136  20.2853  20.5127
    20.7853  21.1293  21.3643  21.5875  21.7416  23.6693  25.1781  25.7146
    32.7430  33.3453  33.6277  33.9836  34.5561  34.9574  35.7304  36.0009
    36.2026  36.8229  37.3340  37.6929  38.4587  39.2212  39.3647  39.6246
    40.0742  40.7996  41.2766  42.1090  42.2430  42.5311  42.8869  43.0207
    44.0355  44.4074  44.6172  45.3864

          k = 0.2000 0.1667 0.4286 (  2655 PWs)   bands (ev):

    -8.6150  -8.5317  -0.9279  -0.6759   0.8141   1.5692   2.9686   3.1504
    10.4270  10.6544  11.1101  11.2353  11.9192  12.2090  14.1671  14.6957
    16.7653  17.0574  17.8225  18.1341  18.2373  19.7814  20.1587  20.3973
    20.9496  21.1146  21.2851  21.5369  21.8435  22.0149  25.0687  25.6014
    32.6529  32.7799  33.6053  34.0586  34.2642  34.7941  35.2101  35.4441
    36.0620  36.7544  37.2654  37.9308  38.4770  38.9503  39.2458  39.7884
    40.4437  40.8454  41.7705  42.2428  42.6507  43.0756  43.1701  43.9298
    44.0850  44.4705  44.8464  45.1037

          k = 0.2000 0.3333 0.0000 (  2656 PWs)   bands (ev):

    -8.7111  -8.4973  -1.0820  -0.5295   0.5736   2.1886   3.0622   3.5223
    10.4411  10.4567  10.8993  10.9482  11.3713  12.2195  13.4449  14.3227
    16.2790  16.4592  17.6510  18.2756  19.0808  19.6063  20.5429  20.5489
    20.7861  21.0023  21.3643  21.6351  22.3878  22.8345  25.2085  27.2531
    32.3563  33.3954  33.9312  34.2133  34.5238  35.1833  35.5070  35.6378
    35.8968  36.9714  37.1655  37.9776  38.0170  38.7253  39.0046  39.6501
    40.2619  40.5412  40.9922  41.5058  42.0251  42.2996  43.3403  43.3424
    43.8084  44.9501  45.5380  45.6122

          k = 0.2000 0.3333 0.1429 (  2657 PWs)   bands (ev):

    -8.6882  -8.4948  -1.0352  -0.4642   0.4475   2.1363   2.9707   3.2750
    10.3734  10.7899  10.9796  11.1377  11.6504  12.0719  13.7684  14.4305
    16.0852  16.9083  17.4507  18.2323  18.8969  19.8376  20.3001  20.6261
    20.8429  21.1167  21.4061  21.5742  21.8885  22.8741  25.1534  26.0351
    32.6289  33.1650  33.8379  34.0453  34.1781  35.0659  35.6555  35.7069
    36.0587  36.7391  37.4545  37.8104  38.4426  38.9120  39.3337  39.6532
    40.1704  40.9746  41.0520  42.0322  42.2624  42.7134  43.1680  43.4049
    43.9395  44.4708  44.8769  45.3834

          k = 0.2000 0.3333 0.2857 (  2656 PWs)   bands (ev):

    -8.6302  -8.4951  -0.9309  -0.3446   0.2957   1.9446   2.5159   3.0062
    10.5131  11.0739  11.2280  11.4700  11.7937  12.3483  14.4904  15.0975
    15.9652  16.9990  17.7847  18.1036  18.6030  19.7390  20.0013  20.4442
    20.9269  20.9820  21.2674  21.5540  21.8397  22.7036  23.6291  25.0287
    32.9359  33.0062  33.3539  33.8875  34.2697  34.6200  35.1367  35.6814
    36.0806  36.6500  37.7542  38.1387  38.6808  39.0047  39.4744  39.7845
    40.6676  41.0192  41.8614  42.2607  42.5843  42.9256  43.5448  43.6287
    44.4228  44.5765  44.7680  45.4946

          k = 0.2000 0.3333 0.4286 (  2643 PWs)   bands (ev):

    -8.5634  -8.5148  -0.8131  -0.4593   0.6475   1.3394   2.2661   2.8868
    10.6283  11.0111  11.3828  11.5851  12.1654  12.8169  14.8761  15.7948
    16.5425  17.2473  17.6625  18.0398  18.4470  19.4583  19.7647  20.3842
    20.4889  20.8183  21.1497  21.5302  21.7062  22.0077  22.7181  24.9129
    32.6177  32.8640  33.6476  34.0238  34.2851  34.5976  35.1580  35.4675
    35.7377  36.2403  37.3822  38.3559  38.7284  38.9057  39.5210  39.8535
    40.5582  41.4935  41.9279  42.3430  43.1130  43.5263  43.8551  44.3200
    44.3982  44.7518  45.1218  45.5755

          k = 0.2000-0.5000 0.0000 (  2658 PWs)   bands (ev):

    -8.5867  -8.5866  -0.9846  -0.8015   1.2715   1.3210   3.0423   3.5589
    10.2716  10.3120  10.9706  11.1220  11.4159  12.4412  14.1111  14.4703
    16.2077  17.3873  17.9803  18.0237  19.2102  19.3050  20.0978  20.1585
    20.8945  21.1278  21.3934  21.6140  21.7395  22.4263  25.1210  27.1865
    32.2765  33.1196  33.1495  33.7008  34.9119  35.0350  35.4037  35.8358
    36.1121  36.5817  36.7947  37.4365  38.5949  38.8182  39.1436  39.5529
    39.7172  40.6495  41.1311  41.6182  41.9017  43.0981  43.1778  43.4471
    44.6097  44.8362  45.6774  45.7253

          k = 0.2000-0.5000 0.1429 (  2658 PWs)   bands (ev):

    -8.5740  -8.5740  -0.8823  -0.7940   1.1925   1.2143   3.0011   3.2336
    10.4323  10.4965  11.1533  11.1605  11.8262  12.2804  14.3573  14.5486
    16.6221  17.1451  18.0138  18.0566  19.0298  19.0315  20.1338  20.1568
    21.0105  21.2082  21.2811  21.4760  21.8094  22.0893  25.0708  25.9570
    32.5274  32.7149  33.7617  33.8251  34.3956  34.5901  35.5222  35.6098
    35.9825  36.5555  37.0458  38.1843  38.2747  38.6387  39.2288  39.7063
    40.6161  40.8274  41.6935  42.1860  42.7587  43.3176  43.3814  43.4375
    43.7273  44.3320  45.0854  45.1295

          k = 0.2000-0.5000 0.2857 (  2648 PWs)   bands (ev):

    -8.5452  -8.5452  -0.7839  -0.6103   1.0063   1.0368   2.5048   2.9031
    10.6493  10.8264  11.4324  11.4841  12.1124  12.6594  14.8341  15.3105
    16.6758  17.4399  17.7986  18.0401  18.7135  18.8913  20.0302  20.0431
    20.7497  20.9164  21.2142  21.4712  21.6563  21.9517  23.5020  24.9415
    32.7440  32.7711  33.5991  34.0506  34.3218  34.4288  35.2014  35.3564
    35.8026  36.6630  36.6855  38.4043  38.5936  39.3773  39.6253  39.7889
    40.6657  41.5196  41.7843  42.3607  43.2954  43.3090  43.8932  43.9191
    44.2114  44.3517  44.9636  45.4692

          k = 0.2000-0.5000 0.4286 (  2646 PWs)   bands (ev):

    -8.5217  -8.5217  -0.7842  -0.3257   0.9163   0.9354   1.8344   2.8187
    10.7756  11.0540  11.1805  11.8700  12.5585  13.2029  15.3611  16.2848
    16.8978  17.1512  17.4611  18.0677  19.1069  19.2230  19.5335  19.9934
    20.2649  20.3055  20.9790  21.2329  21.6209  21.6299  22.1356  24.8271
    32.5915  32.7328  33.4446  34.1052  34.3692  35.0664  35.3937  35.4225
    35.6188  36.4827  37.2452  37.6039  38.7707  38.8414  39.4208  39.6461
    40.2618  41.5217  41.8624  42.2750  43.0380  44.0786  44.1509  44.5265
    44.9783  45.1667  45.6541  45.9840

          k = 0.4000 0.0000 0.0000 (  2657 PWs)   bands (ev):

    -8.6993  -8.5366  -1.0703  -0.7565   0.9919   1.9943   3.4999   3.4999
    10.2799  10.2799  10.9413  11.2296  11.2296  11.3873  13.1730  14.1965
    16.9175  16.9175  17.5303  18.3786  18.4573  19.1867  20.0061  20.8547
    20.8547  21.4837  21.6193  21.6193  22.3981  22.3981  27.2887  27.2887
    32.1244  33.5697  33.5697  33.9069  35.3692  35.3692  35.4956  35.6700
    36.2035  36.9158  36.9592  37.5252  37.8883  37.8883  39.5752  39.8383
    39.9521  39.9521  40.1548  41.7977  42.3428  42.6637  42.7816  42.7816
    43.9589  45.1459  45.6340  45.9299

          k = 0.4000 0.0000 0.1429 (  2659 PWs)   bands (ev):

    -8.6782  -8.5310  -1.0508  -0.7171   0.8941   1.9051   3.2547   3.5238
    10.3284  10.3625  10.8781  11.0793  11.3131  12.0182  13.4335  14.3372
    16.5554  17.1249  17.5426  18.2590  18.5027  19.5462  20.2663  20.7588
    20.9606  21.0826  21.5235  21.6455  22.0853  22.4051  26.0723  27.2477
    32.2913  33.1321  33.5139  34.2465  34.8802  34.8995  35.6770  36.1345
    36.3460  36.6241  36.9730  37.1676  38.2395  38.3619  39.3036  39.4377
    39.6491  40.4643  41.0853  42.0240  42.0989  42.3495  43.3287  43.4924
    44.2234  44.5941  44.8969  45.4117

          k = 0.4000 0.0000 0.2857 (  2657 PWs)   bands (ev):

    -8.6257  -8.5228  -1.0379  -0.6039   0.7654   1.6816   2.6963   3.5805
    10.1973  10.4410  10.7634  11.3216  11.7917  12.8108  14.0664  15.1467
    15.9279  17.0859  17.7987  18.0555  18.7408  19.9617  20.1823  20.6908
    20.7495  20.8417  21.2992  21.7151  21.7715  22.4161  23.6594  27.1510
    32.3143  32.9997  33.2767  33.7159  34.4874  34.8754  35.1033  35.7581
    35.9988  36.5774  37.1655  38.4611  38.5808  38.7304  39.0116  39.4157
    39.8073  40.5235  40.8094  42.0093  42.3836  42.7126  43.5832  43.9285
    44.6316  45.1693  45.4332  45.8150

          k = 0.4000 0.0000 0.4286 (  2657 PWs)   bands (ev):

    -8.5680  -8.5310  -1.0472  -0.5266   0.9127   1.3270   2.2535   3.6277
     9.9811  10.5005  10.5675  11.7449  12.3598  13.2909  14.6317  15.5107
    16.4834  17.1944  17.4141  17.8477  19.0864  19.6370  19.9484  20.4968
    20.6027  20.7937  21.1710  21.7928  21.8523  21.9587  22.4022  27.0681
    32.0291  32.2523  32.6699  33.9673  34.1912  35.0964  35.2821  36.2794
    36.4508  36.9548  37.2028  37.7084  37.9410  38.0542  38.3292  39.6594
    40.0093  40.2879  40.9658  41.4776  43.2627  43.6820  44.5182  45.0953
    45.3948  45.3787  45.7593  46.4862

          k = 0.4000 0.1667 0.0000 (  2659 PWs)   bands (ev):

    -8.6711  -8.5294  -1.0465  -0.7021   0.8662   1.8754   3.1740   3.5319
    10.3444  10.3606  10.9185  11.0314  11.3583  12.1678  13.5289  14.4026
    16.4519  17.1521  17.5769  18.2222  18.5258  19.6516  20.3422  20.6712
    20.9995  21.0200  21.4392  21.6568  22.0116  22.4075  25.7050  27.2341
    32.3247  33.0783  33.4923  34.2731  34.8028  34.8657  35.6996  35.9111
    36.0921  36.7723  36.9341  37.3257  38.3876  38.6536  39.2768  39.2909
    39.7143  40.5416  41.1194  41.9700  42.0065  42.2904  43.3477  43.7012
    44.3579  44.4397  45.2395  45.4742

          k = 0.4000 0.1667 0.1429 (  2662 PWs)   bands (ev):

    -8.6515  -8.5233  -0.9961  -0.6576   0.7589   1.7986   3.1183   3.2688
    10.3528  10.6190  10.9342  11.1667  11.7925  12.0332  13.7918  14.5187
    16.7618  16.9647  17.4938  18.2273  18.4058  19.7966  20.2748  20.7126
    20.9158  21.0944  21.3040  21.6329  21.9430  22.1705  25.6554  26.0123
    32.5960  32.8345  33.6138  34.2529  34.2800  34.9539  35.4110  35.7571
    36.1004  36.8680  37.1889  37.7579  38.2697  38.7449  39.0817  39.6025
    40.1191  40.7529  41.7052  42.2929  42.3850  42.7566  43.1375  43.6241
    44.0244  44.4039  44.9128  45.2393

          k = 0.4000 0.1667 0.2857 (  2650 PWs)   bands (ev):

    -8.6029  -8.5133  -0.9136  -0.5189   0.6010   1.6043   2.5622   3.1120
    10.4464  10.8592  11.2654  11.3554  11.9162  12.6204  14.4399  15.2302
    16.4532  17.0339  17.7665  18.0773  18.4256  19.7246  19.9620  20.5091
    20.7634  21.0165  21.2998  21.4920  21.8330  22.1021  23.5813  25.5398
    32.6472  32.8838  33.5004  33.8864  34.2440  34.8624  35.3149  35.3981
    35.5366  36.4457  37.5822  38.4242  38.6791  38.8583  39.3858  40.0966
    40.4750  41.0381  41.5432  42.0891  42.7788  43.1141  43.6669  43.9562
    44.4107  44.6336  45.1458  45.3004

          k = 0.4000 0.1667 0.4286 (  2652 PWs)   bands (ev):

    -8.5503  -8.5181  -0.8699  -0.4203   0.7543   1.2361   2.0713   3.0546
    10.5093  10.9342  11.0507  11.7399  12.3833  13.1219  14.9622  16.1154
    16.5781  17.1524  17.4254  17.9516  18.8903  19.4537  19.8975  20.0441
    20.3839  20.7290  21.0932  21.5914  21.7567  21.8433  22.2025  25.4386
    32.3943  32.5724  33.5696  33.9253  34.5660  34.6711  34.8743  35.7522
    35.8554  36.4491  37.1458  37.7003  38.8191  39.1249  39.5247  39.8757
    40.2700  40.9496  41.3038  42.4962  42.7098  43.9231  44.0622  44.7250
    44.9915  45.2216  45.4302  45.9185

          k = 0.4000 0.3333 0.0000 (  2652 PWs)   bands (ev):

    -8.6056  -8.5227  -1.0403  -0.5676   0.7737   1.5813   2.5121   3.5998
    10.1105  10.4786  10.6676  11.4953  12.0149  13.0066  14.2594  15.6384
    15.7512  17.0596  17.7254  17.9991  18.8835  19.7182  20.3535  20.5722
    20.6414  20.7705  21.4667  21.6024  21.8416  22.4159  22.8674  27.1179
    32.2398  32.7951  33.0986  33.6369  34.2340  34.8607  35.2847  36.0605
    36.1776  36.4371  37.2697  38.2336  38.3245  38.6222  38.8223  39.3617
    40.2686  40.3400  40.7542  41.6869  42.8619  43.2664  43.9009  44.1984
    44.7441  45.2854  45.3434  45.9089

          k = 0.4000 0.3333 0.1429 (  2654 PWs)   bands (ev):

    -8.5897  -8.5149  -0.9314  -0.4973   0.6440   1.5261   2.3944   3.2109
    10.3688  10.8288  11.0606  11.4940  12.0554  12.8725  14.5192  15.6886
    16.1862  17.0127  17.7397  18.0295  18.6405  19.6028  20.0307  20.4535
    20.5871  20.9604  21.3300  21.5292  21.8390  22.1926  22.8206  25.8776
    32.5224  32.6718  33.5470  33.8337  34.3579  34.6085  35.2392  35.6323
    35.7549  36.2224  37.4949  38.0824  38.8296  38.9799  39.5236  39.8924
    40.5227  40.6108  41.2988  42.2850  42.6029  43.3449  43.6814  44.2488
    44.7722  44.8704  45.2750  45.5354

          k = 0.4000 0.3333 0.2857 (  2651 PWs)   bands (ev):

    -8.5514  -8.4992  -0.6632  -0.2660   0.3615   1.4291   2.0373   2.4210
    10.9716  11.4104  11.6395  11.8968  12.2256  12.5378  15.4530  15.9082
    16.6624  17.4640  17.6941  18.0742  18.1276  19.1930  19.6420  20.2892
    20.6151  20.7412  20.9111  21.5253  21.6567  21.7570  22.5919  23.3657
    32.9670  33.2488  33.5686  33.8249  34.5673  34.8056  35.2113  35.7723
    35.8664  36.4353  37.2242  37.8849  38.5079  38.8896  39.1589  39.8455
    41.0602  41.9149  42.1981  42.6200  43.1839  43.8141  44.1477  44.4629
    44.6580  44.8161  45.0980  45.5024

          k = 0.4000 0.3333 0.4286 (  2646 PWs)   bands (ev):

    -8.5127  -8.4940  -0.3986  -0.0971   0.4172   1.1199   1.5931   1.9492
    11.4130  11.7675  11.8834  12.1442  12.4252  12.6945  16.1309  16.7074
    16.9889  17.2206  17.7446  18.1429  18.5594  19.0786  19.5639  19.9340
    20.2217  20.4175  20.6404  21.1450  21.2135  21.4488  21.4855  22.3602
    33.4066  33.5935  33.7283  34.5050  34.9243  35.1064  35.4430  35.8908
    35.9686  36.1396  37.0672  37.6079  38.0857  38.3859  38.9006  39.7804
    40.5693  41.4925  42.1624  42.3076  43.2732  43.3900  44.6363  44.9417
    45.0276  45.1668  45.4052  45.9386

          k = 0.4000-0.5000 0.0000 (  2650 PWs)   bands (ev):

    -8.5458  -8.5458  -1.0492  -0.5194   1.0883   1.1251   2.1938   3.6349
     9.9493  10.4777  10.5728  11.8064  12.4445  13.3684  14.7710  15.4535
    16.5865  17.3441  17.3472  17.8397  19.3311  19.4063  19.7429  20.4829
    20.7250  20.7252  20.8913  21.7291  21.9126  21.9685  22.3941  27.0562
    31.9108  32.1654  32.5370  33.9290  34.6937  34.9088  35.2069  36.2724
    36.6120  36.9229  37.3768  37.4447  37.8676  38.1985  38.2537  39.5453
    39.5874  40.0993  41.2573  41.8829  42.9312  43.8929  44.4481  45.1762
    45.4257  45.6245  46.0022  46.8169

          k = 0.4000-0.5000 0.1429 (  2650 PWs)   bands (ev):

    -8.5345  -8.5345  -0.9129  -0.4410   0.9941   1.0271   2.0574   3.1875
    10.4039  10.7745  10.9329  11.7956  12.4619  13.2432  15.0023  15.9169
    16.6296  17.3222  17.3800  17.9637  19.2175  19.2805  19.6057  20.1616
    20.5149  20.5274  21.0352  21.6068  21.7749  21.8286  22.2723  25.8066
    32.3202  32.3536  33.1601  33.9991  34.7186  34.9447  35.2346  35.3091
    35.7930  36.5596  37.1911  37.9122  38.2695  38.8431  39.6235  39.9287
    40.3469  40.6338  41.2816  41.8197  42.6916  44.1147  44.4669  44.9306
    45.2674  45.2703  45.7187  45.9694

          k = 0.4000-0.5000 0.2857 (  2640 PWs)   bands (ev):

    -8.5086  -8.5086  -0.5145  -0.2317   0.7985   0.8187   1.7168   2.2224
    11.2726  11.4581  11.7797  11.9179  12.5001  12.9069  15.8318  16.5979
    17.1588  17.2186  17.4000  18.2759  18.8321  19.0569  19.5225  19.8052
    20.1538  20.2733  20.8734  21.0603  21.3357  21.5232  21.7544  23.2262
    33.1267  33.4603  33.8376  34.0220  34.8330  35.2450  35.2532  35.2622
    35.8411  36.7333  36.8739  37.8608  38.1979  38.6021  39.0377  39.8243
    40.3591  41.5912  42.7982  42.9711  43.1885  43.3192  44.2556  44.3995
    44.5941  45.2824  45.3251  45.7840

          k = 0.4000-0.5000 0.4286 (  2640 PWs)   bands (ev):

    -8.4876  -8.4876  -0.0104   0.0767   0.6682   0.6724   1.2527   1.3701
    11.9567  11.9902  12.2641  12.2814  12.5648  12.6517  16.5430  16.5559
    17.3875  17.7174  18.3498  18.5632  19.0373  19.0431  19.4991  19.6018
    19.9257  20.0189  20.4553  20.4786  20.7558  20.7769  20.9010  21.0690
    34.1082  34.1247  34.5394  34.6550  35.4950  35.5681  35.6328  35.7727
    35.9898  36.3466  36.9107  37.0668  37.8449  38.0375  38.6288  39.0564
    40.6754  40.9337  41.9600  41.9810  42.1658  42.1816  43.5044  43.5559
    46.3114  46.4336  46.6968  47.0395

     the Fermi energy is    41.0354 ev

!    total energy              =    -677.97228059 Ry
     Harris-Foulkes estimate   =    -677.97227832 Ry
     estimated scf accuracy    <       0.00001007 Ry

     The total energy is the sum of the following terms:

     one-electron contribution =     246.53573567 Ry
     hartree contribution      =      19.46153962 Ry
     xc contribution           =     -97.54085435 Ry
     ewald contribution        =    -846.18455522 Ry
     smearing contrib. (-TS)   =      -0.24414631 Ry

     convergence has been achieved in   6 iterations

     Forces acting on atoms (Ry/au):

     atom    1 type  1   force =     0.00000000    0.00000000    0.00000000
     atom    2 type  1   force =     0.00000000    0.00000000    0.00000000
     atom    3 type  1   force =     0.00000000    0.00000000    0.00000000
     atom    4 type  1   force =     0.00000000    0.00000000    0.00000000
     atom    5 type  1   force =     0.00000000    0.00000000    0.00000000
     atom    6 type  1   force =     0.00000000    0.00000000    0.00000000
     atom    7 type  2   force =     0.00000000    0.00000000    0.00000000
     atom    8 type  2   force =     0.00000000    0.00000000    0.00000000

     Total force =     0.000000     Total SCF correction =     0.000000


     entering subroutine stress ...

          total   stress  (Ry/bohr**3)                   (kbar)     P= 4824.58
   0.03279680   0.00000000   0.00000000       4824.58      0.00      0.00
   0.00000000   0.03279680   0.00000000          0.00   4824.58      0.00
   0.00000000   0.00000000   0.03279680          0.00      0.00   4824.58


     BFGS Geometry Optimization

     number of scf cycles    =   1
     number of bfgs steps    =   0

     enthalpy new            =    -677.9722805915 Ry

     new trust radius        =       0.5000000000 bohr
     new conv_thr            =       0.0001000000 Ry

     new unit-cell volume =    828.02266 a.u.^3 (   122.70030 Ang^3 )

CELL_PARAMETERS (alat=  8.53457320)
   1.100269143   0.000000000   0.000000000
   0.000000000   1.100269143   0.000000000
   0.000000000   0.000000000   1.100269143

ATOMIC_POSITIONS (crystal)
Cr       0.000000000   0.500000000   0.250000000
Cr       0.000000000   0.500000000   0.750000000
Cr       0.500000000   0.750000000   0.000000000
Cr       0.500000000   0.250000000   0.000000000
Cr       0.750000000   0.000000000   0.500000000
Cr       0.250000000   0.000000000   0.500000000
Si       0.500000000   0.500000000   0.500000000
Si       0.000000000   0.000000000   0.000000000



     Writing output data file Prototype-La-cP8-Cr3Si.save
     NEW-OLD atomic charge density approx. for the potential
     NEW k-points:
        k(    1) = (   0.0000000   0.0000000   0.0000000), wk =   0.0095238
        k(    2) = (   0.0000000   0.0000000   0.1298384), wk =   0.0190476
        k(    3) = (   0.0000000   0.0000000   0.2596767), wk =   0.0190476
        k(    4) = (   0.0000000   0.0000000   0.3895151), wk =   0.0190476
        k(    5) = (   0.0000000   0.1514781   0.0000000), wk =   0.0190476
        k(    6) = (   0.0000000   0.1514781   0.1298384), wk =   0.0380952
        k(    7) = (   0.0000000   0.1514781   0.2596767), wk =   0.0380952
        k(    8) = (   0.0000000   0.1514781   0.3895151), wk =   0.0380952
        k(    9) = (   0.0000000   0.3029562   0.0000000), wk =   0.0190476
        k(   10) = (   0.0000000   0.3029562   0.1298384), wk =   0.0380952
        k(   11) = (   0.0000000   0.3029562   0.2596767), wk =   0.0380952
        k(   12) = (   0.0000000   0.3029562   0.3895151), wk =   0.0380952
        k(   13) = (   0.0000000  -0.4544343   0.0000000), wk =   0.0095238
        k(   14) = (   0.0000000  -0.4544343   0.1298384), wk =   0.0190476
        k(   15) = (   0.0000000  -0.4544343   0.2596767), wk =   0.0190476
        k(   16) = (   0.0000000  -0.4544343   0.3895151), wk =   0.0190476
        k(   17) = (   0.1817737   0.0000000   0.0000000), wk =   0.0190476
        k(   18) = (   0.1817737   0.0000000   0.1298384), wk =   0.0380952
        k(   19) = (   0.1817737   0.0000000   0.2596767), wk =   0.0380952
        k(   20) = (   0.1817737   0.0000000   0.3895151), wk =   0.0380952
        k(   21) = (   0.1817737   0.1514781   0.0000000), wk =   0.0380952
        k(   22) = (   0.1817737   0.1514781   0.1298384), wk =   0.0761905
        k(   23) = (   0.1817737   0.1514781   0.2596767), wk =   0.0761905
        k(   24) = (   0.1817737   0.1514781   0.3895151), wk =   0.0761905
        k(   25) = (   0.1817737   0.3029562   0.0000000), wk =   0.0380952
        k(   26) = (   0.1817737   0.3029562   0.1298384), wk =   0.0761905
        k(   27) = (   0.1817737   0.3029562   0.2596767), wk =   0.0761905
        k(   28) = (   0.1817737   0.3029562   0.3895151), wk =   0.0761905
        k(   29) = (   0.1817737  -0.4544343   0.0000000), wk =   0.0190476
        k(   30) = (   0.1817737  -0.4544343   0.1298384), wk =   0.0380952
        k(   31) = (   0.1817737  -0.4544343   0.2596767), wk =   0.0380952
        k(   32) = (   0.1817737  -0.4544343   0.3895151), wk =   0.0380952
        k(   33) = (   0.3635474   0.0000000   0.0000000), wk =   0.0190476
        k(   34) = (   0.3635474   0.0000000   0.1298384), wk =   0.0380952
        k(   35) = (   0.3635474   0.0000000   0.2596767), wk =   0.0380952
        k(   36) = (   0.3635474   0.0000000   0.3895151), wk =   0.0380952
        k(   37) = (   0.3635474   0.1514781   0.0000000), wk =   0.0380952
        k(   38) = (   0.3635474   0.1514781   0.1298384), wk =   0.0761905
        k(   39) = (   0.3635474   0.1514781   0.2596767), wk =   0.0761905
        k(   40) = (   0.3635474   0.1514781   0.3895151), wk =   0.0761905
        k(   41) = (   0.3635474   0.3029562   0.0000000), wk =   0.0380952
        k(   42) = (   0.3635474   0.3029562   0.1298384), wk =   0.0761905
        k(   43) = (   0.3635474   0.3029562   0.2596767), wk =   0.0761905
        k(   44) = (   0.3635474   0.3029562   0.3895151), wk =   0.0761905
        k(   45) = (   0.3635474  -0.4544343   0.0000000), wk =   0.0190476
        k(   46) = (   0.3635474  -0.4544343   0.1298384), wk =   0.0380952
        k(   47) = (   0.3635474  -0.4544343   0.2596767), wk =   0.0380952
        k(   48) = (   0.3635474  -0.4544343   0.3895151), wk =   0.0380952

     total cpu time spent up to now is      107.6 secs

     Self-consistent Calculation

     iteration #  1     ecut=    40.00 Ry     beta=0.70
     CG style diagonalization
     c_bands:  3 eigenvalues not converged
     c_bands:  1 eigenvalues not converged
     c_bands:  5 eigenvalues not converged
     c_bands:  5 eigenvalues not converged
     c_bands:  2 eigenvalues not converged
     c_bands:  2 eigenvalues not converged
     c_bands:  1 eigenvalues not converged
     c_bands:  1 eigenvalues not converged
     c_bands:  2 eigenvalues not converged
     c_bands:  3 eigenvalues not converged
     c_bands:  1 eigenvalues not converged
     c_bands:  2 eigenvalues not converged
     c_bands:  5 eigenvalues not converged
     c_bands:  1 eigenvalues not converged
     c_bands:  1 eigenvalues not converged
     c_bands:  1 eigenvalues not converged
     ethr =  1.00E-06,  avg # of iterations = 21.3

     total cpu time spent up to now is      162.7 secs

     total energy              =    -679.88768193 Ry
     Harris-Foulkes estimate   =    -685.43401569 Ry
     estimated scf accuracy    <       7.83694219 Ry

     iteration #  2     ecut=    40.00 Ry     beta=0.70
     CG style diagonalization
     ethr =  7.84E-03,  avg # of iterations =  3.9

     total cpu time spent up to now is      172.4 secs

     total energy              =    -680.36782829 Ry
     Harris-Foulkes estimate   =    -682.80236616 Ry
     estimated scf accuracy    <       3.92237021 Ry

     iteration #  3     ecut=    40.00 Ry     beta=0.70
     CG style diagonalization
     ethr =  3.92E-03,  avg # of iterations =  3.7

     total cpu time spent up to now is      181.9 secs

     total energy              =    -681.71052623 Ry
     Harris-Foulkes estimate   =    -682.20480590 Ry
     estimated scf accuracy    <       1.08696574 Ry

     iteration #  4     ecut=    40.00 Ry     beta=0.70
     CG style diagonalization
     ethr =  1.09E-03,  avg # of iterations =  3.4

     total cpu time spent up to now is      190.5 secs

     total energy              =    -681.87184882 Ry
     Harris-Foulkes estimate   =    -681.88460720 Ry
     estimated scf accuracy    <       0.02828058 Ry

     iteration #  5     ecut=    40.00 Ry     beta=0.70
     CG style diagonalization
     c_bands:  1 eigenvalues not converged
     ethr =  2.83E-05,  avg # of iterations =  4.8

     total cpu time spent up to now is      204.5 secs

     total energy              =    -681.89036628 Ry
     Harris-Foulkes estimate   =    -681.89439907 Ry
     estimated scf accuracy    <       0.00959029 Ry

     iteration #  6     ecut=    40.00 Ry     beta=0.70
     CG style diagonalization
     c_bands:  1 eigenvalues not converged
     c_bands:  1 eigenvalues not converged
     ethr =  9.59E-06,  avg # of iterations =  3.6

     total cpu time spent up to now is      213.5 secs

     End of self-consistent calculation

          k = 0.0000 0.0000 0.0000 (  2601 PWs)   bands (ev):

   -17.5842 -17.5052  -9.1903  -8.3093  -8.3093  -6.4750  -6.4750  -6.4750
     3.1121   3.1121   3.1121   3.4501   3.4501   3.4501   5.4861   5.4861
     6.6056   9.1147   9.1147   9.1147  10.1905  10.1905  10.1905  11.5515
    11.5515  11.5515  11.6818  11.6818  11.6818  15.1080  15.1080  15.1080
    25.3820  25.3820  25.3820  25.7050  25.7050  25.7715  26.3039  27.8359
    27.8359  27.8359  28.0144  28.9155  28.9155  29.0667  29.0667  29.0667
    29.3758  29.3758  29.3758  29.6228  29.6229  29.7472  33.6213  33.6217
    33.6214  33.6901  34.0526  34.0528

          k = 0.0000 0.0000 0.1298 (  2657 PWs)   bands (ev):

   -17.5813 -17.5073  -9.1550  -8.3701  -8.2470  -6.5986  -6.4717  -6.4717
     3.1059   3.1059   3.2082   3.3930   3.3930   3.4165   5.6217   5.6510
     6.7160   8.9904   8.9904   9.1949  10.2371  10.3676  10.3676  11.3423
    11.4594  11.5431  11.5431  11.7216  11.7216  14.4187  15.0908  15.0908
    24.7190  25.5712  25.5712  25.8496  25.8668  26.3872  26.4261  27.0972
    27.0972  27.7844  28.0357  28.2481  28.7922  28.7922  29.2685  29.3065
    29.4435  29.5495  29.8736  29.8735  29.9273  30.4661  32.6725  33.1550
    33.1550  33.2926  33.5395  34.1864

          k = 0.0000 0.0000 0.2597 (  2677 PWs)   bands (ev):

   -17.5661 -17.5148  -9.0564  -8.5264  -8.0566  -6.9220  -6.4638  -6.4638
     3.0761   3.0761   3.3420   3.3420   3.4039   3.4240   5.8225   5.9249
     7.4921   8.7868   8.7868   9.3390  10.4024  10.5409  10.7309  10.7309
    11.2440  11.5419  11.5419  11.8149  11.8149  12.7767  15.0536  15.0536
    24.0926  25.9192  25.9192  26.1167  26.1166  26.1205  26.2005  26.4001
    26.7290  27.6462  27.9078  28.0930  28.4501  28.4500  28.6959  29.4551
    29.7644  29.8959  30.4612  30.4613  31.4821  32.1380  32.1380  32.1693
    32.7045  33.1769  33.2021  34.3579

          k = 0.0000 0.0000 0.3895 (  2658 PWs)   bands (ev):

   -17.5454 -17.5275  -8.9075  -8.7217  -7.7419  -7.3386  -6.4574  -6.4574
     3.0417   3.0417   3.3295   3.3295   3.4904   3.5315   5.9881   6.1040
     8.6540   8.6540   8.9156   9.5361   9.7742  10.6560  10.8745  10.9555
    10.9987  10.9987  11.5265  11.5265  11.9109  11.9109  15.0287  15.0287
    24.1887  25.0316  25.1954  25.1954  26.5553  26.6522  26.6795  26.6795
    27.0903  27.4093  27.4229  27.7020  28.3057  28.3057  29.4804  29.5706
    30.2077  30.2077  30.5900  30.9372  31.5947  31.8113  31.8113  32.2318
    32.3366  33.4461  34.4938  34.4934

          k = 0.0000 0.1515 0.0000 (  2653 PWs)   bands (ev):

   -17.5791 -17.5081  -9.1426  -8.3908  -8.2243  -6.6411  -6.4705  -6.4705
     3.1035   3.1035   3.2401   3.3858   3.3858   3.4179   5.6681   5.6917
     6.7849   8.9573   8.9573   9.2215  10.2576  10.4248  10.4248  11.2289
    11.4316  11.5441  11.5441  11.7352  11.7352  14.1938  15.0868  15.0869
    24.5790  25.6385  25.6385  25.8862  25.9100  26.4674  26.5897  26.9023
    26.9023  27.7681  27.8225  28.2278  28.7305  28.7305  29.3404  29.3431
    29.3536  29.5777  29.9876  29.9876  30.1539  30.7325  32.5812  33.0165
    33.0159  33.2210  33.5071  34.2122

          k = 0.0000 0.1515 0.1298 (  2662 PWs)   bands (ev):

   -17.5742 -17.5097  -9.1059  -8.3779  -8.2336  -6.6609  -6.5786  -6.4670
     3.1069   3.1495   3.2724   3.3398   3.3456   3.4692   5.7783   5.9334
     6.8256   8.8596   9.0505   9.1612  10.2962  10.4813  10.5971  11.2807
    11.3251  11.4272  11.5316  11.6037  11.7727  14.1635  14.4171  15.0711
    24.7874  24.9995  25.6920  26.0422  26.3377  26.4730  26.5337  26.7336
    26.9478  27.2441  27.7914  28.0967  28.5069  29.0352  29.2698  29.3782
    29.4926  29.9043  30.1657  30.2155  30.4990  30.8361  32.4026  32.8458
    32.9973  33.0788  33.2554  34.5769

          k = 0.0000 0.1515 0.2597 (  2666 PWs)   bands (ev):

   -17.5599 -17.5156  -9.0051  -8.4840  -8.0866  -6.9450  -6.6278  -6.4592
     3.0911   3.1354   3.2905   3.3209   3.4211   3.5779   5.9679   6.2838
     7.4518   8.6761   8.9796   9.2846  10.3395  10.4255  10.9143  10.9548
    11.1578  11.4046  11.4981  11.6473  11.8595  12.8001  14.1647  15.0378
    24.3584  25.2646  25.5547  25.6666  26.1489  26.3234  26.4791  26.7170
    27.1075  27.4458  27.5429  28.1330  28.2309  28.5118  29.1771  29.7231
    30.0144  30.0574  30.4450  31.0871  31.4989  31.8685  31.9623  32.5097
    32.7015  32.7590  33.6081  34.3975

          k = 0.0000 0.1515 0.3895 (  2658 PWs)   bands (ev):

   -17.5420 -17.5260  -8.8619  -8.6606  -7.7759  -7.3680  -6.6310  -6.4530
     3.0607   3.0802   3.2700   3.3515   3.5292   3.6878   6.1238   6.4514
     8.5510   8.6652   9.0523   9.4457   9.7745  10.6246  10.6685  10.8564
    11.0640  11.2537  11.3954  11.6448  11.7445  11.9401  14.1374  15.0154
    24.2575  24.8383  25.0526  25.6026  25.9740  26.4441  26.6589  26.7637
    27.1257  27.1863  27.7635  27.7994  28.3326  28.9791  29.2860  29.3981
    30.1860  30.4696  30.8946  31.0713  31.6910  31.7516  32.0036  32.7421
    33.0429  33.5308  33.6992  33.7109

          k = 0.0000 0.3030 0.0000 (  2677 PWs)   bands (ev):

   -17.5596 -17.5184  -9.0118  -8.5900  -7.9646  -7.0563  -6.4612  -6.4612
     3.0609   3.0609   3.3319   3.3319   3.4391   3.4708   5.8684   6.0138
     7.9167   8.7295   8.7295   9.3839  10.2537  10.4789  10.8417  10.8417
    11.1546  11.5379  11.5379  11.8500  11.8500  12.1556  15.0391  15.0391
    24.0365  25.6178  25.6178  25.8883  26.2852  26.3145  26.3145  26.3493
    26.8494  27.5784  27.7327  28.2013  28.3719  28.3719  28.8491  29.4960
    29.8976  30.1988  30.5042  30.5042  31.7099  31.8829  31.8829  32.2128
    32.9641  33.5373  33.5230  34.4127

          k = 0.0000 0.3030 0.1298 (  2660 PWs)   bands (ev):

   -17.5552 -17.5184  -8.9734  -8.5535  -7.9905  -7.0741  -6.5874  -6.4578
     3.0775   3.1065   3.2944   3.3259   3.4634   3.5875   5.9962   6.2527
     7.8642   8.6488   8.8973   9.3517  10.1748  10.4819  10.9104  10.9516
    11.1277  11.4312  11.5718  11.6289  11.8828  12.2253  14.3733  15.0340
    24.2219  25.2255  25.4852  25.6836  26.1780  26.2159  26.4844  26.8189
    26.9612  27.4229  27.5452  28.1613  28.2815  28.5354  29.2687  29.3915
    30.1491  30.1739  30.5538  30.9115  31.6569  31.8084  32.0945  32.7408
    32.8718  33.3304  33.4357  34.2617

          k = 0.0000 0.3030 0.2597 (  2658 PWs)   bands (ev):

   -17.5455 -17.5196  -8.8836  -8.4735  -8.0017  -7.1553  -6.8733  -6.4502
     3.1010   3.1050   3.2061   3.4042   3.5543   3.7931   6.1821   7.0748
     7.8783   8.4807   9.1632   9.2487  10.0247  10.5281  10.8295  10.8861
    11.2166  11.2695  11.3847  11.7516  11.9513  12.1724  12.8738  15.0053
    24.4400  24.9076  25.0303  25.1734  26.1484  26.1733  26.4396  26.7567
    26.9018  27.7501  27.9471  28.3862  28.6186  28.7274  28.8881  29.6386
    30.2044  30.6351  30.8552  31.1269  31.7074  31.9866  32.1625  32.2465
    32.9003  33.0606  33.4622  34.4242

          k = 0.0000 0.3030 0.3895 (  2654 PWs)   bands (ev):

   -17.5336 -17.5244  -8.8008  -8.4564  -7.8185  -7.4570  -7.0161  -6.4440
     3.0450   3.0936   3.1606   3.4891   3.6849   3.9447   6.3728   7.6030
     8.3540   8.6070   9.1617   9.2592   9.9278  10.4853  10.6266  10.7538
    10.8476  11.1477  11.4522  11.6459  11.8099  12.0136  12.2811  14.9779
    24.1953  24.5170  24.5795  25.4189  26.0236  26.0728  26.7618  27.1068
    27.1812  27.6492  27.8327  28.3687  28.7270  28.7763  29.4262  29.4509
    29.9988  30.0589  30.4221  30.9987  32.0527  32.2975  32.4681  32.5999
    32.9193  33.9818  34.1440  34.5420

          k = 0.0000-0.4544 0.0000 (  2666 PWs)   bands (ev):

   -17.5361 -17.5361  -8.8181  -8.8181  -7.5476  -7.5476  -6.4565  -6.4565
     3.0351   3.0351   3.3258   3.3258   3.5228   3.5228   6.0726   6.0726
     8.6368   8.6368   9.4753   9.4753   9.9918   9.9918  10.8025  10.8025
    11.0370  11.0370  11.5205  11.5205  11.9232  11.9232  15.0244  15.0244
    24.5260  24.5260  25.0950  25.0950  26.7146  26.7146  26.7848  26.7848
    27.2589  27.2589  27.4171  27.4171  28.3055  28.3055  29.5803  29.5803
    30.0548  30.0548  31.2345  31.2345  31.5755  31.5755  31.8479  31.8479
    32.7415  32.7416  34.7700  34.7697

          k = 0.0000-0.4544 0.1298 (  2666 PWs)   bands (ev):

   -17.5343 -17.5343  -8.8106  -8.7455  -7.5752  -7.5685  -6.5872  -6.4532
     3.0485   3.0630   3.2816   3.3406   3.5309   3.6636   6.1355   6.3643
     8.5577   8.7397   9.4749   9.4808   9.8709   9.9700  10.7373  10.7651
    11.0269  11.2358  11.4202  11.6158  11.7869  11.9451  14.3508  15.0128
    24.3078  24.7244  24.9985  25.4005  26.1677  26.5602  26.7400  26.8184
    27.0671  27.2629  27.5590  27.7842  28.2980  28.7928  29.2637  29.4122
    30.1161  30.6094  31.1230  31.1902  31.5539  31.7521  31.9773  32.7989
    33.0666  33.0999  33.5758  33.5895

          k = 0.0000-0.4544 0.2597 (  2658 PWs)   bands (ev):

   -17.5299 -17.5299  -8.7928  -8.5454  -7.6375  -7.6194  -6.9079  -6.4457
     3.0551   3.0756   3.1871   3.4585   3.6485   3.8990   6.3228   7.2336
     8.3896   8.8517   9.2636   9.4666   9.8963  10.0111  10.6874  10.7070
    10.8589  11.1979  11.4887  11.5808  11.7683  12.0008  12.8180  14.9836
    24.1564  24.6139  24.7762  25.6045  25.6666  26.1132  26.6735  27.0827
    27.1529  27.7059  27.7601  28.0228  28.8307  28.9418  29.1899  29.4035
    30.0564  30.5351  30.9469  31.4128  31.5480  31.9545  31.9841  32.0722
    33.2026  33.7113  34.9029  35.1746

          k = 0.0000-0.4544 0.3895 (  2662 PWs)   bands (ev):

   -17.5267 -17.5267  -8.7776  -8.3064  -7.6878  -7.6796  -7.2193  -6.4395
     2.9957   3.1032   3.1169   3.5596   3.7910   4.0574   6.5545   8.2621
     8.4601   8.7435   9.0875   9.4281   9.9142  10.1937  10.4902  10.6758
    10.6765  11.0629  11.1937  11.3725  11.8425  11.8663  12.0543  14.9571
    24.0632  24.1464  24.1555  25.9245  26.0207  26.0911  27.1881  27.3853
    27.6118  27.6146  27.8648  28.3221  28.5002  28.9146  29.1336  29.2545
    29.4868  29.8876  30.1280  30.3010  31.5730  32.7986  33.0408  33.8615
    34.1553  34.2428  34.4816  34.6934

          k = 0.1818 0.0000 0.0000 (  2661 PWs)   bands (ev):

   -17.5764 -17.5094  -9.1224  -8.4240  -8.1865  -6.7092  -6.4687  -6.4687
     3.0987   3.0987   3.2890   3.3693   3.3693   3.4112   5.7380   5.7399
     6.9218   8.9079   8.9079   9.2564  10.2913  10.5097  10.5097  11.0501
    11.3868  11.5454  11.5454  11.7553  11.7553  13.8354  15.0764  15.0764
    24.4013  25.7471  25.7471  25.9449  25.9787  26.5327  26.6234  26.6233
    26.8416  27.5749  27.7404  28.1677  28.6442  28.6442  29.1655  29.3898
    29.4678  29.6215  30.1430  30.1429  30.5387  31.1579  32.7872  32.7872
    33.1350  33.4503  32.5662  34.2498

          k = 0.1818 0.0000 0.1298 (  2667 PWs)   bands (ev):

   -17.5710 -17.5112  -9.0851  -8.4025  -8.2035  -6.7248  -6.5841  -6.4653
     3.1029   3.1468   3.3053   3.3315   3.3326   3.4884   5.8277   6.0147
     6.9350   8.8145   9.0217   9.1957  10.3234  10.4993  10.6761  11.1509
    11.2823  11.4392  11.5288  11.6123  11.7902  13.8182  14.4028  15.0637
    24.6120  25.1077  25.7445  26.0923  26.1594  26.4466  26.5032  26.8421
    26.9534  27.2766  27.6420  27.9724  28.4293  28.8683  29.2589  29.5981
    29.6051  29.7974  30.2306  30.5768  30.6645  31.1935  32.2737  32.5949
    32.9112  33.0189  33.3417  34.5616

          k = 0.1818 0.0000 0.2597 (  2659 PWs)   bands (ev):

   -17.5573 -17.5160  -8.9843  -8.4710  -8.0905  -6.9591  -6.6898  -6.4575
     3.0947   3.1465   3.2737   3.3304   3.4367   3.6235   6.0074   6.4514
     7.4602   8.6368   9.0429   9.2638  10.2898  10.4381  10.9562  10.9900
    11.1575  11.3319  11.4323  11.6737  11.8765  12.7940  13.8298  15.0331
    24.4418  25.1234  25.4537  25.5747  26.1849  26.3743  26.4612  26.5552
    27.1191  27.5003  27.7213  28.1284  28.1461  28.6553  29.0570  29.7831
    30.1168  30.2324  30.7169  31.1826  31.4327  31.7880  31.8201  32.4548
    32.4818  32.9415  33.7506  34.5314

          k = 0.1818 0.0000 0.3895 (  2660 PWs)   bands (ev):

   -17.5405 -17.5257  -8.8477  -8.6305  -7.7878  -7.3805  -6.7000  -6.4513
     3.0679   3.0819   3.2489   3.3721   3.5477   3.7419   6.1636   6.6248
     8.5116   8.6604   9.1008   9.4044   9.7850  10.6179  10.6197  10.8340
    11.0518  11.3306  11.3443  11.6826  11.6875  11.9529  13.7971  15.0093
    24.2562  24.8675  24.9771  25.5800  25.8730  26.3927  26.5444  26.8230
    26.9885  27.3940  27.8339  27.8399  28.4712  29.0550  29.1840  29.5998
    30.0239  30.6303  30.9846  31.1163  31.4931  31.6975  32.1601  32.7358
    32.7811  33.6943  33.7119  34.1242

          k = 0.1818 0.1515 0.0000 (  2672 PWs)   bands (ev):

   -17.5692 -17.5120  -9.0722  -8.4019  -8.2009  -6.7365  -6.6174  -6.4641
     3.1001   3.1526   3.3201   3.3218   3.3271   3.5077   5.8552   6.0996
     6.9584   8.7859   9.0501   9.1823  10.3361  10.4895  10.7251  11.1811
    11.2551  11.3624  11.4989  11.6258  11.8009  13.8047  14.1915  15.0570
    24.6731  24.9825  25.7490  26.0301  26.1575  26.4193  26.6094  26.7839
    27.0040  27.2925  27.5321  27.9316  28.3525  29.0227  29.2016  29.4555
    29.6853  30.0376  30.3902  30.5707  30.7794  31.2326  32.1516  32.5073
    32.8868  32.9558  33.4699  34.5852

          k = 0.1818 0.1515 0.1298 (  2665 PWs)   bands (ev):

   -17.5645 -17.5126  -9.0314  -8.3469  -8.2505  -6.7378  -6.6504  -6.5663
     3.0905   3.2630   3.2960   3.3313   3.3864   3.4818   6.1336   6.2069
     6.9234   8.9289   9.0044   9.1431  10.1518  10.7340  10.7657  11.0577
    11.2291  11.4066  11.5160  11.6099  11.6602  13.7999  14.1715  14.3935
    24.8717  25.1099  25.3051  26.0026  26.1324  26.3171  26.6734  26.7298
    26.8584  27.0612  27.7876  27.8900  28.4500  29.0023  29.4982  29.8360
    29.9358  30.2175  30.2703  30.5146  30.6149  31.2615  32.6258  32.8314
    32.8744  33.1384  33.4872  34.3066

          k = 0.1818 0.1515 0.2597 (  2655 PWs)   bands (ev):

   -17.5523 -17.5158  -8.9222  -8.4067  -8.1438  -6.9684  -6.7206  -6.6185
     3.1029   3.2911   3.3206   3.3311   3.5099   3.5670   6.4103   6.5484
     7.3799   8.8808   9.0189   9.2440   9.9330  10.7550  10.7814  10.9142
    11.1721  11.3616  11.5209  11.6136  11.7184  12.8131  13.8102  14.1478
    24.7405  25.1546  25.3555  25.5761  25.6236  26.0979  26.7447  26.8006
    27.0061  27.3679  27.5774  27.6383  28.4093  29.1373  29.7274  29.8101
    30.1792  30.5224  30.5892  31.0071  31.6384  32.0968  32.4511  32.7218
    32.7720  33.1107  33.7445  34.1981

          k = 0.1818 0.1515 0.3895 (  2655 PWs)   bands (ev):

   -17.5370 -17.5241  -8.7699  -8.5862  -7.8239  -7.4044  -6.7127  -6.6361
     3.1073   3.1766   3.3462   3.3716   3.6373   3.6920   6.5468   6.6936
     8.5345   8.7887   9.1482   9.3963   9.6012  10.4151  10.6391  10.8054
    11.0805  11.2107  11.5405  11.5981  11.7464  11.8142  13.7831  14.1169
    24.5141  24.6033  25.3407  25.7006  25.8396  26.0301  26.5376  26.7650
    26.9312  27.2030  27.4533  27.8104  28.8530  29.1569  29.3527  29.5281
    30.5331  30.6053  31.5144  31.7181  31.8994  32.1204  32.4587  32.8129
    33.1119  33.2077  33.3687  33.7344

          k = 0.1818 0.3030 0.0000 (  2656 PWs)   bands (ev):

   -17.5519 -17.5184  -8.9408  -8.5219  -8.0057  -7.0937  -6.6951  -6.4550
     3.0875   3.1233   3.2594   3.3465   3.4853   3.6713   6.0647   6.5310
     7.8424   8.5846   9.0156   9.3165  10.1176  10.4942  10.9185  10.9526
    11.1992  11.3394  11.4259  11.6834  11.9070  12.2299  13.8170  15.0226
    24.3463  25.0833  25.3459  25.4439  26.1938  26.2363  26.5456  26.5624
    27.0365  27.4695  27.7898  28.2158  28.3288  28.5274  29.0805  29.8779
    30.2491  30.3641  30.6787  30.9681  31.3857  31.8187  32.2860  32.4338
    32.8088  33.2547  33.7079  34.2582

          k = 0.1818 0.3030 0.1298 (  2657 PWs)   bands (ev):

   -17.5484 -17.5181  -8.8917  -8.4794  -8.0409  -7.1044  -6.7095  -6.5855
     3.0930   3.2311   3.3108   3.3452   3.5413   3.6276   6.3587   6.5881
     7.7739   8.7888   9.0031   9.3117   9.8842  10.6369  10.7636  10.9648
    11.1563  11.3646  11.5617  11.5954  11.7558  12.2749  13.8032  14.3519
    24.5784  24.9611  25.3563  25.5633  25.7441  26.2716  26.5557  26.7810
    27.0222  27.3008  27.4840  27.8078  28.5422  29.0842  29.5015  29.6740
    30.2582  30.5124  30.7843  31.2760  31.8075  32.1496  32.6171  32.6599
    32.7385  33.1250  33.7054  34.0772

          k = 0.1818 0.3030 0.2597 (  2656 PWs)   bands (ev):

   -17.5396 -17.5184  -8.7725  -8.3792  -8.0811  -7.1580  -6.9268  -6.7097
     3.1394   3.3127   3.3625   3.4277   3.5922   3.7054   6.7352   7.1990
     7.7491   8.9140   9.1850   9.2650   9.5897  10.4814  10.7462  10.8822
    11.2072  11.2153  11.4777  11.6308  11.7720  12.2464  12.8367  13.7760
    24.7984  24.9383  25.1706  25.5691  25.7215  25.8206  26.4628  26.7856
    26.8488  27.2488  27.6306  28.0499  28.6392  28.9471  29.6538  29.7551
    30.8163  31.1316  31.3238  31.4477  32.0025  32.1432  32.7047  32.8359
    32.9628  33.4249  33.7870  33.9289

          k = 0.1818 0.3030 0.3895 (  2643 PWs)   bands (ev):

   -17.5290 -17.5217  -8.6498  -8.3964  -7.8752  -7.4748  -7.0694  -6.7284
     3.1755   3.2763   3.3730   3.4886   3.7015   3.8548   6.8919   7.6752
     8.4892   8.8646   9.1255   9.2733   9.6821  10.3671  10.4924  10.7348
    10.9216  11.1220  11.3933  11.6307  11.6887  11.8375  12.2618  13.7484
    24.5140  24.6639  25.3387  25.5022  25.8328  26.0939  26.5148  26.6592
    26.8367  27.1451  27.7834  28.2820  28.5408  28.9222  29.3337  29.5050
    30.7307  31.4565  31.7520  31.7746  32.0710  32.2879  32.6088  33.0797
    33.1193  33.4222  33.7738  34.3766

          k = 0.1818-0.4544 0.0000 (  2658 PWs)   bands (ev):

   -17.5326 -17.5325  -8.8041  -8.6784  -7.5983  -7.5865  -6.7010  -6.4504
     3.0610   3.0741   3.2483   3.3817   3.5607   3.7573   6.1971   6.6457
     8.4940   8.8037   9.4273   9.4792   9.8376   9.9685  10.7148  10.7402
    10.9865  11.3346  11.3695  11.6772  11.6816  11.9680  13.7949  15.0049
    24.2312  24.8572  24.8850  25.4966  25.8624  26.4389  26.5464  26.9121
    27.0463  27.3526  27.6755  27.8619  28.5406  29.2172  29.2186  29.4418
    29.8514  30.6483  31.3089  31.3996  31.4918  31.7637  31.7995  32.4984
    33.1937  33.2626  33.6512  34.1973

          k = 0.1818-0.4544 0.1298 (  2658 PWs)   bands (ev):

   -17.5307 -17.5307  -8.7266  -8.6655  -7.6176  -7.6123  -6.7085  -6.5912
     3.1139   3.1172   3.3277   3.3770   3.6324   3.7208   6.4738   6.6919
     8.6525   8.7810   9.4318   9.4905   9.7897   9.8108  10.6462  10.6605
    11.1085  11.2058  11.5160  11.6173  11.7223  11.8446  13.7834  14.3308
    24.4068  24.5509  25.4737  25.5901  25.7412  26.0299  26.6457  26.9162
    26.9833  27.1294  27.3691  27.9513  28.6388  29.1601  29.2596  29.4824
    30.6577  30.6744  31.6627  31.6835  31.8302  31.8699  32.5073  32.6197
    32.9443  33.0551  33.4468  33.8991

          k = 0.1818-0.4544 0.2597 (  2648 PWs)   bands (ev):

   -17.5264 -17.5263  -8.6349  -8.5093  -7.6714  -7.6630  -6.9424  -6.7253
     3.1825   3.2201   3.3901   3.4573   3.6948   3.8144   6.8489   7.3071
     8.7359   8.8487   9.2279   9.4571   9.7947   9.8336  10.5193  10.5891
    11.0372  11.1315  11.4519  11.6161  11.6770  11.8127  12.7942  13.7540
    24.5417  24.5749  25.4251  25.7245  25.7545  25.9039  26.4265  26.7573
    26.9182  27.2268  27.2853  28.1193  28.7627  29.2396  29.3634  29.5612
    30.7539  31.1926  31.8174  31.8390  32.1887  32.2485  32.3820  32.7393
    33.3168  33.3215  33.7898  34.0158

          k = 0.1818-0.4544 0.3895 (  2646 PWs)   bands (ev):

   -17.5230 -17.5230  -8.6084  -8.2331  -7.7202  -7.7129  -7.3064  -6.7388
     3.2084   3.2873   3.3200   3.5511   3.7908   3.9702   7.0493   8.4465
     8.7031   8.7410   9.0367   9.4881   9.9103  10.1266  10.3582  10.5558
    10.6644  10.9729  11.2310  11.3504  11.6776  11.6838  11.8884  13.7257
    24.4496  24.5487  24.8362  25.8481  25.9895  26.2885  26.4779  26.9258
    26.9994  27.6571  27.7779  27.9086  28.7112  28.7826  28.8864  29.1075
    30.1892  31.3211  31.6952  31.7332  32.3775  32.5539  32.7525  32.8816
    33.7458  33.8257  34.4146  34.4795

          k = 0.3635 0.0000 0.0000 (  2657 PWs)   bands (ev):

   -17.5498 -17.5240  -8.9408  -8.6822  -7.8136  -7.2532  -6.4583  -6.4583
     3.0470   3.0470   3.3281   3.3281   3.4755   3.5258   5.9505   6.0922
     8.6105   8.6718   8.6718   9.4744   9.9048  10.6011  10.9636  10.9636
    11.0178  11.2556  11.5314  11.5314  11.8958  11.8958  15.0320  15.0320
    24.1062  25.2719  25.2901  25.2900  26.4715  26.5697  26.5893  26.5893
    27.0200  27.4661  27.5000  27.8531  28.3142  28.3142  29.3707  29.5522
    30.3137  30.3198  30.3198  30.7028  31.6762  31.7922  31.7922  32.2668
    32.4791  33.7074  34.4758  34.4796

          k = 0.3635 0.0000 0.1298 (  2659 PWs)   bands (ev):

   -17.5466 -17.5236  -8.9037  -8.6411  -7.8398  -7.2740  -6.5873  -6.4550
     3.0620   3.0815   3.2851   3.3344   3.5077   3.6368   6.0692   6.3291
     8.4858   8.5926   8.9064   9.4273   9.8777  10.5831  10.8790  10.9154
    11.1720  11.2146  11.4388  11.6216  11.7984  11.9193  14.3592  15.0233
    24.2246  24.9216  25.1843  25.6981  26.0181  26.3970  26.6554  26.7945
    27.0187  27.2908  27.6781  27.8374  28.2841  28.7883  29.3330  29.3616
    30.3090  30.3945  30.6800  30.8846  31.7081  31.8396  31.9658  32.6584
    33.2287  33.4172  33.6455  33.9306

          k = 0.3635 0.0000 0.2597 (  2657 PWs)   bands (ev):

   -17.5390 -17.5228  -8.8331  -8.5094  -7.8790  -7.3398  -6.8979  -6.4474
     3.0749   3.0890   3.1911   3.4376   3.6132   3.8603   6.2640   7.1857
     8.4096   8.4234   9.1539   9.2790   9.8950  10.5903  10.6661  10.8114
    11.0703  11.2217  11.5020  11.6230  11.7690  11.9808  12.8338  14.9920
    24.2828  24.7749  24.8225  25.2781  26.0474  26.1281  26.5800  26.8891
    26.9620  27.7140  27.8649  28.3432  28.6795  28.8530  28.9679  29.7922
    30.0588  30.5243  30.7224  31.1346  31.6834  31.9870  32.1749  32.6235
    32.6778  33.7244  34.1287  34.1313

          k = 0.3635 0.0000 0.3895 (  2657 PWs)   bands (ev):

   -17.5304 -17.5246  -8.7862  -8.3677  -7.7978  -7.5279  -7.1449  -6.4413
     3.0166   3.1042   3.1267   3.5351   3.7499   4.0135   6.4789   8.1672
     8.2962   8.5870   9.0818   9.2679  10.0240  10.4655  10.5850  10.6427
    10.7196  11.0922  11.3449  11.6564  11.7639  11.8488  12.0395  14.9650
    24.1467  24.2862  24.2968  25.6342  25.9530  26.2115  26.9962  27.3742
    27.4483  27.5823  27.6455  28.4103  28.5232  29.2273  29.2408  29.4090
    29.6841  29.9361  29.9498  30.5298  31.9008  32.6913  32.9229  33.4077
    33.6085  33.9017  34.2367  34.5204

          k = 0.3635 0.1515 0.0000 (  2659 PWs)   bands (ev):

   -17.5455 -17.5235  -8.8923  -8.6254  -7.8478  -7.2814  -6.6307  -6.4539
     3.0661   3.0879   3.2717   3.3455   3.5161   3.6724   6.0966   6.4320
     8.4688   8.5672   8.9564   9.4096   9.8730  10.5809  10.8470  10.8984
    11.2006  11.2214  11.4057  11.6471  11.7705  11.9278  14.1406  15.0194
    24.2498  24.9060  25.1405  25.6877  25.9498  26.3798  26.6763  26.6930
    27.1220  27.1966  27.7636  27.8852  28.3035  28.9108  29.2650  29.4547
    30.2964  30.3921  30.7767  30.9097  31.6126  31.8326  32.0896  32.6463
    33.1097  33.5927  33.7394  33.8732

          k = 0.3635 0.1515 0.1298 (  2662 PWs)   bands (ev):

   -17.5426 -17.5228  -8.8425  -8.5884  -7.8762  -7.2988  -6.6390  -6.5862
     3.0801   3.1603   3.3174   3.3450   3.5981   3.6399   6.3789   6.4918
     8.3714   8.7578   8.9755   9.3960   9.7472  10.5330  10.7426  10.9939
    11.0710  11.2338  11.5442  11.5844  11.7695  11.8613  14.1282  14.3442
    24.4447  24.7043  25.3000  25.7728  25.8527  26.1657  26.5842  26.8690
    27.0367  27.1842  27.4014  27.7492  28.7444  28.9805  29.3487  29.4717
    30.3122  30.4798  31.3374  31.4204  31.7106  32.0117  32.5348  32.6970
    33.1046  33.3831  33.5257  33.5989

          k = 0.3635 0.1515 0.2597 (  2650 PWs)   bands (ev):

   -17.5351 -17.5214  -8.7412  -8.4622  -7.9230  -7.3530  -6.9266  -6.6421
     3.1234   3.2348   3.3360   3.4352   3.6402   3.7967   6.6359   7.2459
     8.3030   8.7834   9.1813   9.2777   9.6403  10.4895  10.5875  10.8612
    11.0509  11.1898  11.4916  11.6230  11.7466  11.8712  12.8167  14.1026
    24.5460  24.6773  25.2790  25.4395  25.9489  25.9959  26.4644  26.6916
    26.8143  27.2138  27.7509  28.2463  28.6219  28.9958  29.3431  29.6393
    30.7460  31.1743  31.3871  31.6557  31.8668  32.0872  32.3839  32.8301
    33.2175  33.2999  33.7017  34.1754

          k = 0.3635 0.1515 0.3895 (  2652 PWs)   bands (ev):

   -17.5274 -17.5225  -8.6723  -8.3200  -7.8380  -7.5366  -7.1988  -6.6503
     3.1410   3.2490   3.2753   3.5259   3.7508   3.9496   6.8252   8.2172
     8.4493   8.7320   9.0324   9.2768   9.9047  10.3725  10.5183  10.6508
    10.7131  11.0640  11.3218  11.5920  11.7145  11.7473  11.9326  14.0765
    24.3482  24.4856  24.8959  25.6361  25.9989  26.2945  26.4671  26.8368
    27.1484  27.2294  28.0069  28.1262  28.6925  28.9443  28.9904  29.2536
    30.3147  31.0682  31.2127  31.8178  32.0067  32.6067  32.7928  32.8612
    33.3491  33.8953  34.2089  34.4535

          k = 0.3635 0.3030 0.0000 (  2652 PWs)   bands (ev):

   -17.5358 -17.5230  -8.8132  -8.4538  -7.8745  -7.3811  -7.0047  -6.4449
     3.0545   3.0972   3.1640   3.4777   3.6680   3.9255   6.3427   7.5684
     8.3710   8.4053   9.1648   9.2359   9.9356  10.6047  10.6085  10.7809
    10.9677  11.1619  11.5580  11.6096  11.8061  12.0055  12.3025  14.9814
    24.2572  24.5903  24.6161  25.3152  26.0352  26.1600  26.7094  27.0130
    27.0966  27.6354  27.8844  28.4089  28.6814  28.8805  29.3259  29.6298
    29.8875  30.0794  30.3917  31.1156  32.1588  32.2899  32.4822  32.6949
    32.7251  33.6087  34.0663  34.2552

          k = 0.3635 0.3030 0.1298 (  2654 PWs)   bands (ev):

   -17.5334 -17.5218  -8.7381  -8.4187  -7.9092  -7.3868  -7.0343  -6.5947
     3.1049   3.2185   3.2755   3.4700   3.6744   3.8758   6.6067   7.6121
     8.2984   8.6833   9.1633   9.2371   9.7626  10.4738  10.6290  10.7725
    10.9785  11.1548  11.4763  11.6401  11.7595  11.9192  12.2932  14.3119
    24.4478  24.5385  25.1525  25.3420  25.9606  26.1266  26.5798  26.8110
    26.8597  27.1703  28.0481  28.3300  28.6757  28.8716  29.0820  29.5387
    30.7181  30.9031  31.0960  31.8324  31.8635  32.2736  32.5203  32.5807
    33.2689  33.3122  33.8653  34.1752

          k = 0.3635 0.3030 0.2597 (  2651 PWs)   bands (ev):

   -17.5274 -17.5194  -8.5448  -8.3024  -7.9933  -7.3984  -7.1194  -6.9623
     3.2666   3.3965   3.4618   3.5535   3.7036   3.7598   7.4144   7.7377
     8.2886   8.9938   9.1921   9.2650   9.5444  10.2543  10.6020  10.8552
    10.9066  11.1281  11.3154  11.5923  11.6708  11.7171  12.2300  12.7646
    24.7662  25.0365  25.3692  25.4480  25.9439  26.1777  26.4686  26.6437
[...]

          k = 0.1686 0.1405 0.2409 (  4433 PWs)   bands (ev):

   -23.5751 -23.5678 -14.3556 -14.0814 -13.9468 -13.2802 -13.1538 -13.1094
    -2.3489  -2.2968  -2.2812  -2.2732  -2.2303  -2.2007   1.5119   1.6552
     2.2176   3.3480   3.3954   3.5182   3.9947   4.5601   4.5880   4.6755
     4.8390   4.9493   5.0425   5.1011   5.1639   5.8435   6.4948   6.7082
    19.5383  19.9270  19.9996  20.1727  20.2570  20.5932  20.8998  21.0103
    21.2474  21.3008  21.6778  21.8191  22.0735  22.6066  23.2029  23.5240
    23.6264  23.8001  24.0088  24.1332  24.6559  24.7447  25.5613  25.8579
    25.9136  26.0816  26.4287  26.6636

          k = 0.1686 0.1405 0.3613 (  4420 PWs)   bands (ev):

   -23.5720 -23.5694 -14.2626 -14.1641 -13.7604 -13.5204 -13.1521 -13.1139
    -2.3454  -2.3267  -2.2800  -2.2675  -2.1760  -2.1633   1.5790   1.6986
     3.0560   3.3086   3.4817   3.6968   3.8511   4.3598   4.4524   4.5401
     4.7248   4.8090   5.0765   5.1039   5.1589   5.1906   6.4894   6.6994
    19.3499  19.4670  20.0434  20.3580  20.4562  20.5305  20.8920  21.0287
    21.2599  21.3508  21.5266  21.7226  22.6096  22.7636  23.0968  23.3645
    23.4055  23.8905  24.4813  24.7493  25.0370  25.1864  25.3820  25.6115
    25.9998  26.1401  26.3031  26.4957

          k = 0.1686 0.2810 0.0000 (  4429 PWs)   bands (ev):

   -23.5750 -23.5682 -14.3704 -14.1402 -13.8767 -13.3520 -13.1476 -13.0222
    -2.3627  -2.3361  -2.3083  -2.2640  -2.2192  -2.1742   1.2527   1.6388
     2.5100   3.2077   3.3753   3.5764   4.1679   4.3683   4.6373   4.6522
     4.9115   4.9553   4.9632   5.1569   5.2228   5.4502   6.4973   7.2349
    19.2311  19.8487  19.9550  19.9843  20.5804  20.8863  20.9461  20.9976
    21.1911  21.4797  21.7662  21.9174  22.2567  22.2842  22.6159  23.2273
    23.5896  23.9123  24.0951  24.3503  24.5154  25.2184  25.3223  25.4267
    25.6176  25.9956  26.0497  26.8010

          k = 0.1686 0.2810 0.1204 (  4426 PWs)   bands (ev):

   -23.5743 -23.5682 -14.3367 -14.1158 -13.8892 -13.3550 -13.1512 -13.0891
    -2.3515  -2.3132  -2.2873  -2.2697  -2.2106  -2.1846   1.4675   1.6665
     2.4827   3.3098   3.3896   3.5794   3.9863   4.5027   4.5430   4.6918
     4.8228   4.9504   5.0746   5.0918   5.1751   5.4777   6.4943   6.8376
    19.3963  19.7586  20.0118  20.1591  20.4306  20.7083  20.8186  21.0560
    21.2641  21.3382  21.5949  21.8296  22.1787  22.6422  22.9680  23.4457
    23.5398  23.8485  24.1401  24.3636  25.0803  25.1916  25.3986  25.5983
    25.6926  26.0487  26.3328  26.5084

          k = 0.1686 0.2810 0.2409 (  4426 PWs)   bands (ev):

   -23.5726 -23.5683 -14.2591 -14.0499 -13.8998 -13.3726 -13.2662 -13.1519
    -2.3338  -2.2855  -2.2738  -2.2508  -2.1977  -2.1680   1.7120   2.0876
     2.4763   3.4131   3.4883   3.5839   3.7958   4.4207   4.5509   4.6531
     4.8328   4.8636   5.0325   5.1140   5.1864   5.4830   5.8687   6.4882
    19.6325  19.6800  19.9622  20.0735  20.3870  20.4432  20.8506  21.1161
    21.2795  21.4120  21.5805  21.6899  22.3437  22.5287  23.2945  23.5440
    24.0471  24.3387  24.4451  24.7007  24.9313  25.1683  25.2409  25.6611
    25.7787  26.0937  26.3135  26.6987

          k = 0.1686 0.2810 0.3613 (  4443 PWs)   bands (ev):

   -23.5706 -23.5691 -14.1912 -14.0367 -13.7769 -13.5442 -13.3441 -13.1570
    -2.3225  -2.3004  -2.2763  -2.2335  -2.1664  -2.1281   1.7679   2.4097
     3.0343   3.4067   3.5480   3.5627   3.8735   4.3267   4.4051   4.4705
     4.6716   4.7900   4.9723   5.1137   5.1393   5.2121   5.4981   6.4799
    19.4053  19.4836  19.9360  20.1596  20.4493  20.6627  20.9985  21.1618
    21.2075  21.4174  21.6201  21.9468  22.2851  22.6273  23.0367  23.1853
    24.1655  24.5308  24.6697  24.8459  24.9696  25.1813  25.4788  25.5829
    25.9523  26.2228  26.7205  26.9063

          k = 0.1686-0.4215 0.0000 (  4428 PWs)   bands (ev):

   -23.5711 -23.5711 -14.2925 -14.2100 -13.6398 -13.6297 -13.1496 -13.0214
    -2.3689  -2.3479  -2.3151  -2.2599  -2.1850  -2.1434   1.2923   1.6760
     3.1864   3.2396   3.7454   3.7753   3.8739   4.0111   4.4319   4.5382
     4.6264   4.9225   4.9741   5.1144   5.1516   5.2686   6.4922   7.2280
    19.1730  19.5892  19.6665  20.2377  20.2811  20.9674  21.1373  21.1565
    21.2118  21.3515  21.7546  21.9420  22.3427  22.6725  22.7256  23.3888
    23.7266  23.8739  24.0240  24.4564  24.4966  24.9339  25.1245  25.2486
    26.2222  26.2785  26.2863  26.7382

          k = 0.1686-0.4215 0.1204 (  4420 PWs)   bands (ev):

   -23.5708 -23.5708 -14.2425 -14.2028 -13.6442 -13.6396 -13.1512 -13.0908
    -2.3466  -2.3401  -2.2874  -2.2655  -2.1724  -2.1537   1.5101   1.6961
     3.2404   3.2564   3.7420   3.7787   3.8765   3.9140   4.4429   4.4550
     4.7302   4.8077   5.0662   5.1204   5.1421   5.2080   6.4896   6.8317
    19.2988  19.4034  20.0814  20.2680  20.3603  20.6503  20.9652  21.1042
    21.2063  21.4103  21.5146  21.7685  22.5372  22.7763  23.1530  23.2381
    23.6452  23.6678  24.6428  24.6575  24.8409  25.2385  25.2428  25.4164
    26.0701  26.1265  26.2318  26.5778

          k = 0.1686-0.4215 0.2409 (  4436 PWs)   bands (ev):

   -23.5700 -23.5700 -14.1855 -14.1033 -13.6630 -13.6554 -13.2728 -13.1560
    -2.3184  -2.3174  -2.2719  -2.2422  -2.1650  -2.1369   1.7533   2.1350
     3.2906   3.3045   3.6228   3.7421   3.9148   3.9465   4.3790   4.4137
     4.7177   4.7797   5.0098   5.1104   5.1333   5.1989   5.8572   6.4815
    19.4008  19.4251  20.1190  20.2196  20.3446  20.6283  20.9367  21.1524
    21.2163  21.3177  21.4775  21.8516  22.5010  22.8143  23.1449  23.2106
    24.1340  24.3008  24.4961  24.8435  24.9193  25.1512  25.3525  25.4535
    26.1842  26.5975  26.6622  26.7591

          k = 0.1686-0.4215 0.3613 (  4446 PWs)   bands (ev):

   -23.5694 -23.5694 -14.1704 -13.9171 -13.6829 -13.6746 -13.4824 -13.1598
    -2.3087  -2.3019  -2.2895  -2.2167  -2.1452  -2.0964   1.8148   3.0175
     3.2487   3.3968   3.4670   3.7420   3.9244   4.1429   4.2707   4.3854
     4.4833   4.7278   4.8665   4.9142   5.1437   5.1497   5.2366   6.4740
    19.3225  19.4331  19.5637  20.4731  20.5268  20.7792  20.8969  21.4331
    21.4562  21.7174  21.8695  21.9779  22.1750  22.4593  22.5651  22.8175
    23.5289  24.6179  24.7807  24.8132  25.2979  25.3521  25.6164  25.7438
    26.3765  26.5918  26.7738  27.2537

          k = 0.3372 0.0000 0.0000 (  4432 PWs)   bands (ev):

   -23.5746 -23.5694 -14.3741 -14.2321 -13.7753 -13.4518 -13.0231 -13.0231
    -2.3722  -2.3721  -2.2906  -2.2906  -2.2005  -2.1925   1.2182   1.2468
     3.0195   3.1942   3.1942   3.7114   4.1039   4.5739   4.5739   4.6180
     4.7971   4.8381   5.0225   5.0225   5.2135   5.2135   7.2390   7.2390
    19.0297  19.8219  20.0603  20.0603  20.6843  20.9177  20.9683  20.9683
    21.3108  21.3958  21.4157  21.7110  22.4439  22.4439  22.7560  23.2145
    23.2606  23.6606  23.6606  24.3649  24.5952  25.2848  25.3025  25.3025
    25.5981  25.9824  26.5851  26.6958

          k = 0.3372 0.0000 0.1204 (  4433 PWs)   bands (ev):

   -23.5739 -23.5693 -14.3491 -14.2043 -13.7840 -13.4581 -13.0896 -13.0223
    -2.3692  -2.3536  -2.3030  -2.2742  -2.2004  -2.1744   1.2547   1.4561
     2.9611   3.1942   3.3134   3.6878   4.0659   4.4422   4.5721   4.6452
     4.7835   4.8727   4.9754   5.1137   5.1691   5.2317   6.8404   7.2344
    19.1267  19.6857  19.9172  20.2870  20.4532  20.8670  21.0039  21.0982
    21.1367  21.4159  21.6415  21.8174  22.3798  22.5665  22.6442  23.1465
    23.3576  23.8151  24.0065  24.4329  24.6071  25.1287  25.2294  25.8473
    25.9034  26.0692  26.1352  26.6237

          k = 0.3372 0.0000 0.2409 (  4434 PWs)   bands (ev):

   -23.5724 -23.5692 -14.3044 -14.1087 -13.7956 -13.4794 -13.2599 -13.0211
    -2.3619  -2.3355  -2.3305  -2.2409  -2.1843  -2.1232   1.3190   2.0838
     2.9131   3.1947   3.4865   3.6080   4.0403   4.3493   4.4951   4.5393
     4.7277   4.8734   5.0638   5.0773   5.2007   5.2851   5.8632   7.2245
    19.2235  19.5087  19.6428  19.9459  20.4041  20.8434  21.2268  21.2801
    21.2973  21.7286  21.9881  22.0820  22.1901  22.3220  22.5615  23.2625
    24.0346  24.1269  24.2951  24.4992  24.5444  24.9119  25.0006  25.1690
    25.7534  26.2089  26.4070  26.7497

          k = 0.3372 0.0000 0.3613 (  4429 PWs)   bands (ev):

   -23.5707 -23.5696 -14.2772 -13.9969 -13.7442 -13.5731 -13.4057 -13.0200
    -2.3573  -2.3491  -2.3424  -2.2167  -2.1510  -2.0784   1.3834   2.7836
     3.0745   3.1952   3.5383   3.6090   4.0905   4.3258   4.3629   4.3779
     4.4812   4.8003   4.9244   5.0741   5.1956   5.2362   5.3312   7.2164
    19.1601  19.1705  19.2717  20.2134  20.5317  20.7975  21.4477  21.5761
    21.6580  21.7239  22.0186  22.2364  22.3237  22.3828  22.8559  22.9628
    23.4459  23.6372  23.7831  24.0736  24.7650  25.2313  25.5614  25.8297
    26.0418  26.4307  26.7837  27.0237

          k = 0.3372 0.1405 0.0000 (  4430 PWs)   bands (ev):

   -23.5737 -23.5693 -14.3415 -14.1934 -13.7866 -13.4602 -13.1125 -13.0221
    -2.3679  -2.3489  -2.3070  -2.2693  -2.1997  -2.1669   1.2635   1.5346
     2.9501   3.1944   3.3439   3.6784   4.0572   4.4220   4.5695   4.6228
     4.7785   4.9026   4.9603   5.1326   5.1551   5.2385   6.7064   7.2330
    19.1511  19.6841  19.8634  20.2441  20.4189  20.9335  21.0187  21.0503
    21.1970  21.3531  21.7292  21.8640  22.3498  22.5142  22.6829  23.2221
    23.4190  23.8260  24.1106  24.3762  24.6391  25.0648  25.2041  25.7527
    26.0030  26.0459  26.2894  26.6089

          k = 0.3372 0.1405 0.1204 (  4426 PWs)   bands (ev):

   -23.5731 -23.5691 -14.3078 -14.1713 -13.7961 -13.4654 -13.1142 -13.0893
    -2.3545  -2.3338  -2.2844  -2.2762  -2.1865  -2.1749   1.4790   1.5600
     2.9107   3.2830   3.3810   3.6731   3.9452   4.4331   4.5067   4.6999
     4.7365   4.8155   5.0719   5.0995   5.1693   5.2052   6.7025   6.8358
    19.2843  19.5520  20.0217  20.3794  20.4605  20.6187  20.8630  21.1034
    21.2077  21.4087  21.4779  21.7721  22.5487  22.6601  22.8909  23.2184
    23.3727  23.8985  24.2564  24.6568  24.9304  25.2822  25.3727  25.8144
    25.8736  26.1509  26.2172  26.3198

          k = 0.3372 0.1405 0.2409 (  4436 PWs)   bands (ev):

   -23.5717 -23.5690 -14.2443 -14.0859 -13.8111 -13.4829 -13.2679 -13.1157
    -2.3382  -2.3098  -2.2864  -2.2461  -2.1801  -2.1424   1.6115   2.1109
     2.8768   3.3557   3.5027   3.6105   3.8504   4.3954   4.4478   4.6049
     4.7197   4.8226   5.0348   5.1143   5.1675   5.2285   5.8619   6.6949
    19.4228  19.4923  20.0066  20.0300  20.4938  20.5838  20.9507  21.0963
    21.3266  21.3982  21.5772  21.9095  22.3447  22.6686  22.9405  23.3349
    24.1521  24.3324  24.5899  24.6866  24.8394  25.0660  25.3476  25.6379
    25.7635  26.1635  26.3592  26.6669

          k = 0.3372 0.1405 0.3613 (  4442 PWs)   bands (ev):

   -23.5702 -23.5692 -14.2077 -13.9754 -13.7585 -13.5725 -13.4257 -13.1180
    -2.3285  -2.3114  -2.3000  -2.2219  -2.1536  -2.1003   1.6710   2.8146
     3.0380   3.3833   3.4927   3.5757   3.9934   4.2974   4.3756   4.4251
     4.5462   4.7690   4.9196   5.0490   5.1600   5.1794   5.2652   6.6872
    19.2754  19.3910  19.5893  20.2785  20.6002  20.7054  21.0328  21.3659
    21.4381  21.5114  22.0010  22.0537  22.1852  22.4893  22.6761  22.9015
    23.6930  24.5990  24.7022  24.8252  24.9007  25.4291  25.4462  25.5759
    25.9899  26.2850  26.7490  27.3123

          k = 0.3372 0.2810 0.0000 (  4432 PWs)   bands (ev):

   -23.5718 -23.5692 -14.2928 -14.0660 -13.7914 -13.4949 -13.3230 -13.0207
    -2.3593  -2.3385  -2.3368  -2.2311  -2.1723  -2.1053   1.3438   2.3586
     2.9131   3.1950   3.5275   3.5774   4.0520   4.3337   4.4494   4.5203
     4.6815   4.8422   5.0437   5.1195   5.2168   5.3044   5.5010   7.2214
    19.2253  19.3656  19.4870  20.0067  20.4477  20.8149  21.3277  21.3912
    21.4511  21.7424  22.0220  22.0390  22.2774  22.4570  22.5131  23.1281
    23.8647  23.9219  24.2584  24.3739  25.0121  25.0138  25.1164  25.2509
    25.6713  26.1499  26.3609  26.8390

          k = 0.3372 0.2810 0.1204 (  4439 PWs)   bands (ev):

   -23.5714 -23.5690 -14.2449 -14.0497 -13.8039 -13.4958 -13.3325 -13.0920
    -2.3405  -2.3166  -2.3010  -2.2349  -2.1726  -2.1212   1.5579   2.3803
     2.8816   3.3330   3.5263   3.5654   3.9172   4.3700   4.4329   4.5623
     4.6893   4.8150   5.0160   5.1263   5.1807   5.2566   5.5043   6.8251
    19.3613  19.4044  19.7656  20.0671  20.5069  20.6814  21.1011  21.2460
    21.3354  21.4187  21.8223  22.0797  22.2176  22.5741  22.7018  23.1671
    24.1591  24.4833  24.5960  24.7241  24.9625  24.9752  25.3094  25.4495
    25.7319  26.0254  26.3265  26.8379

          k = 0.3372 0.2810 0.2409 (  4438 PWs)   bands (ev):

   -23.5702 -23.5686 -14.1205 -13.9944 -13.8351 -13.4972 -13.3582 -13.2786
    -2.2985  -2.2639  -2.2473  -2.2205  -2.1699  -2.1548   2.1751   2.4378
     2.8709   3.4443   3.4790   3.6532   3.8068   4.3084   4.5217   4.5784
     4.6531   4.8109   4.9500   5.0800   5.1261   5.1519   5.4915   5.8520
    19.5835  19.7264  20.1098  20.1837  20.3591  20.6792  20.8334  21.0314
    21.1405  21.3515  21.4286  21.7606  22.3326  22.4624  23.4387  23.5637
    24.1544  24.5092  24.7388  24.7655  24.9632  25.3051  25.6154  26.0701
    26.2562  26.4178  26.8862  27.0899

          k = 0.3372 0.2810 0.3613 (  4446 PWs)   bands (ev):

   -23.5691 -23.5685 -14.0184 -13.9129 -13.7971 -13.5656 -13.4744 -13.3681
    -2.2666  -2.2395  -2.2307  -2.2035  -2.1617  -2.1486   2.4925   2.8933
     3.0601   3.3180   3.4320   3.7718   3.9578   4.3175   4.3595   4.5224
     4.6021   4.7494   4.8770   4.9746   5.0361   5.0569   5.0832   5.4712
    19.6929  19.8354  20.1694  20.2025  20.3855  20.7706  20.9706  21.0432
    21.1905  21.2590  21.3873  21.9307  22.1989  22.2453  23.1146  23.3440
    24.1138  24.4178  24.5595  24.6699  25.3606  25.5512  26.0460  26.4401
    26.7613  26.8445  27.0001  27.1858

          k = 0.3372-0.4215 0.0000 (  4436 PWs)   bands (ev):

   -23.5701 -23.5701 -14.2737 -13.9803 -13.6726 -13.6584 -13.4197 -13.0199
    -2.3587  -2.3510  -2.3446  -2.2136  -2.1454  -2.0718   1.3938   2.8195
     3.1952   3.2505   3.5435   3.7955   3.9439   4.1429   4.3349   4.3502
     4.4657   4.7905   4.8752   5.0426   5.2135   5.2406   5.3372   7.2149
    19.1100  19.1266  19.2448  20.4027  20.4157  20.7967  21.4262  21.6859
    21.7265  21.7674  22.0850  22.1146  22.3583  22.4538  22.8637  22.9545
    23.4271  23.4275  23.7527  23.9597  24.6574  25.2567  25.5503  25.8387
    26.0882  27.0099  27.1083  27.4555

          k = 0.3372-0.4215 0.1204 (  4434 PWs)   bands (ev):

   -23.5697 -23.5697 -14.2215 -13.9654 -13.6766 -13.6642 -13.4339 -13.0928
    -2.3302  -2.3286  -2.3103  -2.2174  -2.1469  -2.0877   1.6054   2.8302
     3.2568   3.3009   3.5050   3.7696   3.9411   4.1082   4.3015   4.3734
     4.5368   4.7630   4.8833   5.0256   5.1759   5.1966   5.2870   6.8193
    19.2149  19.2880  19.4710  20.4387  20.4708  20.8754  20.9279  21.5708
    21.6112  21.6351  21.9107  22.0044  22.4006  22.4439  22.6314  22.7398
    23.4807  24.4513  24.4752  24.7195  24.8926  25.1909  25.4765  25.5864
    26.1126  26.7894  26.9592  27.2083

          k = 0.3372-0.4215 0.2409 (  4450 PWs)   bands (ev):

   -23.5690 -23.5690 -14.0720 -13.9285 -13.6859 -13.6791 -13.4685 -13.2888
    -2.2765  -2.2648  -2.2417  -2.2178  -2.1539  -2.1283   2.2203   2.8775
     3.2502   3.3509   3.5611   3.6996   3.9687   4.1095   4.3228   4.4293
     4.6266   4.7004   4.8899   4.9556   5.0697   5.0901   5.1333   5.8415
    19.5669  19.6870  19.9788  20.2264  20.4504  20.8425  21.0031  21.0802
    21.2349  21.4501  21.5727  21.8014  22.1383  22.3898  22.8809  23.2886
    24.1282  24.4827  24.5416  24.6757  25.2105  25.7689  26.0648  26.3938
    26.4419  26.4658  26.8737  27.1653

          k = 0.3372-0.4215 0.3613 (  4442 PWs)   bands (ev):

   -23.5684 -23.5683 -13.8918 -13.8501 -13.6948 -13.6935 -13.5462 -13.4986
    -2.2274  -2.2232  -2.1979  -2.1966  -2.1620  -2.1581   2.9527   3.1059
     3.2091   3.2628   3.6698   3.6825   4.0285   4.1143   4.4153   4.4646
     4.6287   4.6596   4.8453   4.8512   4.9159   4.9270   4.9340   4.9942
    19.9654  20.0038  20.2340  20.2646  20.5069  20.6644  20.9247  20.9362
    21.0604  21.0827  21.9213  21.9591  22.1997  22.2209  22.8053  22.9328
    23.9077  23.9135  24.7567  24.7686  25.5304  25.5511  26.3280  26.3846
    26.5837  26.9755  27.9240  27.9833

     the Fermi energy is    24.0023 ev

!    total energy              =    -683.73664564 Ry
     Harris-Foulkes estimate   =    -683.73664579 Ry
     estimated scf accuracy    <       0.00000021 Ry

     The total energy is the sum of the following terms:

     one-electron contribution =      74.58629351 Ry
     hartree contribution      =      45.03750662 Ry
     xc contribution           =     -89.59194077 Ry
     ewald contribution        =    -713.33751250 Ry
     smearing contrib. (-TS)   =      -0.43099250 Ry

     convergence has been achieved in  10 iterations

     Forces acting on atoms (Ry/au):

     atom    1 type  1   force =     0.00000000    0.00000000    0.00000000
     atom    2 type  1   force =     0.00000000    0.00000000    0.00000000
     atom    3 type  1   force =     0.00000000    0.00000000    0.00000000
     atom    4 type  1   force =     0.00000000    0.00000000    0.00000000
     atom    5 type  1   force =     0.00000000    0.00000000    0.00000000
     atom    6 type  1   force =     0.00000000    0.00000000    0.00000000
     atom    7 type  2   force =     0.00000000    0.00000000    0.00000000
     atom    8 type  2   force =     0.00000000    0.00000000    0.00000000

     Total force =     0.000000     Total SCF correction =     0.000000


     entering subroutine stress ...

          total   stress  (Ry/bohr**3)                   (kbar)     P=  551.80
   0.00375108   0.00000000   0.00000000        551.80      0.00      0.00
   0.00000000   0.00375108   0.00000000          0.00    551.80      0.00
   0.00000000   0.00000000   0.00375108          0.00      0.00    551.80


     Writing output data file Prototype-La-cP8-Cr3Si.save
 
     init_run     :      5.02s CPU      6.52s WALL (       2 calls)
     electrons    :    859.50s CPU   1045.32s WALL (       5 calls)
     update_pot   :      1.36s CPU      1.40s WALL (       3 calls)
     forces       :      4.39s CPU      4.69s WALL (       5 calls)
     stress       :     11.30s CPU     11.75s WALL (       5 calls)

     Called by init_run:
     wfcinit      :      4.50s CPU      5.98s WALL (       2 calls)
     potinit      :      0.21s CPU      0.22s WALL (       2 calls)

     Called by electrons:
     c_bands      :    832.33s CPU    987.02s WALL (      43 calls)
     sum_band     :     26.82s CPU     36.26s WALL (      43 calls)
     v_of_rho     :      0.06s CPU      0.06s WALL (      48 calls)
     mix_rho      :      0.06s CPU      0.07s WALL (      43 calls)

     Called by c_bands:
     init_us_2    :      2.44s CPU      3.27s WALL (    4704 calls)
     ccgdiagg     :    745.78s CPU    873.03s WALL (    2356 calls)
     wfcrot       :     88.62s CPU    115.13s WALL (    2404 calls)

     Called by *cgdiagg:
     h_psi        :    602.44s CPU    737.26s WALL (  754405 calls)
     cdiaghg      :      3.20s CPU      3.43s WALL (    2404 calls)

     Called by h_psi:
     add_vuspsi   :     69.23s CPU     89.28s WALL (  754405 calls)

     General routines
     calbec       :    190.31s CPU    194.40s WALL ( 1506886 calls)
     fft          :      0.07s CPU      0.10s WALL (     215 calls)
     fftw         :    416.89s CPU    511.70s WALL ( 1916322 calls)
     davcio       :      1.52s CPU      3.70s WALL (    6768 calls)
 
     Parallel routines
     fft_scatter  :    177.76s CPU    212.90s WALL ( 1916537 calls)
 
     PWSCF        : 14m42.25s CPU    17m54.16s WALL

 
   This run was terminated on:   0:54:47  22Mar2018            

=------------------------------------------------------------------------------=
   JOB DONE.
=------------------------------------------------------------------------------=
