
     Program PWSCF v.5.0.2 starts on 22Mar2018 at  0:35:22 

     This program is part of the open-source Quantum ESPRESSO suite
     for quantum simulation of materials; please cite
         "P. Giannozzi et al., J. Phys.:Condens. Matter 21 395502 (2009);
          URL http://www.quantum-espresso.org", 
     in publications or presentations arising from this work. More details at
     http://www.quantum-espresso.org/quote.php

     Parallel version (MPI), running on     4 processors
     R & G space division:  proc/nbgrp/npool/nimage =       4

     Current dimensions of program PWSCF are:
     Max number of different atomic species (ntypx) = 10
     Max number of k-points (npk) =  40000
     Max angular momentum in pseudopotentials (lmaxx) =  3
     Waiting for input...
     Reading input from standard input

     Subspace diagonalization in iterative solution of the eigenvalue problem:
     a serial algorithm will be used

 
     Parallelization info
     --------------------
     sticks:   dense  smooth     PW     G-vecs:    dense   smooth      PW
     Min         207     207     61                 7381     7381    1191
     Max         208     208     62                 7386     7386    1192
     Sum         829     829    247                29529    29529    4767
 


     bravais-lattice index     =            0
     lattice parameter (alat)  =       7.0151  a.u.
     unit-cell volume          =     862.2778 (a.u.)^3
     number of atoms/cell      =           12
     number of atomic types    =            2
     number of electrons       =       168.00
     number of Kohn-Sham states=          101
     kinetic-energy cutoff     =      40.0000  Ry
     charge density cutoff     =     160.0000  Ry
     convergence threshold     =      1.0E-04
     mixing beta               =       0.7000
     number of iterations used =            8  plain     mixing
     Exchange-correlation      = SLA-PZ-NOGX-NOGC ( 1 1 0 0 0)
     EXX-fraction              =        0.00
     nstep                     =           50


     celldm(1)=   7.015105  celldm(2)=   0.000000  celldm(3)=   0.000000
     celldm(4)=   0.000000  celldm(5)=   0.000000  celldm(6)=   0.000000

     crystal axes: (cart. coord. in units of alat)
               a(1) = (   1.000000   0.000000   0.000000 )  
               a(2) = (   0.000000   1.315963   0.000000 )  
               a(3) = (   0.000000   0.000000   1.898020 )  

     reciprocal axes: (cart. coord. in units 2 pi/alat)
               b(1) = (  1.000000  0.000000  0.000000 )  
               b(2) = (  0.000000  0.759900  0.000000 )  
               b(3) = (  0.000000  0.000000  0.526865 )  


     PseudoPot. # 1 for Ce read from file:
     /home/jld5415/pp.La/Ce.UPF
     MD5 check sum: 44451aa79a44a00cf2bc029dc19922f6
     Pseudo is Norm-conserving, Zval = 12.0
     Generated in analytical, separable form
     Using radial grid of 1255 points,  6 beta functions with: 
                l(1) =   0
                l(2) =   0
                l(3) =   1
                l(4) =   1
                l(5) =   2
                l(6) =   3

     PseudoPot. # 2 for Gd read from file:
     /home/jld5415/pp.La/Gd.UPF
     MD5 check sum: 09a8be538722f05520810cb6aac0efd2
     Pseudo is Norm-conserving, Zval = 18.0
     Generated in analytical, separable form
     Using radial grid of 1263 points,  6 beta functions with: 
                l(1) =   0
                l(2) =   0
                l(3) =   1
                l(4) =   1
                l(5) =   2
                l(6) =   3

     atomic species   valence    mass     pseudopotential
        Co            12.00    58.93320     Ce( 1.00)
        Si            18.00    28.08550     Gd( 1.00)

      8 Sym. Ops., with inversion, found ( 6 have fractional translation)



   Cartesian axes

     site n.     atom                  positions (alat units)
         1           Co  tau(   1) = (   0.7500000   1.0875135   0.8270358  )
         2           Co  tau(   2) = (   0.2500000   0.2284499   1.0709846  )
         3           Co  tau(   3) = (   0.7500000   0.4295318   0.1219744  )
         4           Co  tau(   4) = (   0.2500000   0.8864316   1.7760460  )
         5           Co  tau(   5) = (   0.2500000   0.7067855   0.5358966  )
         6           Co  tau(   6) = (   0.7500000   0.6091779   1.3621238  )
         7           Co  tau(   7) = (   0.2500000   0.0488038   0.4131136  )
         8           Co  tau(   8) = (   0.7500000   1.2671596   1.4849068  )
         9           Si  tau(   9) = (   0.2500000   0.2669484   1.6960710  )
        10           Si  tau(  10) = (   0.7500000   1.0490149   0.2019494  )
        11           Si  tau(  11) = (   0.2500000   0.9249301   1.1509596  )
        12           Si  tau(  12) = (   0.7500000   0.3910333   0.7470608  )

     number of k points=    12  gaussian smearing, width (Ry)=  0.1000
                       cart. coord. in units 2pi/alat
        k(    1) = (   0.0000000   0.0000000   0.0000000), wk =   0.0833333
        k(    2) = (   0.0000000   0.0000000   0.1317162), wk =   0.1666667
        k(    3) = (   0.0000000   0.0000000  -0.2634324), wk =   0.0833333
        k(    4) = (   0.0000000   0.2532999   0.0000000), wk =   0.1666667
        k(    5) = (   0.0000000   0.2532999   0.1317162), wk =   0.3333333
        k(    6) = (   0.0000000   0.2532999  -0.2634324), wk =   0.1666667
        k(    7) = (  -0.5000000   0.0000000   0.0000000), wk =   0.0833333
        k(    8) = (  -0.5000000   0.0000000   0.1317162), wk =   0.1666667
        k(    9) = (  -0.5000000   0.0000000  -0.2634324), wk =   0.0833333
        k(   10) = (  -0.5000000   0.2532999   0.0000000), wk =   0.1666667
        k(   11) = (  -0.5000000   0.2532999   0.1317162), wk =   0.3333333
        k(   12) = (  -0.5000000   0.2532999  -0.2634324), wk =   0.1666667

     Dense  grid:    29529 G-vectors     FFT dimensions: (  30,  40,  54)

     Largest allocated arrays     est. size (Mb)     dimensions
        Kohn-Sham Wavefunctions         1.42 Mb     (    922,  101)
        NL pseudopotentials             3.38 Mb     (    922,  240)
        Each V/rho on FFT grid          0.26 Mb     (  16800)
        Each G-vector array             0.06 Mb     (   7386)
        G-vector shells                 0.06 Mb     (   7386)
     Largest temporary arrays     est. size (Mb)     dimensions
        Each subspace H/S matrix        0.16 Mb     ( 101, 101)
        Each <psi_i|beta_j> matrix      0.37 Mb     (    240,  101)
        Arrays for rho mixing           2.05 Mb     (  16800,   8)

     Initial potential from superposition of free atoms

     Starting from uniform charge
     Starting wfc are    0 randomized atomic wfcs

     total cpu time spent up to now is        2.0 secs

     Self-consistent Calculation

     iteration #  1     ecut=    40.00 Ry     beta=0.70
     CG style diagonalization
     ethr =  1.00E-02,  avg # of iterations = 17.3

     total cpu time spent up to now is       40.9 secs

     total energy              =    -820.99721331 Ry
     Harris-Foulkes estimate   =   -1610.86118622 Ry
     estimated scf accuracy    <     959.75255115 Ry

     iteration #  2     ecut=    40.00 Ry     beta=0.70
     CG style diagonalization
     c_bands:  4 eigenvalues not converged
     c_bands:  2 eigenvalues not converged
     c_bands:  3 eigenvalues not converged
     c_bands:  3 eigenvalues not converged
     c_bands:  2 eigenvalues not converged
     c_bands:  1 eigenvalues not converged
     ethr =  1.00E-02,  avg # of iterations = 15.2

     total cpu time spent up to now is       74.0 secs

     total energy              =   -1258.94439829 Ry
     Harris-Foulkes estimate   =   -1866.71064563 Ry
     estimated scf accuracy    <    1173.64514336 Ry

     iteration #  3     ecut=    40.00 Ry     beta=0.70
     CG style diagonalization
     ethr =  1.00E-02,  avg # of iterations = 12.3

     total cpu time spent up to now is      101.2 secs

     total energy              =   -1404.90109657 Ry
     Harris-Foulkes estimate   =   -1435.34903215 Ry
     estimated scf accuracy    <      70.60288772 Ry

     iteration #  4     ecut=    40.00 Ry     beta=0.70
     CG style diagonalization
     ethr =  1.00E-02,  avg # of iterations =  4.3

     total cpu time spent up to now is      110.1 secs

     total energy              =   -1408.42283720 Ry
     Harris-Foulkes estimate   =   -1414.76731679 Ry
     estimated scf accuracy    <      16.00739994 Ry

     iteration #  5     ecut=    40.00 Ry     beta=0.70
     CG style diagonalization
     ethr =  9.53E-03,  avg # of iterations =  3.4

     total cpu time spent up to now is      117.3 secs

     total energy              =   -1409.65372292 Ry
     Harris-Foulkes estimate   =   -1410.72976413 Ry
     estimated scf accuracy    <       2.48534197 Ry

     iteration #  6     ecut=    40.00 Ry     beta=0.70
     CG style diagonalization
     ethr =  1.48E-03,  avg # of iterations =  4.2

     total cpu time spent up to now is      126.5 secs

     total energy              =   -1410.21488737 Ry
     Harris-Foulkes estimate   =   -1410.34535825 Ry
     estimated scf accuracy    <       0.22349060 Ry

     iteration #  7     ecut=    40.00 Ry     beta=0.70
     CG style diagonalization
     c_bands:  1 eigenvalues not converged
     c_bands:  2 eigenvalues not converged
     ethr =  1.33E-04,  avg # of iterations =  5.3

     total cpu time spent up to now is      137.9 secs

     total energy              =   -1410.33347319 Ry
     Harris-Foulkes estimate   =   -1410.37522024 Ry
     estimated scf accuracy    <       0.09669665 Ry

     iteration #  8     ecut=    40.00 Ry     beta=0.70
     CG style diagonalization
     ethr =  5.76E-05,  avg # of iterations =  3.5

     total cpu time spent up to now is      145.8 secs

     total energy              =   -1410.34169722 Ry
     Harris-Foulkes estimate   =   -1410.35047696 Ry
     estimated scf accuracy    <       0.01686818 Ry

     iteration #  9     ecut=    40.00 Ry     beta=0.70
     CG style diagonalization
     c_bands:  1 eigenvalues not converged
     c_bands:  1 eigenvalues not converged
     ethr =  1.00E-05,  avg # of iterations =  4.1

     total cpu time spent up to now is      154.6 secs

     total energy              =   -1410.34625493 Ry
     Harris-Foulkes estimate   =   -1410.34637897 Ry
     estimated scf accuracy    <       0.00026687 Ry

     iteration # 10     ecut=    40.00 Ry     beta=0.70
     CG style diagonalization
     c_bands:  1 eigenvalues not converged
     c_bands:  1 eigenvalues not converged
     ethr =  1.59E-07,  avg # of iterations =  5.7

     total cpu time spent up to now is      167.4 secs

     total energy              =   -1410.34653597 Ry
     Harris-Foulkes estimate   =   -1410.34690130 Ry
     estimated scf accuracy    <       0.00064621 Ry

     iteration # 11     ecut=    40.00 Ry     beta=0.70
     CG style diagonalization
     c_bands:  1 eigenvalues not converged
     ethr =  1.59E-07,  avg # of iterations =  3.8

     total cpu time spent up to now is      175.1 secs

     End of self-consistent calculation

          k = 0.0000 0.0000 0.0000 (  3675 PWs)   bands (ev):

   -26.9075 -26.8552 -26.8386 -26.8103   0.0011   0.0413   0.7774   0.7942
     0.8349   0.8819   0.9829   1.0963   1.1859   1.2433   1.6852   1.7372
     3.1670   5.6397   6.0131   6.4646   7.0848   7.6281   7.8943   7.9006
    17.8819  18.5517  19.5652  19.7270  20.3185  20.6031  20.7216  21.6877
    21.9581  22.3195  22.7344  22.7559  22.8714  23.6267  23.8988  24.5015
    24.8445  24.8702  25.5379  26.2122  27.4649  27.8097  28.1612  28.9702
    31.5675  32.4259  33.2455  33.3475  33.4944  33.5854  34.0381  34.4026
    34.4824  35.5399  35.9748  36.3433  36.3548  37.7770  38.1385  38.2275
    38.9134  38.9669  38.9895  39.8334  39.8954  41.4572  41.4896  42.5464
    42.6565  42.9452  43.3861  43.6537  44.0546  44.1009  44.2276  44.8043
    45.1729  45.7848  46.1519  46.3435  46.5674  46.7793  47.0119  47.4352
    48.1100  48.4404  48.6072  48.9260  49.6914  50.0320  50.0952  50.2644
    50.6722  51.3987  52.0776  52.4921  52.7953

          k = 0.0000 0.0000 0.1317 (  3675 PWs)   bands (ev):

   -26.9024 -26.8685 -26.8279 -26.8130   0.0323   0.1981   0.5583   0.7801
     0.8215   0.8978   0.9439   1.1241   1.1749   1.2557   1.5667   1.7006
     3.6138   5.2863   6.1984   6.6502   6.9619   7.5146   7.8062   7.8697
    17.9856  18.8262  19.3362  19.8123  20.4167  20.6619  20.9820  21.2991
    22.3602  22.4762  22.6233  22.7320  22.9424  23.2466  23.6866  24.4256
    24.7544  25.5480  25.6860  25.8158  27.1474  27.2595  28.1994  28.8132
    31.5335  32.4359  32.9724  33.0020  33.6917  33.7782  34.2716  34.3317
    35.3709  35.5071  35.7907  36.1218  36.9684  37.7495  37.9691  38.0449
    38.8735  39.3590  39.4006  39.6223  39.6601  41.3439  42.1536  42.8271
    42.9722  43.2787  43.4317  43.8646  44.3500  44.3529  44.6378  44.8595
    44.8831  45.2177  45.3375  45.6704  45.7410  46.5263  47.0428  47.5701
    48.3034  48.3898  49.0425  49.1776  49.4780  49.6537  50.0241  50.5805
    50.6349  50.8858  51.4727  51.6347  52.3490

          k = 0.0000 0.0000-0.2634 (  3690 PWs)   bands (ev):

   -26.8881 -26.8881 -26.8195 -26.8195   0.2306   0.2306   0.4907   0.4907
     0.8769   0.8769   1.0661   1.0661   1.1576   1.1576   1.6134   1.6134
     4.4828   4.4828   6.5934   6.5934   7.1066   7.1066   7.7978   7.7978
    18.3554  18.3554  20.0691  20.0691  20.3261  20.3261  21.5320  21.5320
    21.6897  21.6897  22.6959  22.6959  23.2091  23.2091  24.5193  24.5193
    24.7465  24.7465  26.0789  26.0789  26.6134  26.6134  28.4123  28.4123
    31.9158  31.9158  32.5737  32.5737  33.9981  33.9981  34.7729  34.7729
    35.6992  35.6992  36.2249  36.2249  37.2352  37.2352  37.3974  37.3974
    38.9928  38.9928  39.6959  39.6959  40.9750  40.9750  43.2279  43.2279
    43.3511  43.3511  43.6470  43.6470  44.2226  44.2226  44.3289  44.3289
    44.7198  44.7198  45.6360  45.6360  46.7365  46.7365  47.2834  47.2834
    47.8173  47.8173  48.0007  48.0007  48.9716  48.9717  50.2376  50.2376
    51.3746  51.3747  51.5421  51.5422  53.0289

          k = 0.0000 0.2533 0.0000 (  3664 PWs)   bands (ev):

   -26.8894 -26.8597 -26.8356 -26.8225  -0.2526  -0.2333   0.6367   0.8745
     0.9592   0.9841   1.0878   1.1216   1.1238   1.1354   1.4935   1.7134
     4.3382   5.7815   5.8796   6.4115   7.2906   7.3559   7.7366   7.9078
    18.5114  19.4738  19.8172  19.8522  19.8611  20.0856  20.2930  21.0744
    21.4824  21.7909  21.9050  23.2847  23.2882  24.0900  24.3882  24.4927
    24.9751  25.1836  25.5422  25.8655  26.3887  26.4497  27.1732  27.2222
    32.3908  32.9405  33.0035  33.9083  34.8500  34.9178  35.0620  35.1416
    35.2037  35.2979  36.1322  36.7764  37.1098  37.3087  38.0729  38.6358
    38.9085  39.4395  39.5933  39.6066  39.9369  40.8697  41.0988  41.7493
    42.1080  42.7124  43.0927  43.8456  44.0595  44.3690  44.6403  45.1750
    45.2465  45.3809  46.5732  46.6473  46.9665  47.1373  47.3041  47.6423
    47.8577  47.9765  48.5949  49.2440  49.3878  49.6972  49.9487  50.3131
    50.3427  50.9840  51.2712  51.5591  51.5739

          k = 0.0000 0.2533 0.1317 (  3669 PWs)   bands (ev):

   -26.8859 -26.8653 -26.8334 -26.8248  -0.2151  -0.1843   0.5683   0.7244
     0.8934   0.9645   1.0955   1.1144   1.1202   1.2484   1.5504   1.7082
     4.5729   5.6601   5.9610   6.4857   7.1856   7.3427   7.6576   7.7689
    18.8057  19.5043  19.5418  19.8047  20.0421  20.4779  20.5000  21.1228
    21.5809  21.7514  22.0147  22.7468  23.3979  23.9758  24.3108  24.3627
    24.7710  25.3230  25.3255  25.8966  26.2948  26.3174  26.7973  27.2705
    32.5337  32.9898  33.4467  33.8537  34.5916  34.6344  35.1279  35.1595
    35.5378  35.6865  36.3769  36.8840  36.9405  37.5409  38.0408  38.2854
    38.6669  39.2715  39.4151  39.6662  40.1344  41.0804  41.9852  42.2895
    42.7238  42.7891  43.4160  43.5452  43.6602  43.8884  44.3914  44.9625
    45.3374  45.7936  45.8626  46.0977  46.3039  46.7563  46.9656  47.2916
    47.8740  48.1582  48.7559  49.2578  49.4426  49.5819  50.1937  50.3142
    50.4117  50.9366  51.4182  52.1675  52.4930

          k = 0.0000 0.2533-0.2634 (  3666 PWs)   bands (ev):

   -26.8761 -26.8761 -26.8284 -26.8284  -0.1440  -0.1440   0.5223   0.5223
     0.9272   0.9272   1.1093   1.1093   1.1955   1.1955   1.6621   1.6621
     5.1250   5.1250   6.3404   6.3404   7.2361   7.2361   7.5851   7.5851
    19.2341  19.2341  19.6977  19.6977  20.3881  20.3881  21.2484  21.2484
    21.3811  21.3811  22.3262  22.3262  23.7596  23.7596  24.0805  24.0805
    24.6315  24.6315  25.8813  25.8813  26.1655  26.1655  26.9331  26.9331
    33.1763  33.1763  33.1779  33.1779  34.7993  34.7993  35.1114  35.1114
    35.8685  35.8685  36.8599  36.8599  37.3377  37.3377  38.1520  38.1520
    38.5908  38.5908  39.5380  39.5380  40.8976  40.8976  42.1691  42.1691
    42.9576  42.9576  43.5878  43.5878  44.4448  44.4448  44.6846  44.6846
    44.9131  44.9131  45.6110  45.6110  46.0313  46.0313  47.0266  47.0266
    47.7785  47.7785  48.9079  48.9081  49.7530  49.7530  50.0687  50.0688
    50.7224  50.7227  52.0794  52.0796  52.6390

          k =-0.5000 0.0000 0.0000 (  3722 PWs)   bands (ev):

   -26.8632 -26.8632 -26.8240 -26.8240  -0.3074  -0.3074   0.1481   0.1481
     0.8370   0.8370   0.8685   0.8685   1.4763   1.4763   1.4924   1.4924
     6.1544   6.1544   6.2855   6.2855   6.5110   6.5110   7.7351   7.7351
    18.1130  18.1130  19.9397  19.9397  20.0802  20.0802  21.1426  21.1426
    21.6359  21.6359  24.1312  24.1312  24.1531  24.1531  24.6087  24.6087
    25.2502  25.2502  26.1744  26.1744  27.1159  27.1159  27.9088  27.9088
    33.2012  33.2012  34.2909  34.2909  35.1076  35.1076  35.1554  35.1554
    35.8877  35.8877  36.0238  36.0238  37.0258  37.0258  37.3770  37.3770
    38.2801  38.2801  38.5029  38.5029  39.5858  39.5858  39.7134  39.7134
    41.2933  41.2933  42.5726  42.5726  43.1081  43.1081  44.3982  44.3982
    45.2775  45.2775  45.6802  45.6802  45.8348  45.8348  46.3434  46.3434
    47.4030  47.4030  48.8083  48.8084  49.6524  49.6527  50.0517  50.0520
    51.1735  51.1743  51.7578  51.7581  52.1477

          k =-0.5000 0.0000 0.1317 (  3710 PWs)   bands (ev):

   -26.8627 -26.8627 -26.8229 -26.8229  -0.3952  -0.3952   0.2575   0.2575
     0.8256   0.8256   0.8805   0.8805   1.4777   1.4777   1.5034   1.5034
     6.0017   6.0017   6.3917   6.3917   6.6122   6.6122   7.6068   7.6068
    18.2024  18.2024  19.8831  19.8831  20.4278  20.4278  21.3804  21.3804
    21.8353  21.8353  23.4066  23.4066  23.8290  23.8290  24.0984  24.0984
    25.5970  25.5970  26.4888  26.4888  27.0602  27.0602  27.8821  27.8821
    33.2634  33.2634  34.1118  34.1118  34.7078  34.7078  35.6967  35.6967
    36.1140  36.1140  36.2498  36.2498  37.0580  37.0580  37.2757  37.2757
    37.8306  37.8306  38.7738  38.7738  39.8178  39.8178  40.4289  40.4289
    41.5093  41.5093  42.1098  42.1098  43.4338  43.4338  43.7767  43.7767
    44.4266  44.4266  45.6983  45.6983  45.8793  45.8793  46.9516  46.9516
    47.4713  47.4713  48.3899  48.3899  49.3978  49.3979  49.6795  49.6797
    50.8340  50.8341  51.4454  51.4456  52.7591

          k =-0.5000 0.0000-0.2634 (  3680 PWs)   bands (ev):

   -26.8601 -26.8601 -26.8219 -26.8219  -0.4573  -0.4573   0.3393   0.3393
     0.8502   0.8502   0.8653   0.8653   1.4785   1.4785   1.5194   1.5194
     5.9311   5.9311   6.3562   6.3562   6.8263   6.8263   7.4283   7.4283
    18.2667  18.2667  20.0454  20.0454  20.5942  20.5942  21.8419  21.8419
    22.1028  22.1028  22.8734  22.8734  23.2811  23.2811  23.5084  23.5084
    25.8021  25.8021  26.8928  26.8928  26.9131  26.9131  27.8241  27.8241
    33.3861  33.3861  33.7285  33.7285  35.0569  35.0569  35.4843  35.4843
    36.4037  36.4037  36.4371  36.4371  36.8370  36.8370  37.5262  37.5262
    37.6712  37.6712  38.8883  38.8883  40.2103  40.2103  40.6976  40.6976
    41.9357  41.9357  42.4694  42.4694  42.9123  42.9123  43.7810  43.7810
    43.8618  43.8618  45.4478  45.4478  45.6875  45.6875  45.8138  45.8138
    47.6715  47.6715  48.6329  48.6330  49.3159  49.3162  50.5037  50.5037
    51.1644  51.1645  51.7440  51.7475  51.8614

          k =-0.5000 0.2533 0.0000 (  3686 PWs)   bands (ev):

   -26.8518 -26.8518 -26.8311 -26.8311  -0.2256  -0.2256  -0.0662  -0.0662
     0.6907   0.6907   0.8210   0.8210   1.5644   1.5644   1.6113   1.6113
     6.1849   6.1849   6.3523   6.3523   7.0331   7.0331   7.5083   7.5083
    18.7734  18.7734  19.0111  19.0111  20.4260  20.4260  21.6620  21.6620
    22.1777  22.1777  22.6668  22.6668  23.7653  23.7653  24.1379  24.1379
    25.4137  25.4137  25.8692  25.8692  26.7790  26.7790  27.0606  27.0606
    33.4839  33.4839  34.5754  34.5754  35.5549  35.5549  35.8022  35.8022
    36.0563  36.0563  36.4431  36.4431  37.4477  37.4477  37.7976  37.7976
    38.4802  38.4802  38.7115  38.7115  40.2396  40.2396  40.2446  40.2446
    41.9241  41.9241  42.5314  42.5314  43.8927  43.8927  44.1880  44.1880
    45.1339  45.1339  45.6383  45.6383  46.2923  46.2923  47.2144  47.2144
    47.3648  47.3648  48.6000  48.6003  48.9987  48.9989  49.9444  49.9446
    50.3461  50.3462  50.5624  50.5625  51.3835

          k =-0.5000 0.2533 0.1317 (  3692 PWs)   bands (ev):

   -26.8507 -26.8507 -26.8330 -26.8330  -0.3182  -0.3182  -0.0246  -0.0246
     0.7394   0.7394   0.8588   0.8588   1.5543   1.5543   1.6105   1.6105
     6.1455   6.1455   6.3888   6.3888   7.0422   7.0422   7.4210   7.4210
    19.0436  19.0436  19.2994  19.2994  20.4700  20.4700  21.2125  21.2125
    21.7733  21.7733  22.9807  22.9807  23.7005  23.7005  24.3489  24.3489
    25.3427  25.3427  26.0340  26.0341  26.3543  26.3543  26.9618  26.9618
    33.3902  33.3902  34.2283  34.2283  35.4899  35.4899  35.8495  35.8495
    36.5103  36.5103  36.9724  36.9724  37.4151  37.4151  37.9906  37.9906
    38.4222  38.4222  38.8088  38.8088  40.4836  40.4836  40.8603  40.8603
    41.7604  41.7604  42.5260  42.5260  43.3688  43.3688  44.0148  44.0148
    44.9959  44.9959  45.8495  45.8495  46.3268  46.3268  46.7205  46.7205
    47.5729  47.5729  47.9870  47.9870  48.7709  48.7710  49.2987  49.2989
    50.0378  50.0378  50.7439  50.7441  51.8837

          k =-0.5000 0.2533-0.2634 (  3704 PWs)   bands (ev):

   -26.8509 -26.8509 -26.8342 -26.8342  -0.3823  -0.3823  -0.0168  -0.0168
     0.8237   0.8237   0.8633   0.8633   1.5499   1.5499   1.6035   1.6035
     6.1187   6.1187   6.4040   6.4040   7.0935   7.0935   7.2979   7.2979
    19.3286  19.3286  19.8176  19.8176  20.5177  20.5177  20.8663  20.8663
    21.0937  21.0937  23.1060  23.1060  23.9717  23.9717  24.3943  24.3943
    25.4136  25.4136  25.6331  25.6331  26.4418  26.4418  26.7298  26.7298
    33.2986  33.2986  33.9730  33.9730  35.5953  35.5953  35.7762  35.7762
    36.8141  36.8141  37.2789  37.2789  37.6894  37.6894  38.1088  38.1088
    38.3719  38.3719  39.0222  39.0222  40.8158  40.8158  41.2211  41.2211
    41.6707  41.6707  42.6651  42.6651  42.8183  42.8183  44.2920  44.2920
    44.7237  44.7237  45.8400  45.8400  45.9131  45.9131  46.2633  46.2633
    46.9727  46.9727  48.2739  48.2739  48.7612  48.7615  49.4759  49.4765
    49.5027  49.5027  50.2809  50.2811  51.2998

     the Fermi energy is    46.0388 ev

!    total energy              =   -1410.34669133 Ry
     Harris-Foulkes estimate   =   -1410.34669151 Ry
     estimated scf accuracy    <       0.00000445 Ry

     The total energy is the sum of the following terms:

     one-electron contribution =     343.70646982 Ry
     hartree contribution      =      87.03594446 Ry
     xc contribution           =    -178.84007988 Ry
     ewald contribution        =   -1661.83026996 Ry
     smearing contrib. (-TS)   =      -0.41875577 Ry

     convergence has been achieved in  11 iterations

     Forces acting on atoms (Ry/au):

     atom    1 type  1   force =     0.00000000   -0.04620358   -0.08751272
     atom    2 type  1   force =     0.00000000    0.04620358    0.08751272
     atom    3 type  1   force =     0.00000000   -0.04620358    0.08751272
     atom    4 type  1   force =     0.00000000    0.04620358   -0.08751272
     atom    5 type  1   force =     0.00000000    0.14122910   -0.27255253
     atom    6 type  1   force =     0.00000000   -0.14122910    0.27255253
     atom    7 type  1   force =     0.00000000    0.14122910    0.27255253
     atom    8 type  1   force =     0.00000000   -0.14122910   -0.27255253
     atom    9 type  2   force =     0.00000000   -0.16132130   -0.03285432
     atom   10 type  2   force =     0.00000000    0.16132130    0.03285432
     atom   11 type  2   force =     0.00000000   -0.16132130    0.03285432
     atom   12 type  2   force =     0.00000000    0.16132130   -0.03285432

     Total force =     0.724231     Total SCF correction =     0.000000


     entering subroutine stress ...

          total   stress  (Ry/bohr**3)                   (kbar)     P= 6544.36
   0.04839306   0.00000000   0.00000000       7118.86      0.00      0.00
   0.00000000   0.04086713   0.00000000          0.00   6011.76      0.00
   0.00000000   0.00000000   0.04420284          0.00      0.00   6502.46


     BFGS Geometry Optimization

     number of scf cycles    =   1
     number of bfgs steps    =   0

     enthalpy new            =   -1410.3466913287 Ry

     new trust radius        =       0.5000000000 bohr
     new conv_thr            =       0.0001000000 Ry

     new unit-cell volume =   1080.95721 a.u.^3 (   160.18133 Ang^3 )

CELL_PARAMETERS (alat=  7.01510508)
   1.085136619   0.000000000   0.000000000
   0.000000000   1.410576483   0.000000000
   0.000000000   0.000000000   2.045619731

ATOMIC_POSITIONS (crystal)
Co       0.750000000   0.826048799   0.435273481
Co       0.250000000   0.173951201   0.564726519
Co       0.750000000   0.326048799   0.064726519
Co       0.250000000   0.673951201   0.935273481
Co       0.250000000   0.538162563   0.280904516
Co       0.750000000   0.461837437   0.719095484
Co       0.250000000   0.038162563   0.219095484
Co       0.750000000   0.961837437   0.780904516
Si       0.250000000   0.201624278   0.893426360
Si       0.750000000   0.798375722   0.106573640
Si       0.250000000   0.701624278   0.606573640
Si       0.750000000   0.298375722   0.393426360



     Writing output data file Prototype-La-oP12-Co2Si.save
     NEW-OLD atomic charge density approx. for the potential
     NEW k-points:
        k(    1) = (   0.0000000   0.0000000   0.0000000), wk =   0.0833333
        k(    2) = (   0.0000000   0.0000000   0.1222124), wk =   0.1666667
        k(    3) = (   0.0000000   0.0000000  -0.2444247), wk =   0.0833333
        k(    4) = (   0.0000000   0.2363100   0.0000000), wk =   0.1666667
        k(    5) = (   0.0000000   0.2363100   0.1222124), wk =   0.3333333
        k(    6) = (   0.0000000   0.2363100  -0.2444247), wk =   0.1666667
        k(    7) = (  -0.4607715   0.0000000   0.0000000), wk =   0.0833333
        k(    8) = (  -0.4607715   0.0000000   0.1222124), wk =   0.1666667
        k(    9) = (  -0.4607715   0.0000000  -0.2444247), wk =   0.0833333
        k(   10) = (  -0.4607715   0.2363100   0.0000000), wk =   0.1666667
        k(   11) = (  -0.4607715   0.2363100   0.1222124), wk =   0.3333333
        k(   12) = (  -0.4607715   0.2363100  -0.2444247), wk =   0.1666667

     total cpu time spent up to now is      178.9 secs

     Self-consistent Calculation

     iteration #  1     ecut=    40.00 Ry     beta=0.70
     CG style diagonalization
     c_bands:  1 eigenvalues not converged
     c_bands:  1 eigenvalues not converged
     c_bands:  1 eigenvalues not converged
     ethr =  1.00E-06,  avg # of iterations = 20.7

     total cpu time spent up to now is      223.5 secs

     total energy              =   -1411.48192083 Ry
     Harris-Foulkes estimate   =   -1423.08338903 Ry
     estimated scf accuracy    <      15.13910762 Ry

     iteration #  2     ecut=    40.00 Ry     beta=0.70
     CG style diagonalization
     ethr =  9.01E-03,  avg # of iterations =  3.7

     total cpu time spent up to now is      231.8 secs

     total energy              =   -1412.42856493 Ry
     Harris-Foulkes estimate   =   -1419.96122267 Ry
     estimated scf accuracy    <      13.65242704 Ry

     iteration #  3     ecut=    40.00 Ry     beta=0.70
     CG style diagonalization
     ethr =  8.13E-03,  avg # of iterations =  3.5

     total cpu time spent up to now is      238.7 secs

     total energy              =   -1416.66906239 Ry
     Harris-Foulkes estimate   =   -1417.14094625 Ry
     estimated scf accuracy    <       0.94370281 Ry

     iteration #  4     ecut=    40.00 Ry     beta=0.70
     CG style diagonalization
     ethr =  5.62E-04,  avg # of iterations =  3.7

     total cpu time spent up to now is      248.2 secs

     total energy              =   -1416.86147703 Ry
     Harris-Foulkes estimate   =   -1416.92973949 Ry
     estimated scf accuracy    <       0.16686836 Ry

     iteration #  5     ecut=    40.00 Ry     beta=0.70
     CG style diagonalization
     ethr =  9.93E-05,  avg # of iterations =  3.5

     total cpu time spent up to now is      255.3 secs

     total energy              =   -1416.87525309 Ry
     Harris-Foulkes estimate   =   -1416.88712941 Ry
     estimated scf accuracy    <       0.03391071 Ry

     iteration #  6     ecut=    40.00 Ry     beta=0.70
     CG style diagonalization
     c_bands:  1 eigenvalues not converged
     ethr =  2.02E-05,  avg # of iterations =  3.6

     total cpu time spent up to now is      263.0 secs

     total energy              =   -1416.87821044 Ry
     Harris-Foulkes estimate   =   -1416.88083487 Ry
     estimated scf accuracy    <       0.00460729 Ry

     iteration #  7     ecut=    40.00 Ry     beta=0.70
     CG style diagonalization
     c_bands:  1 eigenvalues not converged
     c_bands:  1 eigenvalues not converged
     ethr =  2.74E-06,  avg # of iterations =  4.5

     total cpu time spent up to now is      274.2 secs

     total energy              =   -1416.88032078 Ry
     Harris-Foulkes estimate   =   -1416.88062160 Ry
     estimated scf accuracy    <       0.00082458 Ry

     iteration #  8     ecut=    40.00 Ry     beta=0.70
     CG style diagonalization
     ethr =  4.91E-07,  avg # of iterations =  3.5

     total cpu time spent up to now is      282.8 secs

     total energy              =   -1416.88035120 Ry
     Harris-Foulkes estimate   =   -1416.88043698 Ry
     estimated scf accuracy    <       0.00019846 Ry

     iteration #  9     ecut=    40.00 Ry     beta=0.70
     CG style diagonalization
     ethr =  1.18E-07,  avg # of iterations =  3.6

     total cpu time spent up to now is      290.0 secs

     End of self-consistent calculation

          k = 0.0000 0.0000 0.0000 (  3675 PWs)   bands (ev):

   -34.6813 -34.6619 -34.6595 -34.6592  -6.6249  -6.6072  -6.2980  -6.2710
    -6.2492  -6.2087  -6.1631  -6.1524  -6.1024  -6.0069  -5.8331  -5.8093
    -3.8659  -2.4795  -2.0992  -2.0560  -1.6667  -1.2202  -1.2002  -1.1756
    11.4100  12.1805  12.4518  13.0838  13.1141  13.1750  13.8328  14.0646
    14.6159  14.7290  14.7841  14.9953  15.2552  15.6623  16.1843  16.1944
    16.2454  16.5514  16.7351  17.3469  17.8149  18.1259  18.6625  19.0956
    25.3714  25.6129  26.2294  26.4172  26.5805  26.7530  26.9179  27.0230
    27.4839  27.9974  28.1439  28.4021  28.4406  29.4208  29.6507  29.8623
    29.9170  30.1203  30.7394  30.8736  30.8943  31.9605  32.7934  33.2044
    33.5159  34.0944  34.1601  34.2429  34.4221  34.5970  35.0552  35.2307
    35.3001  36.1227  36.3484  36.7628  37.0464  37.0494  37.2221  37.4206
    37.9898  38.6506  39.0012  39.0709  39.3692  39.5148  40.0765  40.8510
    41.5695  41.6068  41.7416  41.8988  42.2686

          k = 0.0000 0.0000 0.1222 (  3675 PWs)   bands (ev):

   -34.6796 -34.6660 -34.6614 -34.6550  -6.6049  -6.5369  -6.3766  -6.2942
    -6.2517  -6.2169  -6.1405  -6.1338  -6.1163  -6.0138  -5.8610  -5.8299
    -3.6714  -2.7457  -2.0259  -1.8675  -1.7154  -1.3186  -1.2043  -1.1855
    11.4889  12.0883  12.5777  13.0509  13.0874  13.3934  13.7535  14.0555
    14.5760  14.8595  14.9767  15.0830  15.2421  15.4888  15.7719  16.1535
    16.1947  16.9229  16.9729  17.0828  17.7299  17.7950  18.7019  19.0208
    25.3477  25.6699  26.1414  26.2422  26.6008  26.7150  27.0880  27.2097
    27.7673  27.7837  28.2510  28.4660  28.7164  29.4877  29.5872  29.7256
    30.0985  30.1331  30.5959  30.6958  30.9946  32.3892  32.9769  33.2058
    33.8959  34.0275  34.2670  34.3288  34.6426  34.7377  35.2288  35.2386
    35.3963  35.4851  35.9034  36.2446  36.7080  36.8891  37.3375  37.4989
    37.9443  38.2459  38.7140  39.3386  39.5213  39.9214  39.9385  40.1386
    40.2607  40.3844  41.9069  41.9612  42.3644

          k = 0.0000 0.0000-0.2444 (  3690 PWs)   bands (ev):

   -34.6739 -34.6739 -34.6629 -34.6629  -6.5216  -6.5216  -6.4125  -6.4125
    -6.2338  -6.2338  -6.1241  -6.1241  -6.0749  -6.0749  -5.8632  -5.8632
    -3.2232  -3.2232  -1.8668  -1.8668  -1.5635  -1.5635  -1.2041  -1.2041
    11.7341  11.7341  13.0441  13.0441  13.1688  13.1688  13.9547  13.9547
    14.5779  14.5779  15.2198  15.2198  15.2251  15.2251  16.0792  16.0792
    16.3615  16.3615  17.2560  17.2560  17.4439  17.4439  18.8406  18.8406
    25.5798  25.5798  25.7967  25.7967  26.8125  26.8125  27.4724  27.4724
    28.1772  28.1772  28.2938  28.2938  29.1472  29.1472  29.2075  29.2075
    30.1588  30.1588  30.4247  30.4247  32.0307  32.0307  33.6774  33.6774
    34.1215  34.1215  34.3924  34.3924  34.8070  34.8070  35.1414  35.1414
    35.2918  35.2918  35.8993  35.8993  36.5824  36.5824  37.1512  37.1512
    37.8941  37.8941  38.1336  38.1336  39.3345  39.3345  40.1131  40.1131
    40.8528  40.8529  41.5918  41.5918  42.6258

          k = 0.0000 0.2363 0.0000 (  3664 PWs)   bands (ev):

   -34.6804 -34.6684 -34.6541 -34.6457  -6.7532  -6.7476  -6.3032  -6.2394
    -6.2070  -6.2000  -6.1545  -6.1259  -6.0979  -6.0454  -5.8969  -5.8119
    -3.2904  -2.3910  -2.2381  -1.9002  -1.6305  -1.5514  -1.2047  -1.1693
    12.0511  12.8574  12.9578  13.0889  13.1144  13.1605  13.1938  13.6718
    14.1520  14.2482  14.5061  15.0601  15.2031  16.0550  16.2291  16.4451
    16.5732  16.7460  16.8822  17.0141  17.3015  17.3256  17.8089  17.8731
    26.0308  26.1423  26.3569  26.8219  27.3533  27.5000  27.5546  27.8644
    27.9233  27.9883  28.1833  28.6615  28.8677  29.3069  29.5991  30.2301
    30.3848  30.4635  30.6217  30.6342  30.6725  32.4770  32.7215  33.0078
    33.1117  33.2539  33.9389  34.5538  34.5594  34.8574  34.8861  35.2095
    35.5827  36.1404  36.3550  36.7829  36.9081  37.0044  37.4143  37.9111
    38.0321  38.0796  38.5629  38.6864  39.0784  39.3401  39.5602  39.6730
    40.8103  40.8863  41.1622  41.1666  41.4985

          k = 0.0000 0.2363 0.1222 (  3669 PWs)   bands (ev):

   -34.6778 -34.6670 -34.6558 -34.6546  -6.7385  -6.7268  -6.3445  -6.2752
    -6.2261  -6.2073  -6.1498  -6.1300  -6.0958  -6.0329  -5.8744  -5.8193
    -3.1511  -2.4466  -2.2869  -1.8524  -1.6821  -1.4778  -1.2584  -1.2253
    12.1741  12.7099  12.8847  13.1024  13.1144  13.2353  13.4924  13.8363
    14.1447  14.4103  14.4717  14.8306  15.2825  16.0519  16.1001  16.2426
    16.3981  16.5778  16.8290  17.1286  17.2662  17.3885  17.7132  17.9029
    26.0666  26.1595  26.6063  26.7210  27.2690  27.5120  27.5371  27.9297
    27.9604  28.0744  28.3135  28.7432  28.9367  29.3114  29.6763  29.9786
    30.0958  30.5409  30.5634  30.6745  31.0272  32.8510  33.0720  33.2207
    33.3285  33.7009  34.0071  34.0882  34.4492  34.6681  34.7740  34.9098
    35.7033  35.9955  36.0228  36.3837  36.6149  36.9099  37.1982  37.5511
    37.8872  38.3223  38.5142  38.5163  39.1785  39.6594  39.7678  40.1116
    40.1187  40.7221  40.8901  41.1644  41.7546

          k = 0.0000 0.2363-0.2444 (  3666 PWs)   bands (ev):

   -34.6705 -34.6705 -34.6561 -34.6561  -6.7061  -6.7061  -6.3636  -6.3636
    -6.2164  -6.2164  -6.1401  -6.1401  -6.0536  -6.0536  -5.8372  -5.8372
    -2.8131  -2.8131  -2.0620  -2.0620  -1.5031  -1.5031  -1.3124  -1.3124
    12.4296  12.4296  12.9715  12.9715  13.2785  13.2785  13.8868  13.8868
    14.1452  14.1452  14.7351  14.7351  15.6083  15.6083  16.0956  16.0956
    16.1737  16.1737  17.0953  17.0953  17.3357  17.3357  17.7826  17.7826
    26.2631  26.2631  26.4042  26.4042  27.6282  27.6282  27.6837  27.6837
    28.1229  28.1229  28.6814  28.6814  29.1359  29.1359  29.9331  29.9331
    30.0019  30.0019  30.5496  30.5496  32.1065  32.1065  33.4410  33.4410
    33.6524  33.6524  33.9739  33.9739  34.7577  34.7577  34.9322  34.9322
    35.7382  35.7382  35.9068  35.9068  36.4467  36.4467  37.1530  37.1530
    38.2515  38.2515  38.3360  38.3360  39.1294  39.1294  39.5720  39.5720
    40.1262  40.1263  41.8401  41.8403  41.8564

          k =-0.4608 0.0000 0.0000 (  3722 PWs)   bands (ev):

   -34.6807 -34.6807 -34.6690 -34.6690  -6.7639  -6.7639  -6.5682  -6.5682
    -6.2591  -6.2591  -6.2421  -6.2421  -5.9195  -5.9195  -5.9187  -5.9187
    -2.3242  -2.3242  -2.0296  -2.0296  -1.9284  -1.9284  -1.2129  -1.2129
    11.6328  11.6328  12.7499  12.7499  13.0200  13.0200  13.8438  13.8438
    14.0105  14.0105  15.6978  15.6978  15.8863  15.8863  16.3297  16.3297
    16.7713  16.7713  17.4080  17.4080  17.9009  17.9009  18.5997  18.5997
    26.1366  26.1366  27.2048  27.2048  27.6420  27.6420  27.6558  27.6558
    27.9161  27.9161  27.9417  27.9417  28.6708  28.6708  29.4941  29.4941
    29.7421  29.7421  29.9869  29.9869  30.8467  30.8467  31.6174  31.6174
    33.0533  33.0533  33.8813  33.8813  33.9082  33.9082  35.4429  35.4429
    36.3107  36.3107  36.5942  36.5942  36.8931  36.8931  37.6286  37.6286
    38.3094  38.3094  39.0355  39.0356  39.2410  39.2410  39.5873  39.5873
    39.8760  39.8760  41.5495  41.5497  42.1396

          k =-0.4608 0.0000 0.1222 (  3710 PWs)   bands (ev):

   -34.6786 -34.6786 -34.6648 -34.6648  -6.8092  -6.8092  -6.5064  -6.5064
    -6.2611  -6.2611  -6.2380  -6.2380  -5.9266  -5.9266  -5.9080  -5.9080
    -2.3089  -2.3089  -2.0133  -2.0133  -1.9312  -1.9312  -1.2553  -1.2553
    11.6417  11.6417  12.6833  12.6833  13.3236  13.3236  13.7829  13.7829
    14.3177  14.3177  15.3601  15.3601  15.5781  15.5781  16.0568  16.0568
    17.0661  17.0661  17.5132  17.5132  17.8543  17.8543  18.5845  18.5845
    26.2508  26.2508  27.0028  27.0028  27.4130  27.4130  27.7802  27.7802
    28.1056  28.1056  28.3031  28.3031  28.7539  28.7539  29.3059  29.3059
    29.3849  29.3849  30.0966  30.0966  31.1221  31.1221  32.2945  32.2945
    33.0776  33.0776  33.5427  33.5427  34.6347  34.6347  34.9526  34.9526
    35.5253  35.5253  36.3042  36.3042  36.8102  36.8102  37.2628  37.2628
    38.0225  38.0225  38.5186  38.5186  38.8870  38.8870  40.0362  40.0363
    41.0067  41.0067  41.8618  41.8621  42.1737

          k =-0.4608 0.0000-0.2444 (  3680 PWs)   bands (ev):

   -34.6685 -34.6685 -34.6607 -34.6607  -6.8346  -6.8346  -6.4581  -6.4581
    -6.2457  -6.2457  -6.2441  -6.2441  -5.9254  -5.9254  -5.8962  -5.8962
    -2.2835  -2.2835  -2.0430  -2.0430  -1.8891  -1.8891  -1.3038  -1.3038
    11.6375  11.6375  12.7274  12.7274  13.4205  13.4205  14.2414  14.2414
    14.3038  14.3038  15.0623  15.0623  15.3170  15.3170  15.7145  15.7145
    17.3042  17.3042  17.6424  17.6424  17.7461  17.7461  18.5701  18.5701
    26.3911  26.3911  26.7286  26.7286  27.5459  27.5459  27.7198  27.7198
    28.3867  28.3867  28.5636  28.5636  28.6650  28.6650  29.1626  29.1626
    29.2369  29.2369  30.0956  30.0956  31.4073  31.4073  32.7019  32.7019
    33.5090  33.5090  33.9204  33.9204  34.3495  34.3495  34.8759  34.8759
    35.2874  35.2874  35.5138  35.5138  35.9972  35.9972  36.8633  36.8633
    37.8124  37.8124  38.2226  38.2226  39.9947  39.9949  40.0062  40.0062
    41.3713  41.3714  41.8050  41.9953  41.9956

          k =-0.4608 0.2363 0.0000 (  3686 PWs)   bands (ev):

   -34.6725 -34.6725 -34.6622 -34.6622  -6.7297  -6.7297  -6.6627  -6.6627
    -6.3096  -6.3096  -6.2601  -6.2601  -5.8794  -5.8794  -5.8701  -5.8701
    -2.1963  -2.1963  -1.9985  -1.9985  -1.7161  -1.7161  -1.4185  -1.4185
    12.1258  12.1258  12.3504  12.3504  13.1182  13.1182  14.2914  14.2914
    14.4430  14.4430  14.9651  14.9651  15.6360  15.6360  15.8264  15.8264
    16.9586  16.9586  17.1626  17.1626  17.7027  17.7027  17.9128  17.9128
    26.5504  26.5504  27.3848  27.3848  27.7829  27.7829  27.9753  27.9753
    28.3392  28.3392  28.3727  28.3727  29.3159  29.3159  29.5486  29.5486
    29.9059  29.9059  29.9863  29.9863  31.6318  31.6318  31.8674  31.8674
    33.4443  33.4443  33.7894  33.7894  34.7121  34.7121  35.1555  35.1555
    36.0168  36.0168  36.3416  36.3416  36.4120  36.4120  37.5287  37.5287
    37.6724  37.6724  38.4530  38.4530  38.9412  38.9412  39.6771  39.6771
    40.1323  40.1328  40.7533  40.7533  40.7580

          k =-0.4608 0.2363 0.1222 (  3692 PWs)   bands (ev):

   -34.6707 -34.6707 -34.6663 -34.6663  -6.7753  -6.7753  -6.6374  -6.6374
    -6.2948  -6.2948  -6.2509  -6.2509  -5.8881  -5.8881  -5.8679  -5.8679
    -2.1692  -2.1692  -1.9665  -1.9665  -1.7422  -1.7422  -1.4682  -1.4682
    12.2352  12.2352  12.5248  12.5248  13.2273  13.2273  13.7813  13.7813
    14.2964  14.2964  15.1242  15.1242  15.6725  15.6725  16.1070  16.1070
    16.8637  16.8637  17.2594  17.2594  17.4333  17.4333  17.8564  17.8564
    26.5416  26.5416  27.1771  27.1771  27.7501  27.7501  28.0275  28.0275
    28.4967  28.4967  28.6758  28.6758  29.3375  29.3375  29.5295  29.5295
    29.8186  29.8186  30.1335  30.1335  31.8864  31.8864  32.3636  32.3636
    33.3930  33.3930  33.8939  33.8939  34.3931  34.3931  34.8364  34.8364
    35.8176  35.8176  36.1142  36.1142  36.5800  36.5800  36.9264  36.9264
    37.7907  37.7907  38.2844  38.2844  38.8461  38.8461  39.5419  39.5419
    39.7994  39.7995  40.6321  40.6321  41.4967

          k =-0.4608 0.2363-0.2444 (  3704 PWs)   bands (ev):

   -34.6738 -34.6738 -34.6688 -34.6688  -6.8095  -6.8095  -6.6331  -6.6331
    -6.2665  -6.2665  -6.2531  -6.2531  -5.8883  -5.8883  -5.8751  -5.8751
    -2.1342  -2.1342  -1.9451  -1.9451  -1.7531  -1.7531  -1.5327  -1.5327
    12.3294  12.3294  12.8662  12.8662  13.3023  13.3023  13.5671  13.5671
    13.7630  13.7630  15.2324  15.2324  15.9055  15.9055  16.2813  16.2813
    16.8574  16.8574  16.9610  16.9610  17.5056  17.5056  17.6987  17.6987
    26.5224  26.5224  27.0094  27.0094  27.7905  27.7905  28.0224  28.0224
    28.5985  28.5985  28.9593  28.9593  29.4451  29.4451  29.4843  29.4843
    29.8307  29.8307  30.2134  30.2134  32.3313  32.3313  32.7758  32.7758
    33.3358  33.3358  33.8048  33.8048  34.0154  34.0154  34.8934  34.8934
    35.2644  35.2644  36.1296  36.1296  36.2738  36.2738  37.0633  37.0633
    37.3848  37.3848  38.4351  38.4351  38.6406  38.6406  39.5081  39.5081
    39.6566  39.6566  40.2360  40.2360  41.1025

     the Fermi energy is    36.4532 ev

!    total energy              =   -1416.88038490 Ry
     Harris-Foulkes estimate   =   -1416.88039526 Ry
     estimated scf accuracy    <       0.00000905 Ry

     The total energy is the sum of the following terms:

     one-electron contribution =     185.52454513 Ry
     hartree contribution      =     111.98371185 Ry
     xc contribution           =    -172.20337198 Ry
     ewald contribution        =   -1541.70237150 Ry
     smearing contrib. (-TS)   =      -0.48289840 Ry

     convergence has been achieved in   9 iterations

     Forces acting on atoms (Ry/au):

     atom    1 type  1   force =     0.00000000   -0.03526734   -0.03434379
     atom    2 type  1   force =     0.00000000    0.03526734    0.03434379
     atom    3 type  1   force =     0.00000000   -0.03526734    0.03434379
     atom    4 type  1   force =     0.00000000    0.03526734   -0.03434379
     atom    5 type  1   force =     0.00000000    0.06502360   -0.15340925
     atom    6 type  1   force =     0.00000000   -0.06502360    0.15340925
     atom    7 type  1   force =     0.00000000    0.06502360    0.15340925
     atom    8 type  1   force =     0.00000000   -0.06502360   -0.15340925
     atom    9 type  2   force =     0.00000000   -0.11163848   -0.00217868
     atom   10 type  2   force =     0.00000000    0.11163848    0.00217868
     atom   11 type  2   force =     0.00000000   -0.11163848    0.00217868
     atom   12 type  2   force =     0.00000000    0.11163848   -0.00217868

     Total force =     0.413055     Total SCF correction =     0.000000


     entering subroutine stress ...

          total   stress  (Ry/bohr**3)                   (kbar)     P= 2691.91
   0.02008309   0.00000000   0.00000000       2954.32      0.00      0.00
   0.00000000   0.01676823   0.00000000          0.00   2466.69      0.00
   0.00000000   0.00000000   0.01804637          0.00      0.00   2654.71


     number of scf cycles    =   2
     number of bfgs steps    =   1

     enthalpy old            =   -1410.3466913287 Ry
     enthalpy new            =   -1416.8803849018 Ry

     CASE: enthalpy_new < enthalpy_old

     small trust_radius: resetting bfgs history

     new trust radius        =       3.3014503484 bohr
     new conv_thr            =       0.0001000000 Ry

     new unit-cell volume =   3343.96060 a.u.^3 (   495.52383 Ang^3 )

CELL_PARAMETERS (alat=  7.01510508)
   1.629959009   0.000000000   0.000000000
   0.000000000   2.001898151   0.000000000
   0.000000000   0.000000000   2.968519786

ATOMIC_POSITIONS (crystal)
Co       0.750000000   0.822484764   0.432880225
Co       0.250000000   0.177515236   0.567119775
Co       0.750000000   0.322484764   0.067119775
Co       0.250000000   0.677515236   0.932880225
Co       0.250000000   0.544733695   0.270214153
Co       0.750000000   0.455266305   0.729785847
Co       0.250000000   0.044733695   0.229785847
Co       0.750000000   0.955266305   0.770214153
Si       0.250000000   0.190342355   0.893274538
Si       0.750000000   0.809657645   0.106725462
Si       0.250000000   0.690342355   0.606725462
Si       0.750000000   0.309657645   0.393274538



     Writing output data file Prototype-La-oP12-Co2Si.save
     NEW-OLD atomic charge density approx. for the potential
     NEW k-points:
        k(    1) = (   0.0000000   0.0000000   0.0000000), wk =   0.0833333
        k(    2) = (   0.0000000   0.0000000   0.0842171), wk =   0.1666667
        k(    3) = (   0.0000000   0.0000000  -0.1684341), wk =   0.0833333
        k(    4) = (   0.0000000   0.1665086   0.0000000), wk =   0.1666667
        k(    5) = (   0.0000000   0.1665086   0.0842171), wk =   0.3333333
        k(    6) = (   0.0000000   0.1665086  -0.1684341), wk =   0.1666667
        k(    7) = (  -0.3067562   0.0000000   0.0000000), wk =   0.0833333
        k(    8) = (  -0.3067562   0.0000000   0.0842171), wk =   0.1666667
        k(    9) = (  -0.3067562   0.0000000  -0.1684341), wk =   0.0833333
        k(   10) = (  -0.3067562   0.1665086   0.0000000), wk =   0.1666667
        k(   11) = (  -0.3067562   0.1665086   0.0842171), wk =   0.3333333
        k(   12) = (  -0.3067562   0.1665086  -0.1684341), wk =   0.1666667

     total cpu time spent up to now is      293.5 secs

     Self-consistent Calculation

     iteration #  1     ecut=    40.00 Ry     beta=0.70
     CG style diagonalization
     c_bands:  3 eigenvalues not converged
     c_bands:  5 eigenvalues not converged
     c_bands:  4 eigenvalues not converged
     c_bands:  1 eigenvalues not converged
     c_bands:  5 eigenvalues not converged
     c_bands:  3 eigenvalues not converged
     c_bands:  1 eigenvalues not converged
     ethr =  1.00E-06,  avg # of iterations = 32.2

     total cpu time spent up to now is      361.8 secs

     total energy              =   -1332.66603818 Ry
     Harris-Foulkes estimate   =   -1556.59436767 Ry
     estimated scf accuracy    <     294.74819092 Ry

     iteration #  2     ecut=    40.00 Ry     beta=0.70
     CG style diagonalization
     ethr =  1.00E-02,  avg # of iterations =  7.3

     total cpu time spent up to now is      379.7 secs

     total energy              =   -1323.32582174 Ry
     Harris-Foulkes estimate   =   -1454.04374862 Ry
     estimated scf accuracy    <     224.85954107 Ry

     iteration #  3     ecut=    40.00 Ry     beta=0.70
     CG style diagonalization
     ethr =  1.00E-02,  avg # of iterations =  8.9

     total cpu time spent up to now is      400.4 secs

     total energy              =   -1406.38458207 Ry
     Harris-Foulkes estimate   =   -1439.14149311 Ry
     estimated scf accuracy    <      80.18707184 Ry

     iteration #  4     ecut=    40.00 Ry     beta=0.70
     CG style diagonalization
     ethr =  1.00E-02,  avg # of iterations =  4.1

     total cpu time spent up to now is      409.6 secs

     total energy              =   -1410.09576140 Ry
     Harris-Foulkes estimate   =   -1415.35426603 Ry
     estimated scf accuracy    <      22.27274077 Ry

     iteration #  5     ecut=    40.00 Ry     beta=0.70
     CG style diagonalization
     ethr =  1.00E-02,  avg # of iterations =  3.2

     total cpu time spent up to now is      416.2 secs

     total energy              =   -1409.81377787 Ry
     Harris-Foulkes estimate   =   -1411.40415929 Ry
     estimated scf accuracy    <      11.94371660 Ry

     iteration #  6     ecut=    40.00 Ry     beta=0.70
     CG style diagonalization
     ethr =  7.11E-03,  avg # of iterations =  3.0

     total cpu time spent up to now is      422.9 secs

     total energy              =   -1406.69272336 Ry
     Harris-Foulkes estimate   =   -1410.01302828 Ry
     estimated scf accuracy    <       8.84557304 Ry

     iteration #  7     ecut=    40.00 Ry     beta=0.70
     CG style diagonalization
     ethr =  5.27E-03,  avg # of iterations =  4.2

     total cpu time spent up to now is      432.6 secs

     total energy              =   -1408.28964084 Ry
     Harris-Foulkes estimate   =   -1408.54946425 Ry
     estimated scf accuracy    <       1.53930948 Ry

     iteration #  8     ecut=    40.00 Ry     beta=0.70
     CG style diagonalization
     c_bands:  1 eigenvalues not converged
     c_bands:  1 eigenvalues not converged
     c_bands:  1 eigenvalues not converged
     ethr =  9.16E-04,  avg # of iterations =  4.3

     total cpu time spent up to now is      442.2 secs

     total energy              =   -1408.15311889 Ry
     Harris-Foulkes estimate   =   -1408.69265840 Ry
     estimated scf accuracy    <       1.77820233 Ry

     iteration #  9     ecut=    40.00 Ry     beta=0.70
     CG style diagonalization
     c_bands:  1 eigenvalues not converged
     ethr =  9.16E-04,  avg # of iterations =  4.0

     total cpu time spent up to now is      452.4 secs

     total energy              =   -1408.52592760 Ry
     Harris-Foulkes estimate   =   -1408.50736370 Ry
     estimated scf accuracy    <       0.15021619 Ry

     iteration # 10     ecut=    40.00 Ry     beta=0.70
     CG style diagonalization
     c_bands:  1 eigenvalues not converged
     c_bands:  1 eigenvalues not converged
     c_bands:  2 eigenvalues not converged
     c_bands:  1 eigenvalues not converged
     c_bands:  1 eigenvalues not converged
     c_bands:  1 eigenvalues not converged
     c_bands:  1 eigenvalues not converged
     c_bands:  1 eigenvalues not converged
     ethr =  8.94E-05,  avg # of iterations =  4.9

     total cpu time spent up to now is      464.1 secs

     total energy              =   -1408.41766081 Ry
     Harris-Foulkes estimate   =   -1408.59318945 Ry
     estimated scf accuracy    <       0.60677269 Ry

     iteration # 11     ecut=    40.00 Ry     beta=0.70
     CG style diagonalization
     c_bands:  1 eigenvalues not converged
     c_bands:  1 eigenvalues not converged
     c_bands:  1 eigenvalues not converged
     c_bands:  1 eigenvalues not converged
     c_bands:  1 eigenvalues not converged
     c_bands:  1 eigenvalues not converged
     c_bands:  1 eigenvalues not converged
     ethr =  8.94E-05,  avg # of iterations =  4.5

     total cpu time spent up to now is      474.5 secs

     total energy              =   -1408.49774341 Ry
     Harris-Foulkes estimate   =   -1408.49705628 Ry
     estimated scf accuracy    <       0.00068900 Ry

     iteration # 12     ecut=    40.00 Ry     beta=0.70
     CG style diagonalization
     c_bands:  4 eigenvalues not converged
     c_bands:  4 eigenvalues not converged
     c_bands:  3 eigenvalues not converged
     c_bands:  2 eigenvalues not converged
     c_bands:  2 eigenvalues not converged
     c_bands:  3 eigenvalues not converged
     c_bands:  1 eigenvalues not converged
     c_bands:  2 eigenvalues not converged
     c_bands:  1 eigenvalues not converged
     c_bands:  2 eigenvalues not converged
     c_bands:  2 eigenvalues not converged
     c_bands:  1 eigenvalues not converged
     ethr =  4.10E-07,  avg # of iterations =  7.7

     total cpu time spent up to now is      493.7 secs

     total energy              =   -1408.49530443 Ry
     Harris-Foulkes estimate   =   -1408.50496092 Ry
     estimated scf accuracy    <       0.04068820 Ry

     iteration # 13     ecut=    40.00 Ry     beta=0.70
     CG style diagonalization
     c_bands:  2 eigenvalues not converged
     c_bands:  2 eigenvalues not converged
     c_bands:  2 eigenvalues not converged
     c_bands:  1 eigenvalues not converged
     c_bands:  1 eigenvalues not converged
     c_bands:  2 eigenvalues not converged
     c_bands:  1 eigenvalues not converged
     c_bands:  1 eigenvalues not converged
     c_bands:  1 eigenvalues not converged
     ethr =  4.10E-07,  avg # of iterations =  6.5

     total cpu time spent up to now is      508.9 secs

     total energy              =   -1408.49989955 Ry
     Harris-Foulkes estimate   =   -1408.49998664 Ry
     estimated scf accuracy    <       0.00020982 Ry

     iteration # 14     ecut=    40.00 Ry     beta=0.70
     CG style diagonalization
     c_bands:  1 eigenvalues not converged
     c_bands:  2 eigenvalues not converged
     c_bands:  1 eigenvalues not converged
     c_bands:  1 eigenvalues not converged
     c_bands:  1 eigenvalues not converged
     c_bands:  1 eigenvalues not converged
     ethr =  1.25E-07,  avg # of iterations =  4.4

     total cpu time spent up to now is      520.3 secs

     total energy              =   -1408.49994345 Ry
     Harris-Foulkes estimate   =   -1408.50000032 Ry
     estimated scf accuracy    <       0.00026948 Ry

     iteration # 15     ecut=    40.00 Ry     beta=0.70
     CG style diagonalization
     c_bands:  2 eigenvalues not converged
     ethr =  1.25E-07,  avg # of iterations =  3.1

     total cpu time spent up to now is      526.9 secs

     End of self-consistent calculation

          k = 0.0000 0.0000 0.0000 (  3675 PWs)   bands (ev):

   -53.1990 -53.1804 -53.1280 -53.1120 -29.0762 -29.0596 -29.0389 -29.0194
   -28.9781 -28.9493 -28.8663 -28.8467 -28.7690 -28.7681 -28.7668 -28.7657
   -28.7627 -28.7584 -28.7579 -28.7576 -28.7316 -28.7315 -28.7306 -28.7300
   -10.2725 -10.2084 -10.1997 -10.1719 -10.1446 -10.1298 -10.0948 -10.0646
   -10.0600 -10.0474 -10.0404 -10.0358 -10.0186  -9.9428  -9.9288  -9.9032
    -9.8970  -9.8535  -9.8419  -9.8320  -9.7765  -9.7757  -9.7638  -9.7465
     6.0229   6.5618   6.5926   6.6219   6.6388   6.7001   6.7029   6.7051
     6.7319   6.7502   6.7851   6.8508   6.9039   6.9242   6.9335   7.0543
     7.0765   7.0949   7.1067   7.1940   7.2098   7.4411   7.5979   8.0604
     8.2184   8.6151   8.6384   8.8655   8.8731   8.9993   9.1124   9.3038
     9.3883   9.4377   9.4383   9.4820   9.5942   9.6634   9.6726   9.7199
    10.0307  10.3146  10.4399  10.5337  10.5900  10.5992  10.6898  10.8800
    11.1713  11.1807  11.2270  11.2771  11.3177

          k = 0.0000 0.0000 0.0842 (  3675 PWs)   bands (ev):

   -53.2169 -53.1600 -53.1508 -53.0891 -29.0825 -29.0579 -29.0349 -29.0187
   -28.9572 -28.9552 -28.8958 -28.8148 -28.7688 -28.7679 -28.7661 -28.7656
   -28.7622 -28.7590 -28.7583 -28.7576 -28.7317 -28.7314 -28.7311 -28.7294
   -10.2732 -10.2184 -10.2016 -10.1656 -10.1466 -10.1266 -10.1183 -10.0891
   -10.0725 -10.0722 -10.0416 -10.0036 -10.0022  -9.9291  -9.9286  -9.9217
    -9.8611  -9.8435  -9.8422  -9.8156  -9.7738  -9.7713  -9.7674  -9.7665
     6.1384   6.5624   6.5998   6.6275   6.6554   6.6791   6.6935   6.7223
     6.7284   6.7377   6.8331   6.8991   6.9182   6.9241   6.9257   6.9509
     7.0215   7.0849   7.0948   7.1209   7.1824   7.2113   7.8119   8.1482
     8.2518   8.7097   8.7339   8.7987   8.9787   9.0009   9.1398   9.2612
     9.3169   9.4201   9.4589   9.4818   9.4923   9.5974   9.6803   9.7258
     9.9610   9.9662  10.0912  10.6211  10.6672  10.7890  10.7958  10.9905
    11.0373  11.0964  11.2580  11.3393  11.3634

          k = 0.0000 0.0000-0.1684 (  3690 PWs)   bands (ev):

   -53.2217 -53.2217 -53.1506 -53.1506 -29.0995 -29.0995 -29.0272 -29.0272
   -28.9607 -28.9607 -28.8618 -28.8618 -28.7683 -28.7683 -28.7654 -28.7654
   -28.7599 -28.7599 -28.7581 -28.7581 -28.7317 -28.7317 -28.7309 -28.7309
   -10.2726 -10.2726 -10.1978 -10.1978 -10.1290 -10.1290 -10.1047 -10.1047
   -10.0872 -10.0872 -10.0169 -10.0169  -9.9435  -9.9435  -9.9296  -9.9296
    -9.9021  -9.9021  -9.8410  -9.8410  -9.7946  -9.7946  -9.7601  -9.7601
     6.4155   6.4155   6.5673   6.5673   6.6520   6.6520   6.7039   6.7039
     6.7603   6.7603   6.8585   6.8585   6.8727   6.8727   6.9444   6.9444
     7.0021   7.0021   7.0722   7.0722   7.1927   7.1927   7.9855   7.9855
     8.5683   8.5683   8.8835   8.8835   9.0046   9.0046   9.1919   9.1919
     9.3277   9.3277   9.4193   9.4193   9.5983   9.5983   9.6156   9.6156
     9.7678   9.7678  10.2016  10.2016  10.8289  10.8290  10.8980  10.8980
    11.1395  11.1395  11.1884  11.1884  11.4433

          k = 0.0000 0.1665 0.0000 (  3664 PWs)   bands (ev):

   -53.2288 -53.1741 -53.0580 -53.0546 -29.0599 -29.0505 -29.0238 -29.0208
   -28.9371 -28.8994 -28.8992 -28.8508 -28.7679 -28.7677 -28.7661 -28.7655
   -28.7625 -28.7617 -28.7537 -28.7532 -28.7304 -28.7297 -28.7292 -28.7288
   -10.1846 -10.1741 -10.1687 -10.1309 -10.1266 -10.1046 -10.1026 -10.0798
   -10.0707 -10.0559 -10.0485 -10.0393  -9.9648  -9.9586  -9.9309  -9.9167
    -9.8716  -9.8580  -9.8527  -9.8379  -9.8281  -9.8000  -9.7852  -9.7408
     6.4022   6.6622   6.6676   6.6903   6.7693   6.8008   6.8088   6.8158
     6.8608   6.8637   6.8675   6.8938   6.9079   6.9382   6.9624   6.9737
     7.0097   7.0120   7.0651   7.1595   7.1868   7.6598   7.7855   7.8802
     8.1904   8.6942   8.7471   8.8394   8.9679   9.0822   9.1172   9.2042
     9.2083   9.2549   9.3919   9.4954   9.6599   9.6695   9.7091   9.7986
     9.9378  10.0547  10.3389  10.3488  10.3632  10.3952  10.5570  10.5719
    10.7004  10.8452  11.1113  11.1475  11.2318

          k = 0.0000 0.1665 0.0842 (  3669 PWs)   bands (ev):

   -53.2137 -53.1752 -53.1120 -53.0639 -29.0852 -29.0584 -29.0102 -29.0063
   -28.9519 -28.9101 -28.8901 -28.8633 -28.7678 -28.7672 -28.7659 -28.7654
   -28.7621 -28.7611 -28.7550 -28.7520 -28.7304 -28.7298 -28.7297 -28.7290
   -10.2196 -10.1850 -10.1575 -10.1432 -10.1228 -10.1029 -10.0995 -10.0957
   -10.0826 -10.0780 -10.0437  -9.9994  -9.9711  -9.9639  -9.9331  -9.9212
    -9.8765  -9.8623  -9.8498  -9.8399  -9.8162  -9.8037  -9.7794  -9.7556
     6.4900   6.6508   6.6787   6.7465   6.7669   6.7762   6.7869   6.8027
     6.8475   6.8792   6.8815   6.8909   6.9009   6.9444   6.9463   6.9536
     6.9866   7.0115   7.0733   7.1696   7.1858   7.4635   7.7383   8.0209
     8.2860   8.6390   8.7137   8.8180   9.0722   9.0944   9.1098   9.1292
     9.2015   9.2522   9.3948   9.4755   9.6178   9.6738   9.7136   9.7571
     9.9030   9.9643  10.1769  10.2796  10.4834  10.5224  10.5896  10.6242
    10.7705  10.8325  10.8583  11.1644  11.2354

          k = 0.0000 0.1665-0.1684 (  3666 PWs)   bands (ev):

   -53.1556 -53.1556 -53.1128 -53.1128 -29.0617 -29.0617 -28.9988 -28.9988
   -28.9324 -28.9324 -28.8828 -28.8828 -28.7677 -28.7677 -28.7657 -28.7657
   -28.7613 -28.7613 -28.7562 -28.7562 -28.7300 -28.7300 -28.7298 -28.7298
   -10.1917 -10.1917 -10.1575 -10.1575 -10.1159 -10.1159 -10.0860 -10.0860
   -10.0687 -10.0687 -10.0004 -10.0004  -9.9798  -9.9798  -9.9266  -9.9266
    -9.8634  -9.8634  -9.8550  -9.8550  -9.8092  -9.8092  -9.7761  -9.7761
     6.6466   6.6466   6.7193   6.7193   6.7846   6.7846   6.8013   6.8013
     6.8556   6.8556   6.9012   6.9012   6.9120   6.9120   6.9400   6.9400
     6.9447   6.9447   7.1825   7.1825   7.1843   7.1843   7.9468   7.9468
     8.4016   8.4016   8.8633   8.8633   8.9806   8.9806   9.1991   9.1991
     9.2196   9.2196   9.4757   9.4757   9.5343   9.5343   9.7666   9.7666
     9.9506   9.9506  10.0257  10.0257  10.5679  10.5679  10.6948  10.6948
    10.7109  10.7109  11.0545  11.0545  11.2600

          k =-0.3068 0.0000 0.0000 (  3722 PWs)   bands (ev):

   -53.2780 -53.2780 -53.2552 -53.2552 -29.1045 -29.1045 -29.0722 -29.0722
   -28.9869 -28.9869 -28.9823 -28.9823 -28.7663 -28.7663 -28.7662 -28.7662
   -28.7629 -28.7629 -28.7604 -28.7604 -28.7320 -28.7320 -28.7319 -28.7319
   -10.2967 -10.2967 -10.2081 -10.2081 -10.1588 -10.1588 -10.1585 -10.1585
   -10.1260 -10.1260 -10.0022 -10.0022  -9.9567  -9.9567  -9.9531  -9.9531
    -9.8851  -9.8851  -9.8542  -9.8542  -9.8435  -9.8435  -9.7506  -9.7506
     6.5208   6.5208   6.6115   6.6115   6.6611   6.6611   6.7229   6.7229
     6.8071   6.8071   6.8385   6.8385   6.8886   6.8886   6.9560   6.9560
     7.0211   7.0211   7.1628   7.1628   7.4993   7.4993   7.8375   7.8375
     8.3851   8.3851   8.7667   8.7667   8.8149   8.8149   9.4105   9.4105
     9.5793   9.5793   9.7426   9.7426   9.8918   9.8918   9.9005   9.9005
    10.0770  10.0770  10.2362  10.2362  10.4870  10.4870  10.5207  10.5207
    10.7080  10.7080  10.9492  10.9492  11.1290

          k =-0.3068 0.0000 0.0842 (  3710 PWs)   bands (ev):

   -53.2393 -53.2393 -53.2356 -53.2356 -29.0883 -29.0883 -29.0627 -29.0627
   -28.9822 -28.9822 -28.9534 -28.9534 -28.7661 -28.7661 -28.7656 -28.7656
   -28.7627 -28.7627 -28.7612 -28.7612 -28.7320 -28.7320 -28.7319 -28.7319
   -10.2850 -10.2850 -10.2035 -10.2035 -10.1776 -10.1776 -10.1183 -10.1183
   -10.1111 -10.1111  -9.9969  -9.9969  -9.9774  -9.9774  -9.9141  -9.9141
    -9.8779  -9.8779  -9.8510  -9.8510  -9.8372  -9.8372  -9.7649  -9.7649
     6.5408   6.5408   6.6040   6.6040   6.6818   6.6818   6.7395   6.7395
     6.7921   6.7921   6.8734   6.8734   6.8954   6.8954   6.9620   6.9620
     7.0447   7.0447   7.1701   7.1701   7.5254   7.5254   7.8094   7.8094
     8.2066   8.2066   8.8646   8.8646   8.8995   8.8995   9.3893   9.3893
     9.4463   9.4463   9.6414   9.6414   9.7682   9.7682   9.9986   9.9986
    10.1267  10.1267  10.3354  10.3354  10.4428  10.4428  10.6257  10.6257
    10.6586  10.6586  10.8291  10.8291  11.2411

          k =-0.3068 0.0000-0.1684 (  3680 PWs)   bands (ev):

   -53.1935 -53.1935 -53.1413 -53.1413 -29.0485 -29.0485 -29.0329 -29.0329
   -28.9411 -28.9411 -28.9322 -28.9322 -28.7643 -28.7643 -28.7639 -28.7639
   -28.7626 -28.7626 -28.7614 -28.7614 -28.7319 -28.7319 -28.7318 -28.7318
   -10.2877 -10.2877 -10.1734 -10.1734 -10.1545 -10.1545 -10.1209 -10.1209
   -10.0340 -10.0340  -9.9906  -9.9906  -9.9866  -9.9866  -9.8886  -9.8886
    -9.8629  -9.8629  -9.8512  -9.8512  -9.8117  -9.8117  -9.7527  -9.7527
     6.5540   6.5540   6.6590   6.6590   6.7007   6.7007   6.7079   6.7079
     6.7820   6.7820   6.9180   6.9180   6.9210   6.9210   7.0191   7.0191
     7.0555   7.0555   7.1900   7.1900   7.5909   7.5909   7.7501   7.7501
     8.0569   8.0569   8.9296   8.9296   9.0043   9.0043   9.2625   9.2625
     9.4268   9.4268   9.6951   9.6951   9.7166   9.7166   9.9889   9.9889
    10.1086  10.1086  10.3383  10.3383  10.3624  10.3624  10.4247  10.4247
    10.8620  10.8620  10.9420  10.9420  11.2854

          k =-0.3068 0.1665 0.0000 (  3686 PWs)   bands (ev):

   -53.2046 -53.2046 -53.1714 -53.1714 -29.0637 -29.0637 -29.0513 -29.0513
   -28.9565 -28.9565 -28.9517 -28.9517 -28.7653 -28.7653 -28.7651 -28.7651
   -28.7618 -28.7618 -28.7608 -28.7608 -28.7306 -28.7306 -28.7303 -28.7303
   -10.2087 -10.2087 -10.1655 -10.1655 -10.1580 -10.1580 -10.0888 -10.0888
   -10.0847 -10.0847 -10.0064 -10.0064  -9.9536  -9.9536  -9.9149  -9.9149
    -9.8769  -9.8769  -9.8505  -9.8505  -9.8376  -9.8376  -9.8247  -9.8247
     6.6315   6.6315   6.7062   6.7062   6.7575   6.7575   6.8174   6.8174
     6.8847   6.8847   6.9056   6.9056   6.9648   6.9648   6.9845   6.9845
     7.0509   7.0509   7.1151   7.1151   7.7189   7.7189   8.0303   8.0303
     8.4858   8.4858   8.6361   8.6361   9.0181   9.0181   9.3451   9.3451
     9.3514   9.3514   9.5908   9.5908   9.7098   9.7098   9.8471   9.8471
     9.9744   9.9744  10.1181  10.1181  10.1289  10.1289  10.3320  10.3320
    10.6408  10.6408  10.8343  10.8343  10.9076

          k =-0.3068 0.1665 0.0842 (  3692 PWs)   bands (ev):

   -53.2439 -53.2439 -53.1561 -53.1561 -29.0649 -29.0649 -29.0578 -29.0578
   -28.9574 -28.9574 -28.9514 -28.9514 -28.7648 -28.7648 -28.7639 -28.7639
   -28.7618 -28.7618 -28.7609 -28.7609 -28.7307 -28.7307 -28.7304 -28.7304
   -10.2097 -10.2097 -10.1781 -10.1781 -10.1514 -10.1514 -10.1162 -10.1162
   -10.0705 -10.0705 -10.0069 -10.0069  -9.9622  -9.9622  -9.9127  -9.9127
    -9.8782  -9.8782  -9.8528  -9.8528  -9.8438  -9.8438  -9.8264  -9.8264
     6.6443   6.6443   6.7097   6.7097   6.7767   6.7767   6.8295   6.8295
     6.8604   6.8604   6.9153   6.9153   6.9439   6.9439   6.9731   6.9731
     7.0836   7.0836   7.1153   7.1153   7.7415   7.7415   8.0315   8.0315
     8.2960   8.2960   8.7626   8.7626   9.0590   9.0590   9.2703   9.2703
     9.3646   9.3646   9.5417   9.5417   9.6497   9.6497   9.7743   9.7743
     9.9360   9.9360  10.1356  10.1356  10.2033  10.2033  10.3965  10.3965
    10.6243  10.6243  10.7311  10.7311  11.0691

          k =-0.3068 0.1665-0.1684 (  3704 PWs)   bands (ev):

   -53.2837 -53.2837 -53.1714 -53.1714 -29.0784 -29.0784 -29.0671 -29.0671
   -28.9716 -28.9716 -28.9540 -28.9540 -28.7651 -28.7651 -28.7648 -28.7648
   -28.7619 -28.7619 -28.7618 -28.7618 -28.7308 -28.7308 -28.7306 -28.7306
   -10.2238 -10.2238 -10.1908 -10.1908 -10.1482 -10.1482 -10.1193 -10.1193
   -10.0852 -10.0852 -10.0111 -10.0111  -9.9737  -9.9737  -9.9120  -9.9120
    -9.8802  -9.8802  -9.8667  -9.8667  -9.8486  -9.8486  -9.8313  -9.8313
     6.6584   6.6584   6.7179   6.7179   6.7897   6.7897   6.8263   6.8263
     6.8579   6.8579   6.8850   6.8850   6.9421   6.9421   6.9602   6.9602
     7.0796   7.0796   7.1346   7.1346   7.8244   7.8244   7.9705   7.9705
     8.1416   8.1416   8.8871   8.8871   9.0178   9.0178   9.2483   9.2483
     9.3674   9.3674   9.5390   9.5390   9.6638   9.6639   9.6883   9.6883
     9.8891   9.8891  10.0618  10.0618  10.1919  10.1919  10.5264  10.5264
    10.5469  10.5469  10.7633  10.7633  11.1156

     the Fermi energy is     9.5520 ev

!    total energy              =   -1408.49991121 Ry
     Harris-Foulkes estimate   =   -1408.49995999 Ry
     estimated scf accuracy    <       0.00005282 Ry

     The total energy is the sum of the following terms:

     one-electron contribution =    -478.99467665 Ry
     hartree contribution      =     285.12967644 Ry
     xc contribution           =    -154.00602405 Ry
     ewald contribution        =   -1059.34962966 Ry
     smearing contrib. (-TS)   =      -1.27925728 Ry

     convergence has been achieved in  15 iterations

     Forces acting on atoms (Ry/au):

     atom    1 type  1   force =     0.00000000    0.00170213   -0.00217570
     atom    2 type  1   force =     0.00000000   -0.00170213    0.00217570
     atom    3 type  1   force =     0.00000000    0.00170213    0.00217570
     atom    4 type  1   force =     0.00000000   -0.00170213   -0.00217570
     atom    5 type  1   force =     0.00000000   -0.00163418    0.00418142
     atom    6 type  1   force =     0.00000000    0.00163418   -0.00418142
     atom    7 type  1   force =     0.00000000   -0.00163418   -0.00418142
     atom    8 type  1   force =     0.00000000    0.00163418    0.00418142
     atom    9 type  2   force =     0.00000000    0.01002593   -0.00355192
     atom   10 type  2   force =     0.00000000   -0.01002593    0.00355192
     atom   11 type  2   force =     0.00000000    0.01002593    0.00355192
     atom   12 type  2   force =     0.00000000   -0.01002593   -0.00355192

     Total force =     0.023742     Total SCF correction =     0.000000


     entering subroutine stress ...

          total   stress  (Ry/bohr**3)                   (kbar)     P=-1147.26
  -0.00831505   0.00000000   0.00000000      -1223.19      0.00      0.00
   0.00000000  -0.00737263   0.00000000          0.00  -1084.55      0.00
   0.00000000   0.00000000  -0.00770902          0.00      0.00  -1134.04


     number of scf cycles    =   3
     number of bfgs steps    =   2

     enthalpy old            =   -1416.8803849018 Ry
     enthalpy new            =   -1408.4999112051 Ry

     CASE: enthalpy_new > enthalpy_old

     new trust radius        =       1.4810537455 bohr

     trust_radius < trust_radius_min

     resetting bfgs history

     Message from routine bfgs:
     history already reset at previous step: stopping
     new conv_thr            =       0.0001000000 Ry

     new unit-cell volume =   1272.60169 a.u.^3 (   188.58011 Ang^3 )

CELL_PARAMETERS (alat=  7.01510508)
   1.155603674   0.000000000   0.000000000
   0.000000000   1.478851390   0.000000000
   0.000000000   0.000000000   2.157031586

ATOMIC_POSITIONS (crystal)
Co       0.750000000   0.825735001   0.435071942
Co       0.250000000   0.174264999   0.564928058
Co       0.750000000   0.325735001   0.064928058
Co       0.250000000   0.674264999   0.935071942
Co       0.250000000   0.538741124   0.280004269
Co       0.750000000   0.461258876   0.719995731
Co       0.250000000   0.038741124   0.219995731
Co       0.750000000   0.961258876   0.780004269
Si       0.250000000   0.200630952   0.893413575
Si       0.750000000   0.799369048   0.106586425
Si       0.250000000   0.700630952   0.606586425
Si       0.750000000   0.299369048   0.393413575



     Writing output data file Prototype-La-oP12-Co2Si.save
     NEW-OLD atomic charge density approx. for the potential
     NEW k-points:
        k(    1) = (   0.0000000   0.0000000   0.0000000), wk =   0.0833333
        k(    2) = (   0.0000000   0.0000000   0.1159000), wk =   0.1666667
        k(    3) = (   0.0000000   0.0000000  -0.2318000), wk =   0.0833333
        k(    4) = (   0.0000000   0.2254002   0.0000000), wk =   0.1666667
        k(    5) = (   0.0000000   0.2254002   0.1159000), wk =   0.3333333
        k(    6) = (   0.0000000   0.2254002  -0.2318000), wk =   0.1666667
        k(    7) = (  -0.4326743   0.0000000   0.0000000), wk =   0.0833333
        k(    8) = (  -0.4326743   0.0000000   0.1159000), wk =   0.1666667
        k(    9) = (  -0.4326743   0.0000000  -0.2318000), wk =   0.0833333
        k(   10) = (  -0.4326743   0.2254002   0.0000000), wk =   0.1666667
        k(   11) = (  -0.4326743   0.2254002   0.1159000), wk =   0.3333333
        k(   12) = (  -0.4326743   0.2254002  -0.2318000), wk =   0.1666667

     total cpu time spent up to now is      530.5 secs

     Self-consistent Calculation

     iteration #  1     ecut=    40.00 Ry     beta=0.70
     CG style diagonalization
     c_bands:  2 eigenvalues not converged
     c_bands:  4 eigenvalues not converged
     c_bands:  1 eigenvalues not converged
     c_bands:  3 eigenvalues not converged
     c_bands:  5 eigenvalues not converged
     c_bands:  5 eigenvalues not converged
     c_bands:  1 eigenvalues not converged
     c_bands:  1 eigenvalues not converged
     c_bands:  1 eigenvalues not converged
     ethr =  1.00E-06,  avg # of iterations = 35.1

     total cpu time spent up to now is      606.5 secs

     total energy              =   -1331.78012066 Ry
     Harris-Foulkes estimate   =   -1562.84701177 Ry
     estimated scf accuracy    <     290.11375814 Ry

     iteration #  2     ecut=    40.00 Ry     beta=0.70
     CG style diagonalization
     c_bands:  1 eigenvalues not converged
     c_bands:  2 eigenvalues not converged
     ethr =  1.00E-02,  avg # of iterations =  9.0

     total cpu time spent up to now is      626.3 secs

     total energy              =   -1383.52624714 Ry
     Harris-Foulkes estimate   =   -1461.80845262 Ry
     estimated scf accuracy    <     123.57753367 Ry

     iteration #  3     ecut=    40.00 Ry     beta=0.70
     CG style diagonalization
     ethr =  1.00E-02,  avg # of iterations =  5.9

     total cpu time spent up to now is      639.9 secs

     total energy              =   -1412.77089122 Ry
     Harris-Foulkes estimate   =   -1423.89797488 Ry
     estimated scf accuracy    <      21.52438848 Ry

     iteration #  4     ecut=    40.00 Ry     beta=0.70
     CG style diagonalization
     ethr =  1.00E-02,  avg # of iterations =  3.9

     total cpu time spent up to now is      649.6 secs

     total energy              =   -1418.19302811 Ry
     Harris-Foulkes estimate   =   -1419.97704106 Ry
     estimated scf accuracy    <       3.93945246 Ry

     iteration #  5     ecut=    40.00 Ry     beta=0.70
     CG style diagonalization
     ethr =  2.34E-03,  avg # of iterations =  3.7

     total cpu time spent up to now is      659.1 secs

     total energy              =   -1419.10045273 Ry
     Harris-Foulkes estimate   =   -1419.38927702 Ry
     estimated scf accuracy    <       0.54054845 Ry

     iteration #  6     ecut=    40.00 Ry     beta=0.70
     CG style diagonalization
     c_bands:  1 eigenvalues not converged
     c_bands:  1 eigenvalues not converged
     ethr =  3.22E-04,  avg # of iterations =  4.1

     total cpu time spent up to now is      668.0 secs

     total energy              =   -1419.23759276 Ry
     Harris-Foulkes estimate   =   -1419.26968376 Ry
     estimated scf accuracy    <       0.05665562 Ry

     iteration #  7     ecut=    40.00 Ry     beta=0.70
     CG style diagonalization
     ethr =  3.37E-05,  avg # of iterations =  4.5

     total cpu time spent up to now is      677.6 secs

     total energy              =   -1419.25673292 Ry
     Harris-Foulkes estimate   =   -1419.26128345 Ry
     estimated scf accuracy    <       0.00995169 Ry

     iteration #  8     ecut=    40.00 Ry     beta=0.70
     CG style diagonalization
     c_bands:  1 eigenvalues not converged
     c_bands:  1 eigenvalues not converged
     c_bands:  1 eigenvalues not converged
     c_bands:  1 eigenvalues not converged
     ethr =  5.92E-06,  avg # of iterations =  4.0

     total cpu time spent up to now is      685.8 secs

     total energy              =   -1419.25853479 Ry
     Harris-Foulkes estimate   =   -1419.25890885 Ry
     estimated scf accuracy    <       0.00070180 Ry

     iteration #  9     ecut=    40.00 Ry     beta=0.70
     CG style diagonalization
     c_bands:  1 eigenvalues not converged
     c_bands:  1 eigenvalues not converged
     ethr =  4.18E-07,  avg # of iterations =  4.6

     total cpu time spent up to now is      695.9 secs

     total energy              =   -1419.25882628 Ry
     Harris-Foulkes estimate   =   -1419.25896709 Ry
     estimated scf accuracy    <       0.00028438 Ry

     iteration # 10     ecut=    40.00 Ry     beta=0.70
     CG style diagonalization
     ethr =  1.69E-07,  avg # of iterations =  3.5

     total cpu time spent up to now is      703.0 secs

     End of self-consistent calculation

          k = 0.0000 0.0000 0.0000 (  3675 PWs)   bands (ev):

   -39.3971 -39.3967 -39.3884 -39.3769 -10.9275 -10.8937 -10.7595 -10.7280
   -10.7201 -10.6966 -10.6616 -10.6316 -10.6223 -10.5605 -10.4747 -10.4589
    -8.5407  -7.7053  -7.4482  -7.4140  -7.1963  -6.9031  -6.8314  -6.8307
     7.2989   7.9145   8.1268   8.5140   8.6784   8.7575   9.3097   9.3204
     9.7085   9.7997   9.8507  10.2160  10.4006  10.5488  10.8175  10.9329
    11.1848  11.2176  11.2778  11.7541  11.9706  12.2149  12.7666  13.0202
    21.5306  21.5842  22.0345  22.1648  22.4553  22.5873  22.6225  22.6382
    23.1992  23.3817  23.4768  23.7211  23.8153  24.3379  24.4147  24.8160
    24.8978  24.8990  25.4606  25.5002  25.5419  25.7497  27.4806  27.6384
    27.7327  27.9838  28.4935  28.6527  29.0906  29.3466  29.3694  29.4029
    29.9058  29.9488  30.6037  30.7680  30.8807  31.1217  31.4238  31.4442
    32.3317  32.6212  32.6412  32.9706  33.1333  33.1914  33.8880  34.5217
    35.0386  35.0496  35.4322  35.6283  35.9172

          k = 0.0000 0.0000 0.1159 (  3675 PWs)   bands (ev):

   -39.4016 -39.3931 -39.3883 -39.3743 -10.9055 -10.8662 -10.7941 -10.7533
   -10.7015 -10.6949 -10.6538 -10.6384 -10.6155 -10.5738 -10.4825 -10.4740
    -8.4335  -7.8800  -7.3786  -7.3210  -7.2134  -6.9625  -6.8344  -6.8338
     7.3588   7.7829   8.2775   8.5286   8.6759   8.8283   9.0527   9.5107
     9.6084   9.9854  10.0273  10.1889  10.3932  10.5898  10.6406  10.7974
    10.9697  11.4829  11.4982  11.5650  11.9306  12.0236  12.7939  12.9759
    21.5160  21.6261  21.9779  22.1380  22.3106  22.5135  22.7630  22.9141
    23.1737  23.2898  23.7127  23.8393  23.9187  24.4160  24.4834  24.7842
    24.8684  24.9061  25.2029  25.3190  25.9155  25.9186  27.3332  27.6919
    27.7918  28.0848  28.6170  28.7923  29.1763  29.3867  29.4698  29.5725
    29.5853  29.9300  30.3892  30.5230  30.7025  31.3327  31.3447  31.4305
    31.5938  31.7286  32.4753  33.1908  33.5474  33.6438  33.8275  34.0535
    34.1166  34.2097  35.3579  35.4183  36.1091

          k = 0.0000 0.0000-0.2318 (  3690 PWs)   bands (ev):

   -39.3996 -39.3996 -39.3897 -39.3897 -10.8706 -10.8706 -10.8101 -10.8101
   -10.6958 -10.6958 -10.6423 -10.6423 -10.5986 -10.5986 -10.4927 -10.4927
    -8.1738  -8.1738  -7.3036  -7.3036  -7.1096  -7.1096  -6.8385  -6.8385
     7.5322   7.5322   8.5783   8.5783   8.6553   8.6553   9.2081   9.2081
     9.9086   9.9086  10.1772  10.1772  10.3987  10.3987  10.7964  10.7964
    11.0605  11.0605  11.6931  11.6931  11.7817  11.7817  12.8749  12.8749
    21.6785  21.6785  21.7171  21.7171  22.5127  22.5126  23.0674  23.0674
    23.6252  23.6252  23.6724  23.6724  24.2234  24.2234  24.3334  24.3334
    24.9459  24.9459  24.9826  24.9826  26.5764  26.5764  26.9760  26.9760
    28.5124  28.5124  28.8658  28.8658  29.2804  29.2804  29.3523  29.3523
    30.0072  30.0072  30.2263  30.2263  30.4157  30.4157  31.1274  31.1274
    31.6937  31.6937  32.3782  32.3782  33.4044  33.4046  34.0047  34.0048
    34.3741  34.3743  35.0252  35.0254  36.0326

          k = 0.0000 0.2254 0.0000 (  3664 PWs)   bands (ev):

   -39.4054 -39.3990 -39.3720 -39.3569 -10.9960 -10.9841 -10.7461 -10.7064
   -10.7059 -10.6852 -10.6593 -10.6334 -10.6129 -10.5835 -10.4971 -10.4534
    -8.1978  -7.6273  -7.5140  -7.3152  -7.1905  -7.0782  -6.8707  -6.8568
     7.8528   8.5203   8.5552   8.6164   8.6744   8.7233   8.8592   9.0772
     9.3587   9.6086   9.7491   9.9922  10.1588  10.8801  10.9348  11.2356
    11.2966  11.3254  11.4068  11.5092  11.7043  11.7272  12.0161  12.0947
    22.0515  22.0857  22.2888  22.5299  22.8307  23.1090  23.1127  23.4605
    23.5274  23.5357  23.5500  23.8467  23.9485  24.4779  24.5234  25.0375
    25.1268  25.1377  25.2640  25.3061  25.3936  26.6762  27.3313  27.6554
    27.6889  27.8344  28.3204  28.5426  29.0409  29.1088  29.1540  29.3145
    29.7973  30.1995  30.2759  30.8526  31.0215  31.0581  31.5626  31.8884
    31.9132  31.9830  32.2305  32.7221  32.7739  33.0450  33.2754  33.4866
    34.2798  34.3620  34.8031  34.9445  35.2318

          k = 0.0000 0.2254 0.1159 (  3669 PWs)   bands (ev):

   -39.4008 -39.3934 -39.3801 -39.3699 -10.9893 -10.9786 -10.7714 -10.7302
   -10.6945 -10.6879 -10.6543 -10.6381 -10.6154 -10.5848 -10.4879 -10.4618
    -8.1138  -7.6746  -7.5548  -7.2783  -7.2042  -7.0291  -6.9165  -6.8782
     7.9241   8.3501   8.5407   8.6576   8.7164   8.7383   8.9703   9.2528
[...]

     total energy              =    -620.79398862 Ry
     Harris-Foulkes estimate   =   -1733.76108185 Ry
     estimated scf accuracy    <    1344.98772710 Ry

     iteration #  2     ecut=    40.00 Ry     beta=0.70
     CG style diagonalization
     c_bands:  3 eigenvalues not converged
     ethr =  1.00E-02,  avg # of iterations = 16.7

     total cpu time spent up to now is      933.0 secs

     total energy              =   -1264.99315114 Ry
     Harris-Foulkes estimate   =   -2095.61187367 Ry
     estimated scf accuracy    <    1583.72105998 Ry

     iteration #  3     ecut=    40.00 Ry     beta=0.70
     CG style diagonalization
     c_bands:  1 eigenvalues not converged
     ethr =  1.00E-02,  avg # of iterations = 11.7

     total cpu time spent up to now is      979.7 secs

     total energy              =   -1403.88569953 Ry
     Harris-Foulkes estimate   =   -1477.53564295 Ry
     estimated scf accuracy    <     170.35613129 Ry

     iteration #  4     ecut=    40.00 Ry     beta=0.70
     CG style diagonalization
     ethr =  1.00E-02,  avg # of iterations =  5.4

     total cpu time spent up to now is     1001.5 secs

     total energy              =   -1417.32977010 Ry
     Harris-Foulkes estimate   =   -1430.03675278 Ry
     estimated scf accuracy    <      31.64245689 Ry

     iteration #  5     ecut=    40.00 Ry     beta=0.70
     CG style diagonalization
     ethr =  1.00E-02,  avg # of iterations =  3.6

     total cpu time spent up to now is     1014.9 secs

     total energy              =   -1419.75890328 Ry
     Harris-Foulkes estimate   =   -1421.60156224 Ry
     estimated scf accuracy    <       4.73073784 Ry

     iteration #  6     ecut=    40.00 Ry     beta=0.70
     CG style diagonalization
     ethr =  2.82E-03,  avg # of iterations =  3.8

     total cpu time spent up to now is     1031.0 secs

     total energy              =   -1420.25775122 Ry
     Harris-Foulkes estimate   =   -1420.76913978 Ry
     estimated scf accuracy    <       0.86720125 Ry

     iteration #  7     ecut=    40.00 Ry     beta=0.70
     CG style diagonalization
     ethr =  5.16E-04,  avg # of iterations =  4.5

     negative rho (up, down):  0.577E-06 0.000E+00

     total cpu time spent up to now is     1047.8 secs

     total energy              =   -1420.59928563 Ry
     Harris-Foulkes estimate   =   -1420.66521817 Ry
     estimated scf accuracy    <       0.17635130 Ry

     iteration #  8     ecut=    40.00 Ry     beta=0.70
     CG style diagonalization
     c_bands:  1 eigenvalues not converged
     ethr =  1.05E-04,  avg # of iterations =  4.1

     total cpu time spent up to now is     1062.7 secs

     total energy              =   -1420.61641319 Ry
     Harris-Foulkes estimate   =   -1420.64900031 Ry
     estimated scf accuracy    <       0.08320663 Ry

     iteration #  9     ecut=    40.00 Ry     beta=0.70
     CG style diagonalization
     ethr =  4.95E-05,  avg # of iterations =  3.3

     total cpu time spent up to now is     1075.4 secs

     total energy              =   -1420.61892814 Ry
     Harris-Foulkes estimate   =   -1420.62664429 Ry
     estimated scf accuracy    <       0.01223296 Ry

     iteration # 10     ecut=    40.00 Ry     beta=0.70
     CG style diagonalization
     c_bands:  1 eigenvalues not converged
     ethr =  7.28E-06,  avg # of iterations =  4.7

     total cpu time spent up to now is     1093.4 secs

     total energy              =   -1420.62451840 Ry
     Harris-Foulkes estimate   =   -1420.62799351 Ry
     estimated scf accuracy    <       0.00623383 Ry

     iteration # 11     ecut=    40.00 Ry     beta=0.70
     CG style diagonalization
     c_bands:  1 eigenvalues not converged
     ethr =  3.71E-06,  avg # of iterations =  3.7

     total cpu time spent up to now is     1107.2 secs

     End of self-consistent calculation

          k = 0.0000 0.0000 0.0000 (  5447 PWs)   bands (ev):

   -39.6464 -39.6358 -39.6350 -39.6338 -11.1637 -11.1396 -11.0065 -10.9929
   -10.9853 -10.9698 -10.9489 -10.9168 -10.8846 -10.8140 -10.7415 -10.7332
    -8.5018  -7.6847  -7.4289  -7.3649  -7.1575  -6.8616  -6.7968  -6.7925
     7.2550   7.8622   8.0829   8.4607   8.6362   8.7082   9.2570   9.2753
     9.6533   9.7479   9.8012  10.1555  10.3360  10.4913  10.7515  10.8624
    11.1096  11.1645  11.2236  11.6941  11.8898  12.1435  12.7097  12.9475
    21.5188  21.5711  22.0247  22.1505  22.4389  22.5821  22.6055  22.6288
    23.1923  23.3649  23.4662  23.7125  23.8022  24.3212  24.3747  24.7999
    24.8765  24.8844  25.4448  25.4543  25.5398  25.7228  27.4347  27.5973
    27.6537  27.9010  28.4575  28.6017  29.0174  29.3193  29.3336  29.3558
    29.8617  29.9029  30.5412  30.6978  30.8364  31.0709  31.3800  31.4150
    32.2654  32.5618  32.5636  32.9065  33.0620  33.1319  33.7727  34.4366
    34.9408  34.9751  35.3570  35.4987  35.7207

          k = 0.0000 0.0000 0.1159 (  5454 PWs)   bands (ev):

   -39.6476 -39.6393 -39.6340 -39.6321 -11.1511 -11.1079 -11.0444 -10.9990
   -10.9920 -10.9742 -10.9459 -10.9185 -10.8734 -10.8162 -10.7500 -10.7491
    -8.4012  -7.8645  -7.3326  -7.2954  -7.1717  -6.9208  -6.7997  -6.7960
     7.3136   7.7302   8.2367   8.4745   8.6278   8.7850   9.0067   9.4642
     9.5580   9.9386   9.9725  10.1225  10.3290  10.5233  10.5814  10.7379
    10.9108  11.4146  11.4173  11.5060  11.8451  11.9550  12.7356  12.9086
    21.5063  21.6118  21.9609  22.1266  22.3001  22.4998  22.7507  22.9041
    23.1602  23.2724  23.6998  23.8259  23.9073  24.4017  24.4658  24.7704
    24.8480  24.8840  25.1905  25.3133  25.8590  25.8762  27.2826  27.6187
    27.7512  28.0106  28.5795  28.7452  29.1481  29.3437  29.4171  29.5197
    29.5498  29.8844  30.3403  30.4708  30.6483  31.2699  31.3016  31.3659
    31.5323  31.6846  32.4072  33.0990  33.4876  33.5763  33.7433  33.9567
    34.0463  34.1363  35.2623  35.3258  35.4957

          k = 0.0000 0.0000-0.2318 (  5434 PWs)   bands (ev):

   -39.6431 -39.6431 -39.6315 -39.6315 -11.1029 -11.1029 -11.0474 -11.0474
   -10.9860 -10.9860 -10.9298 -10.9298 -10.8365 -10.8365 -10.7536 -10.7536
    -8.1517  -8.1517  -7.2643  -7.2643  -7.0687  -7.0687  -6.8015  -6.8015
     7.4884   7.4884   8.5271   8.5271   8.6100   8.6100   9.1624   9.1624
     9.8488   9.8488  10.1302  10.1303  10.3324  10.3324  10.7408  10.7408
    11.0003  11.0003  11.6391  11.6391  11.6946  11.6946  12.8171  12.8171
    21.6695  21.6695  21.7017  21.7017  22.5024  22.5024  23.0556  23.0556
    23.6109  23.6109  23.6518  23.6518  24.2098  24.2099  24.3183  24.3183
    24.9381  24.9381  24.9691  24.9691  26.5195  26.5195  26.9152  26.9152
    28.4712  28.4712  28.8388  28.8388  29.2299  29.2299  29.2913  29.2913
    29.9740  29.9740  30.1792  30.1792  30.3422  30.3422  31.0786  31.0786
    31.6510  31.6510  32.2919  32.2919  33.3483  33.3485  33.9227  33.9229
    34.3063  34.3066  34.9070  34.9071  35.9454

          k = 0.0000 0.2254 0.0000 (  5433 PWs)   bands (ev):

   -39.6441 -39.6391 -39.6358 -39.6311 -11.2253 -11.2208 -10.9964 -10.9825
   -10.9632 -10.9617 -10.9459 -10.9302 -10.8703 -10.8355 -10.7724 -10.7312
    -8.1723  -7.6027  -7.4876  -7.2871  -7.1620  -7.0485  -6.8258  -6.8106
     7.8035   8.4727   8.5103   8.5687   8.6255   8.6765   8.8130   9.0283
     9.3083   9.5633   9.6938   9.9374  10.1036  10.8095  10.8674  11.1565
    11.2144  11.2628  11.3477  11.4452  11.6367  11.6416  11.9495  12.0335
    22.0371  22.0727  22.2780  22.5196  22.8154  23.0893  23.1025  23.4434
    23.5173  23.5221  23.5354  23.8317  23.9336  24.4669  24.5069  25.0185
    25.1155  25.1247  25.2582  25.2951  25.3400  26.6071  27.2754  27.5874
    27.6151  27.7927  28.2937  28.4691  29.0016  29.0476  29.0971  29.2579
    29.7538  30.1443  30.2343  30.7978  30.9817  31.0055  31.5189  31.8412
    31.8519  31.9261  32.1633  32.6196  32.7015  32.9643  33.1780  33.3966
    34.1912  34.2779  34.7204  34.8537  35.1499

          k = 0.0000 0.2254 0.1159 (  5427 PWs)   bands (ev):

   -39.6426 -39.6395 -39.6353 -39.6315 -11.2156 -11.2029 -11.0092 -10.9858
   -10.9829 -10.9691 -10.9428 -10.9347 -10.8660 -10.8372 -10.7594 -10.7316
    -8.0914  -7.6577  -7.5267  -7.2501  -7.1705  -6.9924  -6.8717  -6.8328
     7.8806   8.3053   8.4946   8.6139   8.6700   8.6933   8.9207   9.1975
     9.3303   9.6276   9.6798   9.8323  10.1659  10.7702  10.8245  11.0065
    11.0273  11.0949  11.3713  11.5520  11.6065  11.7323  11.9258  12.0445
    22.0359  22.0732  22.4254  22.4274  22.8420  23.0677  23.1758  23.4391
    23.5011  23.5018  23.6160  23.8557  24.1289  24.3719  24.6315  24.8327
    24.8896  25.1952  25.2148  25.2782  25.8192  26.8126  27.5887  27.7348
    27.8015  27.9315  28.2501  28.4083  28.6375  28.7625  28.9953  29.4863
    29.7910  29.8894  30.0297  30.5034  30.8077  30.8649  31.1971  31.7026
    31.7379  32.0605  32.0724  32.3568  32.9809  33.2869  33.3003  33.6699
    33.7330  34.0428  34.3980  34.5961  35.0487

          k = 0.0000 0.2254-0.2318 (  5438 PWs)   bands (ev):

   -39.6414 -39.6414 -39.6344 -39.6344 -11.1990 -11.1989 -11.0223 -11.0223
   -10.9774 -10.9774 -10.9383 -10.9383 -10.8515 -10.8515 -10.7415 -10.7415
    -7.8884  -7.8884  -7.3999  -7.3999  -7.0155  -7.0155  -6.8925  -6.8925
     8.0659   8.0659   8.5662   8.5662   8.7113   8.7113   9.1671   9.1671
     9.4421   9.4421   9.8350   9.8350  10.4083  10.4083  10.8513  10.8513
    10.8844  10.8844  11.5166  11.5166  11.7005  11.7005  11.9818  11.9818
    22.0950  22.0950  22.2744  22.2744  23.2163  23.2163  23.2652  23.2652
    23.5056  23.5056  23.8754  23.8754  24.1755  24.1755  24.7542  24.7542
    24.9599  24.9599  25.1819  25.1819  26.7459  26.7459  27.3733  27.3733
    28.2007  28.2007  28.2651  28.2651  28.9008  28.9008  28.9933  28.9932
    29.9439  29.9439  30.1363  30.1363  30.4780  30.4780  31.1981  31.1981
    32.0584  32.0584  32.1704  32.1704  32.7866  32.7866  33.0902  33.0906
    33.7454  33.7458  35.0941  35.0962  35.3344

          k =-0.4327 0.0000 0.0000 (  5484 PWs)   bands (ev):

   -39.6410 -39.6410 -39.6384 -39.6384 -11.2103 -11.2103 -11.1344 -11.1344
   -10.9836 -10.9836 -10.9830 -10.9830 -10.7828 -10.7828 -10.7780 -10.7780
    -7.6551  -7.6551  -7.3647  -7.3647  -7.2820  -7.2820  -6.8033  -6.8033
     7.4306   7.4306   8.2324   8.2325   8.5121   8.5121   9.1867   9.1867
     9.2463   9.2463  10.4312  10.4312  10.6301  10.6301  10.9489  10.9489
    11.3553  11.3553  11.7577  11.7577  12.0323  12.0323  12.6918  12.6918
    21.8986  21.8986  22.8586  22.8585  23.0805  23.0805  23.1468  23.1468
    23.2060  23.2060  23.2158  23.2159  23.7218  23.7218  24.4531  24.4531
    24.8442  24.8442  24.8713  24.8713  25.6480  25.6480  26.6017  26.6017
    27.8645  27.8645  28.2926  28.2926  28.4788  28.4788  29.7720  29.7720
    30.7153  30.7153  30.9739  30.9739  31.3678  31.3679  31.9430  31.9430
    31.9913  31.9913  32.5295  32.5294  32.7584  32.7584  32.9753  32.9754
    33.5175  33.5173  34.9750  34.9753  35.4951

          k =-0.4327 0.0000 0.1159 (  5442 PWs)   bands (ev):

   -39.6397 -39.6397 -39.6354 -39.6354 -11.2359 -11.2359 -11.0992 -11.0992
   -10.9829 -10.9829 -10.9770 -10.9770 -10.7810 -10.7810 -10.7711 -10.7711
    -7.6328  -7.6328  -7.3682  -7.3682  -7.2872  -7.2872  -6.8183  -6.8183
     7.4204   7.4204   8.1834   8.1835   8.7468   8.7468   9.0545   9.0545
     9.5297   9.5297  10.2338  10.2338  10.3818  10.3818  10.8423  10.8423
    11.5485  11.5485  11.7684  11.7684  12.0168  12.0168  12.6869  12.6869
    22.0068  22.0068  22.6572  22.6572  22.9509  22.9509  23.1095  23.1095
    23.3345  23.3345  23.5964  23.5964  23.8296  23.8296  24.3285  24.3285
    24.4015  24.4015  25.0586  25.0586  25.8663  25.8663  27.0975  27.0975
    27.8242  27.8242  28.2641  28.2642  28.9269  28.9269  29.6714  29.6714
    29.9268  29.9268  30.5421  30.5421  31.0906  31.0906  31.2101  31.2101
    31.7896  31.7896  32.1523  32.1523  32.7877  32.7877  33.9016  33.9022
    34.4651  34.4657  34.8190  34.8194  35.6345

          k =-0.4327 0.0000-0.2318 (  5436 PWs)   bands (ev):

   -39.6409 -39.6409 -39.6336 -39.6336 -11.2576 -11.2576 -11.0765 -11.0765
   -10.9855 -10.9855 -10.9725 -10.9725 -10.7798 -10.7798 -10.7699 -10.7699
    -7.6062  -7.6061  -7.3865  -7.3864  -7.2829  -7.2829  -6.8348  -6.8348
     7.4059   7.4059   8.1919   8.1919   8.8180   8.8180   9.3492   9.3492
     9.5111   9.5111  10.0525  10.0525  10.2107  10.2107  10.6628  10.6628
    11.7216  11.7216  11.8275  11.8276  11.9324  11.9324  12.6816  12.6816
    22.1281  22.1282  22.4481  22.4481  23.0162  23.0161  23.0751  23.0751
    23.5607  23.5607  23.7393  23.7393  23.9115  23.9115  24.1343  24.1343
    24.2180  24.2180  25.0881  25.0881  26.0450  26.0450  27.7138  27.7138
    27.7879  27.7879  28.6471  28.6471  29.2818  29.2818  29.3403  29.3403
    29.4691  29.4691  29.8321  29.8321  30.1100  30.1100  31.3881  31.3882
    31.3959  31.3959  32.0023  32.0023  33.5129  33.5130  33.5667  33.5670
    35.1427  35.1421  35.2585  35.2606  35.6174

          k =-0.4327 0.2254 0.0000 (  5436 PWs)   bands (ev):

   -39.6378 -39.6378 -39.6365 -39.6365 -11.1968 -11.1968 -11.1753 -11.1753
   -11.0092 -11.0092 -10.9877 -10.9877 -10.7647 -10.7647 -10.7634 -10.7634
    -7.5227  -7.5227  -7.3500  -7.3500  -7.1778  -7.1777  -6.9685  -6.9685
     7.8682   7.8683   8.0746   8.0746   8.4993   8.4993   9.5123   9.5123
     9.5298   9.5298  10.0200  10.0200  10.4588  10.4588  10.5894  10.5895
    11.4819  11.4819  11.5468  11.5469  11.9415  11.9415  12.0917  12.0917
    22.3293  22.3293  22.9759  22.9759  23.1440  23.1440  23.3249  23.3249
    23.5762  23.5762  23.6839  23.6839  24.3142  24.3142  24.5264  24.5264
    24.8363  24.8363  24.9187  24.9187  26.3896  26.3896  26.7207  26.7207
    28.2164  28.2164  28.2812  28.2812  29.0342  29.0342  29.5333  29.5333
    30.1359  30.1359  30.4308  30.4308  30.6596  30.6595  31.4625  31.4625
    31.5312  31.5312  32.2659  32.2659  32.7156  32.7157  33.2712  33.2716
    33.6572  33.6584  34.1949  34.1963  34.5293

          k =-0.4327 0.2254 0.1159 (  5426 PWs)   bands (ev):

   -39.6381 -39.6381 -39.6353 -39.6353 -11.2236 -11.2236 -11.1572 -11.1572
   -10.9995 -10.9995 -10.9846 -10.9846 -10.7645 -10.7645 -10.7618 -10.7618
    -7.4978  -7.4978  -7.3351  -7.3351  -7.1975  -7.1975  -6.9922  -6.9922
     7.9109   7.9109   8.1909   8.1909   8.6180   8.6180   9.0692   9.0692
     9.4991   9.4991  10.0859  10.0859  10.5138  10.5138  10.8355  10.8356
    11.3925  11.3925  11.6082  11.6082  11.7818  11.7818  12.0589  12.0589
    22.3477  22.3477  22.8496  22.8496  23.1133  23.1133  23.3538  23.3538
    23.7229  23.7229  23.7888  23.7889  24.3403  24.3403  24.4715  24.4715
    24.8221  24.8221  24.9954  24.9954  26.5853  26.5853  27.0973  27.0973
    28.2004  28.2004  28.4829  28.4829  28.8922  28.8922  29.1934  29.1935
    29.9444  29.9444  30.1315  30.1315  30.5905  30.5905  30.9265  30.9265
    31.7876  31.7877  32.1716  32.1716  32.6345  32.6346  33.2708  33.2710
    33.5200  33.5203  34.1793  34.1795  34.8629

          k =-0.4327 0.2254-0.2318 (  5440 PWs)   bands (ev):

   -39.6385 -39.6385 -39.6364 -39.6364 -11.2429 -11.2429 -11.1546 -11.1546
   -10.9885 -10.9885 -10.9864 -10.9864 -10.7655 -10.7655 -10.7610 -10.7610
    -7.4666  -7.4666  -7.3272  -7.3272  -7.2135  -7.2134  -7.0205  -7.0205
     7.9420   7.9420   8.4350   8.4350   8.6776   8.6776   8.9499   8.9499
     9.0830   9.0830  10.1698  10.1699  10.6818  10.6818  11.0213  11.0213
    11.3815  11.3815  11.3993  11.3993  11.8145  11.8146  11.9568  11.9568
    22.3537  22.3537  22.7315  22.7315  23.1210  23.1210  23.3855  23.3855
    23.7489  23.7489  23.9939  23.9939  24.3614  24.3614  24.4067  24.4067
    24.8877  24.8877  25.0249  25.0249  26.8629  26.8629  27.5928  27.5928
    28.1913  28.1913  28.4748  28.4748  28.5214  28.5214  29.1575  29.1575
    29.2866  29.2866  30.2516  30.2516  30.4107  30.4107  31.2351  31.2351
    31.3170  31.3170  32.1841  32.1841  32.4104  32.4104  33.3470  33.3471
    33.3661  33.3666  33.8931  33.8935  34.6792

     the Fermi energy is    30.5623 ev

!    total energy              =   -1420.62607947 Ry
     Harris-Foulkes estimate   =   -1420.62612673 Ry
     estimated scf accuracy    <       0.00005949 Ry

     The total energy is the sum of the following terms:

     one-electron contribution =      75.34576266 Ry
     hartree contribution      =     133.38551439 Ry
     xc contribution           =    -168.37957428 Ry
     ewald contribution        =   -1460.42142665 Ry
     smearing contrib. (-TS)   =      -0.55635559 Ry

     convergence has been achieved in  11 iterations

     Forces acting on atoms (Ry/au):

     atom    1 type  1   force =     0.00000000   -0.03760914   -0.00851074
     atom    2 type  1   force =     0.00000000    0.03760914    0.00851074
     atom    3 type  1   force =     0.00000000   -0.03760914    0.00851074
     atom    4 type  1   force =     0.00000000    0.03760914   -0.00851074
     atom    5 type  1   force =     0.00000000    0.03303382   -0.08516938
     atom    6 type  1   force =     0.00000000   -0.03303382    0.08516938
     atom    7 type  1   force =     0.00000000    0.03303382    0.08516938
     atom    8 type  1   force =     0.00000000   -0.03303382   -0.08516938
     atom    9 type  2   force =     0.00000000   -0.09310174    0.02197163
     atom   10 type  2   force =     0.00000000    0.09310174   -0.02197163
     atom   11 type  2   force =     0.00000000   -0.09310174   -0.02197163
     atom   12 type  2   force =     0.00000000    0.09310174    0.02197163

     Total force =     0.275555     Total SCF correction =     0.000000


     entering subroutine stress ...

          total   stress  (Ry/bohr**3)                   (kbar)     P= 1489.06
   0.01102739   0.00000000   0.00000000       1622.18      0.00      0.00
   0.00000000   0.00941397   0.00000000          0.00   1384.84      0.00
   0.00000000   0.00000000   0.00992589          0.00      0.00   1460.15


     Writing output data file Prototype-La-oP12-Co2Si.save
 
     init_run     :      3.37s CPU      4.24s WALL (       2 calls)
     electrons    :    947.57s CPU   1088.96s WALL (       5 calls)
     update_pot   :      1.90s CPU      1.93s WALL (       3 calls)
     forces       :      4.10s CPU      4.49s WALL (       5 calls)
     stress       :     10.78s CPU     11.02s WALL (       5 calls)

     Called by init_run:
     wfcinit      :      2.51s CPU      3.32s WALL (       2 calls)
     potinit      :      0.40s CPU      0.41s WALL (       2 calls)

     Called by electrons:
     c_bands      :    927.41s CPU   1034.72s WALL (      56 calls)
     sum_band     :     19.60s CPU     25.29s WALL (      56 calls)
     v_of_rho     :      0.09s CPU      0.11s WALL (      61 calls)
     mix_rho      :      0.11s CPU      0.13s WALL (      56 calls)

     Called by c_bands:
     init_us_2    :      1.65s CPU      1.98s WALL (    1488 calls)
     ccgdiagg     :    857.75s CPU    946.42s WALL (     778 calls)
     wfcrot       :     70.58s CPU     88.84s WALL (     790 calls)

     Called by *cgdiagg:
     h_psi        :    625.02s CPU    722.20s WALL (  418905 calls)
     cdiaghg      :      3.53s CPU      3.86s WALL (     790 calls)

     Called by h_psi:
     add_vuspsi   :    127.54s CPU    136.19s WALL (  418905 calls)

     General routines
     calbec       :    298.27s CPU    312.75s WALL (  837140 calls)
     fft          :      0.13s CPU      0.16s WALL (     267 calls)
     fftw         :    306.31s CPU    360.81s WALL ( 1063682 calls)
     davcio       :      0.82s CPU      2.19s WALL (    2160 calls)
 
     Parallel routines
     fft_scatter  :    129.95s CPU    156.94s WALL ( 1063949 calls)
 
     PWSCF        : 16m 8.16s CPU    18m31.63s WALL

 
   This run was terminated on:   0:53:54  22Mar2018            

=------------------------------------------------------------------------------=
   JOB DONE.
=------------------------------------------------------------------------------=
