
     Program PWSCF v.5.0.2 starts on 22Mar2018 at 21:13:26 

     This program is part of the open-source Quantum ESPRESSO suite
     for quantum simulation of materials; please cite
         "P. Giannozzi et al., J. Phys.:Condens. Matter 21 395502 (2009);
          URL http://www.quantum-espresso.org", 
     in publications or presentations arising from this work. More details at
     http://www.quantum-espresso.org/quote.php

     Parallel version (MPI), running on     4 processors
     R & G space division:  proc/nbgrp/npool/nimage =       4

     Current dimensions of program PWSCF are:
     Max number of different atomic species (ntypx) = 10
     Max number of k-points (npk) =  40000
     Max angular momentum in pseudopotentials (lmaxx) =  3
     Waiting for input...
     Reading input from standard input

     Subspace diagonalization in iterative solution of the eigenvalue problem:
     a serial algorithm will be used

 
     Parallelization info
     --------------------
     sticks:   dense  smooth     PW     G-vecs:    dense   smooth      PW
     Min         238     238     75                 4969     4969     869
     Max         239     239     76                 4974     4974     872
     Sum         955     955    301                19891    19891    3479
 


     bravais-lattice index     =            0
     lattice parameter (alat)  =       9.3790  a.u.
     unit-cell volume          =     583.3913 (a.u.)^3
     number of atoms/cell      =            6
     number of atomic types    =            2
     number of electrons       =       118.00
     number of Kohn-Sham states=           71
     kinetic-energy cutoff     =      40.0000  Ry
     charge density cutoff     =     160.0000  Ry
     convergence threshold     =      1.0E-04
     mixing beta               =       0.7000
     number of iterations used =            8  plain     mixing
     Exchange-correlation      = SLA-PZ-NOGX-NOGC ( 1 1 0 0 0)
     EXX-fraction              =        0.00
     nstep                     =           50


     celldm(1)=   9.379038  celldm(2)=   0.000000  celldm(3)=   0.000000
     celldm(4)=   0.000000  celldm(5)=   0.000000  celldm(6)=   0.000000

     crystal axes: (cart. coord. in units of alat)
               a(1) = (   1.000000   0.000000   0.000000 )  
               a(2) = (   0.500000   0.866025   0.000000 )  
               a(3) = (   0.500000   0.288675   0.816497 )  

     reciprocal axes: (cart. coord. in units 2 pi/alat)
               b(1) = (  1.000000 -0.577350 -0.408248 )  
               b(2) = (  0.000000  1.154701 -0.408248 )  
               b(3) = (  0.000000  0.000000  1.224745 )  


     PseudoPot. # 1 for Eu read from file:
     /home/cwx6513/pp.La/Eu.UPF
     MD5 check sum: 5efdbbfc50c6a10138933a6429836ad2
     Pseudo is Norm-conserving, Zval = 17.0
     Generated in analytical, separable form
     Using radial grid of 1261 points,  6 beta functions with: 
                l(1) =   0
                l(2) =   0
                l(3) =   1
                l(4) =   1
                l(5) =   2
                l(6) =   3

     PseudoPot. # 2 for Ho read from file:
     /home/cwx6513/pp.La/Ho.UPF
     MD5 check sum: f307ee11bce99f5b724fa279e3790763
     Pseudo is Norm-conserving, Zval = 21.0
     Generated in analytical, separable form
     Using radial grid of 1265 points,  6 beta functions with: 
                l(1) =   0
                l(2) =   0
                l(3) =   1
                l(4) =   1
                l(5) =   2
                l(6) =   3

     atomic species   valence    mass     pseudopotential
        Mg            17.00    24.30500     Eu( 1.00)
        Cu            21.00    63.54600     Ho( 1.00)

     12 Sym. Ops., with inversion, found ( 6 have fractional translation)



   Cartesian axes

     site n.     atom                  positions (alat units)
         1           Mg  tau(   1) = (   1.5000000   0.8660254   0.6123724  )
         2           Mg  tau(   2) = (   1.0000000   0.5773503   0.4082483  )
         3           Cu  tau(   3) = (   0.2500000   0.1443376   0.1020621  )
         4           Cu  tau(   4) = (   0.7500000   0.1443376   0.1020621  )
         5           Cu  tau(   5) = (   0.5000000   0.5773503   0.1020621  )
         6           Cu  tau(   6) = (   0.5000000   0.2886751   0.5103104  )

     number of k points=   170  gaussian smearing, width (Ry)=  0.1000

     Number of k-points >= 100: set verbosity='high' to print them.

     Dense  grid:    19891 G-vectors     FFT dimensions: (  40,  40,  40)

     Largest allocated arrays     est. size (Mb)     dimensions
        Kohn-Sham Wavefunctions         0.70 Mb     (    644,   71)
        NL pseudopotentials             1.18 Mb     (    644,  120)
        Each V/rho on FFT grid          0.24 Mb     (  16000)
        Each G-vector array             0.04 Mb     (   4969)
        G-vector shells                 0.04 Mb     (   4969)
     Largest temporary arrays     est. size (Mb)     dimensions
        Each subspace H/S matrix        0.08 Mb     (  71,  71)
        Each <psi_i|beta_j> matrix      0.13 Mb     (    120,   71)
        Arrays for rho mixing           1.95 Mb     (  16000,   8)

     Initial potential from superposition of free atoms

     Starting from uniform charge
     Starting wfc are    0 randomized atomic wfcs

     total cpu time spent up to now is        9.7 secs

     Self-consistent Calculation

     iteration #  1     ecut=    40.00 Ry     beta=0.70
     CG style diagonalization
     c_bands:  1 eigenvalues not converged
     c_bands:  1 eigenvalues not converged
     ethr =  1.00E-02,  avg # of iterations = 20.3

     total cpu time spent up to now is      210.8 secs

     total energy              =   -1011.07375069 Ry
     Harris-Foulkes estimate   =   -1901.04993108 Ry
     estimated scf accuracy    <    1071.60751201 Ry

     iteration #  2     ecut=    40.00 Ry     beta=0.70
     CG style diagonalization
     c_bands:  5 eigenvalues not converged
     c_bands:  4 eigenvalues not converged
     c_bands:  4 eigenvalues not converged
     c_bands:  5 eigenvalues not converged
     c_bands:  4 eigenvalues not converged
     c_bands:  3 eigenvalues not converged
     c_bands:  5 eigenvalues not converged
     c_bands:  5 eigenvalues not converged
     c_bands:  4 eigenvalues not converged
     c_bands:  5 eigenvalues not converged
     ethr =  1.00E-02,  avg # of iterations = 17.6

     total cpu time spent up to now is      378.1 secs

     total energy              =   -1078.62568640 Ry
     Harris-Foulkes estimate   =   -2088.28114700 Ry
     estimated scf accuracy    <    2206.40016222 Ry

     iteration #  3     ecut=    40.00 Ry     beta=0.70
     CG style diagonalization
     c_bands:  2 eigenvalues not converged
     c_bands:  1 eigenvalues not converged
     c_bands:  1 eigenvalues not converged
     c_bands:  1 eigenvalues not converged
     c_bands:  1 eigenvalues not converged
     c_bands:  1 eigenvalues not converged
     c_bands:  1 eigenvalues not converged
     c_bands:  1 eigenvalues not converged
     c_bands:  1 eigenvalues not converged
     c_bands:  1 eigenvalues not converged
     ethr =  1.00E-02,  avg # of iterations = 11.6

     total cpu time spent up to now is      493.2 secs

     total energy              =   -1508.81577144 Ry
     Harris-Foulkes estimate   =   -1542.08364714 Ry
     estimated scf accuracy    <      72.55895448 Ry

     iteration #  4     ecut=    40.00 Ry     beta=0.70
     CG style diagonalization
     ethr =  1.00E-02,  avg # of iterations =  4.9

     total cpu time spent up to now is      544.1 secs

     total energy              =   -1521.19195621 Ry
     Harris-Foulkes estimate   =   -1522.43209729 Ry
     estimated scf accuracy    <       2.51725032 Ry

     iteration #  5     ecut=    40.00 Ry     beta=0.70
     CG style diagonalization
     c_bands:  1 eigenvalues not converged
     ethr =  2.13E-03,  avg # of iterations =  3.8

     total cpu time spent up to now is      584.6 secs

     total energy              =   -1521.50921503 Ry
     Harris-Foulkes estimate   =   -1521.61165118 Ry
     estimated scf accuracy    <       0.20009261 Ry

     iteration #  6     ecut=    40.00 Ry     beta=0.70
     CG style diagonalization
     c_bands:  1 eigenvalues not converged
     c_bands:  1 eigenvalues not converged
     c_bands:  1 eigenvalues not converged
     c_bands:  1 eigenvalues not converged
     c_bands:  1 eigenvalues not converged
     c_bands:  2 eigenvalues not converged
     c_bands:  2 eigenvalues not converged
     c_bands:  2 eigenvalues not converged
     c_bands:  1 eigenvalues not converged
     c_bands:  1 eigenvalues not converged
     c_bands:  1 eigenvalues not converged
     c_bands:  2 eigenvalues not converged
     c_bands:  1 eigenvalues not converged
     c_bands:  2 eigenvalues not converged
     c_bands:  1 eigenvalues not converged
     c_bands:  1 eigenvalues not converged
     c_bands:  1 eigenvalues not converged
     c_bands:  2 eigenvalues not converged
     c_bands:  1 eigenvalues not converged
     c_bands:  3 eigenvalues not converged
     c_bands:  2 eigenvalues not converged
     c_bands:  3 eigenvalues not converged
     c_bands:  1 eigenvalues not converged
     c_bands:  1 eigenvalues not converged
     c_bands:  1 eigenvalues not converged
     c_bands:  1 eigenvalues not converged
     c_bands:  1 eigenvalues not converged
     c_bands:  1 eigenvalues not converged
     c_bands:  1 eigenvalues not converged
     c_bands:  2 eigenvalues not converged
     c_bands:  1 eigenvalues not converged
     c_bands:  1 eigenvalues not converged
     c_bands:  1 eigenvalues not converged
     c_bands:  2 eigenvalues not converged
     c_bands:  1 eigenvalues not converged
     c_bands:  1 eigenvalues not converged
     c_bands:  1 eigenvalues not converged
     c_bands:  2 eigenvalues not converged
     c_bands:  1 eigenvalues not converged
     c_bands:  1 eigenvalues not converged
     c_bands:  1 eigenvalues not converged
     c_bands:  1 eigenvalues not converged
     c_bands:  1 eigenvalues not converged
     ethr =  1.70E-04,  avg # of iterations =  4.7

     total cpu time spent up to now is      647.3 secs

     total energy              =   -1521.55704899 Ry
     Harris-Foulkes estimate   =   -1521.57720045 Ry
     estimated scf accuracy    <       0.04373915 Ry

     iteration #  7     ecut=    40.00 Ry     beta=0.70
     CG style diagonalization
     c_bands:  1 eigenvalues not converged
     c_bands:  1 eigenvalues not converged
     c_bands:  2 eigenvalues not converged
     c_bands:  1 eigenvalues not converged
     c_bands:  1 eigenvalues not converged
     c_bands:  1 eigenvalues not converged
     c_bands:  1 eigenvalues not converged
     c_bands:  1 eigenvalues not converged
     c_bands:  1 eigenvalues not converged
     c_bands:  1 eigenvalues not converged
     c_bands:  1 eigenvalues not converged
     c_bands:  1 eigenvalues not converged
     c_bands:  1 eigenvalues not converged
     c_bands:  1 eigenvalues not converged
     c_bands:  1 eigenvalues not converged
     c_bands:  1 eigenvalues not converged
     c_bands:  1 eigenvalues not converged
     c_bands:  1 eigenvalues not converged
     c_bands:  1 eigenvalues not converged
     c_bands:  1 eigenvalues not converged
     c_bands:  1 eigenvalues not converged
     c_bands:  1 eigenvalues not converged
     c_bands:  1 eigenvalues not converged
     c_bands:  1 eigenvalues not converged
     c_bands:  1 eigenvalues not converged
     c_bands:  1 eigenvalues not converged
     ethr =  3.71E-05,  avg # of iterations =  3.7

     total cpu time spent up to now is      779.8 secs

     total energy              =   -1521.56529076 Ry
     Harris-Foulkes estimate   =   -1521.56600075 Ry
     estimated scf accuracy    <       0.00135450 Ry

     iteration #  8     ecut=    40.00 Ry     beta=0.70
     CG style diagonalization
     c_bands:  1 eigenvalues not converged
     c_bands:  1 eigenvalues not converged
     c_bands:  1 eigenvalues not converged
     c_bands:  1 eigenvalues not converged
     c_bands:  1 eigenvalues not converged
     c_bands:  1 eigenvalues not converged
     c_bands:  1 eigenvalues not converged
     c_bands:  1 eigenvalues not converged
     c_bands:  2 eigenvalues not converged
     c_bands:  1 eigenvalues not converged
     c_bands:  1 eigenvalues not converged
     c_bands:  1 eigenvalues not converged
     c_bands:  1 eigenvalues not converged
     c_bands:  1 eigenvalues not converged
     c_bands:  1 eigenvalues not converged
     c_bands:  1 eigenvalues not converged
     c_bands:  2 eigenvalues not converged
     c_bands:  1 eigenvalues not converged
     c_bands:  1 eigenvalues not converged
     c_bands:  2 eigenvalues not converged
     c_bands:  1 eigenvalues not converged
     c_bands:  1 eigenvalues not converged
     c_bands:  1 eigenvalues not converged
     c_bands:  1 eigenvalues not converged
     c_bands:  1 eigenvalues not converged
     c_bands:  2 eigenvalues not converged
     c_bands:  2 eigenvalues not converged
     c_bands:  1 eigenvalues not converged
     c_bands:  1 eigenvalues not converged
     c_bands:  1 eigenvalues not converged
     c_bands:  1 eigenvalues not converged
     c_bands:  1 eigenvalues not converged
     c_bands:  3 eigenvalues not converged
     c_bands:  1 eigenvalues not converged
     c_bands:  1 eigenvalues not converged
     c_bands:  1 eigenvalues not converged
     c_bands:  1 eigenvalues not converged
     c_bands:  1 eigenvalues not converged
     c_bands:  1 eigenvalues not converged
     c_bands:  1 eigenvalues not converged
     c_bands:  1 eigenvalues not converged
     c_bands:  1 eigenvalues not converged
     c_bands:  1 eigenvalues not converged
     c_bands:  1 eigenvalues not converged
     ethr =  1.15E-06,  avg # of iterations =  5.0

     total cpu time spent up to now is      962.1 secs

     total energy              =   -1521.56602026 Ry
     Harris-Foulkes estimate   =   -1521.56608517 Ry
     estimated scf accuracy    <       0.00016609 Ry

     iteration #  9     ecut=    40.00 Ry     beta=0.70
     CG style diagonalization
     c_bands:  1 eigenvalues not converged
     c_bands:  1 eigenvalues not converged
     c_bands:  1 eigenvalues not converged
     c_bands:  1 eigenvalues not converged
     c_bands:  1 eigenvalues not converged
     c_bands:  1 eigenvalues not converged
     c_bands:  1 eigenvalues not converged
     c_bands:  1 eigenvalues not converged
     c_bands:  2 eigenvalues not converged
     c_bands:  1 eigenvalues not converged
     c_bands:  1 eigenvalues not converged
     ethr =  1.41E-07,  avg # of iterations =  3.6

     total cpu time spent up to now is     1084.8 secs

     End of self-consistent calculation

     Number of k-points >= 100: set verbosity='high' to print the bands.

     the Fermi energy is    39.5993 ev

!    total energy              =   -1521.56603400 Ry
     Harris-Foulkes estimate   =   -1521.56606697 Ry
     estimated scf accuracy    <       0.00004337 Ry

     The total energy is the sum of the following terms:

     one-electron contribution =    -136.85288784 Ry
     hartree contribution      =     195.30653254 Ry
     xc contribution           =    -143.90185031 Ry
     ewald contribution        =   -1436.00025187 Ry
     smearing contrib. (-TS)   =      -0.11757652 Ry

     convergence has been achieved in   9 iterations

     Forces acting on atoms (Ry/au):

     atom    1 type  1   force =     0.00000000    0.00000000    0.01337100
     atom    2 type  1   force =     0.00000000    0.00000000   -0.01337100
     atom    3 type  2   force =     0.00000000    0.00000000    0.00000000
     atom    4 type  2   force =     0.00000000    0.00000000    0.00000000
     atom    5 type  2   force =     0.00000000    0.00000000    0.00000000
     atom    6 type  2   force =     0.00000000    0.00000000    0.00000000

     Total force =     0.018909     Total SCF correction =     0.000000


     entering subroutine stress ...

          total   stress  (Ry/bohr**3)                   (kbar)     P= 2121.58
   0.01441504   0.00000000   0.00000000       2120.53      0.00      0.00
   0.00000000   0.01441504   0.00000000          0.00   2120.53      0.00
   0.00000000   0.00000000   0.01443648          0.00      0.00   2123.68


     BFGS Geometry Optimization

     number of scf cycles    =   1
     number of bfgs steps    =   0

     enthalpy new            =   -1521.5660339984 Ry

     new trust radius        =       0.5000000000 bohr
     new conv_thr            =       0.0001000000 Ry

     new unit-cell volume =    783.72107 a.u.^3 (   116.13548 Ang^3 )

CELL_PARAMETERS (alat=  9.37903830)
   1.103351024   0.000000000   0.000000000
   0.551675512   0.955530016   0.000000000
   0.551675512   0.318510005   0.901007810

ATOMIC_POSITIONS (crystal)
Mg       0.749833087   0.749833087   0.750500738
Mg       0.500166913   0.500166913   0.499499262
Cu       0.125000000   0.125000000   0.125000000
Cu       0.625000000   0.125000000   0.125000000
Cu       0.125000000   0.625000000   0.125000000
Cu       0.125000000   0.125000000   0.625000000



     Writing output data file Prototype-La-cF24-Cu2Mg.save
     NEW-OLD atomic charge density approx. for the potential
     NEW k-points: (use verbosity='high' to print them)

     total cpu time spent up to now is     1107.4 secs

     Self-consistent Calculation

     iteration #  1     ecut=    40.00 Ry     beta=0.70
     CG style diagonalization
     c_bands:  1 eigenvalues not converged
     c_bands:  1 eigenvalues not converged
     c_bands:  1 eigenvalues not converged
     c_bands:  1 eigenvalues not converged
     c_bands:  1 eigenvalues not converged
     c_bands:  1 eigenvalues not converged
     c_bands:  1 eigenvalues not converged
     c_bands:  2 eigenvalues not converged
     c_bands:  1 eigenvalues not converged
     c_bands:  1 eigenvalues not converged
     c_bands:  1 eigenvalues not converged
     c_bands:  1 eigenvalues not converged
     c_bands:  1 eigenvalues not converged
     c_bands:  2 eigenvalues not converged
     c_bands:  2 eigenvalues not converged
     c_bands:  1 eigenvalues not converged
     c_bands:  2 eigenvalues not converged
     c_bands:  1 eigenvalues not converged
     c_bands:  2 eigenvalues not converged
     c_bands:  1 eigenvalues not converged
     c_bands:  1 eigenvalues not converged
     c_bands:  1 eigenvalues not converged
     c_bands:  1 eigenvalues not converged
     c_bands:  1 eigenvalues not converged
     c_bands:  2 eigenvalues not converged
     c_bands:  2 eigenvalues not converged
     c_bands:  1 eigenvalues not converged
     c_bands:  2 eigenvalues not converged
     c_bands:  1 eigenvalues not converged
     c_bands:  2 eigenvalues not converged
     c_bands:  1 eigenvalues not converged
     c_bands:  1 eigenvalues not converged
     c_bands:  1 eigenvalues not converged
     c_bands:  1 eigenvalues not converged
     c_bands:  1 eigenvalues not converged
     c_bands:  1 eigenvalues not converged
     c_bands:  1 eigenvalues not converged
     c_bands:  1 eigenvalues not converged
     c_bands:  1 eigenvalues not converged
     c_bands:  1 eigenvalues not converged
     c_bands:  1 eigenvalues not converged
     c_bands:  1 eigenvalues not converged
     c_bands:  1 eigenvalues not converged
     c_bands:  1 eigenvalues not converged
     c_bands:  1 eigenvalues not converged
     ethr =  1.00E-06,  avg # of iterations = 23.3

     total cpu time spent up to now is     1582.7 secs

     total energy              =   -1510.53661774 Ry
     Harris-Foulkes estimate   =   -1537.09119552 Ry
     estimated scf accuracy    <      33.79817655 Ry

     iteration #  2     ecut=    40.00 Ry     beta=0.70
     CG style diagonalization
     ethr =  1.00E-02,  avg # of iterations =  4.0

     total cpu time spent up to now is     1625.7 secs

     total energy              =   -1519.45275347 Ry
     Harris-Foulkes estimate   =   -1525.22726046 Ry
     estimated scf accuracy    <       9.17145457 Ry

     iteration #  3     ecut=    40.00 Ry     beta=0.70
     CG style diagonalization
     ethr =  7.77E-03,  avg # of iterations =  3.4

     total cpu time spent up to now is     1663.1 secs

     total energy              =   -1521.73391676 Ry
     Harris-Foulkes estimate   =   -1523.26772482 Ry
     estimated scf accuracy    <       3.45699593 Ry

     iteration #  4     ecut=    40.00 Ry     beta=0.70
     CG style diagonalization
     ethr =  2.93E-03,  avg # of iterations =  3.2

     total cpu time spent up to now is     1697.2 secs

     total energy              =   -1522.30960340 Ry
     Harris-Foulkes estimate   =   -1522.32029860 Ry
     estimated scf accuracy    <       0.02674158 Ry

     iteration #  5     ecut=    40.00 Ry     beta=0.70
     CG style diagonalization
     c_bands:  1 eigenvalues not converged
     c_bands:  1 eigenvalues not converged
     c_bands:  1 eigenvalues not converged
     c_bands:  1 eigenvalues not converged
     c_bands:  1 eigenvalues not converged
     c_bands:  1 eigenvalues not converged
     c_bands:  1 eigenvalues not converged
     c_bands:  1 eigenvalues not converged
     c_bands:  2 eigenvalues not converged
     c_bands:  2 eigenvalues not converged
     c_bands:  1 eigenvalues not converged
     c_bands:  1 eigenvalues not converged
     c_bands:  1 eigenvalues not converged
     c_bands:  1 eigenvalues not converged
     c_bands:  1 eigenvalues not converged
     c_bands:  1 eigenvalues not converged
     c_bands:  2 eigenvalues not converged
     c_bands:  1 eigenvalues not converged
     c_bands:  1 eigenvalues not converged
     c_bands:  1 eigenvalues not converged
     c_bands:  2 eigenvalues not converged
     c_bands:  1 eigenvalues not converged
     c_bands:  1 eigenvalues not converged
     c_bands:  1 eigenvalues not converged
     c_bands:  1 eigenvalues not converged
     c_bands:  1 eigenvalues not converged
     c_bands:  1 eigenvalues not converged
     c_bands:  1 eigenvalues not converged
     c_bands:  1 eigenvalues not converged
     c_bands:  1 eigenvalues not converged
     ethr =  2.27E-05,  avg # of iterations =  5.0

     total cpu time spent up to now is     1749.0 secs

     total energy              =   -1522.33804123 Ry
     Harris-Foulkes estimate   =   -1522.34163345 Ry
     estimated scf accuracy    <       0.01363868 Ry

     iteration #  6     ecut=    40.00 Ry     beta=0.70
     CG style diagonalization
     c_bands:  1 eigenvalues not converged
     ethr =  1.16E-05,  avg # of iterations =  3.0

     total cpu time spent up to now is     1783.9 secs

     total energy              =   -1522.33573451 Ry
     Harris-Foulkes estimate   =   -1522.33867665 Ry
     estimated scf accuracy    <       0.00445359 Ry

     iteration #  7     ecut=    40.00 Ry     beta=0.70
     CG style diagonalization
     c_bands:  1 eigenvalues not converged
     c_bands:  1 eigenvalues not converged
     ethr =  3.77E-06,  avg # of iterations =  4.0

     total cpu time spent up to now is     1824.8 secs

     total energy              =   -1522.33739827 Ry
     Harris-Foulkes estimate   =   -1522.33789098 Ry
     estimated scf accuracy    <       0.00127395 Ry

     iteration #  8     ecut=    40.00 Ry     beta=0.70
     CG style diagonalization
     c_bands:  1 eigenvalues not converged
     ethr =  1.08E-06,  avg # of iterations =  3.2

     total cpu time spent up to now is     1857.1 secs

     total energy              =   -1522.33746409 Ry
     Harris-Foulkes estimate   =   -1522.33751604 Ry
     estimated scf accuracy    <       0.00017948 Ry

     iteration #  9     ecut=    40.00 Ry     beta=0.70
     CG style diagonalization
     c_bands:  1 eigenvalues not converged
     ethr =  1.52E-07,  avg # of iterations =  3.3

     total cpu time spent up to now is     1892.6 secs

     End of self-consistent calculation

     Number of k-points >= 100: set verbosity='high' to print the bands.

     the Fermi energy is    27.8929 ev

!    total energy              =   -1522.33747693 Ry
     Harris-Foulkes estimate   =   -1522.33749289 Ry
     estimated scf accuracy    <       0.00001715 Ry

     The total energy is the sum of the following terms:

     one-electron contribution =    -328.67870227 Ry
     hartree contribution      =     248.55229964 Ry
     xc contribution           =    -140.61836744 Ry
     ewald contribution        =   -1301.42909944 Ry
     smearing contrib. (-TS)   =      -0.16360742 Ry

     convergence has been achieved in   9 iterations

     Forces acting on atoms (Ry/au):

     atom    1 type  1   force =     0.00000000    0.00000000    0.00053095
     atom    2 type  1   force =     0.00000000    0.00000000   -0.00053095
     atom    3 type  2   force =     0.00000000    0.00000000    0.00000000
     atom    4 type  2   force =     0.00000000    0.00000000    0.00000000
     atom    5 type  2   force =     0.00000000    0.00000000    0.00000000
     atom    6 type  2   force =     0.00000000    0.00000000    0.00000000

     Total force =     0.000751     Total SCF correction =     0.000000


     entering subroutine stress ...

          total   stress  (Ry/bohr**3)                   (kbar)     P= -470.80
  -0.00319862   0.00000000   0.00000000       -470.53      0.00      0.00
   0.00000000  -0.00319862   0.00000000          0.00   -470.53      0.00
   0.00000000   0.00000000  -0.00320399          0.00      0.00   -471.32


     number of scf cycles    =   2
     number of bfgs steps    =   1

     enthalpy old            =   -1521.5660339984 Ry
     enthalpy new            =   -1522.3374769292 Ry

     CASE: enthalpy_new < enthalpy_old

     small trust_radius: resetting bfgs history

     new trust radius        =       0.4484781884 bohr
     new conv_thr            =       0.0000010000 Ry

     new unit-cell volume =    610.25392 a.u.^3 (    90.43030 Ang^3 )

CELL_PARAMETERS (alat=  9.37903830)
   1.015121058   0.000000000   0.000000000
   0.507560529   0.879120624   0.000000000
   0.507560529   0.293040208   0.828837407

ATOMIC_POSITIONS (crystal)
Mg       0.749812144   0.749812144   0.750563567
Mg       0.500187856   0.500187856   0.499436433
Cu       0.125000000   0.125000000   0.125000000
Cu       0.625000000   0.125000000   0.125000000
Cu       0.125000000   0.625000000   0.125000000
Cu       0.125000000   0.125000000   0.625000000



     Writing output data file Prototype-La-cF24-Cu2Mg.save
     NEW-OLD atomic charge density approx. for the potential
     NEW k-points: (use verbosity='high' to print them)

     total cpu time spent up to now is     1900.4 secs

     Self-consistent Calculation

     iteration #  1     ecut=    40.00 Ry     beta=0.70
     CG style diagonalization
     c_bands:  5 eigenvalues not converged
     c_bands:  1 eigenvalues not converged
     c_bands:  2 eigenvalues not converged
     c_bands:  1 eigenvalues not converged
     c_bands:  2 eigenvalues not converged
     c_bands:  1 eigenvalues not converged
     c_bands:  1 eigenvalues not converged
     c_bands:  1 eigenvalues not converged
     c_bands:  1 eigenvalues not converged
     c_bands:  1 eigenvalues not converged
     c_bands:  2 eigenvalues not converged
     c_bands:  1 eigenvalues not converged
     c_bands:  1 eigenvalues not converged
     c_bands:  1 eigenvalues not converged
     c_bands:  2 eigenvalues not converged
     c_bands:  1 eigenvalues not converged
     c_bands:  2 eigenvalues not converged
     c_bands:  1 eigenvalues not converged
     c_bands:  1 eigenvalues not converged
     c_bands:  1 eigenvalues not converged
     c_bands:  1 eigenvalues not converged
     c_bands:  3 eigenvalues not converged
     c_bands:  1 eigenvalues not converged
     c_bands:  1 eigenvalues not converged
     c_bands:  2 eigenvalues not converged
     c_bands:  1 eigenvalues not converged
     c_bands:  1 eigenvalues not converged
     c_bands:  1 eigenvalues not converged
     c_bands:  1 eigenvalues not converged
     c_bands:  1 eigenvalues not converged
     c_bands:  1 eigenvalues not converged
     c_bands:  4 eigenvalues not converged
     c_bands:  2 eigenvalues not converged
     c_bands:  1 eigenvalues not converged
     c_bands:  1 eigenvalues not converged
     c_bands:  1 eigenvalues not converged
     c_bands:  1 eigenvalues not converged
     c_bands:  1 eigenvalues not converged
     c_bands:  3 eigenvalues not converged
     c_bands:  2 eigenvalues not converged
     c_bands:  3 eigenvalues not converged
     c_bands:  1 eigenvalues not converged
     c_bands:  1 eigenvalues not converged
     c_bands:  1 eigenvalues not converged
     c_bands:  2 eigenvalues not converged
     c_bands:  2 eigenvalues not converged
     c_bands:  1 eigenvalues not converged
     c_bands:  1 eigenvalues not converged
     c_bands:  1 eigenvalues not converged
     c_bands:  1 eigenvalues not converged
     c_bands:  1 eigenvalues not converged
     c_bands:  1 eigenvalues not converged
     c_bands:  1 eigenvalues not converged
     c_bands:  1 eigenvalues not converged
     c_bands:  2 eigenvalues not converged
     c_bands:  1 eigenvalues not converged
     c_bands:  1 eigenvalues not converged
     c_bands:  1 eigenvalues not converged
     c_bands:  1 eigenvalues not converged
     c_bands:  2 eigenvalues not converged
     c_bands:  1 eigenvalues not converged
     c_bands:  1 eigenvalues not converged
     c_bands:  1 eigenvalues not converged
     c_bands:  1 eigenvalues not converged
     c_bands:  1 eigenvalues not converged
     c_bands:  1 eigenvalues not converged
     c_bands:  1 eigenvalues not converged
     c_bands:  1 eigenvalues not converged
     c_bands:  1 eigenvalues not converged
     c_bands:  1 eigenvalues not converged
     ethr =  1.00E-06,  avg # of iterations = 22.7

     total cpu time spent up to now is     2116.1 secs

     total energy              =   -1513.67743335 Ry
     Harris-Foulkes estimate   =   -1532.96114014 Ry
     estimated scf accuracy    <      24.23876167 Ry

     iteration #  2     ecut=    40.00 Ry     beta=0.70
     CG style diagonalization
     ethr =  1.00E-02,  avg # of iterations =  4.2

     total cpu time spent up to now is     2158.8 secs

     total energy              =   -1520.96788855 Ry
     Harris-Foulkes estimate   =   -1523.45894987 Ry
     estimated scf accuracy    <       3.70890082 Ry

     iteration #  3     ecut=    40.00 Ry     beta=0.70
     CG style diagonalization
     ethr =  3.14E-03,  avg # of iterations =  3.7

     total cpu time spent up to now is     2196.4 secs

     total energy              =   -1521.77875475 Ry
     Harris-Foulkes estimate   =   -1522.04315085 Ry
     estimated scf accuracy    <       0.51314051 Ry

     iteration #  4     ecut=    40.00 Ry     beta=0.70
     CG style diagonalization
     ethr =  4.35E-04,  avg # of iterations =  3.4

     total cpu time spent up to now is     2231.1 secs

     total energy              =   -1521.89835800 Ry
     Harris-Foulkes estimate   =   -1521.90724732 Ry
     estimated scf accuracy    <       0.01659542 Ry

     iteration #  5     ecut=    40.00 Ry     beta=0.70
     CG style diagonalization
     c_bands:  2 eigenvalues not converged
     c_bands:  1 eigenvalues not converged
     c_bands:  3 eigenvalues not converged
     c_bands:  1 eigenvalues not converged
     c_bands:  2 eigenvalues not converged
     c_bands:  1 eigenvalues not converged
     c_bands:  1 eigenvalues not converged
     c_bands:  1 eigenvalues not converged
     c_bands:  1 eigenvalues not converged
     c_bands:  1 eigenvalues not converged
     c_bands:  1 eigenvalues not converged
     c_bands:  1 eigenvalues not converged
     c_bands:  1 eigenvalues not converged
     c_bands:  1 eigenvalues not converged
     c_bands:  2 eigenvalues not converged
     c_bands:  2 eigenvalues not converged
     c_bands:  2 eigenvalues not converged
     c_bands:  1 eigenvalues not converged
     c_bands:  2 eigenvalues not converged
     c_bands:  1 eigenvalues not converged
     c_bands:  1 eigenvalues not converged
     c_bands:  1 eigenvalues not converged
     c_bands:  2 eigenvalues not converged
     c_bands:  3 eigenvalues not converged
     c_bands:  1 eigenvalues not converged
     c_bands:  1 eigenvalues not converged
     c_bands:  1 eigenvalues not converged
     c_bands:  1 eigenvalues not converged
     c_bands:  2 eigenvalues not converged
     c_bands:  1 eigenvalues not converged
     c_bands:  1 eigenvalues not converged
     c_bands:  1 eigenvalues not converged
     c_bands:  1 eigenvalues not converged
     c_bands:  1 eigenvalues not converged
     c_bands:  1 eigenvalues not converged
     c_bands:  2 eigenvalues not converged
     c_bands:  1 eigenvalues not converged
     c_bands:  1 eigenvalues not converged
     c_bands:  1 eigenvalues not converged
     c_bands:  1 eigenvalues not converged
     c_bands:  2 eigenvalues not converged
     c_bands:  2 eigenvalues not converged
     c_bands:  1 eigenvalues not converged
     c_bands:  1 eigenvalues not converged
     c_bands:  1 eigenvalues not converged
     c_bands:  1 eigenvalues not converged
     c_bands:  1 eigenvalues not converged
     c_bands:  1 eigenvalues not converged
     c_bands:  1 eigenvalues not converged
     c_bands:  2 eigenvalues not converged
     c_bands:  1 eigenvalues not converged
     c_bands:  1 eigenvalues not converged
     c_bands:  1 eigenvalues not converged
     c_bands:  1 eigenvalues not converged
     c_bands:  1 eigenvalues not converged
     c_bands:  1 eigenvalues not converged
     c_bands:  2 eigenvalues not converged
     c_bands:  1 eigenvalues not converged
     c_bands:  1 eigenvalues not converged
     c_bands:  1 eigenvalues not converged
     c_bands:  1 eigenvalues not converged
     c_bands:  1 eigenvalues not converged
     c_bands:  1 eigenvalues not converged
     c_bands:  2 eigenvalues not converged
     c_bands:  1 eigenvalues not converged
     c_bands:  1 eigenvalues not converged
     ethr =  1.41E-05,  avg # of iterations =  4.4

     total cpu time spent up to now is     2277.2 secs

     total energy              =   -1521.90195336 Ry
     Harris-Foulkes estimate   =   -1521.90214836 Ry
     estimated scf accuracy    <       0.00039444 Ry

     iteration #  6     ecut=    40.00 Ry     beta=0.70
     CG style diagonalization
     c_bands:  1 eigenvalues not converged
     c_bands:  1 eigenvalues not converged
     c_bands:  1 eigenvalues not converged
     c_bands:  1 eigenvalues not converged
     c_bands:  1 eigenvalues not converged
     c_bands:  1 eigenvalues not converged
     c_bands:  1 eigenvalues not converged
     c_bands:  1 eigenvalues not converged
     c_bands:  1 eigenvalues not converged
     c_bands:  1 eigenvalues not converged
     c_bands:  1 eigenvalues not converged
     c_bands:  2 eigenvalues not converged
     c_bands:  1 eigenvalues not converged
     c_bands:  2 eigenvalues not converged
     c_bands:  1 eigenvalues not converged
     c_bands:  1 eigenvalues not converged
     c_bands:  1 eigenvalues not converged
     c_bands:  1 eigenvalues not converged
     c_bands:  1 eigenvalues not converged
     c_bands:  1 eigenvalues not converged
     c_bands:  1 eigenvalues not converged
     c_bands:  1 eigenvalues not converged
     c_bands:  1 eigenvalues not converged
     c_bands:  1 eigenvalues not converged
     c_bands:  1 eigenvalues not converged
     c_bands:  1 eigenvalues not converged
     c_bands:  1 eigenvalues not converged
     c_bands:  1 eigenvalues not converged
     c_bands:  1 eigenvalues not converged
     c_bands:  1 eigenvalues not converged
     c_bands:  1 eigenvalues not converged
     c_bands:  1 eigenvalues not converged
     c_bands:  1 eigenvalues not converged
     c_bands:  1 eigenvalues not converged
     c_bands:  1 eigenvalues not converged
     c_bands:  1 eigenvalues not converged
     ethr =  3.34E-07,  avg # of iterations =  4.5

     total cpu time spent up to now is     2322.4 secs

     total energy              =   -1521.90216912 Ry
     Harris-Foulkes estimate   =   -1521.90217199 Ry
     estimated scf accuracy    <       0.00000503 Ry

     iteration #  7     ecut=    40.00 Ry     beta=0.70
     CG style diagonalization
     c_bands:  1 eigenvalues not converged
     c_bands:  1 eigenvalues not converged
     c_bands:  1 eigenvalues not converged
     c_bands:  1 eigenvalues not converged
     c_bands:  1 eigenvalues not converged
     c_bands:  1 eigenvalues not converged
     c_bands:  1 eigenvalues not converged
     ethr =  4.26E-09,  avg # of iterations =  4.8

     total cpu time spent up to now is     2369.8 secs

     End of self-consistent calculation

     Number of k-points >= 100: set verbosity='high' to print the bands.

     the Fermi energy is    37.6196 ev

!    total energy              =   -1521.90217524 Ry
     Harris-Foulkes estimate   =   -1521.90217559 Ry
     estimated scf accuracy    <       0.00000043 Ry

     The total energy is the sum of the following terms:

     one-electron contribution =    -166.94482177 Ry
     hartree contribution      =     203.10387465 Ry
     xc contribution           =    -143.32931619 Ry
     ewald contribution        =   -1414.61243708 Ry
     smearing contrib. (-TS)   =      -0.11947485 Ry

     convergence has been achieved in   7 iterations

     Forces acting on atoms (Ry/au):

     atom    1 type  1   force =     0.00000000    0.00000000   -0.00058526
     atom    2 type  1   force =     0.00000000    0.00000000    0.00058526
     atom    3 type  2   force =     0.00000000    0.00000000    0.00000000
     atom    4 type  2   force =     0.00000000    0.00000000    0.00000000
     atom    5 type  2   force =     0.00000000    0.00000000    0.00000000
     atom    6 type  2   force =     0.00000000    0.00000000    0.00000000

     Total force =     0.000828     Total SCF correction =     0.000000


     entering subroutine stress ...

          total   stress  (Ry/bohr**3)                   (kbar)     P= 1565.41
   0.01064279   0.00000000   0.00000000       1565.61      0.00      0.00
   0.00000000   0.01064279   0.00000000          0.00   1565.61      0.00
   0.00000000   0.00000000   0.01063874          0.00      0.00   1565.01


     number of scf cycles    =   3
     number of bfgs steps    =   2

     enthalpy old            =   -1522.3374769292 Ry
     enthalpy new            =   -1521.9021752422 Ry

     CASE: enthalpy_new > enthalpy_old

     new trust radius        =       0.1248395532 bohr

     trust_radius < trust_radius_min

     resetting bfgs history

     Message from routine bfgs:
     history already reset at previous step: stopping
     new conv_thr            =       0.0000010000 Ry

     new unit-cell volume =    596.51138 a.u.^3 (    88.39387 Ang^3 )

CELL_PARAMETERS (alat=  9.37903830)
   1.007438499   0.000000000   0.000000000
   0.503719249   0.872467333   0.000000000
   0.503719249   0.290822444   0.822576106

ATOMIC_POSITIONS (crystal)
Mg       0.749808338   0.749808338   0.750574985
Mg       0.500191662   0.500191662   0.499425015
Cu       0.125000000   0.125000000   0.125000000
Cu       0.625000000   0.125000000   0.125000000
Cu       0.125000000   0.625000000   0.125000000
Cu       0.125000000   0.125000000   0.625000000



     Writing output data file Prototype-La-cF24-Cu2Mg.save
     NEW-OLD atomic charge density approx. for the potential
     NEW k-points: (use verbosity='high' to print them)

     total cpu time spent up to now is     2378.9 secs

     Self-consistent Calculation

     iteration #  1     ecut=    40.00 Ry     beta=0.70
     CG style diagonalization
     c_bands:  1 eigenvalues not converged
     c_bands:  2 eigenvalues not converged
     c_bands:  1 eigenvalues not converged
     c_bands:  1 eigenvalues not converged
     c_bands:  1 eigenvalues not converged
     c_bands:  1 eigenvalues not converged
     c_bands:  1 eigenvalues not converged
     c_bands:  1 eigenvalues not converged
     c_bands:  1 eigenvalues not converged
     c_bands:  1 eigenvalues not converged
     c_bands:  1 eigenvalues not converged
     c_bands:  1 eigenvalues not converged
     c_bands:  1 eigenvalues not converged
     c_bands:  1 eigenvalues not converged
     c_bands:  1 eigenvalues not converged
     c_bands:  1 eigenvalues not converged
     c_bands:  1 eigenvalues not converged
     c_bands:  2 eigenvalues not converged
     c_bands:  1 eigenvalues not converged
     c_bands:  1 eigenvalues not converged
     c_bands:  1 eigenvalues not converged
     c_bands:  1 eigenvalues not converged
     c_bands:  1 eigenvalues not converged
     c_bands:  1 eigenvalues not converged
     c_bands:  1 eigenvalues not converged
     c_bands:  1 eigenvalues not converged
     c_bands:  1 eigenvalues not converged
     c_bands:  1 eigenvalues not converged
     c_bands:  1 eigenvalues not converged
     c_bands:  1 eigenvalues not converged
     c_bands:  1 eigenvalues not converged
     c_bands:  1 eigenvalues not converged
     c_bands:  1 eigenvalues not converged
     c_bands:  1 eigenvalues not converged
     c_bands:  2 eigenvalues not converged
     c_bands:  1 eigenvalues not converged
     c_bands:  1 eigenvalues not converged
     c_bands:  1 eigenvalues not converged
     c_bands:  1 eigenvalues not converged
     c_bands:  2 eigenvalues not converged
     c_bands:  1 eigenvalues not converged
     c_bands:  1 eigenvalues not converged
     c_bands:  1 eigenvalues not converged
     c_bands:  1 eigenvalues not converged
     c_bands:  1 eigenvalues not converged
     c_bands:  1 eigenvalues not converged
     c_bands:  1 eigenvalues not converged
     c_bands:  1 eigenvalues not converged
     c_bands:  1 eigenvalues not converged
     c_bands:  1 eigenvalues not converged
     ethr =  1.00E-06,  avg # of iterations =  7.4

     total cpu time spent up to now is     2452.1 secs

     total energy              =   -1521.68000326 Ry
     Harris-Foulkes estimate   =   -1521.82969966 Ry
     estimated scf accuracy    <       0.18990038 Ry

     iteration #  2     ecut=    40.00 Ry     beta=0.70
     CG style diagonalization
     ethr =  1.61E-04,  avg # of iterations =  3.8

     total cpu time spent up to now is     2490.7 secs

     total energy              =   -1521.73714103 Ry
     Harris-Foulkes estimate   =   -1521.75348390 Ry
     estimated scf accuracy    <       0.02445825 Ry

     iteration #  3     ecut=    40.00 Ry     beta=0.70
     CG style diagonalization
     ethr =  2.07E-05,  avg # of iterations =  3.7

     total cpu time spent up to now is     2530.1 secs

     total energy              =   -1521.74261636 Ry
     Harris-Foulkes estimate   =   -1521.74362853 Ry
     estimated scf accuracy    <       0.00187080 Ry

     iteration #  4     ecut=    40.00 Ry     beta=0.70
     CG style diagonalization
     c_bands:  1 eigenvalues not converged
     c_bands:  1 eigenvalues not converged
     c_bands:  1 eigenvalues not converged
     c_bands:  1 eigenvalues not converged
     c_bands:  1 eigenvalues not converged
     c_bands:  1 eigenvalues not converged
     c_bands:  1 eigenvalues not converged
     c_bands:  1 eigenvalues not converged
     c_bands:  1 eigenvalues not converged
     c_bands:  1 eigenvalues not converged
     c_bands:  1 eigenvalues not converged
     c_bands:  1 eigenvalues not converged
     ethr =  1.59E-06,  avg # of iterations =  3.7

     total cpu time spent up to now is     2571.4 secs

     total energy              =   -1521.74315889 Ry
     Harris-Foulkes estimate   =   -1521.74322017 Ry
     estimated scf accuracy    <       0.00012194 Ry

     iteration #  5     ecut=    40.00 Ry     beta=0.70
     CG style diagonalization
     c_bands:  1 eigenvalues not converged
     ethr =  1.03E-07,  avg # of iterations =  3.6

     total cpu time spent up to now is     2607.4 secs

     total energy              =   -1521.74318789 Ry
     Harris-Foulkes estimate   =   -1521.74318901 Ry
     estimated scf accuracy    <       0.00000206 Ry

     iteration #  6     ecut=    40.00 Ry     beta=0.70
     CG style diagonalization
     c_bands:  1 eigenvalues not converged
     ethr =  1.75E-09,  avg # of iterations =  4.1

     total cpu time spent up to now is     2648.6 secs

     End of self-consistent calculation

     Number of k-points >= 100: set verbosity='high' to print the bands.

     the Fermi energy is    38.6126 ev

!    total energy              =   -1521.74318902 Ry
     Harris-Foulkes estimate   =   -1521.74318913 Ry
     estimated scf accuracy    <       0.00000012 Ry

     The total energy is the sum of the following terms:

     one-electron contribution =    -151.77794853 Ry
     hartree contribution      =     199.16396771 Ry
     xc contribution           =    -143.61753734 Ry
     ewald contribution        =   -1425.39340262 Ry
     smearing contrib. (-TS)   =      -0.11826824 Ry

     convergence has been achieved in   6 iterations

     Forces acting on atoms (Ry/au):

     atom    1 type  1   force =     0.00000000    0.00000000   -0.00269087
     atom    2 type  1   force =     0.00000000    0.00000000    0.00269087
     atom    3 type  2   force =     0.00000000    0.00000000    0.00000000
     atom    4 type  2   force =     0.00000000    0.00000000    0.00000000
     atom    5 type  2   force =     0.00000000    0.00000000    0.00000000
     atom    6 type  2   force =     0.00000000    0.00000000    0.00000000

     Total force =     0.003805     Total SCF correction =     0.000000


     entering subroutine stress ...

          total   stress  (Ry/bohr**3)                   (kbar)     P= 1841.54
   0.01252123   0.00000000   0.00000000       1841.94      0.00      0.00
   0.00000000   0.01252123   0.00000000          0.00   1841.94      0.00
   0.00000000   0.00000000   0.01251310          0.00      0.00   1840.74


     The maximum number of steps has been reached.

     End of BFGS Geometry Optimization
Begin final coordinates
     new unit-cell volume =    596.51138 a.u.^3 (    88.39387 Ang^3 )

CELL_PARAMETERS (alat=  9.37903830)
   1.007438499   0.000000000   0.000000000
   0.503719249   0.872467333   0.000000000
   0.503719249   0.290822444   0.822576106

ATOMIC_POSITIONS (crystal)
Mg       0.749808338   0.749808338   0.750574985
Mg       0.500191662   0.500191662   0.499425015
Cu       0.125000000   0.125000000   0.125000000
Cu       0.625000000   0.125000000   0.125000000
Cu       0.125000000   0.625000000   0.125000000
Cu       0.125000000   0.125000000   0.625000000
End final coordinates



     A final scf calculation at the relaxed structure.
     The G-vectors are recalculated for the final unit cell
     Results may differ from those at the preceding step.
 
     Parallelization info
     --------------------
     sticks:   dense  smooth     PW     G-vecs:    dense   smooth      PW
     Min         243     243     77                 5068     5068     881
     Max         246     246     79                 5069     5069     882
     Sum         979     979    313                20275    20275    3527
 


     bravais-lattice index     =            0
     lattice parameter (alat)  =       9.3790  a.u.
     unit-cell volume          =     596.5114 (a.u.)^3
     number of atoms/cell      =            6
     number of atomic types    =            2
     number of electrons       =       118.00
     number of Kohn-Sham states=           71
     kinetic-energy cutoff     =      40.0000  Ry
     charge density cutoff     =     160.0000  Ry
     convergence threshold     =      1.0E-06
     mixing beta               =       0.7000
     number of iterations used =            8  plain     mixing
     Exchange-correlation      = SLA-PZ-NOGX-NOGC ( 1 1 0 0 0)
     EXX-fraction              =        0.00

     celldm(1)=   9.379038  celldm(2)=   0.000000  celldm(3)=   0.000000
     celldm(4)=   0.000000  celldm(5)=   0.000000  celldm(6)=   0.000000

     crystal axes: (cart. coord. in units of alat)
               a(1) = (   1.007438   0.000000   0.000000 )  
               a(2) = (   0.503719   0.872467   0.000000 )  
               a(3) = (   0.503719   0.290822   0.822576 )  

     reciprocal axes: (cart. coord. in units 2 pi/alat)
               b(1) = (  0.992616 -0.573087 -0.405231 )  
               b(2) = (  0.000000  1.146175 -0.405231 )  
               b(3) = (  0.000000  0.000000  1.215693 )  


     PseudoPot. # 1 for Eu read from file:
     /home/cwx6513/pp.La/Eu.UPF
     MD5 check sum: 5efdbbfc50c6a10138933a6429836ad2
     Pseudo is Norm-conserving, Zval = 17.0
     Generated in analytical, separable form
     Using radial grid of 1261 points,  6 beta functions with: 
                l(1) =   0
                l(2) =   0
                l(3) =   1
                l(4) =   1
                l(5) =   2
                l(6) =   3

     PseudoPot. # 2 for Ho read from file:
     /home/cwx6513/pp.La/Ho.UPF
     MD5 check sum: f307ee11bce99f5b724fa279e3790763
     Pseudo is Norm-conserving, Zval = 21.0
     Generated in analytical, separable form
     Using radial grid of 1265 points,  6 beta functions with: 
                l(1) =   0
                l(2) =   0
                l(3) =   1
                l(4) =   1
                l(5) =   2
                l(6) =   3

     atomic species   valence    mass     pseudopotential
        Mg            17.00    24.30500     Eu( 1.00)
        Cu            21.00    63.54600     Ho( 1.00)

     12 Sym. Ops., with inversion, found ( 6 have fractional translation)



   Cartesian axes

     site n.     atom                  positions (alat units)
         1           Mg  tau(   1) = (   1.5111577   0.8724673   0.6174050  )
         2           Mg  tau(   2) = (   1.0074385   0.5816449   0.4108151  )
         3           Cu  tau(   3) = (   0.2518596   0.1454112   0.1028220  )
         4           Cu  tau(   4) = (   0.7555789   0.1454112   0.1028220  )
         5           Cu  tau(   5) = (   0.5037192   0.5816449   0.1028220  )
         6           Cu  tau(   6) = (   0.5037192   0.2908224   0.5141101  )

     number of k points=   170  gaussian smearing, width (Ry)=  0.1000

     Number of k-points >= 100: set verbosity='high' to print them.

     Dense  grid:    20275 G-vectors     FFT dimensions: (  40,  40,  40)

     Largest allocated arrays     est. size (Mb)     dimensions
        Kohn-Sham Wavefunctions         0.72 Mb     (    660,   71)
        NL pseudopotentials             1.21 Mb     (    660,  120)
        Each V/rho on FFT grid          0.24 Mb     (  16000)
        Each G-vector array             0.04 Mb     (   5069)
        G-vector shells                 0.01 Mb     (   1438)
     Largest temporary arrays     est. size (Mb)     dimensions
        Each subspace H/S matrix        0.08 Mb     (  71,  71)
        Each <psi_i|beta_j> matrix      0.13 Mb     (    120,   71)
        Arrays for rho mixing           1.95 Mb     (  16000,   8)

     Initial potential from superposition of free atoms

     Starting from uniform charge
     Starting wfc are    0 randomized atomic wfcs

     Writing output data file Prototype-La-cF24-Cu2Mg.save

     total cpu time spent up to now is     2668.9 secs

     Self-consistent Calculation

     iteration #  1     ecut=    40.00 Ry     beta=0.70
     CG style diagonalization
     c_bands:  1 eigenvalues not converged
     c_bands:  4 eigenvalues not converged
     c_bands:  3 eigenvalues not converged
     c_bands:  5 eigenvalues not converged
     c_bands:  5 eigenvalues not converged
     c_bands:  1 eigenvalues not converged
     c_bands:  3 eigenvalues not converged
     c_bands:  1 eigenvalues not converged
     c_bands:  5 eigenvalues not converged
     c_bands:  3 eigenvalues not converged
     c_bands:  1 eigenvalues not converged
     c_bands:  4 eigenvalues not converged
     c_bands:  1 eigenvalues not converged
     c_bands:  1 eigenvalues not converged
     c_bands:  5 eigenvalues not converged
     c_bands:  3 eigenvalues not converged
     c_bands:  2 eigenvalues not converged
     c_bands:  1 eigenvalues not converged
     c_bands:  1 eigenvalues not converged
     c_bands:  5 eigenvalues not converged
     c_bands:  5 eigenvalues not converged
     c_bands:  4 eigenvalues not converged
     c_bands:  1 eigenvalues not converged
     c_bands:  4 eigenvalues not converged
     c_bands:  5 eigenvalues not converged
     c_bands:  1 eigenvalues not converged
     c_bands:  3 eigenvalues not converged
     c_bands:  5 eigenvalues not converged
     c_bands:  2 eigenvalues not converged
     c_bands:  1 eigenvalues not converged
     c_bands:  5 eigenvalues not converged
     c_bands:  5 eigenvalues not converged
     c_bands:  4 eigenvalues not converged
     c_bands:  3 eigenvalues not converged
     c_bands:  5 eigenvalues not converged
     c_bands:  2 eigenvalues not converged
     c_bands:  3 eigenvalues not converged
     c_bands:  5 eigenvalues not converged
     c_bands:  3 eigenvalues not converged
     c_bands:  2 eigenvalues not converged
     c_bands:  2 eigenvalues not converged
     c_bands:  4 eigenvalues not converged
     c_bands:  3 eigenvalues not converged
     c_bands:  4 eigenvalues not converged
     c_bands:  1 eigenvalues not converged
     c_bands:  4 eigenvalues not converged
     c_bands:  3 eigenvalues not converged
     c_bands:  5 eigenvalues not converged
     c_bands:  1 eigenvalues not converged
     c_bands:  5 eigenvalues not converged
     c_bands:  5 eigenvalues not converged
     c_bands:  2 eigenvalues not converged
     c_bands:  2 eigenvalues not converged
     c_bands:  5 eigenvalues not converged
     c_bands:  5 eigenvalues not converged
     c_bands:  2 eigenvalues not converged
     c_bands:  5 eigenvalues not converged
     ethr =  1.00E-06,  avg # of iterations = 48.8

     total cpu time spent up to now is     3133.6 secs

     total energy              =   -1002.63545333 Ry
     Harris-Foulkes estimate   =   -1907.62307628 Ry
     estimated scf accuracy    <    1090.21525647 Ry

     iteration #  2     ecut=    40.00 Ry     beta=0.70
     CG style diagonalization
     c_bands:  5 eigenvalues not converged
     c_bands:  5 eigenvalues not converged
     c_bands:  2 eigenvalues not converged
     c_bands:  5 eigenvalues not converged
     c_bands:  4 eigenvalues not converged
     c_bands:  3 eigenvalues not converged
     c_bands:  5 eigenvalues not converged
     c_bands:  2 eigenvalues not converged
     c_bands:  3 eigenvalues not converged
     c_bands:  4 eigenvalues not converged
     c_bands:  5 eigenvalues not converged
     c_bands:  5 eigenvalues not converged
     c_bands:  2 eigenvalues not converged
     c_bands:  4 eigenvalues not converged
     c_bands:  5 eigenvalues not converged
     c_bands:  5 eigenvalues not converged
     c_bands:  5 eigenvalues not converged
     c_bands:  4 eigenvalues not converged
     c_bands:  3 eigenvalues not converged
     c_bands:  4 eigenvalues not converged
     c_bands:  5 eigenvalues not converged
     ethr =  1.00E-02,  avg # of iterations = 17.4

     total cpu time spent up to now is     3302.2 secs

     total energy              =   -1073.08158452 Ry
     Harris-Foulkes estimate   =   -2097.59230560 Ry
     estimated scf accuracy    <    2237.23039629 Ry

     iteration #  3     ecut=    40.00 Ry     beta=0.70
     CG style diagonalization
     c_bands:  1 eigenvalues not converged
     c_bands:  1 eigenvalues not converged
     c_bands:  1 eigenvalues not converged
     c_bands:  1 eigenvalues not converged
     c_bands:  1 eigenvalues not converged
     c_bands:  1 eigenvalues not converged
     c_bands:  1 eigenvalues not converged
     c_bands:  1 eigenvalues not converged
     c_bands:  2 eigenvalues not converged
     c_bands:  1 eigenvalues not converged
     c_bands:  1 eigenvalues not converged
     c_bands:  2 eigenvalues not converged
     c_bands:  1 eigenvalues not converged
     c_bands:  1 eigenvalues not converged
     c_bands:  1 eigenvalues not converged
     c_bands:  1 eigenvalues not converged
     c_bands:  1 eigenvalues not converged
     ethr =  1.00E-02,  avg # of iterations = 11.6

     total cpu time spent up to now is     3418.0 secs

     total energy              =   -1508.41995082 Ry
     Harris-Foulkes estimate   =   -1543.79341813 Ry
     estimated scf accuracy    <      77.03869258 Ry

     iteration #  4     ecut=    40.00 Ry     beta=0.70
     CG style diagonalization
     ethr =  1.00E-02,  avg # of iterations =  5.0

     total cpu time spent up to now is     3469.5 secs

     total energy              =   -1521.44028266 Ry
     Harris-Foulkes estimate   =   -1522.77592277 Ry
     estimated scf accuracy    <       2.70484929 Ry

     iteration #  5     ecut=    40.00 Ry     beta=0.70
     CG style diagonalization
     ethr =  2.29E-03,  avg # of iterations =  3.7

     total cpu time spent up to now is     3508.5 secs

     total energy              =   -1521.77364986 Ry
     Harris-Foulkes estimate   =   -1521.88480940 Ry
     estimated scf accuracy    <       0.21513906 Ry

     iteration #  6     ecut=    40.00 Ry     beta=0.70
     CG style diagonalization
     c_bands:  1 eigenvalues not converged
     c_bands:  1 eigenvalues not converged
     c_bands:  1 eigenvalues not converged
     c_bands:  1 eigenvalues not converged
     c_bands:  2 eigenvalues not converged
     c_bands:  1 eigenvalues not converged
     c_bands:  3 eigenvalues not converged
     c_bands:  2 eigenvalues not converged
     c_bands:  1 eigenvalues not converged
     c_bands:  1 eigenvalues not converged
     c_bands:  1 eigenvalues not converged
     c_bands:  2 eigenvalues not converged
     c_bands:  2 eigenvalues not converged
     c_bands:  3 eigenvalues not converged
     c_bands:  2 eigenvalues not converged
     c_bands:  3 eigenvalues not converged
     c_bands:  2 eigenvalues not converged
     c_bands:  2 eigenvalues not converged
     c_bands:  3 eigenvalues not converged
     c_bands:  1 eigenvalues not converged
     c_bands:  2 eigenvalues not converged
     c_bands:  1 eigenvalues not converged
     c_bands:  1 eigenvalues not converged
     c_bands:  1 eigenvalues not converged
     c_bands:  2 eigenvalues not converged
     c_bands:  1 eigenvalues not converged
     c_bands:  1 eigenvalues not converged
     c_bands:  2 eigenvalues not converged
     c_bands:  5 eigenvalues not converged
     c_bands:  1 eigenvalues not converged
     c_bands:  2 eigenvalues not converged
     c_bands:  1 eigenvalues not converged
     c_bands:  3 eigenvalues not converged
     c_bands:  1 eigenvalues not converged
     c_bands:  2 eigenvalues not converged
     c_bands:  2 eigenvalues not converged
     c_bands:  1 eigenvalues not converged
     c_bands:  1 eigenvalues not converged
     c_bands:  2 eigenvalues not converged
     c_bands:  1 eigenvalues not converged
     c_bands:  3 eigenvalues not converged
     c_bands:  2 eigenvalues not converged
     c_bands:  1 eigenvalues not converged
     c_bands:  1 eigenvalues not converged
     c_bands:  1 eigenvalues not converged
     c_bands:  1 eigenvalues not converged
     c_bands:  1 eigenvalues not converged
     ethr =  1.82E-04,  avg # of iterations =  4.7

     total cpu time spent up to now is     3557.6 secs

     total energy              =   -1521.82592659 Ry
     Harris-Foulkes estimate   =   -1521.84907324 Ry
     estimated scf accuracy    <       0.05012143 Ry

     iteration #  7     ecut=    40.00 Ry     beta=0.70
     CG style diagonalization
     c_bands:  1 eigenvalues not converged
     c_bands:  1 eigenvalues not converged
     c_bands:  1 eigenvalues not converged
     c_bands:  1 eigenvalues not converged
     c_bands:  1 eigenvalues not converged
     c_bands:  1 eigenvalues not converged
     c_bands:  1 eigenvalues not converged
     c_bands:  1 eigenvalues not converged
     c_bands:  1 eigenvalues not converged
     c_bands:  1 eigenvalues not converged
     c_bands:  2 eigenvalues not converged
     c_bands:  1 eigenvalues not converged
     c_bands:  1 eigenvalues not converged
     c_bands:  1 eigenvalues not converged
     c_bands:  1 eigenvalues not converged
     c_bands:  1 eigenvalues not converged
     c_bands:  2 eigenvalues not converged
     c_bands:  1 eigenvalues not converged
     c_bands:  1 eigenvalues not converged
     c_bands:  1 eigenvalues not converged
     c_bands:  1 eigenvalues not converged
     c_bands:  1 eigenvalues not converged
     c_bands:  1 eigenvalues not converged
     c_bands:  1 eigenvalues not converged
     c_bands:  1 eigenvalues not converged
     c_bands:  1 eigenvalues not converged
     c_bands:  1 eigenvalues not converged
     c_bands:  1 eigenvalues not converged
     c_bands:  1 eigenvalues not converged
     c_bands:  2 eigenvalues not converged
     ethr =  4.25E-05,  avg # of iterations =  3.7

     total cpu time spent up to now is     3595.8 secs

     total energy              =   -1521.83531716 Ry
     Harris-Foulkes estimate   =   -1521.83613496 Ry
     estimated scf accuracy    <       0.00176166 Ry

     iteration #  8     ecut=    40.00 Ry     beta=0.70
     CG style diagonalization
     c_bands:  1 eigenvalues not converged
     c_bands:  1 eigenvalues not converged
     c_bands:  1 eigenvalues not converged
     c_bands:  1 eigenvalues not converged
     c_bands:  2 eigenvalues not converged
     c_bands:  2 eigenvalues not converged
     c_bands:  1 eigenvalues not converged
     c_bands:  1 eigenvalues not converged
     c_bands:  1 eigenvalues not converged
     c_bands:  2 eigenvalues not converged
     c_bands:  1 eigenvalues not converged
     c_bands:  1 eigenvalues not converged
     c_bands:  1 eigenvalues not converged
     c_bands:  1 eigenvalues not converged
     c_bands:  1 eigenvalues not converged
     c_bands:  2 eigenvalues not converged
     c_bands:  1 eigenvalues not converged
     c_bands:  1 eigenvalues not converged
     c_bands:  2 eigenvalues not converged
     c_bands:  1 eigenvalues not converged
     c_bands:  1 eigenvalues not converged
     c_bands:  1 eigenvalues not converged
     c_bands:  1 eigenvalues not converged
     c_bands:  1 eigenvalues not converged
     c_bands:  1 eigenvalues not converged
     c_bands:  2 eigenvalues not converged
     c_bands:  1 eigenvalues not converged
     c_bands:  1 eigenvalues not converged
     c_bands:  1 eigenvalues not converged
     c_bands:  1 eigenvalues not converged
     c_bands:  1 eigenvalues not converged
     c_bands:  1 eigenvalues not converged
     c_bands:  1 eigenvalues not converged
     c_bands:  1 eigenvalues not converged
     c_bands:  2 eigenvalues not converged
     c_bands:  1 eigenvalues not converged
     c_bands:  1 eigenvalues not converged
     c_bands:  2 eigenvalues not converged
     c_bands:  1 eigenvalues not converged
     c_bands:  1 eigenvalues not converged
     c_bands:  1 eigenvalues not converged
     c_bands:  1 eigenvalues not converged
     c_bands:  1 eigenvalues not converged
     c_bands:  1 eigenvalues not converged
     c_bands:  1 eigenvalues not converged
     ethr =  1.49E-06,  avg # of iterations =  4.9

     total cpu time spent up to now is     3646.6 secs

     total energy              =   -1521.83607346 Ry
     Harris-Foulkes estimate   =   -1521.83618717 Ry
     estimated scf accuracy    <       0.00024924 Ry

     iteration #  9     ecut=    40.00 Ry     beta=0.70
     CG style diagonalization
     c_bands:  1 eigenvalues not converged
     c_bands:  1 eigenvalues not converged
     c_bands:  1 eigenvalues not converged
     c_bands:  1 eigenvalues not converged
     c_bands:  1 eigenvalues not converged
     c_bands:  1 eigenvalues not converged
     c_bands:  1 eigenvalues not converged
     c_bands:  1 eigenvalues not converged
     c_bands:  1 eigenvalues not converged
     c_bands:  1 eigenvalues not converged
     c_bands:  1 eigenvalues not converged
     c_bands:  1 eigenvalues not converged
     c_bands:  1 eigenvalues not converged
     c_bands:  1 eigenvalues not converged
     c_bands:  1 eigenvalues not converged
     ethr =  2.11E-07,  avg # of iterations =  3.7

     total cpu time spent up to now is     3684.2 secs

     total energy              =   -1521.83611462 Ry
     Harris-Foulkes estimate   =   -1521.83614005 Ry
     estimated scf accuracy    <       0.00005153 Ry

     iteration # 10     ecut=    40.00 Ry     beta=0.70
     CG style diagonalization
     c_bands:  1 eigenvalues not converged
     ethr =  4.37E-08,  avg # of iterations =  3.4

     total cpu time spent up to now is     3719.1 secs

     total energy              =   -1521.83612294 Ry
     Harris-Foulkes estimate   =   -1521.83612353 Ry
     estimated scf accuracy    <       0.00000110 Ry

     iteration # 11     ecut=    40.00 Ry     beta=0.70
     CG style diagonalization
     ethr =  9.33E-10,  avg # of iterations =  4.8

     total cpu time spent up to now is     3766.7 secs

     End of self-consistent calculation

     Number of k-points >= 100: set verbosity='high' to print the bands.

     the Fermi energy is    38.6016 ev

!    total energy              =   -1521.83612395 Ry
     Harris-Foulkes estimate   =   -1521.83612409 Ry
     estimated scf accuracy    <       0.00000019 Ry

     The total energy is the sum of the following terms:

     one-electron contribution =    -151.91448993 Ry
     hartree contribution      =     199.21929089 Ry
     xc contribution           =    -143.62880366 Ry
     ewald contribution        =   -1425.39340261 Ry
     smearing contrib. (-TS)   =      -0.11871863 Ry

     convergence has been achieved in  11 iterations

     Forces acting on atoms (Ry/au):

     atom    1 type  1   force =     0.00000000    0.00000000   -0.00395179
     atom    2 type  1   force =     0.00000000    0.00000000    0.00395179
     atom    3 type  2   force =     0.00000000    0.00000000    0.00000000
     atom    4 type  2   force =     0.00000000    0.00000000    0.00000000
     atom    5 type  2   force =     0.00000000    0.00000000    0.00000000
     atom    6 type  2   force =     0.00000000    0.00000000    0.00000000

     Total force =     0.005589     Total SCF correction =     0.000000


     entering subroutine stress ...

          total   stress  (Ry/bohr**3)                   (kbar)     P= 1891.66
   0.01286226   0.00000000   0.00000000       1892.10      0.00      0.00
   0.00000000   0.01286226   0.00000000          0.00   1892.10      0.00
   0.00000000   0.00000000   0.01285324          0.00      0.00   1890.78


     Writing output data file Prototype-La-cF24-Cu2Mg.save
 
     init_run     :     16.77s CPU     21.22s WALL (       2 calls)
     electrons    :   3010.40s CPU   3697.23s WALL (       5 calls)
     update_pot   :      1.43s CPU      1.97s WALL (       3 calls)
     forces       :     11.37s CPU     13.20s WALL (       5 calls)
     stress       :     30.58s CPU     34.22s WALL (       5 calls)

     Called by init_run:
     wfcinit      :     16.24s CPU     20.67s WALL (       2 calls)
     potinit      :      0.23s CPU      0.24s WALL (       2 calls)

     Called by electrons:
     c_bands      :   2889.43s CPU   3518.44s WALL (      42 calls)
     sum_band     :    120.52s CPU    159.29s WALL (      42 calls)
     v_of_rho     :      0.06s CPU      0.06s WALL (      47 calls)
     mix_rho      :      0.06s CPU      0.07s WALL (      42 calls)

     Called by c_bands:
     init_us_2    :      4.92s CPU      6.27s WALL (   16320 calls)
     ccgdiagg     :   2535.87s CPU   3043.09s WALL (    8390 calls)
     wfcrot       :    364.71s CPU    481.08s WALL (    8560 calls)

     Called by *cgdiagg:
     h_psi        :   2102.88s CPU   2618.43s WALL ( 3174675 calls)
     cdiaghg      :     17.40s CPU     19.38s WALL (    8560 calls)

     Called by h_psi:
     add_vuspsi   :    167.81s CPU    204.39s WALL ( 3174675 calls)

     General routines
     calbec       :    509.43s CPU    561.87s WALL ( 6342490 calls)
     fft          :      0.31s CPU      0.49s WALL (     211 calls)
     fftw         :   1666.52s CPU   2074.82s WALL ( 8054690 calls)
     davcio       :      3.29s CPU     12.48s WALL (   23460 calls)
 
     Parallel routines
     fft_scatter  :    832.54s CPU   1028.64s WALL ( 8054901 calls)
 
     PWSCF        :     0h51m CPU        1h 2m WALL

 
   This run was terminated on:  22:16:20  22Mar2018            

=------------------------------------------------------------------------------=
   JOB DONE.
=------------------------------------------------------------------------------=
