
     Program PWSCF v.5.0.2 starts on 22Mar2018 at 12: 4:20 

     This program is part of the open-source Quantum ESPRESSO suite
     for quantum simulation of materials; please cite
         "P. Giannozzi et al., J. Phys.:Condens. Matter 21 395502 (2009);
          URL http://www.quantum-espresso.org", 
     in publications or presentations arising from this work. More details at
     http://www.quantum-espresso.org/quote.php

     Parallel version (MPI), running on     4 processors
     R & G space division:  proc/nbgrp/npool/nimage =       4

     Current dimensions of program PWSCF are:
     Max number of different atomic species (ntypx) = 10
     Max number of k-points (npk) =  40000
     Max angular momentum in pseudopotentials (lmaxx) =  3
     Waiting for input...
     Reading input from standard input

     Subspace diagonalization in iterative solution of the eigenvalue problem:
     a serial algorithm will be used

 
     Parallelization info
     --------------------
     sticks:   dense  smooth     PW     G-vecs:    dense   smooth      PW
     Min         256     256     78                 5240     5240     876
     Max         257     257     79                 5243     5243     879
     Sum        1027    1027    313                20965    20965    3509
 


     bravais-lattice index     =            0
     lattice parameter (alat)  =       9.6483  a.u.
     unit-cell volume          =     613.3683 (a.u.)^3
     number of atoms/cell      =            6
     number of atomic types    =            2
     number of electrons       =       124.00
     number of Kohn-Sham states=           74
     kinetic-energy cutoff     =      40.0000  Ry
     charge density cutoff     =     160.0000  Ry
     convergence threshold     =      1.0E-04
     mixing beta               =       0.7000
     number of iterations used =            8  plain     mixing
     Exchange-correlation      = SLA-PZ-NOGX-NOGC ( 1 1 0 0 0)
     EXX-fraction              =        0.00
     nstep                     =           50


     celldm(1)=   9.648295  celldm(2)=   0.000000  celldm(3)=   0.000000
     celldm(4)=   0.000000  celldm(5)=   0.000000  celldm(6)=   0.000000

     crystal axes: (cart. coord. in units of alat)
               a(1) = (   1.000000   0.000000   0.000000 )  
               a(2) = (  -0.500000   0.866025   0.000000 )  
               a(3) = (   0.000000   0.000000   0.788568 )  

     reciprocal axes: (cart. coord. in units 2 pi/alat)
               b(1) = (  1.000000  0.577350  0.000000 )  
               b(2) = (  0.000000  1.154701  0.000000 )  
               b(3) = (  0.000000  0.000000  1.268122 )  


     PseudoPot. # 1 for Yb read from file:
     /home/jld5415/pp.La/Yb.UPF
     MD5 check sum: 3e859b81cc28c53ec6aa3a2e888efcdf
     Pseudo is Norm-conserving, Zval = 24.0
     Generated in analytical, separable form
     Using radial grid of 1269 points,  6 beta functions with: 
                l(1) =   0
                l(2) =   0
                l(3) =   1
                l(4) =   1
                l(5) =   2
                l(6) =   3

     PseudoPot. # 2 for Dy read from file:
     /home/jld5415/pp.La/Dy.UPF
     MD5 check sum: 9597327bec62616a94a14d07f3fd9936
     Pseudo is Norm-conserving, Zval = 20.0
     Generated in analytical, separable form
     Using radial grid of 1265 points,  6 beta functions with: 
                l(1) =   0
                l(2) =   0
                l(3) =   1
                l(4) =   1
                l(5) =   2
                l(6) =   3

     atomic species   valence    mass     pseudopotential
        Ca            24.00    40.07800     Yb( 1.00)
        Cu            20.00    63.54600     Dy( 1.00)

     24 Sym. Ops., with inversion, found



   Cartesian axes

     site n.     atom                  positions (alat units)
         1           Ca  tau(   1) = (   0.0000000   0.0000000   0.0000000  )
         2           Cu  tau(   2) = (  -0.0000005   0.5773506   0.0000000  )
         3           Cu  tau(   3) = (   0.5000005   0.2886748   0.0000000  )
         4           Cu  tau(   4) = (   0.5000000   0.0000000   0.3942838  )
         5           Cu  tau(   5) = (   0.2500000   0.4330127   0.3942838  )
         6           Cu  tau(   6) = (  -0.2500000   0.4330127   0.3942838  )

     number of k points=   110  gaussian smearing, width (Ry)=  0.1000

     Number of k-points >= 100: set verbosity='high' to print them.

     Dense  grid:    20965 G-vectors     FFT dimensions: (  40,  40,  32)

     Largest allocated arrays     est. size (Mb)     dimensions
        Kohn-Sham Wavefunctions         0.76 Mb     (    670,   74)
        NL pseudopotentials             1.23 Mb     (    670,  120)
        Each V/rho on FFT grid          0.20 Mb     (  12800)
        Each G-vector array             0.04 Mb     (   5243)
        G-vector shells                 0.04 Mb     (   5243)
     Largest temporary arrays     est. size (Mb)     dimensions
        Each subspace H/S matrix        0.08 Mb     (  74,  74)
        Each <psi_i|beta_j> matrix      0.14 Mb     (    120,   74)
        Arrays for rho mixing           1.56 Mb     (  12800,   8)

     Initial potential from superposition of free atoms

     Starting from uniform charge
     Starting wfc are    0 randomized atomic wfcs

     total cpu time spent up to now is        5.8 secs

     Self-consistent Calculation

     iteration #  1     ecut=    40.00 Ry     beta=0.70
     CG style diagonalization
     c_bands:  1 eigenvalues not converged
     c_bands:  1 eigenvalues not converged
     c_bands:  2 eigenvalues not converged
     c_bands:  1 eigenvalues not converged
     c_bands:  1 eigenvalues not converged
     c_bands:  1 eigenvalues not converged
     c_bands:  2 eigenvalues not converged
     c_bands:  2 eigenvalues not converged
     c_bands:  2 eigenvalues not converged
     c_bands:  2 eigenvalues not converged
     c_bands:  1 eigenvalues not converged
     c_bands:  1 eigenvalues not converged
     c_bands:  1 eigenvalues not converged
     c_bands:  1 eigenvalues not converged
     c_bands:  1 eigenvalues not converged
     c_bands:  1 eigenvalues not converged
     c_bands:  2 eigenvalues not converged
     c_bands:  2 eigenvalues not converged
     c_bands:  1 eigenvalues not converged
     c_bands:  2 eigenvalues not converged
     c_bands:  2 eigenvalues not converged
     c_bands:  2 eigenvalues not converged
     c_bands:  3 eigenvalues not converged
     c_bands:  2 eigenvalues not converged
     c_bands:  1 eigenvalues not converged
     c_bands:  2 eigenvalues not converged
     c_bands:  1 eigenvalues not converged
     c_bands:  2 eigenvalues not converged
     c_bands:  2 eigenvalues not converged
     c_bands:  1 eigenvalues not converged
     c_bands:  1 eigenvalues not converged
     c_bands:  2 eigenvalues not converged
     c_bands:  1 eigenvalues not converged
     c_bands:  1 eigenvalues not converged
     c_bands:  1 eigenvalues not converged
     c_bands:  2 eigenvalues not converged
     c_bands:  1 eigenvalues not converged
     c_bands:  1 eigenvalues not converged
     c_bands:  3 eigenvalues not converged
     c_bands:  2 eigenvalues not converged
     c_bands:  2 eigenvalues not converged
     c_bands:  1 eigenvalues not converged
     c_bands:  1 eigenvalues not converged
     c_bands:  3 eigenvalues not converged
     c_bands:  1 eigenvalues not converged
     c_bands:  1 eigenvalues not converged
     c_bands:  2 eigenvalues not converged
     c_bands:  2 eigenvalues not converged
     c_bands:  2 eigenvalues not converged
     c_bands:  1 eigenvalues not converged
     c_bands:  3 eigenvalues not converged
     c_bands:  1 eigenvalues not converged
     c_bands:  1 eigenvalues not converged
     c_bands:  3 eigenvalues not converged
     c_bands:  1 eigenvalues not converged
     c_bands:  1 eigenvalues not converged
     c_bands:  2 eigenvalues not converged
     c_bands:  1 eigenvalues not converged
     c_bands:  1 eigenvalues not converged
     c_bands:  2 eigenvalues not converged
     c_bands:  2 eigenvalues not converged
     c_bands:  2 eigenvalues not converged
     c_bands:  1 eigenvalues not converged
     c_bands:  1 eigenvalues not converged
     c_bands:  2 eigenvalues not converged
     c_bands:  2 eigenvalues not converged
     c_bands:  1 eigenvalues not converged
     c_bands:  1 eigenvalues not converged
     c_bands:  2 eigenvalues not converged
     c_bands:  1 eigenvalues not converged
     c_bands:  1 eigenvalues not converged
     c_bands:  3 eigenvalues not converged
     c_bands:  1 eigenvalues not converged
     c_bands:  1 eigenvalues not converged
     ethr =  1.00E-02,  avg # of iterations = 21.8

     total cpu time spent up to now is      134.7 secs

     total energy              =   -1561.38822913 Ry
     Harris-Foulkes estimate   =   -2067.76043806 Ry
     estimated scf accuracy    <     639.73259656 Ry

     iteration #  2     ecut=    40.00 Ry     beta=0.70
     CG style diagonalization
     c_bands:  1 eigenvalues not converged
     c_bands:  1 eigenvalues not converged
     c_bands:  1 eigenvalues not converged
     ethr =  1.00E-02,  avg # of iterations =  8.5

     total cpu time spent up to now is      186.8 secs

     total energy              =   -1678.93426443 Ry
     Harris-Foulkes estimate   =   -1731.60862723 Ry
     estimated scf accuracy    <      71.36777329 Ry

     iteration #  3     ecut=    40.00 Ry     beta=0.70
     CG style diagonalization
     c_bands:  2 eigenvalues not converged
     c_bands:  2 eigenvalues not converged
     c_bands:  1 eigenvalues not converged
     c_bands:  1 eigenvalues not converged
     c_bands:  1 eigenvalues not converged
     c_bands:  1 eigenvalues not converged
     c_bands:  1 eigenvalues not converged
     c_bands:  2 eigenvalues not converged
     c_bands:  1 eigenvalues not converged
     c_bands:  1 eigenvalues not converged
     c_bands:  1 eigenvalues not converged
     c_bands:  1 eigenvalues not converged
     c_bands:  2 eigenvalues not converged
     c_bands:  1 eigenvalues not converged
     c_bands:  2 eigenvalues not converged
     c_bands:  1 eigenvalues not converged
     c_bands:  1 eigenvalues not converged
     c_bands:  1 eigenvalues not converged
     c_bands:  1 eigenvalues not converged
     c_bands:  1 eigenvalues not converged
     c_bands:  1 eigenvalues not converged
     c_bands:  1 eigenvalues not converged
     ethr =  1.00E-02,  avg # of iterations =  7.3

     total cpu time spent up to now is      237.8 secs

     total energy              =   -1672.60040099 Ry
     Harris-Foulkes estimate   =   -1724.95688837 Ry
     estimated scf accuracy    <     146.98332165 Ry

     iteration #  4     ecut=    40.00 Ry     beta=0.70
     CG style diagonalization
     ethr =  1.00E-02,  avg # of iterations =  4.6

     total cpu time spent up to now is      273.3 secs

     total energy              =   -1708.54685067 Ry
     Harris-Foulkes estimate   =   -1710.56011693 Ry
     estimated scf accuracy    <       4.33714054 Ry

     iteration #  5     ecut=    40.00 Ry     beta=0.70
     CG style diagonalization
     ethr =  3.50E-03,  avg # of iterations =  3.6

     total cpu time spent up to now is      298.6 secs

     total energy              =   -1709.13890700 Ry
     Harris-Foulkes estimate   =   -1709.38095205 Ry
     estimated scf accuracy    <       0.58783186 Ry

     iteration #  6     ecut=    40.00 Ry     beta=0.70
     CG style diagonalization
     ethr =  4.74E-04,  avg # of iterations =  3.7

     total cpu time spent up to now is      324.9 secs

     total energy              =   -1709.16462751 Ry
     Harris-Foulkes estimate   =   -1709.22730763 Ry
     estimated scf accuracy    <       0.22388822 Ry

     iteration #  7     ecut=    40.00 Ry     beta=0.70
     CG style diagonalization
     ethr =  1.81E-04,  avg # of iterations =  3.2

     total cpu time spent up to now is      348.6 secs

     total energy              =   -1709.14644275 Ry
     Harris-Foulkes estimate   =   -1709.17848854 Ry
     estimated scf accuracy    <       0.08503672 Ry

     iteration #  8     ecut=    40.00 Ry     beta=0.70
     CG style diagonalization
     c_bands:  1 eigenvalues not converged
     ethr =  6.86E-05,  avg # of iterations =  3.4

     total cpu time spent up to now is      372.9 secs

     total energy              =   -1709.14898387 Ry
     Harris-Foulkes estimate   =   -1709.15644654 Ry
     estimated scf accuracy    <       0.01297979 Ry

     iteration #  9     ecut=    40.00 Ry     beta=0.70
     CG style diagonalization
     c_bands:  1 eigenvalues not converged
     c_bands:  1 eigenvalues not converged
     c_bands:  1 eigenvalues not converged
     c_bands:  1 eigenvalues not converged
     c_bands:  1 eigenvalues not converged
     c_bands:  1 eigenvalues not converged
     c_bands:  1 eigenvalues not converged
     c_bands:  1 eigenvalues not converged
     c_bands:  1 eigenvalues not converged
     ethr =  1.05E-05,  avg # of iterations =  3.9

     total cpu time spent up to now is      402.9 secs

     total energy              =   -1709.15204713 Ry
     Harris-Foulkes estimate   =   -1709.15245134 Ry
     estimated scf accuracy    <       0.00066030 Ry

     iteration # 10     ecut=    40.00 Ry     beta=0.70
     CG style diagonalization
     c_bands:  1 eigenvalues not converged
     c_bands:  1 eigenvalues not converged
     c_bands:  1 eigenvalues not converged
     ethr =  5.32E-07,  avg # of iterations =  4.4

     total cpu time spent up to now is      435.3 secs

     total energy              =   -1709.15238934 Ry
     Harris-Foulkes estimate   =   -1709.15244292 Ry
     estimated scf accuracy    <       0.00010669 Ry

     iteration # 11     ecut=    40.00 Ry     beta=0.70
     CG style diagonalization
     c_bands:  1 eigenvalues not converged
     ethr =  8.60E-08,  avg # of iterations =  3.7

     total cpu time spent up to now is      461.7 secs

     End of self-consistent calculation

     Number of k-points >= 100: set verbosity='high' to print the bands.

     the Fermi energy is    38.6389 ev

!    total energy              =   -1709.15241963 Ry
     Harris-Foulkes estimate   =   -1709.15242153 Ry
     estimated scf accuracy    <       0.00000221 Ry

     The total energy is the sum of the following terms:

     one-electron contribution =    -249.53856553 Ry
     hartree contribution      =     245.42423558 Ry
     xc contribution           =    -155.22956773 Ry
     ewald contribution        =   -1549.66167240 Ry
     smearing contrib. (-TS)   =      -0.14684955 Ry

     convergence has been achieved in  11 iterations

     Forces acting on atoms (Ry/au):

     atom    1 type  1   force =     0.00000000    0.00000000    0.00000000
     atom    2 type  2   force =     0.00000000    0.00000000    0.00000000
     atom    3 type  2   force =     0.00000000    0.00000000    0.00000000
     atom    4 type  2   force =     0.00000000    0.00000000    0.00000000
     atom    5 type  2   force =     0.00000000    0.00000000    0.00000000
     atom    6 type  2   force =     0.00000000    0.00000000    0.00000000

     Total force =     0.000000     Total SCF correction =     0.000000


     entering subroutine stress ...

          total   stress  (Ry/bohr**3)                   (kbar)     P= 2310.87
   0.01409919   0.00000000   0.00000000       2074.06      0.00      0.00
   0.00000000   0.01409919   0.00000000          0.00   2074.06      0.00
   0.00000000   0.00000000   0.01892851          0.00      0.00   2784.48


     BFGS Geometry Optimization

     number of scf cycles    =   1
     number of bfgs steps    =   0

     enthalpy new            =   -1709.1524196254 Ry

     new trust radius        =       0.5000000000 bohr
     new conv_thr            =       0.0001000000 Ry

     new unit-cell volume =    780.65016 a.u.^3 (   115.68042 Ang^3 )

CELL_PARAMETERS (alat=  9.64829493)
   1.075189491   0.000000000   0.000000000
  -0.537594746   0.931141413   0.000000000
   0.000000000   0.000000000   0.868168629

ATOMIC_POSITIONS (crystal)
Ca       0.000000000   0.000000000   0.000000000
Cu       0.333333000   0.666667000   0.000000000
Cu       0.666667000   0.333333000   0.000000000
Cu       0.500000000   0.000000000   0.500000000
Cu       0.500000000   0.500000000   0.500000000
Cu       0.000000000   0.500000000   0.500000000



     Writing output data file Prototype-La-hP6-CaCu5.save
     NEW-OLD atomic charge density approx. for the potential
     NEW k-points: (use verbosity='high' to print them)

     total cpu time spent up to now is      468.5 secs

     Self-consistent Calculation

     iteration #  1     ecut=    40.00 Ry     beta=0.70
     CG style diagonalization
     c_bands:  4 eigenvalues not converged
     c_bands:  1 eigenvalues not converged
     c_bands:  3 eigenvalues not converged
     c_bands:  3 eigenvalues not converged
     c_bands:  1 eigenvalues not converged
     c_bands:  2 eigenvalues not converged
     c_bands:  2 eigenvalues not converged
     c_bands:  1 eigenvalues not converged
     c_bands:  1 eigenvalues not converged
     c_bands:  1 eigenvalues not converged
     c_bands:  1 eigenvalues not converged
     c_bands:  1 eigenvalues not converged
     c_bands:  1 eigenvalues not converged
     c_bands:  1 eigenvalues not converged
     c_bands:  1 eigenvalues not converged
     c_bands:  1 eigenvalues not converged
     c_bands:  1 eigenvalues not converged
     c_bands:  1 eigenvalues not converged
     c_bands:  1 eigenvalues not converged
     c_bands:  1 eigenvalues not converged
     c_bands:  3 eigenvalues not converged
     c_bands:  1 eigenvalues not converged
     c_bands:  2 eigenvalues not converged
     c_bands:  1 eigenvalues not converged
     ethr =  1.00E-06,  avg # of iterations = 21.4

     total cpu time spent up to now is      614.4 secs

     total energy              =   -1701.80620373 Ry
     Harris-Foulkes estimate   =   -1721.42296581 Ry
     estimated scf accuracy    <      24.71184564 Ry

     iteration #  2     ecut=    40.00 Ry     beta=0.70
     CG style diagonalization
     ethr =  1.00E-02,  avg # of iterations =  4.0

     total cpu time spent up to now is      642.3 secs

     total energy              =   -1709.06861551 Ry
     Harris-Foulkes estimate   =   -1712.00079535 Ry
     estimated scf accuracy    <       4.46500942 Ry

     iteration #  3     ecut=    40.00 Ry     beta=0.70
     CG style diagonalization
     ethr =  3.60E-03,  avg # of iterations =  3.7

     total cpu time spent up to now is      667.8 secs

     total energy              =   -1710.19422869 Ry
     Harris-Foulkes estimate   =   -1710.35387997 Ry
     estimated scf accuracy    <       0.29714913 Ry

     iteration #  4     ecut=    40.00 Ry     beta=0.70
     CG style diagonalization
     ethr =  2.40E-04,  avg # of iterations =  3.4

     total cpu time spent up to now is      692.2 secs

     total energy              =   -1710.27270785 Ry
     Harris-Foulkes estimate   =   -1710.27519265 Ry
     estimated scf accuracy    <       0.00408905 Ry

     iteration #  5     ecut=    40.00 Ry     beta=0.70
     CG style diagonalization
     c_bands:  2 eigenvalues not converged
     c_bands:  2 eigenvalues not converged
     c_bands:  1 eigenvalues not converged
     c_bands:  1 eigenvalues not converged
     c_bands:  1 eigenvalues not converged
     c_bands:  1 eigenvalues not converged
     c_bands:  3 eigenvalues not converged
     c_bands:  1 eigenvalues not converged
     c_bands:  1 eigenvalues not converged
     c_bands:  1 eigenvalues not converged
     c_bands:  1 eigenvalues not converged
     c_bands:  2 eigenvalues not converged
     c_bands:  1 eigenvalues not converged
     c_bands:  1 eigenvalues not converged
     c_bands:  1 eigenvalues not converged
     c_bands:  1 eigenvalues not converged
     c_bands:  1 eigenvalues not converged
     c_bands:  1 eigenvalues not converged
     c_bands:  1 eigenvalues not converged
     c_bands:  2 eigenvalues not converged
     ethr =  3.30E-06,  avg # of iterations =  4.6

     total cpu time spent up to now is      724.9 secs

     total energy              =   -1710.27489690 Ry
     Harris-Foulkes estimate   =   -1710.27509807 Ry
     estimated scf accuracy    <       0.00037942 Ry

     iteration #  6     ecut=    40.00 Ry     beta=0.70
     CG style diagonalization
     ethr =  3.06E-07,  avg # of iterations =  3.7

     total cpu time spent up to now is      751.3 secs

     End of self-consistent calculation

     Number of k-points >= 100: set verbosity='high' to print the bands.

     the Fermi energy is    29.0131 ev

!    total energy              =   -1710.27494749 Ry
     Harris-Foulkes estimate   =   -1710.27502671 Ry
     estimated scf accuracy    <       0.00009267 Ry

     The total energy is the sum of the following terms:

     one-electron contribution =    -421.51371839 Ry
     hartree contribution      =     294.99965758 Ry
     xc contribution           =    -152.52374755 Ry
     ewald contribution        =   -1431.08058789 Ry
     smearing contrib. (-TS)   =      -0.15655124 Ry

     convergence has been achieved in   6 iterations

     Forces acting on atoms (Ry/au):

     atom    1 type  1   force =     0.00000000    0.00000000    0.00000000
     atom    2 type  2   force =     0.00000000    0.00000000    0.00000000
     atom    3 type  2   force =     0.00000000    0.00000000    0.00000000
     atom    4 type  2   force =     0.00000000    0.00000000    0.00000000
     atom    5 type  2   force =     0.00000000    0.00000000    0.00000000
     atom    6 type  2   force =     0.00000000    0.00000000    0.00000000

     Total force =     0.000000     Total SCF correction =     0.000000


     entering subroutine stress ...

          total   stress  (Ry/bohr**3)                   (kbar)     P=   -4.52
  -0.00034995   0.00000000   0.00000000        -51.48      0.00      0.00
   0.00000000  -0.00034995   0.00000000          0.00    -51.48      0.00
   0.00000000   0.00000000   0.00060770          0.00      0.00     89.40


     number of scf cycles    =   2
     number of bfgs steps    =   1

     enthalpy old            =   -1709.1524196254 Ry
     enthalpy new            =   -1710.2749474947 Ry

     CASE: enthalpy_new < enthalpy_old

     small trust_radius: resetting bfgs history

     new trust radius        =       0.0848954172 bohr
     new conv_thr            =       0.0000010000 Ry

     new unit-cell volume =    778.70384 a.u.^3 (   115.39200 Ang^3 )

CELL_PARAMETERS (alat=  9.64829493)
   1.065782945   0.000000000   0.000000000
  -0.532891473   0.922995105   0.000000000
   0.000000000   0.000000000   0.881358183

ATOMIC_POSITIONS (crystal)
Ca       0.000000000   0.000000000   0.000000000
Cu       0.333333000   0.666667000   0.000000000
Cu       0.666667000   0.333333000   0.000000000
Cu       0.500000000   0.000000000   0.500000000
Cu       0.500000000   0.500000000   0.500000000
Cu       0.000000000   0.500000000   0.500000000



     Writing output data file Prototype-La-hP6-CaCu5.save
     NEW-OLD atomic charge density approx. for the potential
     NEW k-points: (use verbosity='high' to print them)

     total cpu time spent up to now is      759.5 secs

     Self-consistent Calculation

     iteration #  1     ecut=    40.00 Ry     beta=0.70
     CG style diagonalization
     c_bands:  1 eigenvalues not converged
     c_bands:  1 eigenvalues not converged
     c_bands:  1 eigenvalues not converged
     c_bands:  1 eigenvalues not converged
     c_bands:  1 eigenvalues not converged
     c_bands:  2 eigenvalues not converged
     c_bands:  1 eigenvalues not converged
     c_bands:  1 eigenvalues not converged
     c_bands:  1 eigenvalues not converged
     ethr =  1.00E-06,  avg # of iterations =  7.4

     total cpu time spent up to now is      811.9 secs

     total energy              =   -1710.25214454 Ry
     Harris-Foulkes estimate   =   -1710.34988835 Ry
     estimated scf accuracy    <       0.13493868 Ry

     iteration #  2     ecut=    40.00 Ry     beta=0.70
     CG style diagonalization
     ethr =  1.09E-04,  avg # of iterations =  3.8

     total cpu time spent up to now is      838.7 secs

     total energy              =   -1710.27518364 Ry
     Harris-Foulkes estimate   =   -1710.28372233 Ry
     estimated scf accuracy    <       0.01101531 Ry

     iteration #  3     ecut=    40.00 Ry     beta=0.70
     CG style diagonalization
     ethr =  8.88E-06,  avg # of iterations =  3.9

     total cpu time spent up to now is      868.7 secs

     total energy              =   -1710.27918765 Ry
     Harris-Foulkes estimate   =   -1710.28261439 Ry
     estimated scf accuracy    <       0.00639368 Ry

     iteration #  4     ecut=    40.00 Ry     beta=0.70
     CG style diagonalization
     ethr =  5.16E-06,  avg # of iterations =  3.4

     total cpu time spent up to now is      893.1 secs

     total energy              =   -1710.28053508 Ry
     Harris-Foulkes estimate   =   -1710.28055298 Ry
     estimated scf accuracy    <       0.00003453 Ry

     iteration #  5     ecut=    40.00 Ry     beta=0.70
     CG style diagonalization
     c_bands:  1 eigenvalues not converged
     ethr =  2.78E-08,  avg # of iterations =  4.6

     total cpu time spent up to now is      926.2 secs

     total energy              =   -1710.28056137 Ry
     Harris-Foulkes estimate   =   -1710.28057892 Ry
     estimated scf accuracy    <       0.00002337 Ry

     iteration #  6     ecut=    40.00 Ry     beta=0.70
     CG style diagonalization
     ethr =  1.88E-08,  avg # of iterations =  3.4

     total cpu time spent up to now is      949.7 secs

     total energy              =   -1710.28056473 Ry
     Harris-Foulkes estimate   =   -1710.28056644 Ry
     estimated scf accuracy    <       0.00000283 Ry

     iteration #  7     ecut=    40.00 Ry     beta=0.70
     CG style diagonalization
     ethr =  2.28E-09,  avg # of iterations =  3.7

     total cpu time spent up to now is      975.8 secs

     End of self-consistent calculation

     Number of k-points >= 100: set verbosity='high' to print the bands.

     the Fermi energy is    29.1023 ev

!    total energy              =   -1710.28056549 Ry
     Harris-Foulkes estimate   =   -1710.28056576 Ry
     estimated scf accuracy    <       0.00000031 Ry

     The total energy is the sum of the following terms:

     one-electron contribution =    -417.94208436 Ry
     hartree contribution      =     293.58678568 Ry
     xc contribution           =    -152.53088952 Ry
     ewald contribution        =   -1433.23693423 Ry
     smearing contrib. (-TS)   =      -0.15744304 Ry

     convergence has been achieved in   7 iterations

     Forces acting on atoms (Ry/au):

     atom    1 type  1   force =     0.00000000    0.00000000    0.00000000
     atom    2 type  2   force =     0.00000000    0.00000000    0.00000000
     atom    3 type  2   force =     0.00000000    0.00000000    0.00000000
     atom    4 type  2   force =     0.00000000    0.00000000    0.00000000
     atom    5 type  2   force =     0.00000000    0.00000000    0.00000000
     atom    6 type  2   force =     0.00000000    0.00000000    0.00000000

     Total force =     0.000000     Total SCF correction =     0.000000


     entering subroutine stress ...

          total   stress  (Ry/bohr**3)                   (kbar)     P=   -6.46
  -0.00001653   0.00000000   0.00000000         -2.43      0.00      0.00
   0.00000000  -0.00001653   0.00000000          0.00     -2.43      0.00
   0.00000000   0.00000000  -0.00009858          0.00      0.00    -14.50


     number of scf cycles    =   3
     number of bfgs steps    =   2

     enthalpy old            =   -1710.2749474947 Ry
     enthalpy new            =   -1710.2805654863 Ry

     CASE: enthalpy_new < enthalpy_old

     Message from routine bfgs:
     history already reset at previous step: stopping
     small trust_radius: resetting bfgs history

     new trust radius        =       0.0137544586 bohr
     new conv_thr            =       0.0000010000 Ry

     new unit-cell volume =    776.14273 a.u.^3 (   115.01249 Ang^3 )

CELL_PARAMETERS (alat=  9.64829493)
   1.065342429   0.000000000   0.000000000
  -0.532671215   0.922613608   0.000000000
   0.000000000   0.000000000   0.879186083

ATOMIC_POSITIONS (crystal)
Ca       0.000000000   0.000000000   0.000000000
Cu       0.333333000   0.666667000   0.000000000
Cu       0.666667000   0.333333000   0.000000000
Cu       0.500000000   0.000000000   0.500000000
Cu       0.500000000   0.500000000   0.500000000
Cu       0.000000000   0.500000000   0.500000000



     Writing output data file Prototype-La-hP6-CaCu5.save
     NEW-OLD atomic charge density approx. for the potential
     NEW k-points: (use verbosity='high' to print them)

     total cpu time spent up to now is      982.6 secs

     Self-consistent Calculation

     iteration #  1     ecut=    40.00 Ry     beta=0.70
     CG style diagonalization
     c_bands:  1 eigenvalues not converged
     ethr =  1.00E-06,  avg # of iterations =  4.9

     total cpu time spent up to now is     1016.3 secs

     total energy              =   -1710.27853218 Ry
     Harris-Foulkes estimate   =   -1710.28314941 Ry
     estimated scf accuracy    <       0.00587612 Ry

     iteration #  2     ecut=    40.00 Ry     beta=0.70
     CG style diagonalization
     ethr =  4.74E-06,  avg # of iterations =  3.8

     total cpu time spent up to now is     1041.9 secs

     total energy              =   -1710.28025713 Ry
     Harris-Foulkes estimate   =   -1710.28090316 Ry
     estimated scf accuracy    <       0.00097718 Ry

     iteration #  3     ecut=    40.00 Ry     beta=0.70
     CG style diagonalization
     ethr =  7.88E-07,  avg # of iterations =  3.6

     total cpu time spent up to now is     1066.2 secs

     total energy              =   -1710.28048312 Ry
     Harris-Foulkes estimate   =   -1710.28051150 Ry
     estimated scf accuracy    <       0.00004186 Ry

     iteration #  4     ecut=    40.00 Ry     beta=0.70
     CG style diagonalization
     ethr =  3.38E-08,  avg # of iterations =  3.6

     total cpu time spent up to now is     1090.7 secs

     total energy              =   -1710.28049964 Ry
     Harris-Foulkes estimate   =   -1710.28050470 Ry
     estimated scf accuracy    <       0.00000943 Ry

     iteration #  5     ecut=    40.00 Ry     beta=0.70
     CG style diagonalization
     ethr =  7.60E-09,  avg # of iterations =  3.2

     total cpu time spent up to now is     1112.7 secs

     End of self-consistent calculation

     Number of k-points >= 100: set verbosity='high' to print the bands.

     the Fermi energy is    29.2201 ev

!    total energy              =   -1710.28050167 Ry
     Harris-Foulkes estimate   =   -1710.28050176 Ry
     estimated scf accuracy    <       0.00000013 Ry

     The total energy is the sum of the following terms:

     one-electron contribution =    -415.76887517 Ry
     hartree contribution      =     292.94457262 Ry
     xc contribution           =    -152.56377880 Ry
     ewald contribution        =   -1434.73521842 Ry
     smearing contrib. (-TS)   =      -0.15720189 Ry

     convergence has been achieved in   5 iterations

     Forces acting on atoms (Ry/au):

     atom    1 type  1   force =     0.00000000    0.00000000    0.00000000
     atom    2 type  2   force =     0.00000000    0.00000000    0.00000000
     atom    3 type  2   force =     0.00000000    0.00000000    0.00000000
     atom    4 type  2   force =     0.00000000    0.00000000    0.00000000
     atom    5 type  2   force =     0.00000000    0.00000000    0.00000000
     atom    6 type  2   force =     0.00000000    0.00000000    0.00000000

     Total force =     0.000000     Total SCF correction =     0.000000


     entering subroutine stress ...

          total   stress  (Ry/bohr**3)                   (kbar)     P=   15.89
   0.00009868   0.00000000   0.00000000         14.52      0.00      0.00
   0.00000000   0.00009868   0.00000000          0.00     14.52      0.00
   0.00000000   0.00000000   0.00012675          0.00      0.00     18.65


     The maximum number of steps has been reached.

     End of BFGS Geometry Optimization
Begin final coordinates
     new unit-cell volume =    776.14273 a.u.^3 (   115.01249 Ang^3 )

CELL_PARAMETERS (alat=  9.64829493)
   1.065342429   0.000000000   0.000000000
  -0.532671215   0.922613608   0.000000000
   0.000000000   0.000000000   0.879186083

ATOMIC_POSITIONS (crystal)
Ca       0.000000000   0.000000000   0.000000000
Cu       0.333333000   0.666667000   0.000000000
Cu       0.666667000   0.333333000   0.000000000
Cu       0.500000000   0.000000000   0.500000000
Cu       0.500000000   0.500000000   0.500000000
Cu       0.000000000   0.500000000   0.500000000
End final coordinates



     A final scf calculation at the relaxed structure.
     The G-vectors are recalculated for the final unit cell
     Results may differ from those at the preceding step.
 
     Parallelization info
     --------------------
     sticks:   dense  smooth     PW     G-vecs:    dense   smooth      PW
     Min         289     289     87                 6631     6631    1083
     Max         290     290     88                 6636     6636    1086
     Sum        1159    1159    349                26537    26537    4339
 


     bravais-lattice index     =            0
     lattice parameter (alat)  =       9.6483  a.u.
     unit-cell volume          =     776.1427 (a.u.)^3
     number of atoms/cell      =            6
     number of atomic types    =            2
     number of electrons       =       124.00
     number of Kohn-Sham states=           74
     kinetic-energy cutoff     =      40.0000  Ry
     charge density cutoff     =     160.0000  Ry
     convergence threshold     =      1.0E-06
     mixing beta               =       0.7000
     number of iterations used =            8  plain     mixing
     Exchange-correlation      = SLA-PZ-NOGX-NOGC ( 1 1 0 0 0)
     EXX-fraction              =        0.00

     celldm(1)=   9.648295  celldm(2)=   0.000000  celldm(3)=   0.000000
     celldm(4)=   0.000000  celldm(5)=   0.000000  celldm(6)=   0.000000

     crystal axes: (cart. coord. in units of alat)
               a(1) = (   1.065342   0.000000   0.000000 )  
               a(2) = (  -0.532671   0.922614   0.000000 )  
               a(3) = (   0.000000   0.000000   0.879186 )  

     reciprocal axes: (cart. coord. in units 2 pi/alat)
               b(1) = (  0.938665  0.541939  0.000000 )  
               b(2) = (  0.000000  1.083877  0.000000 )  
               b(3) = (  0.000000  0.000000  1.137416 )  


     PseudoPot. # 1 for Yb read from file:
     /home/jld5415/pp.La/Yb.UPF
     MD5 check sum: 3e859b81cc28c53ec6aa3a2e888efcdf
     Pseudo is Norm-conserving, Zval = 24.0
     Generated in analytical, separable form
     Using radial grid of 1269 points,  6 beta functions with: 
                l(1) =   0
                l(2) =   0
                l(3) =   1
                l(4) =   1
                l(5) =   2
                l(6) =   3

     PseudoPot. # 2 for Dy read from file:
     /home/jld5415/pp.La/Dy.UPF
     MD5 check sum: 9597327bec62616a94a14d07f3fd9936
     Pseudo is Norm-conserving, Zval = 20.0
     Generated in analytical, separable form
     Using radial grid of 1265 points,  6 beta functions with: 
                l(1) =   0
                l(2) =   0
                l(3) =   1
                l(4) =   1
                l(5) =   2
                l(6) =   3

     atomic species   valence    mass     pseudopotential
        Ca            24.00    40.07800     Yb( 1.00)
        Cu            20.00    63.54600     Dy( 1.00)

     24 Sym. Ops., with inversion, found



   Cartesian axes

     site n.     atom                  positions (alat units)
         1           Ca  tau(   1) = (   0.0000000   0.0000000   0.0000000  )
         2           Cu  tau(   2) = (  -0.0000005   0.6150760   0.0000000  )
         3           Cu  tau(   3) = (   0.5326717   0.3075376   0.0000000  )
         4           Cu  tau(   4) = (   0.5326712   0.0000000   0.4395930  )
         5           Cu  tau(   5) = (   0.2663356   0.4613068   0.4395930  )
         6           Cu  tau(   6) = (  -0.2663356   0.4613068   0.4395930  )

     number of k points=   110  gaussian smearing, width (Ry)=  0.1000

     Number of k-points >= 100: set verbosity='high' to print them.

     Dense  grid:    26537 G-vectors     FFT dimensions: (  45,  45,  36)

     Largest allocated arrays     est. size (Mb)     dimensions
        Kohn-Sham Wavefunctions         0.96 Mb     (    846,   74)
        NL pseudopotentials             1.55 Mb     (    846,  120)
        Each V/rho on FFT grid          0.28 Mb     (  18225)
        Each G-vector array             0.05 Mb     (   6636)
        G-vector shells                 0.01 Mb     (   1164)
     Largest temporary arrays     est. size (Mb)     dimensions
        Each subspace H/S matrix        0.08 Mb     (  74,  74)
        Each <psi_i|beta_j> matrix      0.14 Mb     (    120,   74)
        Arrays for rho mixing           2.22 Mb     (  18225,   8)

     Initial potential from superposition of free atoms

     Starting from uniform charge
     Starting wfc are    0 randomized atomic wfcs

     Writing output data file Prototype-La-hP6-CaCu5.save

     total cpu time spent up to now is     1127.6 secs

     Self-consistent Calculation

     iteration #  1     ecut=    40.00 Ry     beta=0.70
     CG style diagonalization
     c_bands:  5 eigenvalues not converged
     c_bands:  6 eigenvalues not converged
     c_bands:  4 eigenvalues not converged
     c_bands:  3 eigenvalues not converged
     c_bands:  5 eigenvalues not converged
     c_bands:  6 eigenvalues not converged
     c_bands:  8 eigenvalues not converged
     c_bands:  7 eigenvalues not converged
     c_bands:  6 eigenvalues not converged
     c_bands:  6 eigenvalues not converged
     c_bands:  5 eigenvalues not converged
     c_bands:  4 eigenvalues not converged
     c_bands:  5 eigenvalues not converged
     c_bands:  9 eigenvalues not converged
     c_bands:  5 eigenvalues not converged
     c_bands:  5 eigenvalues not converged
     c_bands:  5 eigenvalues not converged
     c_bands:  5 eigenvalues not converged
     c_bands:  6 eigenvalues not converged
     c_bands:  6 eigenvalues not converged
     c_bands:  5 eigenvalues not converged
     c_bands:  5 eigenvalues not converged
     c_bands:  4 eigenvalues not converged
     c_bands:  6 eigenvalues not converged
     c_bands:  5 eigenvalues not converged
     c_bands:  5 eigenvalues not converged
     c_bands:  6 eigenvalues not converged
     c_bands:  5 eigenvalues not converged
     c_bands:  6 eigenvalues not converged
     c_bands:  6 eigenvalues not converged
     c_bands:  6 eigenvalues not converged
     c_bands:  6 eigenvalues not converged
     c_bands:  6 eigenvalues not converged
     c_bands:  6 eigenvalues not converged
     c_bands:  6 eigenvalues not converged
     c_bands:  5 eigenvalues not converged
     c_bands:  4 eigenvalues not converged
     c_bands:  5 eigenvalues not converged
     c_bands:  5 eigenvalues not converged
     c_bands:  6 eigenvalues not converged
     c_bands:  5 eigenvalues not converged
     c_bands:  4 eigenvalues not converged
     c_bands:  7 eigenvalues not converged
     c_bands:  5 eigenvalues not converged
     c_bands:  6 eigenvalues not converged
     c_bands:  6 eigenvalues not converged
     c_bands:  6 eigenvalues not converged
     c_bands:  7 eigenvalues not converged
     c_bands:  6 eigenvalues not converged
     c_bands:  7 eigenvalues not converged
     c_bands:  7 eigenvalues not converged
     c_bands:  6 eigenvalues not converged
     c_bands:  2 eigenvalues not converged
     c_bands:  6 eigenvalues not converged
     c_bands:  6 eigenvalues not converged
     c_bands:  5 eigenvalues not converged
     c_bands:  4 eigenvalues not converged
     c_bands:  7 eigenvalues not converged
     c_bands:  6 eigenvalues not converged
     c_bands:  6 eigenvalues not converged
     c_bands:  6 eigenvalues not converged
     c_bands:  5 eigenvalues not converged
     c_bands:  5 eigenvalues not converged
     c_bands:  5 eigenvalues not converged
     c_bands:  6 eigenvalues not converged
     c_bands:  3 eigenvalues not converged
     c_bands:  6 eigenvalues not converged
     c_bands:  4 eigenvalues not converged
     c_bands:  6 eigenvalues not converged
     c_bands:  6 eigenvalues not converged
     c_bands:  4 eigenvalues not converged
     c_bands:  4 eigenvalues not converged
     c_bands:  7 eigenvalues not converged
     c_bands:  5 eigenvalues not converged
     c_bands:  6 eigenvalues not converged
     c_bands:  4 eigenvalues not converged
     c_bands:  6 eigenvalues not converged
     c_bands:  5 eigenvalues not converged
     c_bands:  6 eigenvalues not converged
     c_bands:  6 eigenvalues not converged
     c_bands:  7 eigenvalues not converged
     c_bands:  6 eigenvalues not converged
     c_bands:  9 eigenvalues not converged
     c_bands:  7 eigenvalues not converged
     c_bands:  6 eigenvalues not converged
     c_bands:  7 eigenvalues not converged
     c_bands:  5 eigenvalues not converged
     c_bands:  6 eigenvalues not converged
     c_bands:  7 eigenvalues not converged
     c_bands:  6 eigenvalues not converged
     c_bands:  5 eigenvalues not converged
     c_bands:  5 eigenvalues not converged
     c_bands:  7 eigenvalues not converged
     c_bands:  6 eigenvalues not converged
     c_bands:  5 eigenvalues not converged
     c_bands:  4 eigenvalues not converged
     c_bands:  5 eigenvalues not converged
     c_bands:  8 eigenvalues not converged
     c_bands:  6 eigenvalues not converged
     c_bands:  6 eigenvalues not converged
     c_bands:  5 eigenvalues not converged
     c_bands:  7 eigenvalues not converged
     c_bands:  6 eigenvalues not converged
     c_bands:  7 eigenvalues not converged
     c_bands:  6 eigenvalues not converged
     c_bands:  6 eigenvalues not converged
     c_bands:  4 eigenvalues not converged
     c_bands:  4 eigenvalues not converged
     c_bands:  5 eigenvalues not converged
     c_bands:  6 eigenvalues not converged
     ethr =  1.00E-06,  avg # of iterations = 69.3

     total cpu time spent up to now is     1829.6 secs

     total energy              =   -1469.46344561 Ry
     Harris-Foulkes estimate   =   -2149.83432603 Ry
     estimated scf accuracy    <     849.48131781 Ry

     iteration #  2     ecut=    40.00 Ry     beta=0.70
     CG style diagonalization
     c_bands:  1 eigenvalues not converged
     c_bands:  1 eigenvalues not converged
     c_bands:  1 eigenvalues not converged
     c_bands:  1 eigenvalues not converged
     c_bands:  1 eigenvalues not converged
     c_bands:  1 eigenvalues not converged
     c_bands:  1 eigenvalues not converged
     c_bands:  1 eigenvalues not converged
     c_bands:  1 eigenvalues not converged
     c_bands:  1 eigenvalues not converged
     c_bands:  1 eigenvalues not converged
     c_bands:  1 eigenvalues not converged
     c_bands:  2 eigenvalues not converged
     c_bands:  1 eigenvalues not converged
     c_bands:  1 eigenvalues not converged
     c_bands:  1 eigenvalues not converged
     c_bands:  1 eigenvalues not converged
     c_bands:  1 eigenvalues not converged
     c_bands:  2 eigenvalues not converged
     c_bands:  1 eigenvalues not converged
     c_bands:  3 eigenvalues not converged
     c_bands:  1 eigenvalues not converged
     c_bands:  1 eigenvalues not converged
     c_bands:  2 eigenvalues not converged
     c_bands:  1 eigenvalues not converged
     ethr =  1.00E-02,  avg # of iterations =  8.2

     total cpu time spent up to now is     1920.8 secs

     total energy              =   -1543.31491206 Ry
     Harris-Foulkes estimate   =   -1869.07728013 Ry
     estimated scf accuracy    <     523.53603420 Ry

     iteration #  3     ecut=    40.00 Ry     beta=0.70
     CG style diagonalization
     c_bands:  1 eigenvalues not converged
     c_bands:  1 eigenvalues not converged
     c_bands:  1 eigenvalues not converged
     c_bands:  1 eigenvalues not converged
     c_bands:  1 eigenvalues not converged
     c_bands:  1 eigenvalues not converged
     c_bands:  1 eigenvalues not converged
     c_bands:  1 eigenvalues not converged
     c_bands:  1 eigenvalues not converged
     c_bands:  1 eigenvalues not converged
     c_bands:  1 eigenvalues not converged
     c_bands:  1 eigenvalues not converged
     c_bands:  1 eigenvalues not converged
     ethr =  1.00E-02,  avg # of iterations = 10.3

     total cpu time spent up to now is     2034.4 secs

     total energy              =   -1625.21439393 Ry
     Harris-Foulkes estimate   =   -1759.92417407 Ry
     estimated scf accuracy    <     337.13254303 Ry

     iteration #  4     ecut=    40.00 Ry     beta=0.70
     CG style diagonalization
     c_bands:  1 eigenvalues not converged
     ethr =  1.00E-02,  avg # of iterations =  7.0

     total cpu time spent up to now is     2111.5 secs

     total energy              =   -1711.44470531 Ry
     Harris-Foulkes estimate   =   -1718.85862178 Ry
     estimated scf accuracy    <      22.77688570 Ry

     iteration #  5     ecut=    40.00 Ry     beta=0.70
     CG style diagonalization
     ethr =  1.00E-02,  avg # of iterations =  3.4

     total cpu time spent up to now is     2146.9 secs

     total energy              =   -1710.72013574 Ry
     Harris-Foulkes estimate   =   -1713.39030135 Ry
     estimated scf accuracy    <       6.20316407 Ry

     iteration #  6     ecut=    40.00 Ry     beta=0.70
     CG style diagonalization
     ethr =  5.00E-03,  avg # of iterations =  3.3

     total cpu time spent up to now is     2190.1 secs

     total energy              =   -1711.48985578 Ry
     Harris-Foulkes estimate   =   -1711.61914473 Ry
     estimated scf accuracy    <       0.51949142 Ry

     iteration #  7     ecut=    40.00 Ry     beta=0.70
     CG style diagonalization
     c_bands:  1 eigenvalues not converged
     c_bands:  1 eigenvalues not converged
     c_bands:  1 eigenvalues not converged
     ethr =  4.19E-04,  avg # of iterations =  3.8

     total cpu time spent up to now is     2234.5 secs

     total energy              =   -1711.45667747 Ry
     Harris-Foulkes estimate   =   -1711.56783375 Ry
     estimated scf accuracy    <       0.23637130 Ry

     iteration #  8     ecut=    40.00 Ry     beta=0.70
     CG style diagonalization
     c_bands:  1 eigenvalues not converged
     ethr =  1.91E-04,  avg # of iterations =  3.4

     total cpu time spent up to now is     2269.7 secs

     total energy              =   -1711.49802359 Ry
     Harris-Foulkes estimate   =   -1711.50220929 Ry
     estimated scf accuracy    <       0.00716078 Ry

     iteration #  9     ecut=    40.00 Ry     beta=0.70
     CG style diagonalization
     c_bands:  1 eigenvalues not converged
     c_bands:  2 eigenvalues not converged
     c_bands:  1 eigenvalues not converged
     c_bands:  1 eigenvalues not converged
     c_bands:  1 eigenvalues not converged
     c_bands:  1 eigenvalues not converged
     c_bands:  1 eigenvalues not converged
     c_bands:  1 eigenvalues not converged
     c_bands:  1 eigenvalues not converged
     c_bands:  1 eigenvalues not converged
     c_bands:  1 eigenvalues not converged
     c_bands:  1 eigenvalues not converged
     c_bands:  1 eigenvalues not converged
     c_bands:  1 eigenvalues not converged
     c_bands:  1 eigenvalues not converged
     c_bands:  1 eigenvalues not converged
     c_bands:  1 eigenvalues not converged
     c_bands:  1 eigenvalues not converged
     c_bands:  1 eigenvalues not converged
     c_bands:  1 eigenvalues not converged
     c_bands:  1 eigenvalues not converged
     c_bands:  1 eigenvalues not converged
     c_bands:  1 eigenvalues not converged
     c_bands:  1 eigenvalues not converged
     c_bands:  1 eigenvalues not converged
     c_bands:  3 eigenvalues not converged
     c_bands:  1 eigenvalues not converged
     c_bands:  1 eigenvalues not converged
     c_bands:  1 eigenvalues not converged
     ethr =  5.77E-06,  avg # of iterations =  4.7

     total cpu time spent up to now is     2317.8 secs

     total energy              =   -1711.50125403 Ry
     Harris-Foulkes estimate   =   -1711.50241638 Ry
     estimated scf accuracy    <       0.00206380 Ry

     iteration # 10     ecut=    40.00 Ry     beta=0.70
     CG style diagonalization
     c_bands:  1 eigenvalues not converged
     c_bands:  1 eigenvalues not converged
     c_bands:  1 eigenvalues not converged
     c_bands:  1 eigenvalues not converged
     c_bands:  1 eigenvalues not converged
     c_bands:  1 eigenvalues not converged
     c_bands:  1 eigenvalues not converged
     c_bands:  1 eigenvalues not converged
     c_bands:  1 eigenvalues not converged
     c_bands:  1 eigenvalues not converged
     c_bands:  1 eigenvalues not converged
     c_bands:  1 eigenvalues not converged
     ethr =  1.66E-06,  avg # of iterations =  3.9

     total cpu time spent up to now is     2355.5 secs

     total energy              =   -1711.50191441 Ry
     Harris-Foulkes estimate   =   -1711.50193895 Ry
     estimated scf accuracy    <       0.00006132 Ry

     iteration # 11     ecut=    40.00 Ry     beta=0.70
     CG style diagonalization
     ethr =  4.95E-08,  avg # of iterations =  4.1

     total cpu time spent up to now is     2393.7 secs

     total energy              =   -1711.50194256 Ry
     Harris-Foulkes estimate   =   -1711.50194724 Ry
     estimated scf accuracy    <       0.00001454 Ry

     iteration # 12     ecut=    40.00 Ry     beta=0.70
     CG style diagonalization
     ethr =  1.17E-08,  avg # of iterations =  3.1

     total cpu time spent up to now is     2424.5 secs

     total energy              =   -1711.50194207 Ry
     Harris-Foulkes estimate   =   -1711.50194401 Ry
     estimated scf accuracy    <       0.00000341 Ry

     iteration # 13     ecut=    40.00 Ry     beta=0.70
     CG style diagonalization
     ethr =  2.75E-09,  avg # of iterations =  3.6

     total cpu time spent up to now is     2458.4 secs

     End of self-consistent calculation

     Number of k-points >= 100: set verbosity='high' to print the bands.

     the Fermi energy is    29.1690 ev

!    total energy              =   -1711.50194317 Ry
     Harris-Foulkes estimate   =   -1711.50194335 Ry
     estimated scf accuracy    <       0.00000020 Ry

     The total energy is the sum of the following terms:

     one-electron contribution =    -417.48924727 Ry
     hartree contribution      =     293.58818654 Ry
     xc contribution           =    -152.70747673 Ry
     ewald contribution        =   -1434.73521816 Ry
     smearing contrib. (-TS)   =      -0.15818756 Ry

     convergence has been achieved in  13 iterations

     Forces acting on atoms (Ry/au):

     atom    1 type  1   force =     0.00000000    0.00000000    0.00000000
     atom    2 type  2   force =     0.00000000    0.00000000    0.00000000
     atom    3 type  2   force =     0.00000000    0.00000000    0.00000000
     atom    4 type  2   force =     0.00000000    0.00000000    0.00000000
     atom    5 type  2   force =     0.00000000    0.00000000    0.00000000
     atom    6 type  2   force =     0.00000000    0.00000000    0.00000000

     Total force =     0.000000     Total SCF correction =     0.000000


     entering subroutine stress ...

          total   stress  (Ry/bohr**3)                   (kbar)     P=  473.13
   0.00283151   0.00000000   0.00000000        416.53      0.00      0.00
   0.00000000   0.00283151   0.00000000          0.00    416.53      0.00
   0.00000000   0.00000000   0.00398589          0.00      0.00    586.34


     Writing output data file Prototype-La-hP6-CaCu5.save
 
     init_run     :     11.34s CPU     14.39s WALL (       2 calls)
     electrons    :   2063.17s CPU   2415.83s WALL (       5 calls)
     update_pot   :      1.36s CPU      1.40s WALL (       3 calls)
     forces       :      7.87s CPU      8.61s WALL (       5 calls)
     stress       :     23.03s CPU     23.45s WALL (       5 calls)

     Called by init_run:
     wfcinit      :     10.78s CPU     13.80s WALL (       2 calls)
     potinit      :      0.25s CPU      0.25s WALL (       2 calls)

     Called by electrons:
     c_bands      :   1983.35s CPU   2297.66s WALL (      42 calls)
     sum_band     :     79.48s CPU     95.55s WALL (      42 calls)
     v_of_rho     :      0.06s CPU      0.06s WALL (      47 calls)
     mix_rho      :      0.05s CPU      0.06s WALL (      42 calls)

     Called by c_bands:
     init_us_2    :      4.45s CPU      5.88s WALL (   10560 calls)
     ccgdiagg     :   1757.06s CPU   1999.38s WALL (    5383 calls)
     wfcrot       :    231.63s CPU    301.60s WALL (    5493 calls)

     Called by *cgdiagg:
     h_psi        :   1435.26s CPU   1697.65s WALL ( 1923478 calls)
     cdiaghg      :     12.29s CPU     13.03s WALL (    5493 calls)

     Called by h_psi:
     add_vuspsi   :    133.75s CPU    162.80s WALL ( 1923478 calls)

     General routines
     calbec       :    388.41s CPU    400.05s WALL ( 3842563 calls)
     fft          :      0.11s CPU      0.12s WALL (     211 calls)
     fftw         :   1063.00s CPU   1225.72s WALL ( 4990814 calls)
     davcio       :      4.20s CPU      9.17s WALL (   15180 calls)
 
     Parallel routines
     fft_scatter  :    446.14s CPU    504.69s WALL ( 4991025 calls)
 
     PWSCF        : 35m 7.83s CPU    41m 8.00s WALL

 
   This run was terminated on:  12:45:28  22Mar2018            

=------------------------------------------------------------------------------=
   JOB DONE.
=------------------------------------------------------------------------------=
