
     Program PWSCF v.5.0.2 starts on 22Mar2018 at 12: 9:39 

     This program is part of the open-source Quantum ESPRESSO suite
     for quantum simulation of materials; please cite
         "P. Giannozzi et al., J. Phys.:Condens. Matter 21 395502 (2009);
          URL http://www.quantum-espresso.org", 
     in publications or presentations arising from this work. More details at
     http://www.quantum-espresso.org/quote.php

     Parallel version (MPI), running on     4 processors
     R & G space division:  proc/nbgrp/npool/nimage =       4

     Current dimensions of program PWSCF are:
     Max number of different atomic species (ntypx) = 10
     Max number of k-points (npk) =  40000
     Max angular momentum in pseudopotentials (lmaxx) =  3
     Waiting for input...
     Reading input from standard input

     Subspace diagonalization in iterative solution of the eigenvalue problem:
     a serial algorithm will be used

 
     Parallelization info
     --------------------
     sticks:   dense  smooth     PW     G-vecs:    dense   smooth      PW
     Min         396     396    112                10116    10116    1566
     Max         397     397    113                10119    10119    1567
     Sum        1585    1585    451                40467    40467    6267
 


     bravais-lattice index     =            0
     lattice parameter (alat)  =      12.0168  a.u.
     unit-cell volume          =    1187.3413 (a.u.)^3
     number of atoms/cell      =            8
     number of atomic types    =            2
     number of electrons       =       186.00
     number of Kohn-Sham states=          112
     kinetic-energy cutoff     =      40.0000  Ry
     charge density cutoff     =     160.0000  Ry
     convergence threshold     =      1.0E-04
     mixing beta               =       0.7000
     number of iterations used =            8  plain     mixing
     Exchange-correlation      = SLA-PZ-NOGX-NOGC ( 1 1 0 0 0)
     EXX-fraction              =        0.00
     nstep                     =           50


     celldm(1)=  12.016801  celldm(2)=   0.000000  celldm(3)=   0.000000
     celldm(4)=   0.000000  celldm(5)=   0.000000  celldm(6)=   0.000000

     crystal axes: (cart. coord. in units of alat)
               a(1) = (   1.000000   0.000000   0.000000 )  
               a(2) = (  -0.500000   0.866025   0.000000 )  
               a(3) = (   0.000000   0.000000   0.790093 )  

     reciprocal axes: (cart. coord. in units 2 pi/alat)
               b(1) = (  1.000000  0.577350  0.000000 )  
               b(2) = (  0.000000  1.154701  0.000000 )  
               b(3) = (  0.000000  0.000000  1.265674 )  


     PseudoPot. # 1 for Yb read from file:
     /home/jld5415/pp.La/Yb.UPF
     MD5 check sum: 3e859b81cc28c53ec6aa3a2e888efcdf
     Pseudo is Norm-conserving, Zval = 24.0
     Generated in analytical, separable form
     Using radial grid of 1269 points,  6 beta functions with: 
                l(1) =   0
                l(2) =   0
                l(3) =   1
                l(4) =   1
                l(5) =   2
                l(6) =   3

     PseudoPot. # 2 for Ho read from file:
     /home/jld5415/pp.La/Ho.UPF
     MD5 check sum: f307ee11bce99f5b724fa279e3790763
     Pseudo is Norm-conserving, Zval = 21.0
     Generated in analytical, separable form
     Using radial grid of 1265 points,  6 beta functions with: 
                l(1) =   0
                l(2) =   0
                l(3) =   1
                l(4) =   1
                l(5) =   2
                l(6) =   3

     atomic species   valence    mass     pseudopotential
        Mg            24.00    24.30500     Yb( 1.00)
        Cd            21.00   112.41100     Ho( 1.00)

     24 Sym. Ops., with inversion, found (12 have fractional translation)



   Cartesian axes

     site n.     atom                  positions (alat units)
         1           Mg  tau(   1) = (   0.2478935   0.7204716   0.1975233  )
         2           Mg  tau(   2) = (   0.7478935   0.1455538   0.5925699  )
         3           Mg  tau(   3) = (   0.2521065   0.1455538   0.5925699  )
         4           Mg  tau(   4) = (  -0.2478935   0.7204716   0.1975233  )
         5           Mg  tau(   5) = (   0.0000000   0.2911075   0.1975233  )
         6           Mg  tau(   6) = (   0.5000000   0.5749179   0.5925699  )
         7           Cd  tau(   7) = (   0.5000005   0.2886748   0.1975233  )
         8           Cd  tau(   8) = (  -0.0000005   0.5773506   0.5925699  )

     number of k points=    64  gaussian smearing, width (Ry)=  0.1000
                       cart. coord. in units 2pi/alat
        k(    1) = (   0.0000000   0.0000000   0.0000000), wk =   0.0095238
        k(    2) = (   0.0000000   0.0000000   0.1808105), wk =   0.0190476
        k(    3) = (   0.0000000   0.0000000   0.3616210), wk =   0.0190476
        k(    4) = (   0.0000000   0.0000000   0.5424315), wk =   0.0190476
        k(    5) = (   0.0000000   0.1924501   0.0000000), wk =   0.0190476
        k(    6) = (   0.0000000   0.1924501   0.1808105), wk =   0.0380952
        k(    7) = (   0.0000000   0.1924501   0.3616210), wk =   0.0380952
        k(    8) = (   0.0000000   0.1924501   0.5424315), wk =   0.0380952
        k(    9) = (   0.0000000   0.3849002   0.0000000), wk =   0.0190476
        k(   10) = (   0.0000000   0.3849002   0.1808105), wk =   0.0380952
        k(   11) = (   0.0000000   0.3849002   0.3616210), wk =   0.0380952
        k(   12) = (   0.0000000   0.3849002   0.5424315), wk =   0.0380952
        k(   13) = (   0.0000000  -0.5773503   0.0000000), wk =   0.0095238
        k(   14) = (   0.0000000  -0.5773503   0.1808105), wk =   0.0190476
        k(   15) = (   0.0000000  -0.5773503   0.3616210), wk =   0.0190476
        k(   16) = (   0.0000000  -0.5773503   0.5424315), wk =   0.0190476
        k(   17) = (   0.2000000   0.1154701   0.0000000), wk =   0.0190476
        k(   18) = (   0.2000000   0.1154701   0.1808105), wk =   0.0380952
        k(   19) = (   0.2000000   0.1154701   0.3616210), wk =   0.0380952
        k(   20) = (   0.2000000   0.1154701   0.5424315), wk =   0.0380952
        k(   21) = (   0.2000000   0.3079201   0.0000000), wk =   0.0190476
        k(   22) = (   0.2000000   0.3079201   0.1808105), wk =   0.0380952
        k(   23) = (   0.2000000   0.3079201   0.3616210), wk =   0.0380952
        k(   24) = (   0.2000000   0.3079201   0.5424315), wk =   0.0380952
        k(   25) = (   0.2000000   0.5003702   0.0000000), wk =   0.0190476
        k(   26) = (   0.2000000   0.5003702   0.1808105), wk =   0.0380952
        k(   27) = (   0.2000000   0.5003702   0.3616210), wk =   0.0380952
        k(   28) = (   0.2000000   0.5003702   0.5424315), wk =   0.0380952
        k(   29) = (   0.2000000  -0.4618802   0.0000000), wk =   0.0190476
        k(   30) = (   0.2000000  -0.4618802   0.1808105), wk =   0.0380952
        k(   31) = (   0.2000000  -0.4618802   0.3616210), wk =   0.0380952
        k(   32) = (   0.2000000  -0.4618802   0.5424315), wk =   0.0380952
        k(   33) = (   0.2000000  -0.2694301   0.0000000), wk =   0.0190476
        k(   34) = (   0.2000000  -0.2694301   0.1808105), wk =   0.0380952
        k(   35) = (   0.2000000  -0.2694301   0.3616210), wk =   0.0380952
        k(   36) = (   0.2000000  -0.2694301   0.5424315), wk =   0.0380952
        k(   37) = (   0.2000000  -0.0769800   0.0000000), wk =   0.0190476
        k(   38) = (   0.2000000  -0.0769800   0.1808105), wk =   0.0380952
        k(   39) = (   0.2000000  -0.0769800   0.3616210), wk =   0.0380952
        k(   40) = (   0.2000000  -0.0769800   0.5424315), wk =   0.0380952
        k(   41) = (   0.4000000   0.2309401   0.0000000), wk =   0.0190476
        k(   42) = (   0.4000000   0.2309401   0.1808105), wk =   0.0380952
        k(   43) = (   0.4000000   0.2309401   0.3616210), wk =   0.0380952
        k(   44) = (   0.4000000   0.2309401   0.5424315), wk =   0.0380952
        k(   45) = (   0.4000000   0.4233902   0.0000000), wk =   0.0190476
        k(   46) = (   0.4000000   0.4233902   0.1808105), wk =   0.0380952
        k(   47) = (   0.4000000   0.4233902   0.3616210), wk =   0.0380952
        k(   48) = (   0.4000000   0.4233902   0.5424315), wk =   0.0380952
        k(   49) = (   0.4000000   0.6158403   0.0000000), wk =   0.0190476
        k(   50) = (   0.4000000   0.6158403   0.1808105), wk =   0.0380952
        k(   51) = (   0.4000000   0.6158403   0.3616210), wk =   0.0380952
        k(   52) = (   0.4000000   0.6158403   0.5424315), wk =   0.0380952
        k(   53) = (   0.4000000  -0.3464102   0.0000000), wk =   0.0190476
        k(   54) = (   0.4000000  -0.3464102   0.1808105), wk =   0.0380952
        k(   55) = (   0.4000000  -0.3464102   0.3616210), wk =   0.0380952
        k(   56) = (   0.4000000  -0.3464102   0.5424315), wk =   0.0380952
        k(   57) = (   0.4000000  -0.1539601   0.0000000), wk =   0.0190476
        k(   58) = (   0.4000000  -0.1539601   0.1808105), wk =   0.0380952
        k(   59) = (   0.4000000  -0.1539601   0.3616210), wk =   0.0380952
        k(   60) = (   0.4000000  -0.1539601   0.5424315), wk =   0.0380952
        k(   61) = (   0.4000000   0.0384900   0.0000000), wk =   0.0190476
        k(   62) = (   0.4000000   0.0384900   0.1808105), wk =   0.0380952
        k(   63) = (   0.4000000   0.0384900   0.3616210), wk =   0.0380952
        k(   64) = (   0.4000000   0.0384900   0.5424315), wk =   0.0380952

     Dense  grid:    40467 G-vectors     FFT dimensions: (  50,  50,  40)

     Largest allocated arrays     est. size (Mb)     dimensions
        Kohn-Sham Wavefunctions         2.22 Mb     (   1298,  112)
        NL pseudopotentials             3.17 Mb     (   1298,  160)
        Each V/rho on FFT grid          0.38 Mb     (  25000)
        Each G-vector array             0.08 Mb     (  10119)
        G-vector shells                 0.08 Mb     (  10119)
     Largest temporary arrays     est. size (Mb)     dimensions
        Each subspace H/S matrix        0.19 Mb     ( 112, 112)
        Each <psi_i|beta_j> matrix      0.27 Mb     (    160,  112)
        Arrays for rho mixing           3.05 Mb     (  25000,   8)

     Initial potential from superposition of free atoms

     Starting from uniform charge
     Starting wfc are    0 randomized atomic wfcs

     total cpu time spent up to now is       11.7 secs

     Self-consistent Calculation

     iteration #  1     ecut=    40.00 Ry     beta=0.70
     CG style diagonalization
     c_bands:  1 eigenvalues not converged
     c_bands:  2 eigenvalues not converged
     c_bands:  2 eigenvalues not converged
     c_bands:  1 eigenvalues not converged
     c_bands:  1 eigenvalues not converged
     c_bands:  1 eigenvalues not converged
     c_bands:  1 eigenvalues not converged
     c_bands:  1 eigenvalues not converged
     c_bands:  1 eigenvalues not converged
     c_bands:  1 eigenvalues not converged
     ethr =  1.00E-02,  avg # of iterations = 14.0

     total cpu time spent up to now is      339.6 secs

     total energy              =   -2487.74617791 Ry
     Harris-Foulkes estimate   =   -3942.22368291 Ry
     estimated scf accuracy    <    1789.08259600 Ry

     iteration #  2     ecut=    40.00 Ry     beta=0.70
     CG style diagonalization
     c_bands:  1 eigenvalues not converged
     c_bands:  1 eigenvalues not converged
     c_bands:  3 eigenvalues not converged
     c_bands:  2 eigenvalues not converged
     c_bands:  3 eigenvalues not converged
     c_bands:  1 eigenvalues not converged
     c_bands:  1 eigenvalues not converged
     c_bands:  1 eigenvalues not converged
     c_bands:  1 eigenvalues not converged
     c_bands:  1 eigenvalues not converged
     c_bands:  2 eigenvalues not converged
     c_bands:  1 eigenvalues not converged
     ethr =  1.00E-02,  avg # of iterations = 10.7

     total cpu time spent up to now is      582.1 secs

     total energy              =   -2426.91073419 Ry
     Harris-Foulkes estimate   =   -3424.57597871 Ry
     estimated scf accuracy    <    1799.69785249 Ry

     iteration #  3     ecut=    40.00 Ry     beta=0.70
     CG style diagonalization
     c_bands:  1 eigenvalues not converged
     c_bands:  4 eigenvalues not converged
     c_bands:  1 eigenvalues not converged
     c_bands:  1 eigenvalues not converged
     c_bands:  2 eigenvalues not converged
     c_bands:  1 eigenvalues not converged
     c_bands:  2 eigenvalues not converged
     c_bands:  1 eigenvalues not converged
     c_bands:  1 eigenvalues not converged
     c_bands:  2 eigenvalues not converged
     c_bands:  1 eigenvalues not converged
     c_bands:  1 eigenvalues not converged
     c_bands:  2 eigenvalues not converged
     c_bands:  1 eigenvalues not converged
     c_bands:  1 eigenvalues not converged
     c_bands:  1 eigenvalues not converged
     c_bands:  1 eigenvalues not converged
     c_bands:  1 eigenvalues not converged
     c_bands:  2 eigenvalues not converged
     c_bands:  1 eigenvalues not converged
     c_bands:  1 eigenvalues not converged
     c_bands:  1 eigenvalues not converged
     c_bands:  2 eigenvalues not converged
     c_bands:  1 eigenvalues not converged
     c_bands:  1 eigenvalues not converged
     c_bands:  1 eigenvalues not converged
     c_bands:  1 eigenvalues not converged
     c_bands:  1 eigenvalues not converged
     ethr =  1.00E-02,  avg # of iterations = 11.8

     total cpu time spent up to now is      846.2 secs

     total energy              =   -2910.30503429 Ry
     Harris-Foulkes estimate   =   -3209.13011685 Ry
     estimated scf accuracy    <     749.43541422 Ry

     iteration #  4     ecut=    40.00 Ry     beta=0.70
     CG style diagonalization
     c_bands:  1 eigenvalues not converged
     ethr =  1.00E-02,  avg # of iterations =  8.5

     total cpu time spent up to now is     1015.5 secs

     total energy              =   -3037.60792094 Ry
     Harris-Foulkes estimate   =   -3063.57336323 Ry
     estimated scf accuracy    <      61.46155673 Ry

     iteration #  5     ecut=    40.00 Ry     beta=0.70
     CG style diagonalization
     ethr =  1.00E-02,  avg # of iterations =  4.0

     total cpu time spent up to now is     1089.1 secs

     total energy              =   -3043.93732785 Ry
     Harris-Foulkes estimate   =   -3046.62026426 Ry
     estimated scf accuracy    <       5.28611243 Ry

     iteration #  6     ecut=    40.00 Ry     beta=0.70
     CG style diagonalization
     ethr =  2.84E-03,  avg # of iterations =  3.4

     total cpu time spent up to now is     1151.9 secs

     total energy              =   -3044.19786421 Ry
     Harris-Foulkes estimate   =   -3044.67414260 Ry
     estimated scf accuracy    <       0.82035002 Ry

     iteration #  7     ecut=    40.00 Ry     beta=0.70
     CG style diagonalization
     ethr =  4.41E-04,  avg # of iterations =  4.1

     total cpu time spent up to now is     1233.5 secs

     total energy              =   -3044.37894024 Ry
     Harris-Foulkes estimate   =   -3044.44629384 Ry
     estimated scf accuracy    <       0.14907695 Ry

     iteration #  8     ecut=    40.00 Ry     beta=0.70
     CG style diagonalization
     c_bands:  1 eigenvalues not converged
     c_bands:  1 eigenvalues not converged
     ethr =  8.01E-05,  avg # of iterations =  3.9

     total cpu time spent up to now is     1307.7 secs

     total energy              =   -3044.40853275 Ry
     Harris-Foulkes estimate   =   -3044.41143651 Ry
     estimated scf accuracy    <       0.00687652 Ry

     iteration #  9     ecut=    40.00 Ry     beta=0.70
     CG style diagonalization
     c_bands:  2 eigenvalues not converged
     c_bands:  1 eigenvalues not converged
     c_bands:  1 eigenvalues not converged
     c_bands:  1 eigenvalues not converged
     c_bands:  1 eigenvalues not converged
     c_bands:  1 eigenvalues not converged
     c_bands:  1 eigenvalues not converged
     c_bands:  1 eigenvalues not converged
     c_bands:  1 eigenvalues not converged
     c_bands:  1 eigenvalues not converged
     c_bands:  1 eigenvalues not converged
     c_bands:  1 eigenvalues not converged
     ethr =  3.70E-06,  avg # of iterations =  4.3

     total cpu time spent up to now is     1389.2 secs

     total energy              =   -3044.41051458 Ry
     Harris-Foulkes estimate   =   -3044.41085270 Ry
     estimated scf accuracy    <       0.00079078 Ry

     iteration # 10     ecut=    40.00 Ry     beta=0.70
     CG style diagonalization
     c_bands:  1 eigenvalues not converged
     c_bands:  1 eigenvalues not converged
     c_bands:  1 eigenvalues not converged
     c_bands:  1 eigenvalues not converged
     ethr =  4.25E-07,  avg # of iterations =  3.8

     total cpu time spent up to now is     1458.7 secs

     total energy              =   -3044.41060211 Ry
     Harris-Foulkes estimate   =   -3044.41075421 Ry
     estimated scf accuracy    <       0.00026134 Ry

     iteration # 11     ecut=    40.00 Ry     beta=0.70
     CG style diagonalization
     ethr =  1.41E-07,  avg # of iterations =  3.5

     total cpu time spent up to now is     1521.7 secs

     End of self-consistent calculation

          k = 0.0000 0.0000 0.0000 (  5047 PWs)   bands (ev):

   -97.0927 -97.0927 -97.0867 -97.0288 -97.0287 -96.9908 -64.8536 -64.8496
   -55.9177 -55.8951 -55.8950 -55.8773 -55.8761 -55.8675 -55.8674 -55.8661
   -55.8661 -55.8607 -55.8606 -55.8560 -55.8537 -55.8397 -55.8396 -55.8355
   -55.8355 -55.8284 -29.0526 -29.0461 -29.0144 -29.0144 -29.0056 -29.0056
     1.6568   1.7026   1.7026   1.7403   1.8540   1.8762   1.9000   1.9001
     1.9401   1.9401   1.9439   2.0061   2.0061   2.1483   2.2090   2.2091
     2.2250   2.2486   2.2486   2.3120   2.3121   2.3457   2.3458   2.4471
     2.4472   2.5545   2.5546   2.5567   2.6292   2.6312  10.2583  13.3824
    13.7030  13.7030  14.5156  14.6432  14.6432  14.6519  14.6519  14.7175
    14.7175  16.4328  16.4328  16.8223  16.8224  17.3579  17.6943  18.1320
    19.2015  21.8851  21.8852  22.4706  22.4707  22.6693  22.6694  23.5535
    24.8971  24.9601  25.4232  26.6917  26.6917  26.7239  26.7239  27.7281
    29.8402  29.8402  30.2436  31.3144  31.3145  31.7163  31.7544  32.4702
    32.4703  32.9203  32.9261  32.9567  33.2545  33.2546  34.6710  34.6710

          k = 0.0000 0.0000 0.1808 (  5065 PWs)   bands (ev):

   -97.0836 -97.0792 -97.0791 -97.0698 -97.0698 -97.0288 -64.8597 -64.8547
   -55.9088 -55.8948 -55.8948 -55.8931 -55.8767 -55.8749 -55.8748 -55.8675
   -55.8674 -55.8638 -55.8585 -55.8585 -55.8489 -55.8423 -55.8422 -55.8396
   -55.8395 -55.8325 -29.0499 -29.0489 -29.0199 -29.0199 -29.0138 -29.0138
     1.6694   1.7119   1.7119   1.7290   1.8711   1.8712   1.8754   1.8887
     1.9402   1.9402   1.9784   1.9985   1.9985   2.0827   2.2249   2.2249
     2.2501   2.2501   2.2531   2.3185   2.3186   2.3654   2.3655   2.4017
     2.4017   2.5366   2.5845   2.5845   2.6136   2.6270  10.3911  13.3612
    13.7365  13.7366  14.4398  14.4398  14.5747  14.6598  14.6598  14.8450
    14.8450  16.2344  16.4931  16.4931  17.0536  17.0536  17.7445  18.3181
    20.3908  20.5532  20.5533  22.0168  22.0169  23.1485  23.3666  24.1880
    24.1881  25.1593  26.4272  26.4273  27.1636  27.6357  27.6358  28.3567
    29.7692  29.7692  29.8681  31.3760  31.3761  31.5687  31.8354  32.3932
    32.3933  32.5965  32.6920  33.0929  33.0930  33.0967  34.3171  34.3173

          k = 0.0000 0.0000 0.3616 (  5047 PWs)   bands (ev):

   -97.0748 -97.0679 -97.0678 -97.0638 -97.0637 -96.9885 -64.8567 -64.8475
   -55.8954 -55.8881 -55.8879 -55.8879 -55.8798 -55.8798 -55.8747 -55.8718
   -55.8595 -55.8595 -55.8545 -55.8544 -55.8496 -55.8457 -55.8457 -55.8359
   -55.8331 -55.8330 -29.0419 -29.0297 -29.0202 -29.0202 -29.0134 -29.0134
     1.7028   1.7302   1.7362   1.7362   1.8268   1.8269   1.8519   1.9359
     1.9359   1.9723   1.9775   1.9775   1.9865   2.0647   2.2287   2.2288
     2.2467   2.2468   2.2618   2.3318   2.3318   2.3478   2.3478   2.4360
     2.4360   2.4448   2.6019   2.6073   2.6073   2.6218  10.8009  13.1114
    13.8200  13.8200  14.2093  14.2093  14.7014  14.7027  14.7027  14.9003
    14.9003  15.1590  16.7120  16.7121  17.6511  17.6512  17.9045  18.3658
    19.1859  19.1860  20.9868  20.9869  21.3920  21.9794  23.4848  25.7318
    26.0784  26.0785  26.8256  26.8256  28.6551  28.6551  28.9176  28.9634
    29.4789  29.4789  29.6007  31.0552  31.5703  31.5704  31.7233  32.0663
    32.2240  32.2240  32.2363  32.7761  32.7762  32.7988  33.6043  33.6044

          k = 0.0000 0.0000 0.5424 (  5041 PWs)   bands (ev):

   -97.0797 -97.0796 -97.0495 -97.0494 -97.0230 -97.0184 -64.8545 -64.8465
   -55.8909 -55.8909 -55.8880 -55.8856 -55.8832 -55.8831 -55.8687 -55.8648
   -55.8555 -55.8554 -55.8550 -55.8550 -55.8460 -55.8396 -55.8396 -55.8394
   -55.8393 -55.8391 -29.0437 -29.0324 -29.0154 -29.0154 -29.0108 -29.0108
     1.7491   1.7651   1.7659   1.7660   1.7941   1.7941   1.8170   1.8657
     1.9362   1.9362   1.9517   1.9517   2.1308   2.1567   2.2229   2.2230
     2.2279   2.2298   2.2299   2.2950   2.3332   2.3333   2.3353   2.3354
     2.5240   2.5240   2.5869   2.5869   2.6060   2.6138  11.4899  12.3528
    13.9166  13.9166  14.0340  14.0340  14.7875  14.7901  14.7901  14.8264
    14.8730  14.8730  17.1611  17.1611  17.8338  17.8338  18.1528  18.3400
    18.8113  18.8114  19.8212  19.8213  21.0268  21.1375  25.7181  26.6315
    27.5735  27.5736  27.6357  27.6358  27.7501  28.2149  28.9476  28.9477
    29.0266  29.0267  30.6212  30.7617  31.6119  31.7700  31.8473  31.8473
    32.0807  32.0808  32.4994  32.6431  32.6432  32.6875  32.9659  32.9659

          k = 0.0000 0.1925 0.0000 (  5083 PWs)   bands (ev):

   -97.1225 -97.1126 -97.0811 -97.0754 -97.0630 -97.0343 -64.8656 -64.8583
   -55.9125 -55.9004 -55.8959 -55.8857 -55.8775 -55.8750 -55.8707 -55.8706
   -55.8705 -55.8652 -55.8631 -55.8614 -55.8593 -55.8469 -55.8447 -55.8421
   -55.8401 -55.8347 -29.0592 -29.0523 -29.0258 -29.0222 -29.0162 -29.0148
     1.6855   1.7179   1.7435   1.7593   1.8253   1.8955   1.8971   1.9221
     1.9457   1.9613   1.9788   2.0041   2.0207   2.1575   2.1892   2.1949
     2.2254   2.2429   2.2578   2.2845   2.3114   2.3439   2.3458   2.4317
     2.4465   2.4936   2.5132   2.5626   2.6020   2.6228  10.4028  13.3031
    13.4225  13.7567  14.5684  14.5955  14.6051  14.6168  14.6468  14.7258
    14.7564  15.5281  15.7387  16.7630  17.5401  17.6477  18.3955  18.5223
    19.8433  21.0954  21.4111  22.2758  22.6742  22.6856  23.2834  24.3766
    24.4160  24.7736  25.2455  26.6369  26.6739  26.8462  27.4911  28.1601
    28.8539  29.3734  30.0639  31.1548  31.3234  31.5547  31.7147  32.0609
    32.7119  32.8123  33.0679  33.3411  33.3514  33.5901  34.8138  34.9669

          k = 0.0000 0.1925 0.1808 (  5077 PWs)   bands (ev):

   -97.1166 -97.1059 -97.0718 -97.0684 -97.0581 -97.0433 -64.8654 -64.8556
   -55.9057 -55.8989 -55.8955 -55.8874 -55.8788 -55.8763 -55.8758 -55.8692
   -55.8676 -55.8648 -55.8598 -55.8594 -55.8567 -55.8471 -55.8441 -55.8417
   -55.8405 -55.8334 -29.0571 -29.0472 -29.0250 -29.0227 -29.0167 -29.0135
     1.6956   1.7258   1.7484   1.7517   1.8489   1.8696   1.9037   1.9093
     1.9409   1.9758   1.9909   1.9977   2.0114   2.0984   2.2089   2.2175
     2.2385   2.2523   2.2545   2.2929   2.3167   2.3587   2.3668   2.3873
     2.3961   2.5039   2.5459   2.5723   2.5955   2.6064  10.5398  13.3423
    13.4669  13.7880  14.3605  14.4447  14.6066  14.6421  14.6445  14.8310
    14.8392  15.6032  15.8772  16.3443  16.9940  17.6941  18.5492  19.0413
    19.9883  20.3955  20.7432  21.7972  22.5697  23.4170  23.7391  23.9169
    24.4980  25.1285  25.9586  26.4757  26.5121  27.6107  28.4061  28.8002
    28.8988  29.2073  29.7818  31.1245  31.4401  31.5254  31.7442  32.2823
    32.6038  32.6322  32.9181  33.0876  33.2691  33.4399  34.0374  34.5778

          k = 0.0000 0.1925 0.3616 (  5061 PWs)   bands (ev):

   -97.0908 -97.0801 -97.0728 -97.0706 -97.0504 -97.0257 -64.8618 -64.8502
   -55.8946 -55.8905 -55.8894 -55.8893 -55.8781 -55.8779 -55.8755 -55.8721
   -55.8627 -55.8580 -55.8579 -55.8561 -55.8518 -55.8503 -55.8430 -55.8427
   -55.8390 -55.8370 -29.0470 -29.0336 -29.0269 -29.0228 -29.0160 -29.0121
     1.7221   1.7442   1.7502   1.7722   1.8356   1.8421   1.8827   1.9290
     1.9622   1.9775   1.9801   1.9919   1.9982   2.0770   2.2132   2.2288
     2.2352   2.2491   2.2533   2.3204   2.3213   2.3384   2.3451   2.4122
     2.4281   2.4442   2.5687   2.5690   2.5764   2.6135  10.9514  13.1842
    13.6209  13.8599  14.0974  14.2265  14.6605  14.6748  14.6944  14.8677
    14.8748  15.2286  15.9207  16.2464  17.1428  18.0184  18.5133  18.7390
    19.2596  19.6304  20.4716  21.5228  22.0100  23.0990  23.7368  24.9495
    25.4937  26.2681  26.5313  27.0934  27.7862  27.8874  28.5946  29.0766
    29.4855  29.5863  29.9472  30.9455  31.2930  31.6618  31.7667  31.8787
    32.3662  32.4421  32.5417  32.6761  32.9953  33.0626  33.6631  33.6723

          k = 0.0000 0.1925 0.5424 (  5050 PWs)   bands (ev):

   -97.0888 -97.0793 -97.0727 -97.0578 -97.0351 -97.0105 -64.8570 -64.8495
   -55.8921 -55.8919 -55.8896 -55.8882 -55.8852 -55.8836 -55.8675 -55.8659
   -55.8608 -55.8569 -55.8563 -55.8531 -55.8463 -55.8442 -55.8429 -55.8406
   -55.8402 -55.8368 -29.0407 -29.0302 -29.0213 -29.0210 -29.0195 -29.0108
     1.7528   1.7634   1.7810   1.7957   1.8150   1.8174   1.8547   1.8845
     1.9462   1.9574   1.9618   1.9716   2.1175   2.1631   2.2024   2.2169
     2.2222   2.2311   2.2321   2.2777   2.3200   2.3289   2.3335   2.3406
     2.4902   2.5191   2.5497   2.5638   2.5740   2.5965  11.6295  12.4790
    13.8095  13.9447  13.9553  14.0574  14.7302  14.7500  14.7657  14.8288
    14.8346  14.8387  16.3371  16.8167  16.9574  17.5816  18.1407  18.6064
    19.3993  19.8308  19.8887  20.3682  21.7944  22.1970  25.8157  25.8786
    26.5926  26.8458  27.4072  27.5502  28.0490  28.1820  28.2863  28.7835
    28.9650  29.3966  30.6975  30.8113  31.2067  31.5414  31.8672  32.0419
    32.0979  32.2365  32.3514  32.6193  32.7591  33.0822  33.2897  33.5447

          k = 0.0000 0.3849 0.0000 (  5079 PWs)   bands (ev):

   -97.1210 -97.1002 -97.0857 -97.0683 -97.0565 -97.0491 -64.8675 -64.8557
   -55.9065 -55.8934 -55.8903 -55.8812 -55.8767 -55.8733 -55.8718 -55.8700
   -55.8660 -55.8622 -55.8620 -55.8616 -55.8584 -55.8533 -55.8527 -55.8469
   -55.8423 -55.8385 -29.0520 -29.0432 -29.0315 -29.0311 -29.0150 -29.0132
     1.7163   1.7933   1.8046   1.8054   1.8552   1.8929   1.8939   1.9455
     1.9819   1.9980   2.0074   2.0459   2.0655   2.1353   2.1646   2.1950
     2.2069   2.2396   2.2435   2.2765   2.3077   2.3401   2.3553   2.3954
     2.3980   2.4022   2.4390   2.4696   2.5953   2.6056  10.8411  12.5519
    13.3330  13.9232  14.5002  14.5245  14.5506  14.5759  14.6540  14.7344
    14.7954  14.9640  15.0523  16.5959  17.7106  18.1759  19.1042  19.6513
    20.4035  21.2865  21.4176  21.8065  22.6853  22.6901  23.4325  23.7483
    23.8869  25.0241  26.1646  26.6696  27.0904  27.1256  28.0211  28.0962
    28.3882  29.4767  29.5102  30.2386  30.8144  31.0239  31.8558  32.0566
    32.6464  32.8902  32.9958  33.0236  33.5326  34.1977  34.6951  34.9555

          k = 0.0000 0.3849 0.1808 (  5090 PWs)   bands (ev):

   -97.1201 -97.1127 -97.0938 -97.0891 -97.0602 -97.0513 -64.8691 -64.8597
   -55.9039 -55.8962 -55.8956 -55.8820 -55.8788 -55.8753 -55.8736 -55.8701
   -55.8679 -55.8645 -55.8612 -55.8593 -55.8573 -55.8543 -55.8540 -55.8499
   -55.8465 -55.8399 -29.0559 -29.0465 -29.0321 -29.0290 -29.0192 -29.0184
     1.7237   1.7871   1.8047   1.8247   1.8567   1.8701   1.9198   1.9312
     1.9648   2.0086   2.0310   2.0323   2.0634   2.1405   2.1601   2.1967
     2.2100   2.2259   2.2637   2.2651   2.3089   2.3296   2.3579   2.3666
     2.3802   2.4497   2.4509   2.4724   2.5685   2.6069  10.9779  12.6715
    13.3884  13.9372  14.2428  14.4583  14.5726  14.6006  14.6289  14.7827
    14.7967  14.9583  15.2830  16.4779  16.9332  18.2054  18.7156  19.8155
    20.6806  20.7202  21.2813  21.9398  22.7813  23.0585  23.5664  23.9413
    25.0146  25.0616  25.8182  26.7081  26.9359  27.0335  27.3671  28.5499
    29.3481  29.3624  29.5231  30.2450  31.3557  31.6162  31.8238  31.9665
    32.1332  32.5559  32.6047  33.0413  33.6673  34.5160  34.5469  34.7056

          k = 0.0000 0.3849 0.3616 (  5078 PWs)   bands (ev):

   -97.1059 -97.0999 -97.0808 -97.0790 -97.0625 -97.0413 -64.8658 -64.8559
   -55.8992 -55.8954 -55.8927 -55.8870 -55.8793 -55.8784 -55.8732 -55.8680
   -55.8642 -55.8625 -55.8573 -55.8573 -55.8539 -55.8518 -55.8501 -55.8480
   -55.8447 -55.8410 -29.0556 -29.0399 -29.0259 -29.0249 -29.0189 -29.0184
     1.7411   1.7740   1.7934   1.8516   1.8666   1.8830   1.9314   1.9402
     1.9478   2.0021   2.0235   2.0490   2.0552   2.1085   2.1672   2.2099
     2.2207   2.2303   2.2536   2.2806   2.2865   2.3153   2.3339   2.3805
     2.4066   2.4504   2.4682   2.4743   2.5061   2.6180  11.3813  13.0007
    13.3931  13.8993  13.9732  14.2727  14.5649  14.5979  14.6655  14.7588
    14.8342  14.9500  15.7215  15.7589  16.6315  17.7688  17.9802  19.6065
    20.1405  20.4969  21.4597  22.5843  22.9215  23.7191  23.8762  24.4985
    25.4367  25.7727  25.9104  26.2907  26.9644  27.5576  27.7398  29.0728
    29.3534  29.5283  29.6700  30.7789  31.2427  31.6869  31.6998  31.8135
    32.0752  32.5104  32.6152  32.7268  33.2589  33.3710  34.6266  34.8279

          k = 0.0000 0.3849 0.5424 (  5051 PWs)   bands (ev):

   -97.0872 -97.0695 -97.0679 -97.0596 -97.0372 -97.0264 -64.8571 -64.8497
   -55.8921 -55.8914 -55.8890 -55.8849 -55.8836 -55.8749 -55.8672 -55.8666
   -55.8582 -55.8578 -55.8555 -55.8537 -55.8517 -55.8494 -55.8460 -55.8433
   -55.8418 -55.8380 -29.0451 -29.0349 -29.0199 -29.0178 -29.0145 -29.0131
     1.7569   1.7652   1.8128   1.8474   1.8545   1.8697   1.9206   1.9548
     1.9764   1.9966   2.0258   2.0421   2.0862   2.1475   2.1601   2.2057
     2.2140   2.2270   2.2341   2.2553   2.2927   2.3167   2.3292   2.3447
     2.4119   2.4524   2.4591   2.4598   2.5512   2.6003  12.0276  12.8168
    13.4349  13.7403  14.0264  14.1215  14.5976  14.6465  14.6684  14.7105
    14.7828  14.8208  15.6023  16.0568  16.4181  17.2306  17.7990  18.5279
    20.5593  20.9784  21.4794  21.5094  23.3842  24.0494  24.4570  25.0744
    25.3412  25.7677  26.0765  27.4313  27.9535  28.0814  28.5751  28.7572
    28.9802  29.3522  29.6187  30.0689  30.7912  31.1606  31.7100  31.8012
    31.9830  32.3982  32.4345  32.4606  33.7782  34.3079  34.4403  34.8859

          k = 0.0000-0.5774 0.0000 (  5068 PWs)   bands (ev):

   -97.0901 -97.0787 -97.0768 -97.0766 -97.0586 -97.0499 -64.8601 -64.8571
   -55.9094 -55.8946 -55.8927 -55.8727 -55.8706 -55.8701 -55.8692 -55.8640
   -55.8608 -55.8598 -55.8590 -55.8585 -55.8558 -55.8544 -55.8535 -55.8484
   -55.8470 -55.8416 -29.0535 -29.0487 -29.0210 -29.0204 -29.0145 -29.0122
     1.7281   1.7809   1.8328   1.8752   1.9112   1.9368   1.9449   1.9453
     1.9549   1.9770   2.0239   2.0284   2.0550   2.1452   2.2042   2.2151
     2.2321   2.2521   2.2562   2.2577   2.2772   2.3205   2.3297   2.3370
     2.3684   2.3714   2.3903   2.4277   2.5966   2.5971  11.3655  11.8622
    13.2908  14.0788  14.4522  14.4572  14.5291  14.5676  14.6507  14.7195
    14.7378  14.8091  14.8671  16.5442  17.6813  18.3788  19.7529  19.9932
    20.2615  21.1891  22.0005  22.4742  22.5238  22.5565  22.6908  23.7340
    24.2074  24.3369  26.1552  26.8025  27.2874  27.3381  27.8471  28.7031
    28.8575  28.9806  29.7605  30.3968  30.6105  30.9580  31.2206  31.7926
    31.9775  32.6008  32.6115  32.8598  33.4615  34.6184  34.9750  35.0820

          k = 0.0000-0.5774 0.1808 (  5072 PWs)   bands (ev):

   -97.1000 -97.0930 -97.0855 -97.0687 -97.0513 -97.0477 -64.8600 -64.8590
   -55.9087 -55.8975 -55.8877 -55.8796 -55.8743 -55.8698 -55.8680 -55.8670
   -55.8626 -55.8612 -55.8605 -55.8603 -55.8556 -55.8518 -55.8514 -55.8472
   -55.8470 -55.8410 -29.0486 -29.0465 -29.0293 -29.0203 -29.0171 -29.0141
     1.7343   1.8128   1.8165   1.8464   1.8974   1.9246   1.9254   1.9555
     1.9638   2.0168   2.0471   2.0584   2.0674   2.1259   2.1749   2.1986
     2.2250   2.2369   2.2541   2.2543   2.2850   2.2993   2.3241   2.3585
     2.3774   2.3917   2.4096   2.4226   2.5570   2.6088  11.4925  12.0040
    13.3686  14.0773  14.2175  14.4506  14.5395  14.5781  14.5791  14.6683
    14.7581  14.8497  15.1023  16.5054  16.9986  18.3092  18.3847  20.6918
    21.0405  21.4173  21.5474  21.7440  22.1360  23.0718  24.0945  24.2365
    24.2970  25.2078  25.3309  26.5231  26.6443  27.4749  28.3681  28.7043
    28.7870  29.0284  29.0815  30.3844  31.1923  31.1992  31.8326  32.2549
    32.2740  32.6146  32.7276  32.7490  32.9670  34.1101  34.4819  35.0091

          k = 0.0000-0.5774 0.3616 (  5090 PWs)   bands (ev):

   -97.1311 -97.1041 -97.0931 -97.0897 -97.0615 -97.0440 -64.8655 -64.8627
   -55.9024 -55.8986 -55.8942 -55.8870 -55.8785 -55.8764 -55.8721 -55.8696
   -55.8660 -55.8637 -55.8631 -55.8607 -55.8548 -55.8532 -55.8524 -55.8478
   -55.8470 -55.8422 -29.0522 -29.0481 -29.0285 -29.0279 -29.0241 -29.0196
     1.7486   1.7830   1.8182   1.8899   1.8929   1.9150   1.9154   1.9348
     1.9910   2.0653   2.0739   2.0780   2.0902   2.1128   2.1147   2.1847
     2.2201   2.2321   2.2432   2.2467   2.2659   2.3142   2.3276   2.3646
     2.3705   2.4083   2.4127   2.4470   2.4816   2.6202  11.8657  12.4067
    13.5253  13.7961  14.0677  14.3029  14.4965  14.5367  14.6106  14.6646
    14.7957  14.8094  15.5994  16.0828  16.1427  17.5190  17.8804  19.6300
    20.9911  21.4208  22.3497  22.4503  22.8709  23.9579  24.1179  24.6478
    24.8518  24.9172  25.7484  26.8896  26.9064  27.6869  27.8454  27.9676
    28.3438  29.0340  29.8219  30.9412  31.6174  31.8644  31.9125  31.9406
    32.0792  32.4448  32.5909  32.6805  33.0942  33.2093  34.8319  34.9259

          k = 0.0000-0.5774 0.5424 (  5080 PWs)   bands (ev):

   -97.1244 -97.0919 -97.0847 -97.0807 -97.0564 -97.0419 -64.8645 -64.8583
   -55.8940 -55.8934 -55.8894 -55.8837 -55.8835 -55.8735 -55.8707 -55.8685
   -55.8660 -55.8650 -55.8632 -55.8615 -55.8586 -55.8575 -55.8495 -55.8480
   -55.8438 -55.8397 -29.0479 -29.0462 -29.0284 -29.0274 -29.0220 -29.0156
     1.7597   1.7655   1.8293   1.8571   1.8818   1.9004   1.9406   1.9918
     2.0398   2.0589   2.0815   2.0889   2.0923   2.1008   2.1023   2.1862
     2.2185   2.2238   2.2405   2.2705   2.2768   2.2849   2.3367   2.3373
     2.3600   2.3825   2.3976   2.4000   2.5517   2.6030  12.4502  12.9874
    13.1573  13.4762  14.0877  14.1669  14.5123  14.5700  14.5738  14.6277
    14.7704  14.7861  15.5721  15.5765  16.2765  17.0913  17.6918  18.4434
    21.4038  22.0669  22.2089  22.6169  23.6475  23.8740  24.0393  24.3012
    24.8913  25.7331  26.5413  26.7777  27.1840  27.9123  28.2552  28.6803
    28.9996  29.2516  29.4637  29.5577  30.6795  31.3433  31.5078  31.9228
    31.9582  32.1810  32.4774  32.6059  34.0317  34.4956  34.8687  35.3041

          k = 0.2000 0.1155 0.0000 (  5087 PWs)   bands (ev):

   -97.1216 -97.1019 -97.0859 -97.0701 -97.0648 -97.0640 -64.8673 -64.8590
   -55.9119 -55.8983 -55.8942 -55.8854 -55.8794 -55.8739 -55.8717 -55.8706
   -55.8704 -55.8635 -55.8635 -55.8617 -55.8574 -55.8565 -55.8484 -55.8430
   -55.8409 -55.8339 -29.0571 -29.0510 -29.0316 -29.0265 -29.0168 -29.0133
     1.6942   1.7280   1.7610   1.7671   1.8178   1.8943   1.8998   1.9275
     1.9533   1.9689   1.9948   2.0021   2.0261   2.1590   2.1833   2.1891
     2.2268   2.2388   2.2610   2.2748   2.3113   2.3433   2.3466   2.4254
     2.4459   2.4756   2.4956   2.5518   2.5975   2.6197  10.4645  13.1936
    13.3911  13.7817  14.5759  14.5761  14.5927  14.6058  14.6482  14.7278
    14.7658  15.3589  15.5856  16.7205  17.6804  17.6976  18.5061  18.7729
    20.0851  20.9794  21.3490  22.1119  22.6759  22.6843  23.4746  24.2501
    24.6198  24.6975  25.1498  26.6730  26.8214  26.8956  27.6947  28.3691
    28.4768  29.1577  29.9989  31.0946  31.2978  31.3949  31.7469  31.9500
    32.7028  32.7786  33.1016  33.4564  33.5469  33.8457  34.6870  34.6878

          k = 0.2000 0.1155 0.1808 (  5078 PWs)   bands (ev):

   -97.1065 -97.1050 -97.0717 -97.0691 -97.0610 -97.0556 -64.8657 -64.8559
   -55.9057 -55.8981 -55.8953 -55.8858 -55.8764 -55.8762 -55.8743 -55.8695
   -55.8654 -55.8654 -55.8594 -55.8592 -55.8557 -55.8513 -55.8460 -55.8439
   -55.8413 -55.8355 -29.0564 -29.0470 -29.0282 -29.0212 -29.0180 -29.0127
     1.7034   1.7349   1.7565   1.7685   1.8434   1.8690   1.9104   1.9144
     1.9462   1.9905   1.9917   2.0012   2.0163   2.1049   2.2017   2.2141
     2.2336   2.2521   2.2560   2.2821   2.3157   2.3564   2.3681   2.3817
     2.3919   2.4925   2.5299   2.5581   2.5896   2.6053  10.6039  13.2707
    13.4173  13.8114  14.3333  14.4474  14.6100  14.6350  14.6394  14.8262
    14.8349  15.4225  15.7358  16.3767  16.9619  17.8393  18.7909  19.1135
    20.0363  20.3896  20.8276  21.7513  22.7605  23.3133  23.7923  23.8653
    24.7714  25.1107  25.7044  26.4554  26.5677  27.6104  28.2992  28.7917
    29.0136  29.0555  29.7414  30.8698  31.4416  31.5467  31.7761  32.2561
    32.5787  32.6024  32.9557  33.0655  33.4722  33.4903  34.1138  34.6263

          k = 0.2000 0.1155 0.3616 (  5067 PWs)   bands (ev):

   -97.0918 -97.0883 -97.0746 -97.0744 -97.0557 -97.0327 -64.8631 -64.8522
   -55.8955 -55.8923 -55.8903 -55.8890 -55.8801 -55.8781 -55.8759 -55.8714
   -55.8646 -55.8584 -55.8584 -55.8561 -55.8522 -55.8504 -55.8447 -55.8441
   -55.8399 -55.8377 -29.0487 -29.0351 -29.0279 -29.0224 -29.0198 -29.0132
     1.7272   1.7498   1.7577   1.7868   1.8399   1.8481   1.8944   1.9285
     1.9663   1.9783   1.9843   1.9983   2.0072   2.0822   2.2059   2.2287
     2.2313   2.2490   2.2500   2.3154   2.3163   2.3343   2.3434   2.4041
     2.4232   2.4459   2.5531   2.5560   2.5591   2.6143  11.0159  13.2147
    13.5322  13.8771  14.0577  14.2339  14.6458  14.6627  14.6890  14.8523
    14.8669  15.2270  15.7721  16.1270  17.0363  18.0540  18.3478  18.9557
    19.3679  19.9847  20.3829  21.7202  22.2057  23.4032  23.8700  24.7054
    25.3141  26.2909  26.3685  27.1630  27.5593  27.6516  28.3637  29.1353
    29.4953  29.6870  30.0586  30.6650  31.3326  31.6764  31.7531  31.9077
    32.2469  32.4308  32.5983  32.6008  33.0678  33.2659  33.6925  33.9719

          k = 0.2000 0.1155 0.5424 (  5053 PWs)   bands (ev):

   -97.1032 -97.0806 -97.0763 -97.0595 -97.0275 -97.0105 -64.8579 -64.8503
   -55.8926 -55.8911 -55.8900 -55.8870 -55.8856 -55.8839 -55.8681 -55.8651
   -55.8602 -55.8593 -55.8565 -55.8542 -55.8483 -55.8439 -55.8430 -55.8422
   -55.8398 -55.8375 -29.0419 -29.0314 -29.0227 -29.0199 -29.0160 -29.0156
     1.7536   1.7637   1.7868   1.8073   1.8227   1.8265   1.8687   1.8939
     1.9507   1.9610   1.9728   1.9808   2.1119   2.1650   2.1944   2.2123
     2.2217   2.2311   2.2330   2.2715   2.3154   2.3274   2.3322   2.3418
     2.4765   2.5132   2.5346   2.5470   2.5644   2.5965  11.6925  12.5320
    13.7584  13.9223  13.9575  14.0670  14.7068  14.7330  14.7543  14.8097
    14.8239  14.8383  16.1395  16.7220  16.7555  17.4995  18.0554  18.6263
    19.6096  20.0028  20.1851  20.5681  22.0792  22.5482  25.6065  25.8568
    26.2959  26.5668  27.1429  27.6037  27.9035  28.2762  28.2922  28.8023
    28.9220  29.4568  30.6236  30.8661  30.9311  31.4067  31.7986  31.9814
    32.0523  32.2665  32.3579  32.6284  32.9671  33.2649  33.5215  33.8152

          k = 0.2000 0.3079 0.0000 (  5075 PWs)   bands (ev):

   -97.1211 -97.1105 -97.0793 -97.0687 -97.0447 -97.0362 -64.8645 -64.8562
   -55.9085 -55.8950 -55.8916 -55.8849 -55.8804 -55.8745 -55.8714 -55.8681
   -55.8656 -55.8609 -55.8598 -55.8584 -55.8566 -55.8526 -55.8501 -55.8440
   -55.8408 -55.8353 -29.0485 -29.0477 -29.0299 -29.0245 -29.0159 -29.0138
     1.7423   1.7568   1.7823   1.8159   1.8525   1.8979   1.9307   1.9344
     1.9461   2.0011   2.0029   2.0280   2.0795   2.1157   2.1805   2.1898
     2.2293   2.2351   2.2419   2.2725   2.3033   2.3454   2.3494   2.3986
     2.4024   2.4070   2.4385   2.5344   2.5546   2.6069  10.7901  12.8013
    13.1273  13.9008  14.4856  14.5465  14.5627  14.5896  14.6617  14.7110
    14.8013  14.9941  15.0261  17.1008  17.5663  17.7941  19.0253  19.6935
    20.4260  21.3144  21.4733  21.6297  22.1890  22.7543  23.6143  24.1223
    24.3220  25.0865  25.9671  26.3914  26.7052  27.0530  27.8581  28.3639
    28.8157  28.9997  29.1286  30.6593  31.2082  31.5338  31.5843  31.7205
    32.7866  33.0841  33.3640  33.5926  33.6465  33.8146  33.9795  34.6135

          k = 0.2000 0.3079 0.1808 (  5088 PWs)   bands (ev):

   -97.1314 -97.1110 -97.0994 -97.0697 -97.0553 -97.0502 -64.8669 -64.8605
   -55.9046 -55.8968 -55.8960 -55.8854 -55.8792 -55.8788 -55.8749 -55.8715
   -55.8676 -55.8632 -55.8603 -55.8586 -55.8576 -55.8537 -55.8529 -55.8434
   -55.8413 -55.8401 -29.0549 -29.0496 -29.0306 -29.0280 -29.0197 -29.0151
     1.7475   1.7600   1.7882   1.8293   1.8451   1.8908   1.9157   1.9352
     1.9624   1.9799   2.0197   2.0261   2.0797   2.1319   2.1562   2.2044
     2.2218   2.2297   2.2501   2.2735   2.3092   2.3398   2.3596   2.3668
     2.3748   2.4405   2.4526   2.5400   2.5697   2.5719  10.9300  12.9056
    13.2117  13.8817  14.2772  14.4382  14.5730  14.5914  14.6561  14.8003
    14.8163  15.0262  15.1505  16.6440  17.3165  17.6587  18.9805  19.4865
    20.5315  20.6135  21.5026  22.0668  22.8156  22.9761  23.2573  24.1818
    24.9069  25.5136  26.0815  26.3179  26.5161  27.0492  27.7501  28.2937
    28.7176  29.7357  29.8205  30.4951  30.9619  31.3633  31.9701  32.1887
    32.3652  32.6965  33.1089  33.3255  33.4322  33.7420  34.3480  34.7992

          k = 0.2000 0.3079 0.3616 (  5068 PWs)   bands (ev):

   -97.1026 -97.0910 -97.0804 -97.0733 -97.0468 -97.0337 -64.8636 -64.8531
   -55.8958 -55.8949 -55.8912 -55.8850 -55.8776 -55.8744 -55.8733 -55.8701
   -55.8626 -55.8591 -55.8579 -55.8561 -55.8550 -55.8525 -55.8503 -55.8454
   -55.8409 -55.8392 -29.0531 -29.0370 -29.0264 -29.0246 -29.0174 -29.0110
     1.7586   1.7641   1.7903   1.8382   1.8631   1.8766   1.9353   1.9435
     1.9466   1.9755   2.0131   2.0461   2.0610   2.1101   2.1804   2.2004
     2.2139   2.2407   2.2525   2.2790   2.3056   2.3184   2.3284   2.3740
     2.4296   2.4393   2.4491   2.5037   2.5452   2.5892  11.3320  13.1989
    13.3262  13.7487  14.0412  14.2410  14.5708  14.6111  14.6806  14.8025
    14.8136  15.0745  15.3942  15.8091  17.1114  17.5375  18.2677  19.0289
    20.1330  20.9240  21.2778  21.9624  23.2165  23.3422  24.4969  24.5796
    25.0846  25.9190  26.0020  26.3024  26.9294  27.7956  27.9921  28.5551
    29.2225  29.7836  29.9197  30.3647  30.8959  31.4656  31.8542  31.9416
    32.2458  32.3841  33.0356  33.1615  33.3232  33.6081  33.8930  34.8716

          k = 0.2000 0.3079 0.5424 (  5058 PWs)   bands (ev):

   -97.0964 -97.0938 -97.0577 -97.0557 -97.0427 -97.0342 -64.8570 -64.8539
   -55.8960 -55.8891 -55.8885 -55.8857 -55.8814 -55.8804 -55.8675 -55.8671
   -55.8602 -55.8589 -55.8552 -55.8532 -55.8526 -55.8505 -55.8465 -55.8446
   -55.8431 -55.8394 -29.0430 -29.0356 -29.0222 -29.0196 -29.0191 -29.0154
     1.7651   1.7688   1.8134   1.8449   1.8505   1.8573   1.9173   1.9470
     1.9628   1.9655   2.0312   2.0488   2.0881   2.1692   2.1749   2.1826
     2.1917   2.2380   2.2445   2.2550   2.2925   2.3282   2.3312   2.3349
     2.4052   2.4350   2.5009   2.5096   2.5412   2.5750  11.9821  12.7782
    13.5576  13.7642  13.9735  14.0782  14.5982  14.6435  14.7148  14.7380
    14.7824  14.8455  15.7192  15.9365  16.4748  16.7972  18.4760  19.2198
    19.4590  20.3199  21.5797  21.9592  23.2862  23.7657  24.1469  25.0176
    26.0402  26.2592  26.6343  27.2840  27.5841  28.1063  28.1751  28.2312
    29.2567  29.3382  29.9438  30.3065  30.6659  30.9856  31.1308  31.3778
    32.3997  32.7072  33.0640  33.2892  33.6087  33.7044  34.0954  34.8294

          k = 0.2000 0.5004 0.0000 (  5072 PWs)   bands (ev):

   -97.1104 -97.1026 -97.0927 -97.0583 -97.0472 -97.0391 -64.8615 -64.8580
   -55.9045 -55.8936 -55.8904 -55.8790 -55.8757 -55.8710 -55.8707 -55.8685
   -55.8663 -55.8634 -55.8617 -55.8590 -55.8549 -55.8521 -55.8501 -55.8466
   -55.8444 -55.8389 -29.0472 -29.0458 -29.0315 -29.0204 -29.0188 -29.0122
     1.7666   1.7710   1.8466   1.8620   1.9098   1.9239   1.9378   1.9661
     1.9738   1.9860   2.0212   2.0212   2.0638   2.0817   2.1886   2.2005
     2.2164   2.2396   2.2766   2.2780   2.3008   2.3288   2.3413   2.3477
     2.3503   2.3777   2.4188   2.4412   2.5373   2.5960  11.3444  12.1794
    12.8193  14.0840  14.3934  14.4194  14.5800  14.5911  14.6681  14.6920
    14.7364  14.8236  14.8273  17.1535  17.6805  17.9401  19.8814  19.9504
    20.6072  20.7946  21.4438  21.6996  22.2939  23.1008  23.9800  24.3884
    24.7179  24.9646  25.1731  26.3794  26.4341  26.6568  27.5178  28.1587
    29.5453  29.7374  30.1025  30.3363  30.6498  31.3950  31.6147  32.0434
    32.1537  32.1884  32.8312  32.8956  33.4076  33.7051  34.6310  34.7786

          k = 0.2000 0.5004 0.1808 (  5079 PWs)   bands (ev):

   -97.1128 -97.1083 -97.1004 -97.0717 -97.0485 -97.0399 -64.8652 -64.8581
   -55.9045 -55.8947 -55.8915 -55.8812 -55.8787 -55.8733 -55.8718 -55.8690
   -55.8657 -55.8633 -55.8621 -55.8614 -55.8553 -55.8534 -55.8498 -55.8488
   -55.8432 -55.8389 -29.0507 -29.0440 -29.0331 -29.0256 -29.0200 -29.0128
     1.7734   1.7948   1.8280   1.8581   1.8921   1.9158   1.9331   1.9477
     1.9630   2.0147   2.0400   2.0574   2.0875   2.1018   2.1664   2.1862
     2.1994   2.2300   2.2542   2.2891   2.2961   2.3117   2.3182   2.3619
     2.3704   2.3930   2.4128   2.4610   2.5546   2.5555  11.4723  12.3099
    12.9364  14.0368  14.2499  14.3423  14.5718  14.5920  14.6565  14.7143
    14.7601  14.8078  14.9531  16.9401  17.1775  17.8412  18.7915  19.8018
    20.9955  21.0151  21.8694  22.2864  22.8157  23.2385  23.6895  24.3083
    24.4885  24.8121  26.0418  26.2897  26.7092  27.2872  27.3875  28.0598
    28.5020  29.5332  30.0153  30.6429  30.9472  31.1382  31.6783  31.9969
    32.2084  32.7262  33.0886  33.2860  33.6696  34.0522  34.1829  34.7131

          k = 0.2000 0.5004 0.3616 (  5085 PWs)   bands (ev):

   -97.1165 -97.1128 -97.1017 -97.0748 -97.0632 -97.0383 -64.8670 -64.8594
   -55.8993 -55.8955 -55.8944 -55.8837 -55.8814 -55.8763 -55.8731 -55.8673
   -55.8668 -55.8640 -55.8628 -55.8575 -55.8566 -55.8539 -55.8515 -55.8504
   -55.8434 -55.8413 -29.0546 -29.0468 -29.0331 -29.0252 -29.0213 -29.0135
     1.7761   1.7914   1.8317   1.8874   1.8928   1.9034   1.9182   1.9356
     1.9668   2.0330   2.0672   2.0834   2.1159   2.1272   2.1428   2.1756
     2.1796   2.2148   2.2411   2.2708   2.2939   2.3066   2.3138   2.3524
     2.3796   2.4139   2.4315   2.4512   2.4908   2.5738  11.8488  12.6850
    13.2444  13.7850  14.0066  14.1848  14.5420  14.5847  14.6851  14.6971
    14.7627  14.8386  15.1763  16.0644  16.6372  17.2685  18.2611  19.4840
    20.7070  21.5895  22.2357  22.5556  22.9179  23.9328  24.2894  24.5447
    25.1245  25.3388  26.1995  26.4508  26.6588  27.3384  27.7269  28.0878
    28.7635  28.9354  29.3792  30.1346  30.7038  31.4860  31.8664  32.1315
    32.2979  32.8171  33.2046  33.4746  34.0604  34.2147  34.3686  34.6509

          k = 0.2000 0.5004 0.5424 (  5080 PWs)   bands (ev):

   -97.1138 -97.1029 -97.0784 -97.0703 -97.0654 -97.0472 -64.8628 -64.8598
   -55.8956 -55.8908 -55.8880 -55.8850 -55.8825 -55.8766 -55.8686 -55.8680
   -55.8667 -55.8641 -55.8605 -55.8576 -55.8554 -55.8543 -55.8507 -55.8504
   -55.8470 -55.8458 -29.0490 -29.0444 -29.0278 -29.0249 -29.0212 -29.0187
     1.7755   1.7773   1.8474   1.8668   1.8893   1.8954   1.9262   1.9676
     2.0169   2.0288   2.0595   2.1055   2.1236   2.1344   2.1404   2.1721
     2.1752   2.2192   2.2564   2.2682   2.2739   2.3109   2.3249   2.3323
     2.3365   2.3535   2.4365   2.4532   2.5281   2.5649  12.4415  13.1438
    13.2080  13.5471  13.8761  14.0218  14.5410  14.5876  14.6547  14.6828
    14.7445  14.8058  15.3923  15.6216  16.0693  16.4448  18.6452  19.3557
    20.3058  21.0569  22.5315  23.1266  23.3609  23.7847  24.5422  25.0664
    25.7204  25.9131  26.2783  26.7168  27.1033  27.5206  27.9450  28.2214
    28.5704  29.1101  29.3367  29.7172  30.1802  30.6179  31.0332  31.4850
    32.9681  33.1136  33.5068  33.9133  33.9879  34.5107  34.7972  35.0378

          k = 0.2000-0.4619 0.0000 (  5078 PWs)   bands (ev):

   -97.1151 -97.1082 -97.0898 -97.0702 -97.0533 -97.0394 -64.8646 -64.8581
   -55.9076 -55.8945 -55.8926 -55.8792 -55.8761 -55.8721 -55.8715 -55.8666
   -55.8662 -55.8626 -55.8619 -55.8601 -55.8560 -55.8533 -55.8513 -55.8466
   -55.8458 -55.8396 -29.0495 -29.0478 -29.0306 -29.0255 -29.0177 -29.0131
     1.7681   1.7688   1.8265   1.8545   1.9064   1.9262   1.9370   1.9530
     1.9771   1.9816   2.0218   2.0251   2.0634   2.0866   2.1961   2.2092
     2.2122   2.2369   2.2699   2.2750   2.2891   2.3379   2.3478   2.3483
     2.3530   2.3772   2.4229   2.4646   2.5376   2.5973  11.2290  12.3110
    12.8510  14.0483  14.4274  14.4283  14.5680  14.5910  14.6662  14.6943
    14.7774  14.8211  14.8400  17.1644  17.6873  17.8792  19.6942  19.9531
    20.4799  20.9940  21.6877  21.7438  22.1444  22.7412  23.9289  24.5463
    24.6584  24.8835  25.3545  26.2802  26.4730  26.9803  27.6046  27.9937
    29.2783  29.6196  30.0389  30.4618  30.5322  31.4612  31.6367  31.9680
    32.3725  32.3993  33.0031  33.0082  33.4325  33.6815  34.4815  34.5595

          k = 0.2000-0.4619 0.1808 (  5075 PWs)   bands (ev):

   -97.1164 -97.1024 -97.0935 -97.0651 -97.0462 -97.0384 -64.8635 -64.8574
   -55.9038 -55.8949 -55.8914 -55.8804 -55.8775 -55.8731 -55.8721 -55.8701
   -55.8638 -55.8621 -55.8617 -55.8597 -55.8556 -55.8534 -55.8499 -55.8466
   -55.8420 -55.8392 -29.0501 -29.0452 -29.0288 -29.0261 -29.0178 -29.0121
     1.7706   1.7953   1.8169   1.8500   1.8854   1.9152   1.9298   1.9512
     1.9629   2.0059   2.0295   2.0546   2.0929   2.1103   2.1626   2.1940
     2.2012   2.2307   2.2526   2.2879   2.2920   2.3124   2.3222   2.3689
     2.3710   2.3915   2.4199   2.4794   2.5553   2.5573  11.3613  12.4374
    12.9677  14.0021  14.2680  14.3563  14.5678  14.5800  14.6618  14.7411
    14.7710  14.8224  14.9673  16.8833  17.2355  17.8082  18.8292  19.6778
    20.9444  21.0938  21.8843  22.2264  22.7684  23.0123  23.6726  24.1703
    24.5908  25.1062  25.9926  26.4059  26.8323  27.0909  27.4660  28.0935
    28.2153  29.7284  30.1927  30.5888  30.9675  30.9988  31.6719  32.0553
    32.2319  32.6212  33.2121  33.4496  33.6298  34.0774  34.2401  34.4648

          k = 0.2000-0.4619 0.3616 (  5078 PWs)   bands (ev):

   -97.1137 -97.1115 -97.0968 -97.0677 -97.0539 -97.0323 -64.8657 -64.8569
   -55.8981 -55.8959 -55.8935 -55.8836 -55.8803 -55.8763 -55.8737 -55.8667
   -55.8649 -55.8628 -55.8622 -55.8569 -55.8545 -55.8529 -55.8505 -55.8492
   -55.8429 -55.8393 -29.0532 -29.0450 -29.0295 -29.0261 -29.0195 -29.0114
     1.7743   1.7879   1.8251   1.8806   1.8867   1.8993   1.9207   1.9397
     1.9663   2.0175   2.0550   2.0797   2.1105   2.1379   2.1444   2.1765
     2.1798   2.2241   2.2448   2.2750   2.2855   2.3101   2.3121   2.3650
     2.3786   2.4186   2.4350   2.4582   2.5004   2.5746  11.7459  12.7965
    13.2662  13.7492  14.0293  14.1958  14.5394  14.5803  14.6870  14.7183
    14.7674  14.8710  15.1923  16.0023  16.7400  17.2910  18.2804  19.3685
    20.5962  21.6600  22.1754  22.4510  22.6853  23.9562  24.4131  24.5737
    25.1155  25.4374  25.9691  26.6126  26.7019  27.1683  27.7914  28.1459
    29.0075  29.1447  29.3630  30.0563  30.8497  31.4595  31.7588  32.1710
    32.2644  32.7257  33.2466  33.4270  33.9479  34.1587  34.3213  34.6467

          k = 0.2000-0.4619 0.5424 (  5069 PWs)   bands (ev):

   -97.1076 -97.0979 -97.0680 -97.0604 -97.0562 -97.0384 -64.8602 -64.8564
   -55.8946 -55.8909 -55.8869 -55.8845 -55.8812 -55.8764 -55.8671 -55.8663
   -55.8650 -55.8633 -55.8578 -55.8555 -55.8532 -55.8527 -55.8495 -55.8488
   -55.8452 -55.8443 -29.0441 -29.0413 -29.0249 -29.0233 -29.0200 -29.0165
     1.7743   1.7763   1.8420   1.8648   1.8834   1.8895   1.9263   1.9675
     2.0046   2.0126   2.0626   2.1016   2.1255   2.1362   2.1388   2.1702
     2.1768   2.2233   2.2588   2.2666   2.2708   2.3146   2.3269   2.3359
     2.3476   2.3572   2.4484   2.4653   2.5288   2.5653  12.3530  13.0757
    13.2870  13.5884  13.9010  14.0339  14.5419  14.5854  14.6719  14.6884
    14.7491  14.8180  15.4239  15.6603  16.1251  16.4731  18.6478  19.3570
    20.1093  20.8887  22.6998  23.0178  23.2337  23.7806  24.3812  24.9599
    25.7097  26.1384  26.2719  26.7139  27.2096  27.7010  27.9389  28.2039
    28.7734  29.1702  29.3697  29.7172  30.2886  30.6365  31.0366  31.4352
    32.8919  33.0947  33.4964  33.8363  33.9904  34.3606  34.5697  35.0208

          k = 0.2000-0.2694 0.0000 (  5077 PWs)   bands (ev):

   -97.1175 -97.1132 -97.0776 -97.0686 -97.0541 -97.0396 -64.8639 -64.8581
   -55.9087 -55.8953 -55.8929 -55.8858 -55.8805 -55.8735 -55.8712 -55.8696
   -55.8657 -55.8638 -55.8586 -55.8584 -55.8577 -55.8522 -55.8507 -55.8426
   -55.8410 -55.8355 -29.0490 -29.0474 -29.0288 -29.0234 -29.0205 -29.0143
     1.7292   1.7500   1.7840   1.8096   1.8289   1.8965   1.9210   1.9338
     1.9495   1.9941   2.0016   2.0299   2.0618   2.1314   2.1783   2.1855
     2.2316   2.2367   2.2435   2.2708   2.3066   2.3443   2.3487   2.4053
     2.4221   2.4258   2.4410   2.5371   2.5683   2.6099  10.7047  12.8921
    13.2087  13.8697  14.5047  14.5600  14.5722  14.5892  14.6592  14.7160
    14.7942  15.0608  15.1210  17.0094  17.5653  17.8098  18.8891  19.5341
    20.4358  21.2028  21.2671  21.7354  22.3451  22.8985  23.4703  24.2121
    24.2486  25.0106  25.8593  26.3320  26.7691  27.3703  27.6485  28.5373
    28.5386  28.9513  29.2914  30.7637  31.1947  31.4547  31.7211  31.7506
    32.7025  33.1373  33.1918  33.5669  33.6746  34.0118  34.1546  34.7854

          k = 0.2000-0.2694 0.1808 (  5087 PWs)   bands (ev):

   -97.1279 -97.1121 -97.0963 -97.0674 -97.0562 -97.0531 -64.8682 -64.8589
   -55.9044 -55.8978 -55.8970 -55.8851 -55.8800 -55.8777 -55.8762 -55.8712
   -55.8673 -55.8644 -55.8605 -55.8589 -55.8571 -55.8550 -55.8512 -55.8424
   -55.8404 -55.8381 -29.0574 -29.0493 -29.0326 -29.0248 -29.0194 -29.0136
     1.7356   1.7540   1.7815   1.8278   1.8309   1.8826   1.9148   1.9319
     1.9571   1.9822   2.0183   2.0209   2.0599   2.1257   2.1694   2.2050
     2.2252   2.2379   2.2516   2.2706   2.3112   2.3476   2.3625   2.3720
     2.3749   2.4606   2.4613   2.5446   2.5741   2.5818  10.8416  12.9940
    13.2791  13.8629  14.2817  14.4461  14.5828  14.6024  14.6511  14.8063
    14.8230  15.1030  15.2467  16.5822  17.2303  17.7045  19.0108  19.4588
    20.3913  20.4620  21.3182  21.9995  22.8993  23.0411  23.2296  24.3406
    24.8162  25.3389  25.9302  26.3566  26.8312  26.8744  27.8591  28.4892
    28.9695  29.4923  29.6703  30.5229  31.1326  31.4769  31.8564  32.2804
    32.3574  32.8268  32.9185  33.2820  33.4129  33.6953  34.3332  35.0148

          k = 0.2000-0.2694 0.3616 (  5068 PWs)   bands (ev):

   -97.0997 -97.0944 -97.0840 -97.0709 -97.0491 -97.0287 -64.8642 -64.8524
   -55.8954 -55.8939 -55.8917 -55.8856 -55.8780 -55.8762 -55.8746 -55.8695
   -55.8630 -55.8584 -55.8577 -55.8564 -55.8545 -55.8519 -55.8499 -55.8448
   -55.8417 -55.8386 -29.0514 -29.0345 -29.0273 -29.0244 -29.0186 -29.0131
     1.7501   1.7611   1.7820   1.8277   1.8582   1.8686   1.9275   1.9371
     1.9515   1.9746   2.0084   2.0365   2.0433   2.1021   2.1867   2.2076
     2.2234   2.2390   2.2534   2.2869   2.3091   2.3229   2.3324   2.3779
     2.4279   2.4418   2.4720   2.5163   2.5503   2.5967  11.2481  13.2646
    13.3226  13.7928  14.0325  14.2438  14.5885  14.6240  14.6804  14.8127
    14.8306  15.1238  15.4940  15.8002  17.1255  17.6558  18.2291  19.0631
    19.9416  20.7417  20.9888  21.8659  23.0099  23.6276  24.3132  24.3909
    25.1198  26.0678  26.2114  26.3438  27.0282  27.7317  28.1190  28.7822
    29.2130  29.8651  29.9628  30.5978  30.8239  31.4995  31.8457  32.0436
    32.1644  32.3567  32.8245  33.0898  33.2795  33.4634  33.8207  34.8712

          k = 0.2000-0.2694 0.5424 (  5058 PWs)   bands (ev):

   -97.0922 -97.0800 -97.0648 -97.0566 -97.0525 -97.0343 -64.8582 -64.8527
   -55.8937 -55.8899 -55.8878 -55.8867 -55.8838 -55.8816 -55.8676 -55.8662
   -55.8593 -55.8574 -55.8552 -55.8545 -55.8523 -55.8495 -55.8467 -55.8442
   -55.8423 -55.8408 -29.0429 -29.0370 -29.0219 -29.0199 -29.0186 -29.0145
     1.7619   1.7670   1.8066   1.8362   1.8445   1.8502   1.9081   1.9329
     1.9593   1.9640   2.0157   2.0301   2.0937   2.1689   2.1785   2.1898
     2.2019   2.2336   2.2465   2.2550   2.2981   2.3279   2.3312   2.3375
     2.4224   2.4581   2.5044   2.5216   2.5454   2.5808  11.9045  12.7126
    13.6067  13.8042  13.9780  14.0809  14.6232  14.6668  14.7231  14.7533
    14.7917  14.8448  15.8017  16.0682  16.5554  16.9509  18.3570  19.0763
    19.4607  20.2843  21.2176  21.6313  22.9981  23.4918  24.4769  25.3741
    25.9938  26.2343  26.7833  27.3138  27.8277  28.1100  28.2549  28.2735
    29.2209  29.3867  30.1057  30.5771  30.7346  31.0333  31.1937  31.5429
    32.2478  32.5431  32.8893  33.1147  33.4419  33.6136  34.0365  34.6460

          k = 0.2000-0.0770 0.0000 (  5083 PWs)   bands (ev):

   -97.1206 -97.1067 -97.0789 -97.0735 -97.0604 -97.0508 -64.8657 -64.8585
   -55.9121 -55.8990 -55.8949 -55.8844 -55.8786 -55.8740 -55.8702 -55.8695
   -55.8692 -55.8651 -55.8637 -55.8616 -55.8579 -55.8524 -55.8458 -55.8428
   -55.8395 -55.8357 -29.0566 -29.0518 -29.0288 -29.0230 -29.0182 -29.0125
     1.6912   1.7220   1.7536   1.7636   1.8211   1.8951   1.9002   1.9248
     1.9474   1.9655   1.9890   2.0036   2.0234   2.1585   2.1854   2.1918
     2.2262   2.2413   2.2591   2.2791   2.3112   2.3436   2.3461   2.4283
     2.4463   2.4836   2.5026   2.5592   2.5979   2.6210  10.4366  13.2538
    13.3933  13.7710  14.5730  14.5817  14.6015  14.6105  14.6481  14.7257
    14.7625  15.4361  15.6330  16.7799  17.5516  17.7076  18.4561  18.6782
    19.9796  21.0277  21.3545  22.1947  22.6609  22.7271  23.3527  24.3128
    24.5752  24.7102  25.2001  26.6011  26.7812  26.8559  27.6297  28.2663
    28.6434  29.2704  30.0063  31.1130  31.3302  31.4997  31.7226  31.9912
    32.6720  32.8507  33.0878  33.3608  33.4370  33.7678  34.7725  34.8190

          k = 0.2000-0.0770 0.1808 (  5080 PWs)   bands (ev):

   -97.1115 -97.1091 -97.0777 -97.0635 -97.0614 -97.0550 -64.8655 -64.8572
   -55.9058 -55.8985 -55.8968 -55.8869 -55.8774 -55.8768 -55.8750 -55.8689
   -55.8666 -55.8654 -55.8608 -55.8594 -55.8566 -55.8483 -55.8476 -55.8427
   -55.8399 -55.8358 -29.0572 -29.0483 -29.0254 -29.0229 -29.0190 -29.0137
     1.7008   1.7295   1.7528   1.7613   1.8455   1.8702   1.9061   1.9139
     1.9422   1.9825   1.9939   1.9993   2.0136   2.1020   2.2048   2.2156
     2.2364   2.2509   2.2562   2.2869   2.3161   2.3579   2.3669   2.3842
     2.3939   2.4975   2.5355   2.5679   2.5920   2.6041  10.5753  13.3158
    13.4267  13.7989  14.3453  14.4461  14.6090  14.6376  14.6421  14.8279
    14.8376  15.5072  15.7692  16.3749  17.0108  17.7249  18.7139  19.0965
    19.9999  20.3650  20.7987  21.7958  22.6468  23.3765  23.7050  23.9763
    24.6179  25.1088  25.8532  26.4583  26.5273  27.5791  28.4267  28.7649
    28.9388  29.1411  29.7244  31.0129  31.4300  31.5472  31.7299  32.2778
    32.5716  32.6387  32.9583  33.0865  33.3332  33.5171  34.0673  34.5601

          k = 0.2000-0.0770 0.3616 (  5063 PWs)   bands (ev):

   -97.0923 -97.0862 -97.0757 -97.0670 -97.0481 -97.0302 -64.8629 -64.8502
   -55.8947 -55.8915 -55.8905 -55.8890 -55.8796 -55.8780 -55.8758 -55.8725
   -55.8617 -55.8586 -55.8575 -55.8563 -55.8516 -55.8500 -55.8455 -55.8423
   -55.8391 -55.8363 -29.0495 -29.0342 -29.0278 -29.0209 -29.0176 -29.0115
     1.7257   1.7467   1.7541   1.7803   1.8384   1.8450   1.8893   1.9288
     1.9644   1.9775   1.9831   1.9948   2.0034   2.0799   2.2095   2.2275
     2.2341   2.2478   2.2525   2.3159   2.3205   2.3367   2.3438   2.4065
     2.4272   2.4444   2.5556   2.5617   2.5730   2.6125  10.9862  13.2014
    13.5753  13.8654  14.0769  14.2300  14.6524  14.6684  14.6913  14.8601
    14.8699  15.2324  15.8377  16.1497  17.1289  17.9892  18.4424  18.8740
    19.3011  19.8155  20.4605  21.5771  22.1571  23.2735  23.8063  24.7971
    25.4136  26.2581  26.4790  27.1046  27.6260  27.7894  28.5072  29.0990
    29.4121  29.6810  30.0157  30.8177  31.2963  31.6645  31.7094  31.9486
    32.3182  32.4518  32.4927  32.7266  33.0315  33.1356  33.6578  33.8582

          k = 0.2000-0.0770 0.5424 (  5055 PWs)   bands (ev):

   -97.1001 -97.0798 -97.0760 -97.0668 -97.0306 -97.0132 -64.8573 -64.8519
   -55.8921 -55.8911 -55.8898 -55.8888 -55.8866 -55.8844 -55.8680 -55.8656
   -55.8616 -55.8580 -55.8566 -55.8552 -55.8482 -55.8443 -55.8425 -55.8420
   -55.8407 -55.8374 -29.0399 -29.0330 -29.0223 -29.0212 -29.0197 -29.0144
     1.7537   1.7635   1.7843   1.8018   1.8195   1.8221   1.8626   1.8896
     1.9486   1.9575   1.9695   1.9765   2.1143   2.1643   2.1985   2.2135
     2.2220   2.2288   2.2349   2.2742   2.3171   2.3284   2.3330   2.3409
     2.4820   2.5173   2.5386   2.5583   2.5683   2.5950  11.6638  12.5079
    13.7833  13.9333  13.9540  14.0622  14.7168  14.7403  14.7600  14.8187
    14.8290  14.8386  16.2343  16.6956  16.8982  17.5029  18.1311  18.6543
    19.4415  19.9711  20.0140  20.5054  21.9578  22.3868  25.6997  25.8383
    26.4873  26.6655  27.2678  27.5809  28.0010  28.2098  28.2918  28.6800
    29.0253  29.4136  30.6787  30.8363  31.0671  31.4924  31.8355  31.9004
    32.1201  32.2487  32.3675  32.6614  32.8671  33.1518  33.4247  33.7057

          k = 0.4000 0.2309 0.0000 (  5085 PWs)   bands (ev):

   -97.1150 -97.1138 -97.0988 -97.0796 -97.0513 -97.0469 -64.8670 -64.8591
   -55.9099 -55.8951 -55.8948 -55.8768 -55.8743 -55.8730 -55.8724 -55.8694
   -55.8692 -55.8633 -55.8611 -55.8609 -55.8564 -55.8554 -55.8540 -55.8500
   -55.8446 -55.8391 -29.0562 -29.0469 -29.0291 -29.0276 -29.0186 -29.0159
     1.7234   1.7855   1.8222   1.8519   1.8902   1.8994   1.9110   1.9513
     1.9648   2.0006   2.0156   2.0517   2.0664   2.1381   2.1807   2.1940
     2.2122   2.2317   2.2488   2.2807   2.3055   2.3384   2.3466   2.3621
     2.3647   2.3813   2.4239   2.4330   2.5961   2.6002  11.0856  12.2064
    13.3067  14.0058  14.4733  14.4800  14.5370  14.5704  14.6550  14.7366
    14.8042  14.8525  14.8967  16.5616  17.6911  18.3030  19.4768  19.7639
    20.7203  20.8288  21.6464  22.3511  22.6887  22.9139  23.0244  23.1995
    23.7881  25.5339  25.7025  26.7961  27.2231  27.3067  27.6314  28.6623
    28.7713  29.0956  29.6202  30.0920  30.6910  30.9122  31.7644  32.1451
    32.2903  32.5402  32.6395  33.1546  33.1930  34.5762  34.9511  34.9854

          k = 0.4000 0.2309 0.1808 (  5088 PWs)   bands (ev):

   -97.1149 -97.1017 -97.1000 -97.0842 -97.0602 -97.0564 -64.8669 -64.8607
   -55.9060 -55.8969 -55.8933 -55.8798 -55.8762 -55.8720 -55.8717 -55.8691
   -55.8655 -55.8644 -55.8605 -55.8592 -55.8586 -55.8556 -55.8551 -55.8524
   -55.8476 -55.8409 -29.0546 -29.0476 -29.0285 -29.0279 -29.0199 -29.0190
     1.7301   1.8035   1.8195   1.8328   1.8772   1.9009   1.9319   1.9406
     1.9485   2.0247   2.0395   2.0468   2.0812   2.1374   2.1625   2.2013
     2.2025   2.2096   2.2664   2.2703   2.3023   2.3035   2.3398   2.3634
     2.3886   2.4146   2.4203   2.4405   2.5612   2.6081  11.2168  12.3345
    13.3770  14.0120  14.2237  14.4591  14.5509  14.5858  14.6064  14.7260
    14.7737  14.8772  15.1602  16.4974  16.9660  18.2780  18.5130  20.3008
    20.9255  21.0065  21.3968  21.9816  22.6107  23.0671  23.5176  23.8921
    25.0317  25.1084  25.7998  26.2373  26.9168  27.2962  27.7302  28.5888
    28.9704  29.0673  29.5961  30.5100  31.2680  31.3202  31.6240  31.9509
    32.2386  32.5428  32.7677  32.9675  33.4044  34.3026  34.3327  35.1535

          k = 0.4000 0.2309 0.3616 (  5084 PWs)   bands (ev):

   -97.1163 -97.1001 -97.1001 -97.0736 -97.0719 -97.0355 -64.8667 -64.8584
   -55.9001 -55.8966 -55.8934 -55.8865 -55.8815 -55.8782 -55.8726 -55.8657
   -55.8648 -55.8645 -55.8602 -55.8591 -55.8567 -55.8518 -55.8511 -55.8485
   -55.8448 -55.8409 -29.0549 -29.0432 -29.0294 -29.0243 -29.0215 -29.0193
     1.7457   1.7803   1.8085   1.8734   1.8799   1.9074   1.9262   1.9360
     1.9657   2.0287   2.0445   2.0696   2.0847   2.1159   2.1451   2.1900
     2.2158   2.2354   2.2466   2.2658   2.2658   2.3126   2.3303   2.3749
     2.3970   2.4238   2.4359   2.4510   2.4895   2.6194  11.6128  12.7040
    13.4684  13.8381  14.0250  14.2911  14.5250  14.5635  14.6410  14.7050
    14.8195  14.8401  15.6542  15.8525  16.4210  17.6051  17.9212  19.6423
    20.5901  20.9305  22.0749  22.7251  23.0520  23.5791  23.6902  24.8657
    25.4049  25.4070  25.5344  26.4421  26.9055  27.4157  27.7735  28.5380
    29.0830  29.2070  29.6927  30.8774  31.3865  31.7619  31.7807  31.9398
    32.0768  32.5159  32.6390  32.6680  33.2294  33.2368  34.7869  34.8672

          k = 0.4000 0.2309 0.5424 (  5068 PWs)   bands (ev):

   -97.1048 -97.0859 -97.0839 -97.0727 -97.0556 -97.0214 -64.8608 -64.8552
   -55.8927 -55.8926 -55.8890 -55.8840 -55.8822 -55.8747 -55.8697 -55.8652
   -55.8640 -55.8627 -55.8602 -55.8598 -55.8565 -55.8520 -55.8487 -55.8468
   -55.8413 -55.8400 -29.0445 -29.0402 -29.0269 -29.0213 -29.0212 -29.0153
     1.7586   1.7655   1.8230   1.8537   1.8713   1.8884   1.9340   1.9801
     2.0042   2.0287   2.0527   2.0762   2.0785   2.1238   2.1368   2.2018
     2.2131   2.2239   2.2351   2.2598   2.2801   2.3062   2.3317   2.3436
     2.3825   2.4124   2.4221   2.4238   2.5514   2.6019  12.2378  12.9829
    13.2179  13.6171  14.0610  14.1478  14.5475  14.6042  14.6116  14.6619
    14.7729  14.8021  15.5183  15.8055  16.3267  17.1419  17.7292  18.4750
    21.0216  21.5336  21.9080  22.1337  23.9630  23.9770  24.1781  24.7691
    25.0675  25.2003  26.1746  27.2542  27.6446  28.1291  28.4123  28.6472
    29.0147  29.1174  29.6149  29.6736  30.7210  31.2724  31.5802  31.8558
    31.9821  32.2685  32.4628  32.5439  33.9769  34.4632  34.8093  35.0693

          k = 0.4000 0.4234 0.0000 (  5078 PWs)   bands (ev):

   -97.1181 -97.1037 -97.0935 -97.0675 -97.0526 -97.0428 -64.8627 -64.8603
   -55.9046 -55.8938 -55.8908 -55.8800 -55.8766 -55.8720 -55.8708 -55.8706
   -55.8650 -55.8632 -55.8626 -55.8609 -55.8543 -55.8526 -55.8517 -55.8473
   -55.8455 -55.8417 -29.0502 -29.0468 -29.0299 -29.0223 -29.0199 -29.0159
     1.7603   1.7679   1.8597   1.8742   1.9129   1.9246   1.9412   1.9468
     1.9620   2.0031   2.0254   2.0298   2.0431   2.1041   2.1864   2.1923
     2.2240   2.2348   2.2755   2.2837   2.3176   2.3191   2.3333   2.3454
     2.3514   2.3781   2.4052   2.4185   2.5543   2.5954  11.4361  11.9895
    12.9247  14.1029  14.3832  14.4212  14.5779  14.5868  14.6740  14.6956
    14.7021  14.8225  14.8317  16.9977  17.6733  18.0819  19.8759  20.0775
    20.4650  21.0019  21.2310  21.8854  22.2466  23.4391  23.8109  24.1052
    24.5067  24.5477  25.6258  26.3532  26.6043  26.8379  27.6357  28.1965
    29.5561  29.6107  30.1323  30.1564  30.9833  31.1966  31.2925  31.8391
    32.3479  32.3927  32.7100  32.7202  33.4697  33.4881  34.7727  35.3043

          k = 0.4000 0.4234 0.1808 (  5071 PWs)   bands (ev):

   -97.1025 -97.1009 -97.0878 -97.0695 -97.0435 -97.0421 -64.8616 -64.8574
   -55.9026 -55.8938 -55.8886 -55.8801 -55.8795 -55.8708 -55.8701 -55.8669
   -55.8644 -55.8620 -55.8612 -55.8599 -55.8544 -55.8520 -55.8496 -55.8464
   -55.8463 -55.8406 -29.0471 -29.0424 -29.0330 -29.0214 -29.0181 -29.0130
     1.7639   1.7962   1.8357   1.8612   1.8987   1.9172   1.9370   1.9420
     1.9608   2.0198   2.0507   2.0631   2.0799   2.0995   2.1697   2.1852
     2.2055   2.2179   2.2591   2.2859   2.3034   2.3098   2.3145   2.3577
     2.3701   2.3948   2.4129   2.4318   2.5550   2.5699  11.5609  12.1286
    13.0370  14.0664  14.2202  14.3631  14.5680  14.6051  14.6310  14.6826
    14.7556  14.8137  14.9717  16.9397  17.0374  17.9767  18.6432  20.1320
    20.9919  21.0459  21.6768  22.2567  22.7480  23.6535  23.7597  23.9671
    24.3041  24.9600  25.7342  26.5427  26.6190  27.3003  27.5918  28.1767
    28.7909  29.3091  29.5519  30.7557  30.8373  31.4657  31.7679  31.9885
    32.2963  32.6464  32.8478  32.9664  33.6395  33.9212  34.3217  34.8471

          k = 0.4000 0.4234 0.3616 (  5075 PWs)   bands (ev):

   -97.1054 -97.1012 -97.0895 -97.0686 -97.0523 -97.0435 -64.8626 -64.8581
   -55.8987 -55.8946 -55.8924 -55.8818 -55.8805 -55.8735 -55.8701 -55.8654
   -55.8640 -55.8635 -55.8612 -55.8575 -55.8549 -55.8542 -55.8514 -55.8493
   -55.8437 -55.8407 -29.0501 -29.0455 -29.0298 -29.0240 -29.0198 -29.0108
     1.7702   1.7915   1.8328   1.8919   1.8973   1.9010   1.9257   1.9310
     1.9713   2.0536   2.0673   2.0876   2.1137   2.1208   2.1321   2.1793
     2.1890   2.2086   2.2363   2.2657   2.3017   2.3084   2.3169   2.3384
     2.3815   2.4109   2.4274   2.4473   2.4784   2.5864  11.9292  12.5249
    13.3222  13.8203  13.9769  14.2107  14.5405  14.5784  14.6580  14.6790
    14.7751  14.8099  15.2365  16.1175  16.4675  17.3932  18.0502  19.7227
    20.7033  21.4704  22.3234  22.8276  23.0761  23.5457  24.1679  24.7848
    25.0551  25.1569  26.1780  26.2804  26.9603  27.5456  27.8360  28.0539
    28.3390  28.6882  29.5135  30.5303  30.7099  31.5569  31.9846  32.0626
    32.3274  32.7141  32.8801  33.3714  33.9863  34.0241  34.4629  34.7710

          k = 0.4000 0.4234 0.5424 (  5077 PWs)   bands (ev):

   -97.1145 -97.1122 -97.0726 -97.0655 -97.0611 -97.0402 -64.8620 -64.8592
   -55.8953 -55.8914 -55.8883 -55.8847 -55.8828 -55.8762 -55.8693 -55.8681
   -55.8662 -55.8641 -55.8609 -55.8583 -55.8558 -55.8538 -55.8491 -55.8467
   -55.8462 -55.8448 -29.0475 -29.0468 -29.0269 -29.0244 -29.0195 -29.0174
     1.7728   1.7752   1.8456   1.8656   1.8892   1.8997   1.9305   1.9747
     2.0278   2.0484   2.0620   2.0891   2.1114   2.1338   2.1424   2.1746
     2.1839   2.2184   2.2504   2.2676   2.2802   2.3052   2.3271   2.3293
     2.3345   2.3537   2.4222   2.4376   2.5327   2.5749  12.5058  13.0900
    13.1950  13.5101  13.9044  14.0547  14.5385  14.5926  14.6191  14.6624
    14.7508  14.7942  15.4293  15.5881  16.0472  16.5550  18.4168  19.1811
    20.6108  21.3561  22.5521  23.0490  23.4005  23.7588  24.5460  24.9287
    25.4557  25.8337  26.4630  26.7762  26.9676  27.6023  28.0743  28.2031
    28.4569  29.1785  29.3020  29.6895  30.3161  30.8276  30.9378  31.5468
    32.7942  32.8317  33.5128  33.7608  33.8011  34.7270  34.8866  35.2129

          k = 0.4000 0.6158 0.0000 (  5071 PWs)   bands (ev):

   -97.1286 -97.1093 -97.0924 -97.0517 -97.0380 -97.0260 -64.8605 -64.8584
   -55.9040 -55.8950 -55.8909 -55.8791 -55.8756 -55.8734 -55.8730 -55.8700
   -55.8678 -55.8627 -55.8615 -55.8590 -55.8512 -55.8509 -55.8483 -55.8456
   -55.8409 -55.8381 -29.0501 -29.0465 -29.0284 -29.0208 -29.0178 -29.0101
     1.7611   1.8020   1.8469   1.8806   1.9165   1.9200   1.9324   1.9760
     1.9841   2.0026   2.0162   2.0234   2.0518   2.0613   2.1740   2.1858
     2.2226   2.2318   2.2773   2.2960   2.3208   2.3245   2.3346   2.3494
     2.3520   2.3841   2.4072   2.4437   2.4982   2.5940  11.5198  12.1787
    12.5382  14.1533  14.3117  14.4028  14.6137  14.6156  14.6675  14.6700
    14.6954  14.7976  14.8293  17.4087  17.6771  17.7927  20.1227  20.1893
    20.5478  20.7583  20.9324  21.2648  22.8772  23.4429  24.2093  24.4592
    25.0113  25.1572  25.2885  25.9518  26.0324  26.1346  26.7616  28.8558
    29.7292  30.0270  30.2586  30.7144  30.9170  31.3621  31.4579  31.7513
    31.8413  32.1267  32.3299  32.5189  33.8266  34.1856  34.6301  34.6694

          k = 0.4000 0.6158 0.1808 (  5066 PWs)   bands (ev):

   -97.1034 -97.0992 -97.0927 -97.0591 -97.0374 -97.0320 -64.8599 -64.8564
   -55.9036 -55.8922 -55.8907 -55.8777 -55.8755 -55.8714 -55.8683 -55.8665
   -55.8658 -55.8607 -55.8600 -55.8593 -55.8551 -55.8522 -55.8486 -55.8465
   -55.8432 -55.8402 -29.0441 -29.0421 -29.0302 -29.0220 -29.0181 -29.0109
     1.7913   1.8000   1.8297   1.8738   1.9031   1.9142   1.9306   1.9490
     1.9577   2.0269   2.0559   2.0634   2.0724   2.0916   2.1623   2.1682
     2.2055   2.2224   2.2505   2.2923   2.2981   2.3154   2.3407   2.3471
     2.3754   2.3884   2.4002   2.4689   2.5209   2.5532  11.6424  12.3136
    12.6664  14.0981  14.2267  14.2843  14.6021  14.6166  14.6690  14.6923
    14.7339  14.7755  14.9106  17.0507  17.3212  17.6619  19.0442  19.6003
    20.6536  21.1032  22.2444  22.3539  22.9760  23.3007  24.0224  24.1427
    24.5391  24.8592  25.6940  26.1091  26.6000  26.9198  27.5780  28.1249
    28.8182  29.6407  29.8605  30.5540  30.7882  31.0837  31.6572  32.0087
    32.3816  32.6253  33.0495  33.5105  33.8534  34.0610  34.2238  34.5808

          k = 0.4000 0.6158 0.3616 (  5090 PWs)   bands (ev):

   -97.1236 -97.1193 -97.1008 -97.0727 -97.0686 -97.0471 -64.8662 -64.8633
   -55.9000 -55.8965 -55.8955 -55.8844 -55.8828 -55.8765 -55.8714 -55.8698
   -55.8683 -55.8643 -55.8619 -55.8593 -55.8574 -55.8536 -55.8525 -55.8501
   -55.8443 -55.8422 -29.0535 -29.0516 -29.0341 -29.0260 -29.0221 -29.0146
     1.7900   1.7967   1.8429   1.9000   1.9023   1.9047   1.9136   1.9289
     1.9564   2.0546   2.0747   2.0850   2.1178   2.1298   2.1400   2.1718
     2.1793   2.1989   2.2361   2.2698   2.2857   2.3163   2.3223   2.3421
     2.3836   2.4081   2.4156   2.4450   2.5017   2.5462  12.0019  12.6945
    13.0211  13.8441  13.9974  14.1060  14.5538  14.6207  14.6832  14.7135
    14.7329  14.8119  15.0714  16.1607  16.6807  17.0020  18.6362  19.2614
    21.0486  21.4678  22.0974  22.5630  23.4910  23.8935  24.0817  24.8983
    25.1161  25.1949  26.0845  26.4534  26.9137  27.0509  27.5793  28.2030
    28.5926  29.0662  29.1650  29.7973  30.2157  31.4814  31.8887  32.1909
    32.3345  33.2327  33.6116  33.7259  34.2067  34.3733  34.5143  34.6663

          k = 0.4000 0.6158 0.5424 (  5076 PWs)   bands (ev):

   -97.1181 -97.1010 -97.0712 -97.0655 -97.0607 -97.0444 -64.8620 -64.8585
   -55.8957 -55.8898 -55.8862 -55.8828 -55.8806 -55.8764 -55.8699 -55.8666
   -55.8655 -55.8644 -55.8583 -55.8570 -55.8556 -55.8536 -55.8528 -55.8523
   -55.8472 -55.8446 -29.0459 -29.0426 -29.0303 -29.0236 -29.0212 -29.0169
     1.7817   1.7821   1.8638   1.8725   1.8954   1.9074   1.9209   1.9539
     2.0335   2.0362   2.0652   2.0903   2.1170   2.1498   2.1587   2.1682
     2.1730   2.2108   2.2532   2.2693   2.2810   2.3084   2.3097   2.3218
     2.3308   2.3571   2.4337   2.4438   2.5248   2.5455  12.5671  13.2265
    13.2390  13.4522  13.8096  13.9252  14.5483  14.6033  14.6643  14.7083
    14.7201  14.7872  15.2867  15.5941  16.0457  16.2218  19.0412  19.4800
    20.4746  20.9476  22.0411  22.8382  24.0006  24.2763  24.7436  25.3182
    25.8110  26.0789  26.2952  26.4828  26.6735  27.0206  27.9507  28.1454
    28.5331  28.8125  29.2334  29.7429  29.9526  30.2418  31.2151  31.4640
    33.3399  33.4943  33.6243  34.2724  34.3810  34.4777  34.7432  35.0180

          k = 0.4000-0.3464 0.0000 (  5079 PWs)   bands (ev):

   -97.1206 -97.1028 -97.0972 -97.0691 -97.0503 -97.0418 -64.8635 -64.8598
   -55.9037 -55.8953 -55.8914 -55.8832 -55.8768 -55.8724 -55.8714 -55.8697
   -55.8657 -55.8624 -55.8601 -55.8601 -55.8569 -55.8531 -55.8523 -55.8468
   -55.8457 -55.8397 -29.0508 -29.0471 -29.0333 -29.0228 -29.0172 -29.0152
     1.7390   1.7754   1.8417   1.8716   1.9074   1.9080   1.9460   1.9586
     1.9602   1.9762   2.0219   2.0445   2.0519   2.1240   2.1883   2.2140
     2.2179   2.2419   2.2613   2.2674   2.3029   2.3204   2.3406   2.3442
     2.3611   2.3757   2.4052   2.4261   2.5806   2.5972  11.3028  12.0136
    13.1531  14.0637  14.4376  14.4429  14.5534  14.5702  14.6620  14.7227
    14.7363  14.8145  14.8597  16.7368  17.6824  18.2293  19.8005  19.8260
    20.5468  20.9946  21.6711  22.1148  22.3135  22.9028  23.4687  23.6540
    24.1225  24.9478  25.6701  26.8267  26.9717  27.2481  27.6056  28.3638
    29.1364  29.3280  29.7308  30.2367  30.7235  31.1017  31.4381  32.0684
    32.2601  32.3968  32.7690  32.9416  33.1486  34.0443  34.8823  35.2438

          k = 0.4000-0.3464 0.1808 (  5074 PWs)   bands (ev):

   -97.1035 -97.0977 -97.0906 -97.0694 -97.0517 -97.0441 -64.8616 -64.8587
   -55.9040 -55.8937 -55.8890 -55.8784 -55.8773 -55.8712 -55.8701 -55.8686
   -55.8638 -55.8629 -55.8624 -55.8601 -55.8550 -55.8531 -55.8519 -55.8470
   -55.8463 -55.8403 -29.0468 -29.0439 -29.0272 -29.0257 -29.0182 -29.0169
     1.7446   1.8017   1.8277   1.8488   1.8899   1.9182   1.9360   1.9415
     1.9609   2.0201   2.0424   2.0531   2.0850   2.1168   2.1710   2.1972
     2.2019   2.2302   2.2536   2.2798   2.2915   2.3013   2.3236   2.3623
     2.3762   2.4023   2.4109   2.4300   2.5572   2.5942  11.4312  12.1505
    13.2472  14.0446  14.2268  14.4164  14.5532  14.5801  14.6158  14.6914
    14.7628  14.8414  15.0480  16.6893  17.0107  18.1582  18.5048  20.3798
    20.9702  21.1681  21.5631  22.0917  22.3975  23.4373  23.6764  23.8843
    24.7904  24.8708  25.7131  26.6237  26.7614  27.0410  28.1680  28.4406
    28.5680  28.9832  29.6816  30.5522  30.9844  31.4820  31.8961  31.9981
    32.2375  32.6005  32.6459  32.9786  33.3051  34.0666  34.4345  35.0413

          k = 0.4000-0.3464 0.3616 (  5081 PWs)   bands (ev):

   -97.1161 -97.1086 -97.0902 -97.0728 -97.0571 -97.0405 -64.8651 -64.8585
   -55.9001 -55.8949 -55.8932 -55.8832 -55.8804 -55.8763 -55.8721 -55.8662
   -55.8655 -55.8650 -55.8633 -55.8574 -55.8563 -55.8528 -55.8507 -55.8484
   -55.8448 -55.8400 -29.0530 -29.0442 -29.0308 -29.0221 -29.0213 -29.0168
     1.7566   1.7858   1.8216   1.8853   1.8905   1.9076   1.9269   1.9308
     1.9783   2.0440   2.0667   2.0768   2.1035   2.1219   2.1277   2.1827
     2.2034   2.2237   2.2388   2.2656   2.2763   2.3134   2.3221   2.3562
     2.3813   2.4114   2.4303   2.4484   2.4794   2.6073  11.8112  12.5388
    13.4535  13.7996  14.0162  14.2659  14.5254  14.5526  14.6402  14.6790
    14.7986  14.8132  15.4165  16.0298  16.3953  17.6714  17.7429  19.8065
    20.4763  21.8285  21.8918  22.7331  23.2150  23.2854  24.3175  24.6209
    24.9833  25.2963  25.7789  26.5427  27.0574  27.5134  27.6628  28.3444
    28.5138  28.8130  29.6669  30.8481  31.1691  31.6131  31.9779  32.0742
    32.2759  32.3974  32.5163  33.0308  33.5221  33.6367  34.6698  34.7813

          k = 0.4000-0.3464 0.5424 (  5079 PWs)   bands (ev):

   -97.1204 -97.0998 -97.0801 -97.0679 -97.0662 -97.0409 -64.8613 -64.8610
   -55.8948 -55.8914 -55.8886 -55.8844 -55.8842 -55.8750 -55.8702 -55.8692
   -55.8664 -55.8630 -55.8617 -55.8588 -55.8580 -55.8553 -55.8482 -55.8465
   -55.8458 -55.8447 -29.0459 -29.0454 -29.0271 -29.0262 -29.0206 -29.0199
     1.7649   1.7695   1.8337   1.8596   1.8812   1.8972   1.9356   1.9841
     2.0210   2.0455   2.0607   2.0948   2.1083   2.1136   2.1218   2.1845
     2.2021   2.2211   2.2471   2.2693   2.2729   2.3003   2.3352   2.3374
     2.3506   2.3670   2.4164   2.4299   2.5436   2.5919  12.4066  13.0881
    13.1213  13.5347  14.0108  14.1218  14.5306  14.5782  14.6088  14.6482
    14.7644  14.7949  15.4998  15.6436  16.1546  16.8447  18.0157  18.7920
    20.8353  21.6270  22.4508  23.0100  23.1874  23.8210  24.4313  24.5313
    25.2470  25.6267  26.3044  27.1039  27.1611  27.9750  28.1402  28.4116
    28.7445  29.2150  29.4059  29.6300  30.7717  30.9031  31.2544  31.6009
    32.2878  32.3566  33.0702  33.2395  33.8717  34.6157  34.8627  35.2671

          k = 0.4000-0.1540 0.0000 (  5078 PWs)   bands (ev):

   -97.1214 -97.1035 -97.0864 -97.0737 -97.0475 -97.0430 -64.8647 -64.8579
   -55.9057 -55.8941 -55.8926 -55.8824 -55.8755 -55.8730 -55.8704 -55.8699
   -55.8679 -55.8623 -55.8605 -55.8594 -55.8552 -55.8539 -55.8508 -55.8481
   -55.8430 -55.8401 -29.0494 -29.0457 -29.0289 -29.0276 -29.0177 -29.0153
[...]
     3.2917   3.3698   3.4041   3.4135   3.4254   3.4459   3.5238   3.5331
     3.5788   3.5992   3.6323   3.6774   3.6843   3.7067   3.7326   3.7434
     3.7750   3.7887   3.8004   3.8839   3.9453   3.9789  12.6318  13.3531
    13.7340  15.2987  15.4389  15.4991  15.8633  15.8780  15.9388  15.9744
    16.0162  16.0661  16.2117  18.4137  18.7625  19.1203  20.2888  20.8716
    21.9295  22.4417  23.6459  23.7463  24.3944  24.7426  25.4685  25.5857
    26.0237  26.3749  27.1655  27.6083  28.1278  28.4663  29.1402  29.7456
    30.4650  31.2717  31.4356  32.0317  32.2580  32.5834  33.2177  33.5460
    33.9019  34.1331  34.5277  35.0125  35.3634  35.5010  35.6466  36.0656

          k = 0.4066 0.6260 0.3668 (  4845 PWs)   bands (ev):

   -95.6745 -95.6702 -95.6595 -95.6512 -95.6416 -95.6307 -63.4852 -63.4801
   -54.4846 -54.4808 -54.4788 -54.4686 -54.4658 -54.4607 -54.4549 -54.4516
   -54.4496 -54.4492 -54.4471 -54.4455 -54.4409 -54.4362 -54.4344 -54.4341
   -54.4330 -54.4279 -27.6854 -27.6809 -27.6641 -27.6619 -27.6598 -27.6557
     3.0987   3.1068   3.1574   3.2242   3.2277   3.2319   3.2382   3.2604
     3.2886   3.4024   3.4233   3.4359   3.4755   3.4922   3.5031   3.5374
     3.5503   3.5729   3.6169   3.6521   3.6718   3.7039   3.7102   3.7365
     3.7856   3.8124   3.8226   3.8533   3.9234   3.9759  13.0166  13.7646
    14.1193  14.9971  15.1881  15.3128  15.8111  15.8834  15.9562  15.9852
    16.0227  16.0975  16.3750  17.4863  18.0192  18.3602  19.9407  20.6013
    22.3732  22.8219  23.5088  24.0137  24.9710  25.2975  25.5713  26.3834
    26.6385  26.6771  27.5922  27.9660  28.4735  28.6005  29.1822  29.8262
    30.2136  30.5727  30.7764  31.2923  31.7014  32.9240  33.3361  33.7486
    33.8837  34.6832  35.0919  35.2056  35.6908  35.8858  36.0544  36.1649

          k = 0.4066 0.6260 0.5501 (  4831 PWs)   bands (ev):

   -95.6776 -95.6679 -95.6378 -95.6334 -95.6295 -95.6226 -63.4798 -63.4784
   -54.4759 -54.4752 -54.4734 -54.4693 -54.4680 -54.4638 -54.4555 -54.4529
   -54.4502 -54.4475 -54.4419 -54.4405 -54.4375 -54.4359 -54.4353 -54.4335
   -54.4288 -54.4278 -27.6774 -27.6768 -27.6609 -27.6595 -27.6586 -27.6550
     3.0897   3.0902   3.1824   3.1927   3.2172   3.2313   3.2465   3.2857
     3.3745   3.3837   3.4158   3.4446   3.4736   3.5151   3.5256   3.5370
     3.5416   3.5868   3.6329   3.6524   3.6660   3.6943   3.6957   3.7102
     3.7229   3.7541   3.8435   3.8554   3.9507   3.9752  13.6142  14.3317
    14.3391  14.5913  14.9644  15.1034  15.8052  15.8666  15.9329  15.9713
    16.0127  16.0722  16.5984  16.9111  17.3218  17.5074  20.4156  20.9305
    21.7474  22.2953  23.3916  24.2409  25.5206  25.8105  26.2846  26.8774
    27.3250  27.5983  27.8566  28.0449  28.2179  28.6018  29.4778  29.6907
    30.0396  30.3515  30.7294  31.2685  31.4704  31.7249  32.7245  32.9775
    34.7853  34.9900  35.1504  35.7555  35.8690  35.9726  36.2772  36.4941

          k = 0.4066-0.3521 0.0000 (  4848 PWs)   bands (ev):

   -95.6824 -95.6710 -95.6704 -95.6508 -95.6415 -95.6328 -63.4862 -63.4817
   -54.4913 -54.4815 -54.4790 -54.4645 -54.4617 -54.4609 -54.4583 -54.4572
   -54.4507 -54.4490 -54.4480 -54.4477 -54.4447 -54.4423 -54.4396 -54.4348
   -54.4246 -54.4183 -27.6912 -27.6868 -27.6679 -27.6601 -27.6570 -27.6516
     3.0378   3.0843   3.1568   3.1897   3.2298   3.2367   3.2823   3.2860
     3.2993   3.3137   3.3610   3.3979   3.3982   3.4838   3.5565   3.5870
     3.5911   3.6226   3.6460   3.6500   3.6907   3.7112   3.7340   3.7398
     3.7607   3.7729   3.8063   3.8297   4.0158   4.0306  12.2809  13.0401
    14.2589  15.2590  15.6757  15.6768  15.8171  15.8177  15.9283  15.9955
    16.0131  16.1212  16.1625  18.1124  19.1142  19.7376  21.0470  21.1679
    21.7958  22.3556  23.0222  23.4700  23.6666  24.2961  24.8831  25.1300
    25.5287  26.4681  27.2052  28.3886  28.5217  28.7903  29.2146  29.9601
    30.6984  30.9760  31.3575  31.6261  32.1359  32.5770  33.1702  33.5611
    33.6955  33.7560  34.2340  34.3670  34.8147  35.6539  36.3282  36.8460

          k = 0.4066-0.3521 0.1834 (  4849 PWs)   bands (ev):

   -95.6839 -95.6702 -95.6684 -95.6570 -95.6425 -95.6309 -63.4860 -63.4824
   -54.4897 -54.4830 -54.4801 -54.4668 -54.4634 -54.4609 -54.4578 -54.4557
   -54.4524 -54.4508 -54.4479 -54.4457 -54.4443 -54.4404 -54.4393 -54.4340
   -54.4230 -54.4208 -27.6911 -27.6893 -27.6677 -27.6606 -27.6550 -27.6524
     3.0447   3.1119   3.1429   3.1668   3.2113   3.2459   3.2684   3.2702
     3.2917   3.3657   3.3911   3.3997   3.4383   3.4757   3.5343   3.5670
     3.5744   3.6103   3.6360   3.6655   3.6762   3.6888   3.7165   3.7593
     3.7762   3.8055   3.8137   3.8366   3.9837   4.0312  12.4172  13.1827
    14.3646  15.2391  15.4338  15.6610  15.8019  15.8365  15.8773  15.9676
    16.0512  16.1426  16.3435  18.0775  18.3674  19.6554  19.7391  21.7034
    22.2953  22.4895  22.8998  23.4921  23.7995  24.8619  25.1129  25.2795
    26.2849  26.3706  27.2219  28.1855  28.3131  28.5781  29.7684  30.0514
    30.1405  30.5281  31.3487  32.0624  32.3997  32.9510  33.3805  33.5187
    33.6784  34.0232  34.1903  34.5498  34.8831  35.6121  35.9689  36.5401

          k = 0.4066-0.3521 0.3668 (  4844 PWs)   bands (ev):

   -95.6709 -95.6624 -95.6556 -95.6526 -95.6449 -95.6412 -63.4839 -63.4814
   -54.4877 -54.4824 -54.4784 -54.4698 -54.4638 -54.4629 -54.4543 -54.4540
   -54.4499 -54.4487 -54.4472 -54.4438 -54.4413 -54.4396 -54.4369 -54.4341
   -54.4276 -54.4216 -27.6891 -27.6855 -27.6656 -27.6590 -27.6551 -27.6539
     3.0594   3.0937   3.1333   3.2070   3.2148   3.2338   3.2533   3.2612
     3.3109   3.3905   3.4158   3.4286   3.4597   3.4826   3.4868   3.5486
     3.5765   3.6014   3.6203   3.6478   3.6602   3.7030   3.7170   3.7494
     3.7829   3.8148   3.8391   3.8582   3.8960   4.0472  12.8147  13.5963
    14.5968  14.9484  15.2140  15.5004  15.7698  15.8047  15.9014  15.9498
    16.0929  16.1057  16.7256  17.3457  17.7467  18.9445  19.1120  21.1591
    21.7557  23.2305  23.3061  24.1682  24.6569  24.7289  25.7817  26.0743
    26.4558  26.7851  27.2928  28.0813  28.6502  29.0617  29.2240  29.9198
    30.0623  30.4187  31.2879  32.3456  32.6880  33.0507  33.4755  33.6257
    33.6860  33.8694  34.0499  34.5155  35.0359  35.2161  36.1201  36.3046

          k = 0.4066-0.3521 0.5501 (  4825 PWs)   bands (ev):

   -95.6661 -95.6458 -95.6426 -95.6374 -95.6305 -95.6194 -63.4796 -63.4754
   -54.4781 -54.4761 -54.4711 -54.4704 -54.4688 -54.4649 -54.4528 -54.4512
   -54.4466 -54.4456 -54.4428 -54.4417 -54.4376 -54.4349 -54.4341 -54.4321
   -54.4272 -54.4248 -27.6809 -27.6759 -27.6588 -27.6564 -27.6557 -27.6530
     3.0702   3.0758   3.1474   3.1783   3.2009   3.2191   3.2629   3.3191
     3.3602   3.3907   3.4135   3.4505   3.4661   3.4715   3.4805   3.5581
     3.5744   3.5970   3.6263   3.6518   3.6548   3.6899   3.7288   3.7304
     3.7455   3.7648   3.8221   3.8388   3.9724   4.0294  13.4458  14.1719
    14.2225  14.6801  15.2088  15.3411  15.7739  15.8295  15.8676  15.9120
    16.0601  16.0862  16.8039  16.9526  17.4578  18.1920  19.2727  20.0959
    22.1996  23.0400  23.9168  24.4791  24.6225  25.2732  25.9323  26.0019
    26.7156  27.1759  27.8592  28.6600  28.7554  29.5245  29.6722  29.9812
    30.3321  30.7850  30.9522  31.1559  32.2449  32.4379  32.7089  33.1388
    33.7421  33.8220  34.5562  34.7433  35.3479  36.0848  36.3812  36.7871

          k = 0.4066-0.1565 0.0000 (  4847 PWs)   bands (ev):

   -95.6951 -95.6764 -95.6747 -95.6603 -95.6316 -95.6037 -63.4859 -63.4810
   -54.4901 -54.4845 -54.4793 -54.4650 -54.4628 -54.4612 -54.4608 -54.4552
   -54.4529 -54.4519 -54.4486 -54.4484 -54.4468 -54.4412 -54.4346 -54.4287
   -54.4200 -54.4188 -27.6939 -27.6883 -27.6638 -27.6583 -27.6569 -27.6512
     3.0225   3.0947   3.1325   3.1357   3.2091   3.2167   3.2237   3.2809
     3.3185   3.3354   3.3493   3.3985   3.4255   3.4805   3.5525   3.5689
     3.5728   3.6114   3.6288   3.6655   3.6914   3.7348   3.7584   3.7656
     3.7815   3.7848   3.8409   3.8636   4.0250   4.0366  11.9483  13.4364
    14.3837  15.1610  15.7153  15.7410  15.8181  15.8185  15.9215  16.0205
    16.1090  16.1834  16.2177  18.0378  19.1434  19.6704  20.4954  21.1304
    21.9034  22.3576  22.8141  23.5690  23.8847  24.0949  24.5323  25.2255
    25.3798  26.6552  27.6945  28.2164  28.5849  28.6097  29.3258  30.1245
    30.2349  30.7375  31.3245  31.6091  32.0171  32.4235  33.4063  33.4880
    34.2073  34.2330  34.3628  34.6409  34.6536  35.7094  36.3869  36.5175

          k = 0.4066-0.1565 0.1834 (  4847 PWs)   bands (ev):

   -95.6872 -95.6740 -95.6565 -95.6539 -95.6425 -95.6312 -63.4870 -63.4805
   -54.4901 -54.4818 -54.4799 -54.4665 -54.4652 -54.4610 -54.4585 -54.4539
   -54.4533 -54.4500 -54.4483 -54.4464 -54.4454 -54.4423 -54.4340 -54.4302
   -54.4247 -54.4198 -27.6903 -27.6870 -27.6660 -27.6607 -27.6576 -27.6516
     3.0304   3.1034   3.1296   3.1414   3.1906   3.2080   3.2521   3.2637
     3.2972   3.3539   3.3787   3.3849   3.4362   3.5058   3.5133   3.5748
     3.5779   3.5886   3.6444   3.6571   3.6944   3.7037   3.7425   3.7653
     3.7847   3.8254   3.8475   3.8760   3.9915   4.0395  12.0864  13.5704
    14.4681  15.1612  15.4470  15.6981  15.8161  15.8425  15.8993  16.0478
    16.0764  16.1956  16.4521  17.9462  18.3040  19.6760  19.9027  21.3470
    22.0190  22.2001  22.9245  23.4262  24.1318  24.2451  25.0921  25.3575
    26.1061  26.9226  27.5971  27.8423  28.3560  28.7635  29.0897  30.0088
    30.5989  30.8547  31.1919  32.0713  32.6521  33.0273  33.2000  33.3173
    33.5675  34.1018  34.2083  34.5856  35.1646  35.8082  36.2446  36.3777

          k = 0.4066-0.1565 0.3668 (  4838 PWs)   bands (ev):

   -95.6751 -95.6661 -95.6534 -95.6486 -95.6347 -95.6248 -63.4833 -63.4791
   -54.4852 -54.4812 -54.4786 -54.4685 -54.4648 -54.4637 -54.4566 -54.4522
   -54.4502 -54.4483 -54.4457 -54.4432 -54.4413 -54.4385 -54.4334 -54.4310
   -54.4270 -54.4212 -27.6894 -27.6801 -27.6612 -27.6606 -27.6557 -27.6528
     3.0488   3.0851   3.1129   3.1828   3.1951   3.2164   3.2602   3.2746
     3.2819   3.3511   3.3803   3.4066   3.4296   3.4735   3.5236   3.5649
     3.5830   3.6163   3.6335   3.6497   3.6663   3.7026   3.7267   3.7756
     3.8112   3.8339   3.8612   3.8838   3.9132   4.0541  12.5053  13.9432
    14.5644  14.9859  15.2179  15.5094  15.7907  15.8370  15.9327  16.0147
    16.1235  16.1659  16.8712  17.1423  17.9664  18.9464  19.3052  21.0510
    21.3211  22.4746  23.1753  24.0135  24.6497  24.7297  25.4148  26.2249
    26.9123  27.0149  27.3978  27.7067  28.5215  29.0401  29.2702  30.3070
    30.6704  31.0921  31.2113  32.2799  32.7594  32.8867  33.2812  33.5009
    33.7142  33.8408  34.0688  34.3581  34.8216  35.1263  36.2524  36.3560

          k = 0.4066-0.1565 0.5501 (  4837 PWs)   bands (ev):

   -95.6653 -95.6615 -95.6569 -95.6487 -95.6382 -95.6301 -63.4836 -63.4787
   -54.4790 -54.4774 -54.4743 -54.4700 -54.4686 -54.4660 -54.4557 -54.4527
   -54.4490 -54.4465 -54.4457 -54.4424 -54.4378 -54.4371 -54.4361 -54.4347
   -54.4292 -54.4267 -27.6822 -27.6776 -27.6653 -27.6599 -27.6590 -27.6555
     3.0644   3.0726   3.1321   3.1701   3.1822   3.1991   3.2539   3.3018
     3.3186   3.3443   3.3956   3.4186   3.4347   3.4990   3.5127   3.5684
     3.5845   3.5966   3.6220   3.6361   3.6704   3.7062   3.7243   3.7399
     3.7895   3.8204   3.8511   3.8733   3.9766   4.0345  13.1675  13.9803
    14.4524  14.8385  15.2368  15.3476  15.8121  15.8690  15.9197  15.9609
    16.0695  16.1067  16.8364  17.2053  17.6176  18.4104  19.1410  19.9315
    21.8463  22.7320  23.0163  23.6727  25.2218  25.3378  25.9375  26.2406
    26.6063  27.2114  27.6512  28.8235  29.4528  29.5891  30.0406  30.1696
    30.5221  30.7397  31.1525  31.3466  32.2395  32.6494  32.7986  33.2610
    33.5583  33.6692  34.2246  34.4198  35.3487  35.8337  36.2211  36.3976

          k = 0.4066 0.0391 0.0000 (  4854 PWs)   bands (ev):

   -95.7052 -95.6940 -95.6677 -95.6614 -95.6313 -95.6135 -63.4902 -63.4805
   -54.4922 -54.4851 -54.4773 -54.4663 -54.4630 -54.4608 -54.4597 -54.4593
   -54.4548 -54.4524 -54.4520 -54.4490 -54.4481 -54.4376 -54.4342 -54.4284
   -54.4251 -54.4215 -27.6978 -27.6842 -27.6675 -27.6625 -27.6598 -27.6511
     3.0458   3.0818   3.0873   3.1390   3.1959   3.2251   3.2512   3.2698
     3.2884   3.3410   3.3499   3.3789   3.4400   3.4578   3.5601   3.5628
     3.5929   3.6079   3.6300   3.6587   3.6859   3.7420   3.7502   3.7798
     3.7902   3.7927   3.8418   3.9358   3.9848   4.0383  11.8592  13.7235
    14.1767  15.1307  15.7098  15.7749  15.8013  15.8561  15.9267  15.9961
    16.1129  16.2269  16.2301  18.5085  19.0559  19.2425  20.3585  21.1688
    21.8053  22.7579  22.7842  23.1450  23.4314  23.9372  25.0777  25.7117
    25.7851  26.4524  27.5162  28.1760  28.2192  28.3414  29.4359  29.9738
    30.3839  30.5920  30.8970  31.9289  32.5662  32.8065  33.0915  33.2586
    34.2586  34.3246  34.9527  34.9848  35.0127  35.3876  35.6825  36.1485

          k = 0.4066 0.0391 0.1834 (  4842 PWs)   bands (ev):

   -95.6879 -95.6620 -95.6590 -95.6531 -95.6370 -95.6188 -63.4830 -63.4810
   -54.4880 -54.4823 -54.4801 -54.4654 -54.4634 -54.4618 -54.4585 -54.4528
   -54.4518 -54.4501 -54.4483 -54.4459 -54.4458 -54.4394 -54.4312 -54.4287
   -54.4239 -54.4217 -27.6897 -27.6863 -27.6612 -27.6585 -27.6562 -27.6527
     3.0523   3.0820   3.1025   3.1471   3.1777   3.2228   3.2478   3.2605
     3.3080   3.3159   3.3687   3.3756   3.4482   3.4991   3.5073   3.5804
     3.5905   3.5948   3.6332   3.6609   3.6961   3.7183   3.7465   3.7668
     3.7779   3.8271   3.8536   3.9458   3.9942   4.0038  12.0022  13.8480
    14.2847  15.1009  15.4887  15.6703  15.8259  15.8382  15.9371  16.0867
    16.1049  16.2283  16.3786  18.0560  18.6585  19.1730  20.1934  20.8478
    21.9821  22.1391  23.0680  23.4891  24.0658  24.3186  24.8335  25.4850
    26.2874  27.3124  27.5444  27.8390  27.9038  28.8809  29.1337  29.6621
    30.1583  31.4070  31.5358  31.9450  32.4490  32.6855  33.3629  33.5519
    33.8176  33.9793  34.6405  34.9041  35.1214  35.5296  35.9341  36.2221

          k = 0.4066 0.0391 0.3668 (  4842 PWs)   bands (ev):

   -95.6787 -95.6680 -95.6571 -95.6543 -95.6451 -95.6157 -63.4829 -63.4813
   -54.4863 -54.4803 -54.4777 -54.4700 -54.4657 -54.4652 -54.4600 -54.4527
   -54.4502 -54.4500 -54.4460 -54.4444 -54.4414 -54.4375 -54.4315 -54.4291
   -54.4260 -54.4249 -27.6852 -27.6846 -27.6608 -27.6596 -27.6582 -27.6567
     3.0649   3.0779   3.1074   3.1666   3.1877   3.2072   3.2666   3.2759
     3.2786   3.3184   3.3638   3.4024   3.4279   3.4758   3.5421   3.5654
     3.5721   3.6217   3.6327   3.6532   3.6900   3.7027   3.7207   3.7724
     3.8326   3.8346   3.8516   3.9060   3.9561   4.0244  12.4240  14.1844
    14.4766  14.8704  15.2518  15.4669  15.8107  15.8533  15.9625  16.0719
    16.1022  16.2768  16.6388  17.1307  18.3802  18.9033  19.4707  20.3885
    21.5706  22.5705  22.9162  23.5759  24.4505  24.8404  25.9819  26.2274
    26.7338  27.0890  27.3392  27.8877  28.4373  29.1604  29.5321  30.0437
    30.8442  31.0176  31.4846  31.7824  32.4888  32.7987  33.2211  33.5273
    33.7675  33.8328  34.6009  34.6439  35.0169  35.3267  35.6186  36.3515

          k = 0.4066 0.0391 0.5501 (  4842 PWs)   bands (ev):

   -95.6843 -95.6739 -95.6512 -95.6461 -95.6386 -95.6317 -63.4836 -63.4818
   -54.4804 -54.4791 -54.4749 -54.4731 -54.4713 -54.4675 -54.4593 -54.4552
   -54.4490 -54.4472 -54.4458 -54.4438 -54.4386 -54.4368 -54.4336 -54.4322
   -54.4270 -54.4254 -27.6818 -27.6814 -27.6632 -27.6619 -27.6614 -27.6572
     3.0725   3.0766   3.1322   3.1713   3.1743   3.1839   3.2486   3.2905
     3.2970   3.3073   3.3954   3.4173   3.4379   3.5257   3.5373   3.5441
     3.5571   3.6141   3.6239   3.6369   3.6742   3.7190   3.7273   3.7297
     3.7893   3.8166   3.9013   3.9201   3.9633   4.0088  13.0925  13.9196
    14.6226  14.8846  15.1683  15.2897  15.8285  15.8770  15.9841  15.9978
    16.0672  16.1302  16.9202  17.1542  17.6500  18.0246  19.7838  20.5781
    20.9168  21.8305  23.3297  23.7703  25.0446  25.2051  25.6572  26.1413
    27.5333  27.5936  28.1369  28.6007  29.1600  29.6074  29.7321  29.7609
    30.7645  30.9285  31.1772  31.6225  32.0395  32.3684  32.5349  32.8619
    33.9446  34.2735  34.6594  34.9362  35.2546  35.4907  35.6155  36.4899

     the Fermi energy is    28.8630 ev

!    total energy              =   -3044.05619845 Ry
     Harris-Foulkes estimate   =   -3044.05627069 Ry
     estimated scf accuracy    <       0.00008804 Ry

     The total energy is the sum of the following terms:

     one-electron contribution =    -956.64236955 Ry
     hartree contribution      =     556.03618609 Ry
     xc contribution           =    -243.49334573 Ry
     ewald contribution        =   -2399.67210112 Ry
     smearing contrib. (-TS)   =      -0.28456816 Ry

     convergence has been achieved in  10 iterations

     Forces acting on atoms (Ry/au):

     atom    1 type  1   force =    -0.02821580   -0.01629040    0.00000000
     atom    2 type  1   force =    -0.02821580    0.01629040    0.00000000
     atom    3 type  1   force =     0.02821580    0.01629040    0.00000000
     atom    4 type  1   force =     0.02821580   -0.01629040    0.00000000
     atom    5 type  1   force =     0.00000000    0.03258079    0.00000000
     atom    6 type  1   force =     0.00000000   -0.03258079    0.00000000
     atom    7 type  2   force =     0.00000000    0.00000000    0.00000000
     atom    8 type  2   force =     0.00000000    0.00000000    0.00000000

     Total force =     0.079806     Total SCF correction =     0.000000


     entering subroutine stress ...

          total   stress  (Ry/bohr**3)                   (kbar)     P=   53.47
   0.00033940   0.00000000   0.00000000         49.93      0.00      0.00
   0.00000000   0.00033940   0.00000000          0.00     49.93      0.00
   0.00000000   0.00000000   0.00041167          0.00      0.00     60.56


     Writing output data file Prototype-La-hP8-Mg3Cd.save
 
     init_run     :     17.06s CPU     21.32s WALL (       2 calls)
     electrons    :   3700.84s CPU   4403.81s WALL (       5 calls)
     update_pot   :      2.63s CPU      2.65s WALL (       3 calls)
     forces       :     14.87s CPU     16.13s WALL (       5 calls)
     stress       :     49.93s CPU     51.60s WALL (       5 calls)

     Called by init_run:
     wfcinit      :     16.09s CPU     20.32s WALL (       2 calls)
     potinit      :      0.44s CPU      0.45s WALL (       2 calls)

     Called by electrons:
     c_bands      :   3611.45s CPU   4268.24s WALL (      34 calls)
     sum_band     :     89.03s CPU    122.57s WALL (      34 calls)
     v_of_rho     :      0.08s CPU      0.09s WALL (      38 calls)
     mix_rho      :      0.07s CPU      0.09s WALL (      34 calls)

     Called by c_bands:
     init_us_2    :      6.00s CPU      7.35s WALL (    5120 calls)
     ccgdiagg     :   3329.59s CPU   3899.27s WALL (    2383 calls)
     wfcrot       :    291.35s CPU    375.68s WALL (    2447 calls)

     Called by *cgdiagg:
     h_psi        :   2354.22s CPU   2929.51s WALL ( 1462474 calls)
     cdiaghg      :     14.44s CPU     15.76s WALL (    2447 calls)

     Called by h_psi:
     add_vuspsi   :    360.36s CPU    397.38s WALL ( 1462474 calls)

     General routines
     calbec       :    947.84s CPU   1031.03s WALL ( 2923141 calls)
     fft          :      0.15s CPU      0.17s WALL (     177 calls)
     fftw         :   1335.54s CPU   1719.46s WALL ( 3711894 calls)
     davcio       :      4.44s CPU     12.96s WALL (    7296 calls)
 
     Parallel routines
     fft_scatter  :    590.78s CPU    787.33s WALL ( 3712071 calls)
 
     PWSCF        :     1h 3m CPU        1h14m WALL

 
   This run was terminated on:  13:24:38  22Mar2018            

=------------------------------------------------------------------------------=
   JOB DONE.
=------------------------------------------------------------------------------=
