
     Program PWSCF v.5.0.2 starts on 22Mar2018 at 12: 9:41 

     This program is part of the open-source Quantum ESPRESSO suite
     for quantum simulation of materials; please cite
         "P. Giannozzi et al., J. Phys.:Condens. Matter 21 395502 (2009);
          URL http://www.quantum-espresso.org", 
     in publications or presentations arising from this work. More details at
     http://www.quantum-espresso.org/quote.php

     Parallel version (MPI), running on     4 processors
     R & G space division:  proc/nbgrp/npool/nimage =       4

     Current dimensions of program PWSCF are:
     Max number of different atomic species (ntypx) = 10
     Max number of k-points (npk) =  40000
     Max angular momentum in pseudopotentials (lmaxx) =  3
     Waiting for input...
     Reading input from standard input

     Subspace diagonalization in iterative solution of the eigenvalue problem:
     a serial algorithm will be used

 
     Parallelization info
     --------------------
     sticks:   dense  smooth     PW     G-vecs:    dense   smooth      PW
     Min          93      93     30                 1717     1717     310
     Max          94      94     31                 1720     1720     313
     Sum         373     373    121                 6871     6871    1247
 


     bravais-lattice index     =            0
     lattice parameter (alat)  =       5.4125  a.u.
     unit-cell volume          =     202.7222 (a.u.)^3
     number of atoms/cell      =            2
     number of atomic types    =            2
     number of electrons       =        45.00
     number of Kohn-Sham states=           28
     kinetic-energy cutoff     =      40.0000  Ry
     charge density cutoff     =     160.0000  Ry
     convergence threshold     =      1.0E-04
     mixing beta               =       0.7000
     number of iterations used =            8  plain     mixing
     Exchange-correlation      = SLA-PZ-NOGX-NOGC ( 1 1 0 0 0)
     EXX-fraction              =        0.00
     nstep                     =           50


     celldm(1)=   5.412493  celldm(2)=   0.000000  celldm(3)=   0.000000
     celldm(4)=   0.000000  celldm(5)=   0.000000  celldm(6)=   0.000000

     crystal axes: (cart. coord. in units of alat)
               a(1) = (   1.000000   0.000000   0.000000 )  
               a(2) = (   0.000000   1.000000   0.000000 )  
               a(3) = (   0.000000   0.000000   1.278525 )  

     reciprocal axes: (cart. coord. in units 2 pi/alat)
               b(1) = (  1.000000  0.000000  0.000000 )  
               b(2) = (  0.000000  1.000000  0.000000 )  
               b(3) = (  0.000000  0.000000  0.782151 )  


     PseudoPot. # 1 for Yb read from file:
     /home/jld5415/pp.La/Yb.UPF
     MD5 check sum: 3e859b81cc28c53ec6aa3a2e888efcdf
     Pseudo is Norm-conserving, Zval = 24.0
     Generated in analytical, separable form
     Using radial grid of 1269 points,  6 beta functions with: 
                l(1) =   0
                l(2) =   0
                l(3) =   1
                l(4) =   1
                l(5) =   2
                l(6) =   3

     PseudoPot. # 2 for Ho read from file:
     /home/jld5415/pp.La/Ho.UPF
     MD5 check sum: f307ee11bce99f5b724fa279e3790763
     Pseudo is Norm-conserving, Zval = 21.0
     Generated in analytical, separable form
     Using radial grid of 1265 points,  6 beta functions with: 
                l(1) =   0
                l(2) =   0
                l(3) =   1
                l(4) =   1
                l(5) =   2
                l(6) =   3

     atomic species   valence    mass     pseudopotential
        Cu            24.00    63.54600     Yb( 1.00)
        Au            21.00   196.96600     Ho( 1.00)

     16 Sym. Ops., with inversion, found



   Cartesian axes

     site n.     atom                  positions (alat units)
         1           Cu  tau(   1) = (   0.5000000   0.5000000   0.6392626  )
         2           Au  tau(   2) = (   0.0000000   0.0000000   0.0000000  )

     number of k points=   100  gaussian smearing, width (Ry)=  0.1000

     Number of k-points >= 100: set verbosity='high' to print them.

     Dense  grid:     6871 G-vectors     FFT dimensions: (  24,  24,  27)

     Largest allocated arrays     est. size (Mb)     dimensions
        Kohn-Sham Wavefunctions         0.10 Mb     (    228,   28)
        NL pseudopotentials             0.14 Mb     (    228,   40)
        Each V/rho on FFT grid          0.06 Mb     (   4032)
        Each G-vector array             0.01 Mb     (   1720)
        G-vector shells                 0.01 Mb     (   1720)
     Largest temporary arrays     est. size (Mb)     dimensions
        Each subspace H/S matrix        0.01 Mb     (  28,  28)
        Each <psi_i|beta_j> matrix      0.02 Mb     (     40,   28)
        Arrays for rho mixing           0.49 Mb     (   4032,   8)

     Initial potential from superposition of free atoms

     Starting from uniform charge
     Starting wfc are    0 randomized atomic wfcs

     total cpu time spent up to now is        1.0 secs

     Self-consistent Calculation

     iteration #  1     ecut=    40.00 Ry     beta=0.70
     CG style diagonalization
     c_bands:  1 eigenvalues not converged
     c_bands:  1 eigenvalues not converged
     c_bands:  1 eigenvalues not converged
     c_bands:  1 eigenvalues not converged
     c_bands:  1 eigenvalues not converged
     c_bands:  1 eigenvalues not converged
     c_bands:  1 eigenvalues not converged
     c_bands:  1 eigenvalues not converged
     ethr =  1.00E-02,  avg # of iterations = 12.4

     total cpu time spent up to now is        8.9 secs

     total energy              =    -584.37996038 Ry
     Harris-Foulkes estimate   =    -854.94312033 Ry
     estimated scf accuracy    <     336.03214453 Ry

     iteration #  2     ecut=    40.00 Ry     beta=0.70
     CG style diagonalization
     c_bands:  1 eigenvalues not converged
     c_bands:  1 eigenvalues not converged
     c_bands:  1 eigenvalues not converged
     c_bands:  1 eigenvalues not converged
     c_bands:  1 eigenvalues not converged
     c_bands:  1 eigenvalues not converged
     c_bands:  1 eigenvalues not converged
     c_bands:  1 eigenvalues not converged
     c_bands:  1 eigenvalues not converged
     c_bands:  1 eigenvalues not converged
     c_bands:  1 eigenvalues not converged
     ethr =  1.00E-02,  avg # of iterations =  9.5

     total cpu time spent up to now is       14.0 secs

     total energy              =    -630.11778769 Ry
     Harris-Foulkes estimate   =    -762.41813482 Ry
     estimated scf accuracy    <     217.45923812 Ry

     iteration #  3     ecut=    40.00 Ry     beta=0.70
     CG style diagonalization
     ethr =  1.00E-02,  avg # of iterations =  9.0

     total cpu time spent up to now is       18.8 secs

     total energy              =    -686.49145697 Ry
     Harris-Foulkes estimate   =    -714.44221972 Ry
     estimated scf accuracy    <      61.53071321 Ry

     iteration #  4     ecut=    40.00 Ry     beta=0.70
     CG style diagonalization
     ethr =  1.00E-02,  avg # of iterations =  5.5

     total cpu time spent up to now is       21.8 secs

     total energy              =    -701.80577045 Ry
     Harris-Foulkes estimate   =    -702.20448008 Ry
     estimated scf accuracy    <       0.84059323 Ry

     iteration #  5     ecut=    40.00 Ry     beta=0.70
     CG style diagonalization
     ethr =  1.87E-03,  avg # of iterations =  3.6

     total cpu time spent up to now is       23.6 secs

     total energy              =    -701.91856874 Ry
     Harris-Foulkes estimate   =    -701.96374819 Ry
     estimated scf accuracy    <       0.07873443 Ry

     iteration #  6     ecut=    40.00 Ry     beta=0.70
     CG style diagonalization
     c_bands:  1 eigenvalues not converged
     c_bands:  1 eigenvalues not converged
     c_bands:  1 eigenvalues not converged
     c_bands:  1 eigenvalues not converged
     ethr =  1.75E-04,  avg # of iterations =  4.2

     total cpu time spent up to now is       25.8 secs

     total energy              =    -701.94053809 Ry
     Harris-Foulkes estimate   =    -701.94396708 Ry
     estimated scf accuracy    <       0.00521799 Ry

     iteration #  7     ecut=    40.00 Ry     beta=0.70
     CG style diagonalization
     c_bands:  1 eigenvalues not converged
     c_bands:  1 eigenvalues not converged
     c_bands:  1 eigenvalues not converged
     c_bands:  1 eigenvalues not converged
     ethr =  1.16E-05,  avg # of iterations =  4.3

     total cpu time spent up to now is       28.1 secs

     total energy              =    -701.94135587 Ry
     Harris-Foulkes estimate   =    -701.94298688 Ry
     estimated scf accuracy    <       0.00289726 Ry

     iteration #  8     ecut=    40.00 Ry     beta=0.70
     CG style diagonalization
     ethr =  6.44E-06,  avg # of iterations =  3.5

     total cpu time spent up to now is       30.0 secs

     End of self-consistent calculation

     Number of k-points >= 100: set verbosity='high' to print the bands.

     the Fermi energy is    41.1101 ev

!    total energy              =    -701.94190852 Ry
     Harris-Foulkes estimate   =    -701.94193709 Ry
     estimated scf accuracy    <       0.00003251 Ry

     The total energy is the sum of the following terms:

     one-electron contribution =    -110.06551360 Ry
     hartree contribution      =      95.84366500 Ry
     xc contribution           =     -59.02255060 Ry
     ewald contribution        =    -628.62775053 Ry
     smearing contrib. (-TS)   =      -0.06975879 Ry

     convergence has been achieved in   8 iterations

     Forces acting on atoms (Ry/au):

     atom    1 type  1   force =     0.00000000    0.00000000    0.00000000
     atom    2 type  2   force =     0.00000000    0.00000000    0.00000000

     Total force =     0.000000     Total SCF correction =     0.000000


     entering subroutine stress ...

          total   stress  (Ry/bohr**3)                   (kbar)     P= 2105.64
   0.01453995   0.00000000   0.00000000       2138.90      0.00      0.00
   0.00000000   0.01453995   0.00000000          0.00   2138.90      0.00
   0.00000000   0.00000000   0.01386171          0.00      0.00   2039.13


     BFGS Geometry Optimization

     number of scf cycles    =   1
     number of bfgs steps    =   0

     enthalpy new            =    -701.9419085170 Ry

     new trust radius        =       0.5000000000 bohr
     new conv_thr            =       0.0001000000 Ry

     new unit-cell volume =    327.06031 a.u.^3 (    48.46534 Ang^3 )

CELL_PARAMETERS (alat=  5.41249258)
   1.175585808   0.000000000   0.000000000
   0.000000000   1.175585808   0.000000000
   0.000000000   0.000000000   1.492544301

ATOMIC_POSITIONS (crystal)
Cu       0.500000000   0.500000000   0.500000000
Au       0.000000000   0.000000000   0.000000000



     Writing output data file Prototype-La-tP2-AuCu.save
     NEW-OLD atomic charge density approx. for the potential
     NEW k-points: (use verbosity='high' to print them)

     total cpu time spent up to now is       32.3 secs

     Self-consistent Calculation

     iteration #  1     ecut=    40.00 Ry     beta=0.70
     CG style diagonalization
     c_bands:  3 eigenvalues not converged
     c_bands:  4 eigenvalues not converged
     c_bands:  3 eigenvalues not converged
     c_bands:  2 eigenvalues not converged
     c_bands:  1 eigenvalues not converged
     c_bands:  1 eigenvalues not converged
     c_bands:  3 eigenvalues not converged
     c_bands:  2 eigenvalues not converged
     c_bands:  5 eigenvalues not converged
     c_bands:  1 eigenvalues not converged
     c_bands:  2 eigenvalues not converged
     c_bands:  1 eigenvalues not converged
     c_bands:  5 eigenvalues not converged
     c_bands:  5 eigenvalues not converged
     c_bands:  2 eigenvalues not converged
     c_bands:  4 eigenvalues not converged
     c_bands:  4 eigenvalues not converged
     c_bands:  1 eigenvalues not converged
     c_bands:  1 eigenvalues not converged
     c_bands:  5 eigenvalues not converged
     c_bands:  1 eigenvalues not converged
     c_bands:  1 eigenvalues not converged
     c_bands:  2 eigenvalues not converged
     c_bands:  2 eigenvalues not converged
     c_bands:  2 eigenvalues not converged
     c_bands:  2 eigenvalues not converged
     c_bands:  3 eigenvalues not converged
     c_bands:  4 eigenvalues not converged
     c_bands:  4 eigenvalues not converged
     c_bands:  3 eigenvalues not converged
     c_bands:  2 eigenvalues not converged
     c_bands:  4 eigenvalues not converged
     c_bands:  4 eigenvalues not converged
     c_bands:  1 eigenvalues not converged
     c_bands:  1 eigenvalues not converged
     c_bands:  1 eigenvalues not converged
     c_bands:  3 eigenvalues not converged
     c_bands:  1 eigenvalues not converged
     c_bands:  1 eigenvalues not converged
     c_bands:  5 eigenvalues not converged
     c_bands:  4 eigenvalues not converged
     c_bands:  5 eigenvalues not converged
     c_bands:  3 eigenvalues not converged
     c_bands:  4 eigenvalues not converged
     c_bands:  1 eigenvalues not converged
     c_bands:  1 eigenvalues not converged
     c_bands:  2 eigenvalues not converged
     c_bands:  1 eigenvalues not converged
     c_bands:  3 eigenvalues not converged
     ethr =  1.00E-06,  avg # of iterations = 18.7

     total cpu time spent up to now is       43.2 secs

     total energy              =    -691.29390550 Ry
     Harris-Foulkes estimate   =    -717.89569513 Ry
     estimated scf accuracy    <      33.10504506 Ry

     iteration #  2     ecut=    40.00 Ry     beta=0.70
     CG style diagonalization
     ethr =  1.00E-02,  avg # of iterations =  4.5

     total cpu time spent up to now is       46.0 secs

     total energy              =    -700.78485681 Ry
     Harris-Foulkes estimate   =    -703.39106783 Ry
     estimated scf accuracy    <       3.76563195 Ry

     iteration #  3     ecut=    40.00 Ry     beta=0.70
     CG style diagonalization
     ethr =  8.37E-03,  avg # of iterations =  3.6

     total cpu time spent up to now is       48.0 secs

     total energy              =    -701.78849820 Ry
     Harris-Foulkes estimate   =    -701.82371270 Ry
     estimated scf accuracy    <       0.06006882 Ry

     iteration #  4     ecut=    40.00 Ry     beta=0.70
     CG style diagonalization
     ethr =  1.33E-04,  avg # of iterations =  4.4

     total cpu time spent up to now is       50.7 secs

     total energy              =    -701.82254070 Ry
     Harris-Foulkes estimate   =    -701.82792904 Ry
     estimated scf accuracy    <       0.00842032 Ry

     iteration #  5     ecut=    40.00 Ry     beta=0.70
     CG style diagonalization
     ethr =  1.87E-05,  avg # of iterations =  3.8

     total cpu time spent up to now is       53.0 secs

     total energy              =    -701.82447115 Ry
     Harris-Foulkes estimate   =    -701.82465053 Ry
     estimated scf accuracy    <       0.00034472 Ry

     iteration #  6     ecut=    40.00 Ry     beta=0.70
     CG style diagonalization
     ethr =  7.66E-07,  avg # of iterations =  3.9

     total cpu time spent up to now is       55.3 secs

     End of self-consistent calculation

     Number of k-points >= 100: set verbosity='high' to print the bands.

     the Fermi energy is    23.7236 ev

!    total energy              =    -701.82458691 Ry
     Harris-Foulkes estimate   =    -701.82460836 Ry
     estimated scf accuracy    <       0.00002628 Ry

     The total energy is the sum of the following terms:

     one-electron contribution =    -246.71860544 Ry
     hartree contribution      =     138.28471065 Ry
     xc contribution           =     -57.33654480 Ry
     ewald contribution        =    -535.98511423 Ry
     smearing contrib. (-TS)   =      -0.06903309 Ry

     convergence has been achieved in   6 iterations

     Forces acting on atoms (Ry/au):

     atom    1 type  1   force =     0.00000000    0.00000000    0.00000000
     atom    2 type  2   force =     0.00000000    0.00000000    0.00000000

     Total force =     0.000000     Total SCF correction =     0.000000


     entering subroutine stress ...

          total   stress  (Ry/bohr**3)                   (kbar)     P=-1471.57
  -0.00997679   0.00000000   0.00000000      -1467.64      0.00      0.00
   0.00000000  -0.00997679   0.00000000          0.00  -1467.64      0.00
   0.00000000   0.00000000  -0.01005704          0.00      0.00  -1479.44


     number of scf cycles    =   2
     number of bfgs steps    =   1

     enthalpy old            =    -701.9419085170 Ry
     enthalpy new            =    -701.8245869078 Ry

     CASE: enthalpy_new > enthalpy_old

     new trust radius        =       0.2505872074 bohr

     trust_radius < trust_radius_min

     resetting bfgs history

     new conv_thr            =       0.0001000000 Ry

     new unit-cell volume =    315.82063 a.u.^3 (    46.79979 Ang^3 )

CELL_PARAMETERS (alat=  5.41249258)
   1.162510126   0.000000000   0.000000000
   0.000000000   1.162510126   0.000000000
   0.000000000   0.000000000   1.473856033

ATOMIC_POSITIONS (crystal)
Cu       0.500000000   0.500000000   0.500000000
Au       0.000000000   0.000000000   0.000000000



     Writing output data file Prototype-La-tP2-AuCu.save
     NEW-OLD atomic charge density approx. for the potential
     NEW k-points: (use verbosity='high' to print them)

     total cpu time spent up to now is       56.4 secs

     Self-consistent Calculation

     iteration #  1     ecut=    40.00 Ry     beta=0.70
     CG style diagonalization
     c_bands:  1 eigenvalues not converged
     c_bands:  1 eigenvalues not converged
     ethr =  1.00E-06,  avg # of iterations =  7.2

     total cpu time spent up to now is       60.8 secs

     total energy              =    -701.85457473 Ry
     Harris-Foulkes estimate   =    -702.02620815 Ry
     estimated scf accuracy    <       0.21155137 Ry

     iteration #  2     ecut=    40.00 Ry     beta=0.70
     CG style diagonalization
     ethr =  4.70E-04,  avg # of iterations =  3.8

     total cpu time spent up to now is       62.9 secs

     total energy              =    -701.92313402 Ry
     Harris-Foulkes estimate   =    -701.94453311 Ry
     estimated scf accuracy    <       0.03183705 Ry

     iteration #  3     ecut=    40.00 Ry     beta=0.70
     CG style diagonalization
     ethr =  7.07E-05,  avg # of iterations =  3.6

     total cpu time spent up to now is       64.9 secs

     total energy              =    -701.93019665 Ry
     Harris-Foulkes estimate   =    -701.93031662 Ry
     estimated scf accuracy    <       0.00015587 Ry

     iteration #  4     ecut=    40.00 Ry     beta=0.70
     CG style diagonalization
     c_bands:  1 eigenvalues not converged
     ethr =  3.46E-07,  avg # of iterations =  4.5

     total cpu time spent up to now is       67.3 secs

     End of self-consistent calculation

     Number of k-points >= 100: set verbosity='high' to print the bands.

     the Fermi energy is    24.7537 ev

!    total energy              =    -701.93034036 Ry
     Harris-Foulkes estimate   =    -701.93042225 Ry
     estimated scf accuracy    <       0.00008754 Ry

     The total energy is the sum of the following terms:

     one-electron contribution =    -237.27400347 Ry
     hartree contribution      =     135.11914448 Ry
     xc contribution           =     -57.43750004 Ry
     ewald contribution        =    -542.26985584 Ry
     smearing contrib. (-TS)   =      -0.06812548 Ry

     convergence has been achieved in   4 iterations

     Forces acting on atoms (Ry/au):

     atom    1 type  1   force =     0.00000000    0.00000000    0.00000000
     atom    2 type  2   force =     0.00000000    0.00000000    0.00000000

     Total force =     0.000000     Total SCF correction =     0.000000


     entering subroutine stress ...

          total   stress  (Ry/bohr**3)                   (kbar)     P=-1323.03
  -0.00896999   0.00000000   0.00000000      -1319.53      0.00      0.00
   0.00000000  -0.00896999   0.00000000          0.00  -1319.53      0.00
   0.00000000   0.00000000  -0.00904127          0.00      0.00  -1330.02


     number of scf cycles    =   3
     number of bfgs steps    =   1

     enthalpy old            =    -701.9419085170 Ry
     enthalpy new            =    -701.9303403630 Ry

     CASE: enthalpy_new > enthalpy_old

     new trust radius        =       0.2463755618 bohr

     trust_radius < trust_radius_min

     resetting bfgs history

     Message from routine bfgs:
     history already reset at previous step: stopping
     new conv_thr            =       0.0001000000 Ry

     new unit-cell volume =    316.52466 a.u.^3 (    46.90412 Ang^3 )

CELL_PARAMETERS (alat=  5.41249258)
   1.163537182   0.000000000   0.000000000
   0.000000000   1.163537182   0.000000000
   0.000000000   0.000000000   1.474534975

ATOMIC_POSITIONS (crystal)
Cu       0.500000000   0.500000000   0.500000000
Au       0.000000000   0.000000000   0.000000000



     Writing output data file Prototype-La-tP2-AuCu.save
     NEW-OLD atomic charge density approx. for the potential
     NEW k-points: (use verbosity='high' to print them)

     total cpu time spent up to now is       68.3 secs

     Self-consistent Calculation

     iteration #  1     ecut=    40.00 Ry     beta=0.70
     CG style diagonalization
     ethr =  1.00E-06,  avg # of iterations =  4.5

     total cpu time spent up to now is       71.2 secs

     total energy              =    -701.92366007 Ry
     Harris-Foulkes estimate   =    -701.92464636 Ry
     estimated scf accuracy    <       0.00120108 Ry

     iteration #  2     ecut=    40.00 Ry     beta=0.70
     CG style diagonalization
     ethr =  2.67E-06,  avg # of iterations =  3.8

     total cpu time spent up to now is       73.7 secs

     total energy              =    -701.92402943 Ry
     Harris-Foulkes estimate   =    -701.92422825 Ry
     estimated scf accuracy    <       0.00029996 Ry

     iteration #  3     ecut=    40.00 Ry     beta=0.70
     CG style diagonalization
     ethr =  6.67E-07,  avg # of iterations =  3.4

     total cpu time spent up to now is       75.5 secs

     End of self-consistent calculation

     Number of k-points >= 100: set verbosity='high' to print the bands.

     the Fermi energy is    24.6821 ev

!    total energy              =    -701.92410301 Ry
     Harris-Foulkes estimate   =    -701.92411912 Ry
     estimated scf accuracy    <       0.00001744 Ry

     The total energy is the sum of the following terms:

     one-electron contribution =    -237.89649374 Ry
     hartree contribution      =     135.33921797 Ry
     xc contribution           =     -57.43110993 Ry
     ewald contribution        =    -541.86761824 Ry
     smearing contrib. (-TS)   =      -0.06809907 Ry

     convergence has been achieved in   3 iterations

     Forces acting on atoms (Ry/au):

     atom    1 type  1   force =     0.00000000    0.00000000    0.00000000
     atom    2 type  2   force =     0.00000000    0.00000000    0.00000000

     Total force =     0.000000     Total SCF correction =     0.000000


     entering subroutine stress ...

          total   stress  (Ry/bohr**3)                   (kbar)     P=-1328.06
  -0.00901645   0.00000000   0.00000000      -1326.36      0.00      0.00
   0.00000000  -0.00901645   0.00000000          0.00  -1326.36      0.00
   0.00000000   0.00000000  -0.00905096          0.00      0.00  -1331.44


     The maximum number of steps has been reached.

     End of BFGS Geometry Optimization
Begin final coordinates
     new unit-cell volume =    316.52466 a.u.^3 (    46.90412 Ang^3 )

CELL_PARAMETERS (alat=  5.41249258)
   1.163537182   0.000000000   0.000000000
   0.000000000   1.163537182   0.000000000
   0.000000000   0.000000000   1.474534975

ATOMIC_POSITIONS (crystal)
Cu       0.500000000   0.500000000   0.500000000
Au       0.000000000   0.000000000   0.000000000
End final coordinates



     A final scf calculation at the relaxed structure.
     The G-vectors are recalculated for the final unit cell
     Results may differ from those at the preceding step.
 
     Parallelization info
     --------------------
     sticks:   dense  smooth     PW     G-vecs:    dense   smooth      PW
     Min         126     126     40                 2718     2718     468
     Max         127     127     41                 2719     2719     469
     Sum         505     505    161                10873    10873    1873
 


     bravais-lattice index     =            0
     lattice parameter (alat)  =       5.4125  a.u.
     unit-cell volume          =     316.5247 (a.u.)^3
     number of atoms/cell      =            2
     number of atomic types    =            2
     number of electrons       =        45.00
     number of Kohn-Sham states=           28
     kinetic-energy cutoff     =      40.0000  Ry
     charge density cutoff     =     160.0000  Ry
     convergence threshold     =      1.0E-04
     mixing beta               =       0.7000
     number of iterations used =            8  plain     mixing
     Exchange-correlation      = SLA-PZ-NOGX-NOGC ( 1 1 0 0 0)
     EXX-fraction              =        0.00

     celldm(1)=   5.412493  celldm(2)=   0.000000  celldm(3)=   0.000000
     celldm(4)=   0.000000  celldm(5)=   0.000000  celldm(6)=   0.000000

     crystal axes: (cart. coord. in units of alat)
               a(1) = (   1.163537   0.000000   0.000000 )  
               a(2) = (   0.000000   1.163537   0.000000 )  
               a(3) = (   0.000000   0.000000   1.474535 )  

     reciprocal axes: (cart. coord. in units 2 pi/alat)
               b(1) = (  0.859448  0.000000  0.000000 )  
               b(2) = (  0.000000  0.859448  0.000000 )  
               b(3) = (  0.000000  0.000000  0.678180 )  


     PseudoPot. # 1 for Yb read from file:
     /home/jld5415/pp.La/Yb.UPF
     MD5 check sum: 3e859b81cc28c53ec6aa3a2e888efcdf
     Pseudo is Norm-conserving, Zval = 24.0
     Generated in analytical, separable form
     Using radial grid of 1269 points,  6 beta functions with: 
                l(1) =   0
                l(2) =   0
                l(3) =   1
                l(4) =   1
                l(5) =   2
                l(6) =   3

     PseudoPot. # 2 for Ho read from file:
     /home/jld5415/pp.La/Ho.UPF
     MD5 check sum: f307ee11bce99f5b724fa279e3790763
     Pseudo is Norm-conserving, Zval = 21.0
     Generated in analytical, separable form
     Using radial grid of 1265 points,  6 beta functions with: 
                l(1) =   0
                l(2) =   0
                l(3) =   1
                l(4) =   1
                l(5) =   2
                l(6) =   3

     atomic species   valence    mass     pseudopotential
        Cu            24.00    63.54600     Yb( 1.00)
        Au            21.00   196.96600     Ho( 1.00)

     16 Sym. Ops., with inversion, found



   Cartesian axes

     site n.     atom                  positions (alat units)
         1           Cu  tau(   1) = (   0.5817686   0.5817686   0.7372675  )
         2           Au  tau(   2) = (   0.0000000   0.0000000   0.0000000  )

     number of k points=   100  gaussian smearing, width (Ry)=  0.1000

     Number of k-points >= 100: set verbosity='high' to print them.

     Dense  grid:    10873 G-vectors     FFT dimensions: (  25,  25,  36)

     Largest allocated arrays     est. size (Mb)     dimensions
        Kohn-Sham Wavefunctions         0.15 Mb     (    352,   28)
        NL pseudopotentials             0.21 Mb     (    352,   40)
        Each V/rho on FFT grid          0.09 Mb     (   5625)
        Each G-vector array             0.02 Mb     (   2718)
        G-vector shells                 0.01 Mb     (    753)
     Largest temporary arrays     est. size (Mb)     dimensions
        Each subspace H/S matrix        0.01 Mb     (  28,  28)
        Each <psi_i|beta_j> matrix      0.02 Mb     (     40,   28)
        Arrays for rho mixing           0.69 Mb     (   5625,   8)

     Initial potential from superposition of free atoms

     Starting from uniform charge
     Starting wfc are    0 randomized atomic wfcs

     Writing output data file Prototype-La-tP2-AuCu.save

     total cpu time spent up to now is       77.0 secs

     Self-consistent Calculation

     iteration #  1     ecut=    40.00 Ry     beta=0.70
     CG style diagonalization
     c_bands:  1 eigenvalues not converged
     c_bands:  2 eigenvalues not converged
     c_bands:  1 eigenvalues not converged
     c_bands:  3 eigenvalues not converged
     c_bands:  1 eigenvalues not converged
     c_bands:  1 eigenvalues not converged
     c_bands:  1 eigenvalues not converged
     c_bands:  1 eigenvalues not converged
     c_bands:  2 eigenvalues not converged
     c_bands:  2 eigenvalues not converged
     c_bands:  2 eigenvalues not converged
     c_bands:  1 eigenvalues not converged
     c_bands:  3 eigenvalues not converged
     c_bands:  1 eigenvalues not converged
     c_bands:  2 eigenvalues not converged
     c_bands:  3 eigenvalues not converged
     c_bands:  3 eigenvalues not converged
     c_bands:  3 eigenvalues not converged
     c_bands:  3 eigenvalues not converged
     c_bands:  2 eigenvalues not converged
     c_bands:  2 eigenvalues not converged
     c_bands:  1 eigenvalues not converged
     c_bands:  3 eigenvalues not converged
     c_bands:  1 eigenvalues not converged
     c_bands:  4 eigenvalues not converged
     c_bands:  1 eigenvalues not converged
     c_bands:  2 eigenvalues not converged
     c_bands:  1 eigenvalues not converged
     c_bands:  1 eigenvalues not converged
     c_bands:  3 eigenvalues not converged
     c_bands:  2 eigenvalues not converged
     c_bands:  3 eigenvalues not converged
     c_bands:  1 eigenvalues not converged
     c_bands:  3 eigenvalues not converged
     c_bands:  1 eigenvalues not converged
     c_bands:  2 eigenvalues not converged
     c_bands:  3 eigenvalues not converged
     c_bands:  2 eigenvalues not converged
     c_bands:  2 eigenvalues not converged
     c_bands:  2 eigenvalues not converged
     c_bands:  2 eigenvalues not converged
     c_bands:  2 eigenvalues not converged
     c_bands:  2 eigenvalues not converged
     c_bands:  2 eigenvalues not converged
     c_bands:  3 eigenvalues not converged
     c_bands:  2 eigenvalues not converged
     c_bands:  2 eigenvalues not converged
     c_bands:  3 eigenvalues not converged
     c_bands:  3 eigenvalues not converged
     c_bands:  3 eigenvalues not converged
     c_bands:  1 eigenvalues not converged
     c_bands:  1 eigenvalues not converged
     c_bands:  2 eigenvalues not converged
     c_bands:  3 eigenvalues not converged
     c_bands:  1 eigenvalues not converged
     c_bands:  1 eigenvalues not converged
     c_bands:  2 eigenvalues not converged
     c_bands:  2 eigenvalues not converged
     c_bands:  2 eigenvalues not converged
     c_bands:  1 eigenvalues not converged
     c_bands:  2 eigenvalues not converged
     c_bands:  2 eigenvalues not converged
     c_bands:  3 eigenvalues not converged
     c_bands:  4 eigenvalues not converged
     c_bands:  3 eigenvalues not converged
     c_bands:  3 eigenvalues not converged
     c_bands:  2 eigenvalues not converged
     c_bands:  2 eigenvalues not converged
     c_bands:  2 eigenvalues not converged
     c_bands:  1 eigenvalues not converged
     c_bands:  1 eigenvalues not converged
     c_bands:  3 eigenvalues not converged
     c_bands:  2 eigenvalues not converged
     c_bands:  2 eigenvalues not converged
     c_bands:  2 eigenvalues not converged
     c_bands:  2 eigenvalues not converged
     c_bands:  2 eigenvalues not converged
     c_bands:  3 eigenvalues not converged
     c_bands:  2 eigenvalues not converged
     c_bands:  2 eigenvalues not converged
     c_bands:  2 eigenvalues not converged
     c_bands:  2 eigenvalues not converged
     c_bands:  3 eigenvalues not converged
     c_bands:  1 eigenvalues not converged
     c_bands:  1 eigenvalues not converged
     c_bands:  1 eigenvalues not converged
     c_bands:  1 eigenvalues not converged
     c_bands:  3 eigenvalues not converged
     c_bands:  1 eigenvalues not converged
     ethr =  1.00E-06,  avg # of iterations = 50.7

     total cpu time spent up to now is      115.0 secs

     total energy              =    -508.23235282 Ry
     Harris-Foulkes estimate   =    -919.88254951 Ry
     estimated scf accuracy    <     500.84384864 Ry

     iteration #  2     ecut=    40.00 Ry     beta=0.70
     CG style diagonalization
     c_bands:  1 eigenvalues not converged
     c_bands:  1 eigenvalues not converged
     c_bands:  1 eigenvalues not converged
     c_bands:  2 eigenvalues not converged
     c_bands:  2 eigenvalues not converged
     c_bands:  1 eigenvalues not converged
     c_bands:  1 eigenvalues not converged
     c_bands:  1 eigenvalues not converged
     c_bands:  1 eigenvalues not converged
     c_bands:  1 eigenvalues not converged
     c_bands:  5 eigenvalues not converged
     c_bands:  3 eigenvalues not converged
     c_bands:  1 eigenvalues not converged
     c_bands:  2 eigenvalues not converged
     c_bands:  1 eigenvalues not converged
     c_bands:  2 eigenvalues not converged
     c_bands:  1 eigenvalues not converged
     c_bands:  2 eigenvalues not converged
     c_bands:  1 eigenvalues not converged
     c_bands:  1 eigenvalues not converged
     c_bands:  1 eigenvalues not converged
     c_bands:  3 eigenvalues not converged
     c_bands:  3 eigenvalues not converged
     c_bands:  1 eigenvalues not converged
     c_bands:  2 eigenvalues not converged
     c_bands:  3 eigenvalues not converged
     c_bands:  4 eigenvalues not converged
     c_bands:  1 eigenvalues not converged
     c_bands:  1 eigenvalues not converged
     c_bands:  4 eigenvalues not converged
     c_bands:  3 eigenvalues not converged
     c_bands:  2 eigenvalues not converged
     c_bands:  1 eigenvalues not converged
     c_bands:  1 eigenvalues not converged
     c_bands:  3 eigenvalues not converged
     c_bands:  3 eigenvalues not converged
     c_bands:  3 eigenvalues not converged
     c_bands:  2 eigenvalues not converged
     c_bands:  2 eigenvalues not converged
     c_bands:  1 eigenvalues not converged
     c_bands:  2 eigenvalues not converged
     c_bands:  2 eigenvalues not converged
     c_bands:  2 eigenvalues not converged
     c_bands:  2 eigenvalues not converged
     c_bands:  1 eigenvalues not converged
     c_bands:  2 eigenvalues not converged
     c_bands:  1 eigenvalues not converged
     c_bands:  2 eigenvalues not converged
     c_bands:  1 eigenvalues not converged
     c_bands:  1 eigenvalues not converged
     c_bands:  2 eigenvalues not converged
     c_bands:  2 eigenvalues not converged
     c_bands:  2 eigenvalues not converged
     c_bands:  1 eigenvalues not converged
     c_bands:  2 eigenvalues not converged
     c_bands:  3 eigenvalues not converged
     c_bands:  1 eigenvalues not converged
     c_bands:  1 eigenvalues not converged
     c_bands:  3 eigenvalues not converged
     c_bands:  2 eigenvalues not converged
     c_bands:  2 eigenvalues not converged
     ethr =  1.00E-02,  avg # of iterations = 11.2

     total cpu time spent up to now is      124.6 secs

     total energy              =    -548.48165595 Ry
     Harris-Foulkes estimate   =    -889.35645097 Ry
     estimated scf accuracy    <     661.52899334 Ry

     iteration #  3     ecut=    40.00 Ry     beta=0.70
     CG style diagonalization
     ethr =  1.00E-02,  avg # of iterations = 10.2

     total cpu time spent up to now is      132.7 secs

     total energy              =    -686.37039841 Ry
     Harris-Foulkes estimate   =    -714.24951082 Ry
     estimated scf accuracy    <      53.71160786 Ry

     iteration #  4     ecut=    40.00 Ry     beta=0.70
     CG style diagonalization
     ethr =  1.00E-02,  avg # of iterations =  5.8

     total cpu time spent up to now is      137.4 secs

     total energy              =    -702.99760285 Ry
     Harris-Foulkes estimate   =    -704.45003721 Ry
     estimated scf accuracy    <       3.37360227 Ry

     iteration #  5     ecut=    40.00 Ry     beta=0.70
     CG style diagonalization
     ethr =  7.50E-03,  avg # of iterations =  3.2

     total cpu time spent up to now is      140.1 secs

     total energy              =    -703.04165179 Ry
     Harris-Foulkes estimate   =    -703.36210407 Ry
     estimated scf accuracy    <       0.50425205 Ry

     iteration #  6     ecut=    40.00 Ry     beta=0.70
     CG style diagonalization
     ethr =  1.12E-03,  avg # of iterations =  3.8

     total cpu time spent up to now is      143.2 secs

     total energy              =    -703.18168219 Ry
     Harris-Foulkes estimate   =    -703.20052510 Ry
     estimated scf accuracy    <       0.02499365 Ry

     iteration #  7     ecut=    40.00 Ry     beta=0.70
     CG style diagonalization
     c_bands:  1 eigenvalues not converged
     ethr =  5.55E-05,  avg # of iterations =  4.2

     total cpu time spent up to now is      146.5 secs

     total energy              =    -703.18785995 Ry
     Harris-Foulkes estimate   =    -703.19937766 Ry
     estimated scf accuracy    <       0.01682556 Ry

     iteration #  8     ecut=    40.00 Ry     beta=0.70
     CG style diagonalization
     c_bands:  1 eigenvalues not converged
     ethr =  3.74E-05,  avg # of iterations =  3.5

     total cpu time spent up to now is      149.3 secs

     total energy              =    -703.19254795 Ry
     Harris-Foulkes estimate   =    -703.19332403 Ry
     estimated scf accuracy    <       0.00128645 Ry

     iteration #  9     ecut=    40.00 Ry     beta=0.70
     CG style diagonalization
     c_bands:  1 eigenvalues not converged
     ethr =  2.86E-06,  avg # of iterations =  3.7

     total cpu time spent up to now is      152.3 secs

     End of self-consistent calculation

     Number of k-points >= 100: set verbosity='high' to print the bands.

     the Fermi energy is    24.6043 ev

!    total energy              =    -703.19281875 Ry
     Harris-Foulkes estimate   =    -703.19282675 Ry
     estimated scf accuracy    <       0.00000958 Ry

     The total energy is the sum of the following terms:

     one-electron contribution =    -239.94507427 Ry
     hartree contribution      =     136.28002541 Ry
     xc contribution           =     -57.59253571 Ry
     ewald contribution        =    -541.86760406 Ry
     smearing contrib. (-TS)   =      -0.06763011 Ry

     convergence has been achieved in   9 iterations

     Forces acting on atoms (Ry/au):

     atom    1 type  1   force =     0.00000000    0.00000000    0.00000000
     atom    2 type  2   force =     0.00000000    0.00000000    0.00000000

     Total force =     0.000000     Total SCF correction =     0.000000


     entering subroutine stress ...

          total   stress  (Ry/bohr**3)                   (kbar)     P= -237.17
  -0.00149717   0.00000000   0.00000000       -220.24      0.00      0.00
   0.00000000  -0.00149717   0.00000000          0.00   -220.24      0.00
   0.00000000   0.00000000  -0.00184251          0.00      0.00   -271.04


     Writing output data file Prototype-La-tP2-AuCu.save
 
     init_run     :      1.42s CPU      1.63s WALL (       2 calls)
     electrons    :    136.73s CPU    145.40s WALL (       5 calls)
     update_pot   :      0.45s CPU      0.47s WALL (       3 calls)
     forces       :      0.75s CPU      0.77s WALL (       5 calls)
     stress       :      1.80s CPU      1.83s WALL (       5 calls)

     Called by init_run:
     wfcinit      :      1.15s CPU      1.33s WALL (       2 calls)
     potinit      :      0.09s CPU      0.09s WALL (       2 calls)

     Called by electrons:
     c_bands      :    130.84s CPU    138.97s WALL (      30 calls)
     sum_band     :      5.83s CPU      6.15s WALL (      30 calls)
     v_of_rho     :      0.01s CPU      0.01s WALL (      35 calls)
     mix_rho      :      0.01s CPU      0.01s WALL (      30 calls)

     Called by c_bands:
     init_us_2    :      0.85s CPU      0.92s WALL (    7200 calls)
     ccgdiagg     :    114.89s CPU    121.09s WALL (    3265 calls)
     wfcrot       :     16.28s CPU     17.80s WALL (    3365 calls)

     Called by *cgdiagg:
     h_psi        :     91.31s CPU     99.09s WALL (  519533 calls)
     cdiaghg      :      0.69s CPU      0.90s WALL (    3365 calls)

     Called by h_psi:
     add_vuspsi   :      5.10s CPU      6.63s WALL (  519533 calls)

     General routines
     calbec       :     17.40s CPU     18.09s WALL ( 1036701 calls)
     fft          :      0.03s CPU      0.03s WALL (     163 calls)
     fftw         :     74.18s CPU     78.05s WALL ( 1304776 calls)
     davcio       :      0.52s CPU      1.03s WALL (   10200 calls)
 
     Parallel routines
     fft_scatter  :     22.28s CPU     25.91s WALL ( 1304939 calls)
 
     PWSCF        :  2m22.04s CPU     2m33.26s WALL

 
   This run was terminated on:  12:12:14  22Mar2018            

=------------------------------------------------------------------------------=
   JOB DONE.
=------------------------------------------------------------------------------=
