
     Program PWSCF v.5.0.2 starts on 22Mar2018 at 17:34:51 

     This program is part of the open-source Quantum ESPRESSO suite
     for quantum simulation of materials; please cite
         "P. Giannozzi et al., J. Phys.:Condens. Matter 21 395502 (2009);
          URL http://www.quantum-espresso.org", 
     in publications or presentations arising from this work. More details at
     http://www.quantum-espresso.org/quote.php

     Parallel version (MPI), running on     4 processors
     R & G space division:  proc/nbgrp/npool/nimage =       4

     Current dimensions of program PWSCF are:
     Max number of different atomic species (ntypx) = 10
     Max number of k-points (npk) =  40000
     Max angular momentum in pseudopotentials (lmaxx) =  3
     Waiting for input...
     Reading input from standard input

     Subspace diagonalization in iterative solution of the eigenvalue problem:
     a serial algorithm will be used

 
     Parallelization info
     --------------------
     sticks:   dense  smooth     PW     G-vecs:    dense   smooth      PW
     Min         396     396    112                10116    10116    1566
     Max         397     397    113                10119    10119    1567
     Sum        1585    1585    451                40467    40467    6267
 


     bravais-lattice index     =            0
     lattice parameter (alat)  =      12.0168  a.u.
     unit-cell volume          =    1187.3413 (a.u.)^3
     number of atoms/cell      =            8
     number of atomic types    =            2
     number of electrons       =       110.00
     number of Kohn-Sham states=           66
     kinetic-energy cutoff     =      40.0000  Ry
     charge density cutoff     =     160.0000  Ry
     convergence threshold     =      1.0E-04
     mixing beta               =       0.7000
     number of iterations used =            8  plain     mixing
     Exchange-correlation      = SLA-PZ-NOGX-NOGC ( 1 1 0 0 0)
     EXX-fraction              =        0.00
     nstep                     =           50


     celldm(1)=  12.016801  celldm(2)=   0.000000  celldm(3)=   0.000000
     celldm(4)=   0.000000  celldm(5)=   0.000000  celldm(6)=   0.000000

     crystal axes: (cart. coord. in units of alat)
               a(1) = (   1.000000   0.000000   0.000000 )  
               a(2) = (  -0.500000   0.866025   0.000000 )  
               a(3) = (   0.000000   0.000000   0.790093 )  

     reciprocal axes: (cart. coord. in units 2 pi/alat)
               b(1) = (  1.000000  0.577350  0.000000 )  
               b(2) = (  0.000000  1.154701  0.000000 )  
               b(3) = (  0.000000  0.000000  1.265674 )  


     PseudoPot. # 1 for Nd read from file:
     /home/cwx6513/pp.La/Nd.UPF
     MD5 check sum: c66c5b6abe7b5840ced9b1e244e3bed6
     Pseudo is Norm-conserving, Zval = 14.0
     Generated in analytical, separable form
     Using radial grid of 1257 points,  6 beta functions with: 
                l(1) =   0
                l(2) =   0
                l(3) =   1
                l(4) =   1
                l(5) =   2
                l(6) =   3

     PseudoPot. # 2 for Pr read from file:
     /home/cwx6513/pp.La/Pr.UPF
     MD5 check sum: 70e2b4b153859e92c8c91247dfc63203
     Pseudo is Norm-conserving, Zval = 13.0
     Generated in analytical, separable form
     Using radial grid of 1255 points,  6 beta functions with: 
                l(1) =   0
                l(2) =   0
                l(3) =   1
                l(4) =   1
                l(5) =   2
                l(6) =   3

     atomic species   valence    mass     pseudopotential
        Mg            14.00    24.30500     Nd( 1.00)
        Cd            13.00   112.41100     Pr( 1.00)

     24 Sym. Ops., with inversion, found (12 have fractional translation)



   Cartesian axes

     site n.     atom                  positions (alat units)
         1           Mg  tau(   1) = (   0.2478935   0.7204716   0.1975233  )
         2           Mg  tau(   2) = (   0.7478935   0.1455538   0.5925699  )
         3           Mg  tau(   3) = (   0.2521065   0.1455538   0.5925699  )
         4           Mg  tau(   4) = (  -0.2478935   0.7204716   0.1975233  )
         5           Mg  tau(   5) = (   0.0000000   0.2911075   0.1975233  )
         6           Mg  tau(   6) = (   0.5000000   0.5749179   0.5925699  )
         7           Cd  tau(   7) = (   0.5000005   0.2886748   0.1975233  )
         8           Cd  tau(   8) = (  -0.0000005   0.5773506   0.5925699  )

     number of k points=    64  gaussian smearing, width (Ry)=  0.1000
                       cart. coord. in units 2pi/alat
        k(    1) = (   0.0000000   0.0000000   0.0000000), wk =   0.0095238
        k(    2) = (   0.0000000   0.0000000   0.1808105), wk =   0.0190476
        k(    3) = (   0.0000000   0.0000000   0.3616210), wk =   0.0190476
        k(    4) = (   0.0000000   0.0000000   0.5424315), wk =   0.0190476
        k(    5) = (   0.0000000   0.1924501   0.0000000), wk =   0.0190476
        k(    6) = (   0.0000000   0.1924501   0.1808105), wk =   0.0380952
        k(    7) = (   0.0000000   0.1924501   0.3616210), wk =   0.0380952
        k(    8) = (   0.0000000   0.1924501   0.5424315), wk =   0.0380952
        k(    9) = (   0.0000000   0.3849002   0.0000000), wk =   0.0190476
        k(   10) = (   0.0000000   0.3849002   0.1808105), wk =   0.0380952
        k(   11) = (   0.0000000   0.3849002   0.3616210), wk =   0.0380952
        k(   12) = (   0.0000000   0.3849002   0.5424315), wk =   0.0380952
        k(   13) = (   0.0000000  -0.5773503   0.0000000), wk =   0.0095238
        k(   14) = (   0.0000000  -0.5773503   0.1808105), wk =   0.0190476
        k(   15) = (   0.0000000  -0.5773503   0.3616210), wk =   0.0190476
        k(   16) = (   0.0000000  -0.5773503   0.5424315), wk =   0.0190476
        k(   17) = (   0.2000000   0.1154701   0.0000000), wk =   0.0190476
        k(   18) = (   0.2000000   0.1154701   0.1808105), wk =   0.0380952
        k(   19) = (   0.2000000   0.1154701   0.3616210), wk =   0.0380952
        k(   20) = (   0.2000000   0.1154701   0.5424315), wk =   0.0380952
        k(   21) = (   0.2000000   0.3079201   0.0000000), wk =   0.0190476
        k(   22) = (   0.2000000   0.3079201   0.1808105), wk =   0.0380952
        k(   23) = (   0.2000000   0.3079201   0.3616210), wk =   0.0380952
        k(   24) = (   0.2000000   0.3079201   0.5424315), wk =   0.0380952
        k(   25) = (   0.2000000   0.5003702   0.0000000), wk =   0.0190476
        k(   26) = (   0.2000000   0.5003702   0.1808105), wk =   0.0380952
        k(   27) = (   0.2000000   0.5003702   0.3616210), wk =   0.0380952
        k(   28) = (   0.2000000   0.5003702   0.5424315), wk =   0.0380952
        k(   29) = (   0.2000000  -0.4618802   0.0000000), wk =   0.0190476
        k(   30) = (   0.2000000  -0.4618802   0.1808105), wk =   0.0380952
        k(   31) = (   0.2000000  -0.4618802   0.3616210), wk =   0.0380952
        k(   32) = (   0.2000000  -0.4618802   0.5424315), wk =   0.0380952
        k(   33) = (   0.2000000  -0.2694301   0.0000000), wk =   0.0190476
        k(   34) = (   0.2000000  -0.2694301   0.1808105), wk =   0.0380952
        k(   35) = (   0.2000000  -0.2694301   0.3616210), wk =   0.0380952
        k(   36) = (   0.2000000  -0.2694301   0.5424315), wk =   0.0380952
        k(   37) = (   0.2000000  -0.0769800   0.0000000), wk =   0.0190476
        k(   38) = (   0.2000000  -0.0769800   0.1808105), wk =   0.0380952
        k(   39) = (   0.2000000  -0.0769800   0.3616210), wk =   0.0380952
        k(   40) = (   0.2000000  -0.0769800   0.5424315), wk =   0.0380952
        k(   41) = (   0.4000000   0.2309401   0.0000000), wk =   0.0190476
        k(   42) = (   0.4000000   0.2309401   0.1808105), wk =   0.0380952
        k(   43) = (   0.4000000   0.2309401   0.3616210), wk =   0.0380952
        k(   44) = (   0.4000000   0.2309401   0.5424315), wk =   0.0380952
        k(   45) = (   0.4000000   0.4233902   0.0000000), wk =   0.0190476
        k(   46) = (   0.4000000   0.4233902   0.1808105), wk =   0.0380952
        k(   47) = (   0.4000000   0.4233902   0.3616210), wk =   0.0380952
        k(   48) = (   0.4000000   0.4233902   0.5424315), wk =   0.0380952
        k(   49) = (   0.4000000   0.6158403   0.0000000), wk =   0.0190476
        k(   50) = (   0.4000000   0.6158403   0.1808105), wk =   0.0380952
        k(   51) = (   0.4000000   0.6158403   0.3616210), wk =   0.0380952
        k(   52) = (   0.4000000   0.6158403   0.5424315), wk =   0.0380952
        k(   53) = (   0.4000000  -0.3464102   0.0000000), wk =   0.0190476
        k(   54) = (   0.4000000  -0.3464102   0.1808105), wk =   0.0380952
        k(   55) = (   0.4000000  -0.3464102   0.3616210), wk =   0.0380952
        k(   56) = (   0.4000000  -0.3464102   0.5424315), wk =   0.0380952
        k(   57) = (   0.4000000  -0.1539601   0.0000000), wk =   0.0190476
        k(   58) = (   0.4000000  -0.1539601   0.1808105), wk =   0.0380952
        k(   59) = (   0.4000000  -0.1539601   0.3616210), wk =   0.0380952
        k(   60) = (   0.4000000  -0.1539601   0.5424315), wk =   0.0380952
        k(   61) = (   0.4000000   0.0384900   0.0000000), wk =   0.0190476
        k(   62) = (   0.4000000   0.0384900   0.1808105), wk =   0.0380952
        k(   63) = (   0.4000000   0.0384900   0.3616210), wk =   0.0380952
        k(   64) = (   0.4000000   0.0384900   0.5424315), wk =   0.0380952

     Dense  grid:    40467 G-vectors     FFT dimensions: (  50,  50,  40)

     Largest allocated arrays     est. size (Mb)     dimensions
        Kohn-Sham Wavefunctions         1.31 Mb     (   1298,   66)
        NL pseudopotentials             3.17 Mb     (   1298,  160)
        Each V/rho on FFT grid          0.38 Mb     (  25000)
        Each G-vector array             0.08 Mb     (  10119)
        G-vector shells                 0.08 Mb     (  10119)
     Largest temporary arrays     est. size (Mb)     dimensions
        Each subspace H/S matrix        0.07 Mb     (  66,  66)
        Each <psi_i|beta_j> matrix      0.16 Mb     (    160,   66)
        Arrays for rho mixing           3.05 Mb     (  25000,   8)

     Initial potential from superposition of free atoms
     Check: negative starting charge=   -0.001098

     starting charge   25.98109, renormalised to  110.00000

     negative rho (up, down):  0.465E-02 0.000E+00
     Starting wfc are   40 randomized atomic wfcs

     total cpu time spent up to now is        6.6 secs

     Self-consistent Calculation

     iteration #  1     ecut=    40.00 Ry     beta=0.70
     CG style diagonalization
     c_bands:  1 eigenvalues not converged
     c_bands:  1 eigenvalues not converged
     c_bands:  1 eigenvalues not converged
     c_bands:  1 eigenvalues not converged
     c_bands:  1 eigenvalues not converged
     ethr =  1.00E-02,  avg # of iterations = 25.0

     negative rho (up, down):  0.137E-02 0.000E+00

     total cpu time spent up to now is      172.6 secs

     total energy              =    -532.19606003 Ry
     Harris-Foulkes estimate   =   -2605.22436254 Ry
     estimated scf accuracy    <    2406.91782898 Ry

     iteration #  2     ecut=    40.00 Ry     beta=0.70
     CG style diagonalization
     c_bands:  3 eigenvalues not converged
     c_bands:  4 eigenvalues not converged
     c_bands:  5 eigenvalues not converged
     c_bands:  4 eigenvalues not converged
     c_bands:  4 eigenvalues not converged
     c_bands:  4 eigenvalues not converged
     c_bands:  5 eigenvalues not converged
     c_bands:  4 eigenvalues not converged
     c_bands:  5 eigenvalues not converged
     c_bands:  4 eigenvalues not converged
     c_bands:  3 eigenvalues not converged
     c_bands:  5 eigenvalues not converged
     c_bands:  4 eigenvalues not converged
     c_bands:  5 eigenvalues not converged
     c_bands:  3 eigenvalues not converged
     c_bands:  4 eigenvalues not converged
     c_bands:  5 eigenvalues not converged
     c_bands:  5 eigenvalues not converged
     c_bands:  4 eigenvalues not converged
     c_bands:  2 eigenvalues not converged
     c_bands:  3 eigenvalues not converged
     c_bands:  3 eigenvalues not converged
     c_bands:  4 eigenvalues not converged
     c_bands:  4 eigenvalues not converged
     c_bands:  5 eigenvalues not converged
     c_bands:  5 eigenvalues not converged
     c_bands:  5 eigenvalues not converged
     c_bands:  4 eigenvalues not converged
     c_bands:  4 eigenvalues not converged
     c_bands:  3 eigenvalues not converged
     c_bands:  5 eigenvalues not converged
     ethr =  1.00E-02,  avg # of iterations = 16.2

     negative rho (up, down):  0.651E-03 0.000E+00

     total cpu time spent up to now is      282.6 secs

     total energy              =    -696.17224532 Ry
     Harris-Foulkes estimate   =   -1087.90094876 Ry
     estimated scf accuracy    <     555.04939984 Ry

     iteration #  3     ecut=    40.00 Ry     beta=0.70
     CG style diagonalization
     c_bands:  1 eigenvalues not converged
     c_bands:  1 eigenvalues not converged
     c_bands:  1 eigenvalues not converged
     c_bands:  1 eigenvalues not converged
     c_bands:  1 eigenvalues not converged
     ethr =  1.00E-02,  avg # of iterations = 10.9

     negative rho (up, down):  0.130E-03 0.000E+00

     total cpu time spent up to now is      357.9 secs

     total energy              =    -822.94901983 Ry
     Harris-Foulkes estimate   =    -885.94111263 Ry
     estimated scf accuracy    <     110.95070641 Ry

     iteration #  4     ecut=    40.00 Ry     beta=0.70
     CG style diagonalization
     c_bands:  1 eigenvalues not converged
     ethr =  1.00E-02,  avg # of iterations =  7.3

     negative rho (up, down):  0.713E-04 0.000E+00

     total cpu time spent up to now is      408.0 secs

     total energy              =    -819.67671187 Ry
     Harris-Foulkes estimate   =    -861.59389884 Ry
     estimated scf accuracy    <      61.82078469 Ry

     iteration #  5     ecut=    40.00 Ry     beta=0.70
     CG style diagonalization
     ethr =  1.00E-02,  avg # of iterations =  7.4

     total cpu time spent up to now is      457.5 secs

     total energy              =    -831.53401659 Ry
     Harris-Foulkes estimate   =    -867.10103859 Ry
     estimated scf accuracy    <      72.46688956 Ry

     iteration #  6     ecut=    40.00 Ry     beta=0.70
     CG style diagonalization
     ethr =  1.00E-02,  avg # of iterations =  5.6

     total cpu time spent up to now is      494.9 secs

     total energy              =    -847.36919625 Ry
     Harris-Foulkes estimate   =    -848.81795132 Ry
     estimated scf accuracy    <       3.20422720 Ry

     iteration #  7     ecut=    40.00 Ry     beta=0.70
     CG style diagonalization
     c_bands:  1 eigenvalues not converged
     ethr =  2.91E-03,  avg # of iterations =  4.2

     total cpu time spent up to now is      522.0 secs

     total energy              =    -848.47561725 Ry
     Harris-Foulkes estimate   =    -848.47859371 Ry
     estimated scf accuracy    <       0.38909556 Ry

     iteration #  8     ecut=    40.00 Ry     beta=0.70
     CG style diagonalization
     c_bands:  1 eigenvalues not converged
     c_bands:  1 eigenvalues not converged
     c_bands:  3 eigenvalues not converged
     c_bands:  1 eigenvalues not converged
     c_bands:  1 eigenvalues not converged
     c_bands:  1 eigenvalues not converged
     c_bands:  1 eigenvalues not converged
     c_bands:  1 eigenvalues not converged
     c_bands:  1 eigenvalues not converged
     c_bands:  1 eigenvalues not converged
     c_bands:  1 eigenvalues not converged
     c_bands:  1 eigenvalues not converged
     ethr =  3.54E-04,  avg # of iterations =  4.2

     total cpu time spent up to now is      550.7 secs

     total energy              =    -848.44101248 Ry
     Harris-Foulkes estimate   =    -848.55262997 Ry
     estimated scf accuracy    <       0.51559781 Ry

     iteration #  9     ecut=    40.00 Ry     beta=0.70
     CG style diagonalization
     ethr =  3.54E-04,  avg # of iterations =  3.1

     total cpu time spent up to now is      571.1 secs

     total energy              =    -848.37314636 Ry
     Harris-Foulkes estimate   =    -848.47600596 Ry
     estimated scf accuracy    <       0.17624538 Ry

     iteration # 10     ecut=    40.00 Ry     beta=0.70
     CG style diagonalization
     c_bands:  1 eigenvalues not converged
     c_bands:  1 eigenvalues not converged
     c_bands:  1 eigenvalues not converged
     c_bands:  1 eigenvalues not converged
     ethr =  1.60E-04,  avg # of iterations =  4.8

     total cpu time spent up to now is      601.9 secs

     total energy              =    -848.43974764 Ry
     Harris-Foulkes estimate   =    -848.49095616 Ry
     estimated scf accuracy    <       0.23061103 Ry

     iteration # 11     ecut=    40.00 Ry     beta=0.70
     CG style diagonalization
     ethr =  1.60E-04,  avg # of iterations =  3.1

     total cpu time spent up to now is      623.1 secs

     total energy              =    -848.43825567 Ry
     Harris-Foulkes estimate   =    -848.45168790 Ry
     estimated scf accuracy    <       0.04783413 Ry

     iteration # 12     ecut=    40.00 Ry     beta=0.70
     CG style diagonalization
     c_bands:  1 eigenvalues not converged
     c_bands:  1 eigenvalues not converged
     c_bands:  1 eigenvalues not converged
     ethr =  4.35E-05,  avg # of iterations =  4.2

     total cpu time spent up to now is      650.9 secs

     total energy              =    -848.45358227 Ry
     Harris-Foulkes estimate   =    -848.45262627 Ry
     estimated scf accuracy    <       0.00401144 Ry

     iteration # 13     ecut=    40.00 Ry     beta=0.70
     CG style diagonalization
     c_bands:  1 eigenvalues not converged
     c_bands:  1 eigenvalues not converged
     c_bands:  2 eigenvalues not converged
     c_bands:  1 eigenvalues not converged
     c_bands:  1 eigenvalues not converged
     c_bands:  1 eigenvalues not converged
     c_bands:  1 eigenvalues not converged
     c_bands:  1 eigenvalues not converged
     ethr =  3.65E-06,  avg # of iterations =  4.7

     total cpu time spent up to now is      682.9 secs

     total energy              =    -848.45345727 Ry
     Harris-Foulkes estimate   =    -848.45503328 Ry
     estimated scf accuracy    <       0.01578600 Ry

     iteration # 14     ecut=    40.00 Ry     beta=0.70
     CG style diagonalization
     c_bands:  1 eigenvalues not converged
     ethr =  3.65E-06,  avg # of iterations =  3.0

     total cpu time spent up to now is      702.0 secs

     total energy              =    -848.45043583 Ry
     Harris-Foulkes estimate   =    -848.45364728 Ry
     estimated scf accuracy    <       0.00982977 Ry

     iteration # 15     ecut=    40.00 Ry     beta=0.70
     CG style diagonalization
     ethr =  3.65E-06,  avg # of iterations =  4.2

     total cpu time spent up to now is      729.5 secs

     total energy              =    -848.45235962 Ry
     Harris-Foulkes estimate   =    -848.45249997 Ry
     estimated scf accuracy    <       0.00049597 Ry

     iteration # 16     ecut=    40.00 Ry     beta=0.70
     CG style diagonalization
     ethr =  4.51E-07,  avg # of iterations =  3.8

     total cpu time spent up to now is      753.3 secs

     End of self-consistent calculation

          k = 0.0000 0.0000 0.0000 (  5047 PWs)   bands (ev):

   -26.9332 -26.7028 -26.7027 -26.6672 -26.5770 -26.5770 -21.8913 -21.8809
    -6.0126  -5.9760  -5.6101  -5.6007  -5.6007  -5.3660  -5.3660  -5.3534
    -5.3534  -4.9529  -4.6587  -4.6586  -4.5721  -4.4934  -4.4933  -4.4564
    -4.4564  -4.3971  -1.7299  -1.7001  -1.6851  -1.6850  -1.6371  -1.6371
    15.7072  15.9793  15.9865  15.9865  16.2134  16.8693  16.8694  16.9341
    17.2159  17.2159  17.3106  19.2520  19.4596  19.4597  19.8614  19.8614
    20.1266  20.7516  20.7516  20.8962  20.9977  20.9978  21.3872  21.3873
    21.4082  21.4082  21.4942  21.4943  21.5949  21.7976  24.1235  24.6857
    24.6860  25.0851

          k = 0.0000 0.0000 0.1808 (  5065 PWs)   bands (ev):

   -26.9200 -26.6966 -26.6965 -26.6803 -26.5832 -26.5832 -21.8923 -21.8825
    -5.9958  -5.9449  -5.7264  -5.7264  -5.6272  -5.4467  -5.4467  -5.1796
    -5.1796  -4.9250  -4.6484  -4.6484  -4.5886  -4.4648  -4.4647  -4.4590
    -4.4589  -4.4275  -1.7334  -1.7235  -1.6768  -1.6768  -1.6396  -1.6396
    15.9305  16.0963  16.0972  16.0972  16.2851  16.3289  16.3290  16.4383
    17.8984  17.8984  17.9343  19.4376  19.4376  19.4496  19.5799  19.7473
    19.7473  19.8268  19.8269  20.0182  20.5809  20.5809  21.2602  21.2603
    21.7012  21.7819  21.7819  22.9219  22.9510  22.9510  23.5380  24.8100
    24.8104  24.8625

          k = 0.0000 0.0000 0.3616 (  5047 PWs)   bands (ev):

   -26.8830 -26.7168 -26.6791 -26.6790 -26.6006 -26.6006 -21.8932 -21.8866
    -6.0167  -5.8744  -5.8403  -5.8403  -5.6173  -5.6173  -5.5420  -4.9217
    -4.9217  -4.8525  -4.6831  -4.6262  -4.6262  -4.5079  -4.4609  -4.4609
    -4.4329  -4.4329  -1.7832  -1.7199  -1.6598  -1.6598  -1.6397  -1.6397
    16.0134  16.0134  16.0777  16.3536  16.3857  16.3857  16.5315  16.5866
    18.2008  18.2008  18.2536  18.2657  18.2896  18.2896  19.6172  19.6172
    19.7600  20.0305  20.1878  20.1878  20.3401  20.3401  21.5082  21.5082
    21.9462  22.2484  22.5738  22.5738  23.5866  24.1758  24.1759  24.3152
    24.4289  24.4294

          k = 0.0000 0.0000 0.5424 (  5041 PWs)   bands (ev):

   -26.8293 -26.7700 -26.6538 -26.6538 -26.6258 -26.6258 -21.8932 -21.8909
    -5.9998  -5.9393  -5.8571  -5.8571  -5.7740  -5.7740  -5.2417  -4.9103
    -4.7448  -4.7171  -4.7171  -4.6241  -4.6240  -4.6209  -4.4667  -4.4667
    -4.4464  -4.4463  -1.7849  -1.7461  -1.6451  -1.6451  -1.6407  -1.6407
    16.1271  16.1271  16.1818  16.5016  16.5016  16.5159  16.9056  16.9926
    17.5682  17.5683  17.5699  17.9161  17.9445  17.9445  19.6310  19.6310
    19.8431  19.8431  19.8916  20.8318  20.9594  21.2840  21.2840  22.1788
    22.4924  22.4924  22.6845  22.6845  23.0747  23.7577  23.7577  24.2065
    24.2075  24.4353

          k = 0.0000 0.1925 0.0000 (  5083 PWs)   bands (ev):

   -26.9201 -26.7173 -26.7033 -26.6650 -26.5783 -26.5766 -21.8917 -21.8824
    -5.9767  -5.9124  -5.5729  -5.5637  -5.5467  -5.3937  -5.3583  -5.3379
    -5.3076  -4.9790  -4.7506  -4.6562  -4.5861  -4.5260  -4.5242  -4.4820
    -4.4782  -4.4237  -1.7377  -1.7278  -1.7021  -1.6989  -1.6873  -1.6546
    15.9663  16.1102  16.2693  16.2747  16.4425  16.8636  16.9122  17.1038
    17.3031  17.4518  17.5188  19.2979  19.3515  19.4363  19.5480  20.0895
    20.5136  20.5922  20.8806  20.9214  20.9795  20.9845  21.0570  21.0984
    21.1098  21.1395  21.1941  21.3135  21.3395  21.6812  22.8439  24.6094
    24.8871  25.0304

          k = 0.0000 0.1925 0.1808 (  5077 PWs)   bands (ev):

   -26.9071 -26.7112 -26.6970 -26.6762 -26.5858 -26.5829 -21.8924 -21.8841
    -5.9282  -5.9131  -5.6983  -5.6864  -5.5756  -5.4174  -5.3917  -5.2051
    -5.2009  -4.9376  -4.7217  -4.6512  -4.5764  -4.5359  -4.5199  -4.4882
    -4.4562  -4.4403  -1.7402  -1.7216  -1.7181  -1.6907  -1.6869  -1.6539
    16.1592  16.2168  16.3664  16.3700  16.4800  16.4971  16.5133  16.6094
    18.0206  18.0231  18.0692  19.2711  19.3330  19.3626  19.5200  19.5405
    19.7849  19.8192  19.9525  20.1307  20.3215  20.7953  21.1581  21.2946
    21.5878  21.6341  21.6999  22.3634  22.4107  22.5467  22.7505  24.5607
    24.7381  24.9333

          k = 0.0000 0.1925 0.3616 (  5061 PWs)   bands (ev):

   -26.8710 -26.7134 -26.6892 -26.6794 -26.6061 -26.6004 -21.8938 -21.8879
    -5.9510  -5.8372  -5.8040  -5.7967  -5.5901  -5.5667  -5.5047  -5.0076
    -4.9517  -4.8080  -4.7210  -4.6602  -4.6142  -4.5630  -4.5332  -4.4782
    -4.4700  -4.4162  -1.7772  -1.7204  -1.7045  -1.6839  -1.6731  -1.6527
    16.1283  16.1842  16.2343  16.5539  16.6580  16.6892  16.7672  16.8306
    18.1737  18.2008  18.2256  18.4826  18.5131  18.5323  19.4052  19.6401
    19.6582  19.7890  19.7996  19.9044  20.2857  20.4296  21.4326  21.7214
    21.8727  22.1267  22.4545  22.6052  23.1173  23.2090  23.4887  23.7555
    23.9045  24.0181

          k = 0.0000 0.1925 0.5424 (  5050 PWs)   bands (ev):

   -26.8189 -26.7620 -26.6641 -26.6540 -26.6341 -26.6258 -21.8940 -21.8919
    -5.9418  -5.8864  -5.8195  -5.8127  -5.7358  -5.7274  -5.2352  -4.9223
    -4.8636  -4.7510  -4.7408  -4.6581  -4.6437  -4.5553  -4.5360  -4.4827
    -4.4814  -4.4350  -1.7788  -1.7447  -1.6883  -1.6816  -1.6582  -1.6518
    16.2501  16.3138  16.3539  16.6351  16.7508  16.7596  17.1684  17.2462
    17.6677  17.6737  17.6738  18.0936  18.1380  18.1561  19.1509  19.3309
    19.8161  20.0014  20.0412  20.5394  20.7796  20.8939  21.2143  21.8072
    22.0617  22.3676  22.4887  22.7175  22.9607  23.4512  23.5604  23.6871
    23.7041  23.8987

          k = 0.0000 0.3849 0.0000 (  5079 PWs)   bands (ev):

   -26.8849 -26.7573 -26.7043 -26.6559 -26.5832 -26.5757 -21.8915 -21.8855
    -5.8858  -5.7519  -5.4992  -5.4969  -5.4553  -5.4294  -5.3626  -5.2073
    -5.1709  -5.0472  -4.8278  -4.8174  -4.7092  -4.6471  -4.6358  -4.5471
    -4.4284  -4.3936  -1.8383  -1.7915  -1.7240  -1.7190  -1.7033  -1.6870
    16.4414  16.6245  16.8546  16.9267  16.9329  17.0581  17.0700  17.4409
    17.7120  18.0132  18.0474  18.8303  19.3688  19.3847  19.8034  19.9289
    20.0289  20.0811  20.1789  20.2318  20.6796  20.7212  20.7273  20.7980
    20.9066  21.2293  21.2321  21.2429  21.4413  21.6495  22.0155  23.2820
    23.8017  23.9036

          k = 0.0000 0.3849 0.1808 (  5090 PWs)   bands (ev):

   -26.8727 -26.7508 -26.6979 -26.6638 -26.5938 -26.5821 -21.8926 -21.8871
    -5.8350  -5.7745  -5.6339  -5.5808  -5.5211  -5.2834  -5.2800  -5.2336
    -5.2288  -4.9703  -4.8299  -4.7925  -4.7033  -4.6630  -4.5950  -4.4944
    -4.4480  -4.4383  -1.8238  -1.7890  -1.7228  -1.7178  -1.7175  -1.6841
    16.4886  16.7497  16.7541  16.8007  16.9722  17.0783  17.1907  17.1935
    18.2034  18.2395  18.3933  18.8534  18.9953  19.0501  19.3442  19.6775
    19.7543  19.9233  19.9462  20.0021  20.3801  20.5637  20.9508  21.1238
    21.2233  21.4052  21.5104  21.5435  21.6480  21.9699  22.2643  23.3227
    23.6828  23.8079

          k = 0.0000 0.3849 0.3616 (  5078 PWs)   bands (ev):

   -26.8387 -26.7352 -26.6850 -26.6801 -26.6215 -26.5999 -21.8945 -21.8907
    -5.8201  -5.7603  -5.7014  -5.6869  -5.5491  -5.4443  -5.3570  -5.1438
    -5.0262  -4.8312  -4.8224  -4.7796  -4.7302  -4.6081  -4.5588  -4.5483
    -4.4719  -4.4213  -1.7947  -1.7772  -1.7573  -1.7219  -1.7019  -1.6768
    16.4490  16.6438  16.6794  17.0311  17.0870  17.4277  17.5030  17.5083
    18.0100  18.0467  18.2984  18.8132  18.8975  18.9415  19.1186  19.2583
    19.3429  19.4237  19.4841  20.2474  20.4181  20.7856  20.9977  21.1215
    21.2444  21.4529  21.9484  22.0195  22.3201  22.5057  22.7537  22.7538
    23.0531  23.4027

          k = 0.0000 0.3849 0.5424 (  5051 PWs)   bands (ev):

   -26.7911 -26.7445 -26.6875 -26.6566 -26.6543 -26.6257 -21.8954 -21.8940
    -5.8337  -5.7985  -5.6984  -5.6753  -5.6102  -5.5954  -5.2363  -5.0239
    -5.0184  -4.9001  -4.8212  -4.7829  -4.6331  -4.5870  -4.5498  -4.5102
    -4.5049  -4.4334  -1.7743  -1.7673  -1.7653  -1.7412  -1.6845  -1.6742
    16.5924  16.7801  16.7976  17.0023  17.2345  17.2496  17.5412  17.8269
    17.9811  18.0637  18.0704  18.4717  18.5112  18.7120  18.7532  18.8068
    19.8397  19.8515  20.0488  20.3363  20.5963  20.6600  20.9536  21.1225
    21.1595  21.5349  21.7712  21.9828  22.0594  22.1694  22.2954  22.3444
    23.3587  24.0194

          k = 0.0000-0.5774 0.0000 (  5068 PWs)   bands (ev):

   -26.8538 -26.7909 -26.7047 -26.6497 -26.5873 -26.5753 -21.8911 -21.8872
    -5.8138  -5.6321  -5.5812  -5.5231  -5.3656  -5.3575  -5.2658  -5.1767
    -5.0283  -5.0197  -4.9862  -4.9033  -4.8540  -4.7691  -4.6451  -4.5614
    -4.4299  -4.3607  -1.8815  -1.8495  -1.7351  -1.7145  -1.7050  -1.7035
    16.8198  16.8507  16.8819  16.9334  17.3115  17.3529  17.8954  17.9193
    18.1949  18.2401  18.5559  18.8307  19.0802  19.1141  19.2792  19.3400
    19.3689  19.4219  20.1420  20.1696  20.2070  20.2870  20.7475  20.9318
    20.9833  21.1672  21.4389  21.6454  21.6928  22.1021  22.1569  22.5576
    22.6844  22.8569

          k = 0.0000-0.5774 0.1808 (  5072 PWs)   bands (ev):

   -26.8416 -26.7843 -26.6983 -26.6556 -26.5999 -26.5817 -21.8922 -21.8887
    -5.7786  -5.6970  -5.5726  -5.5503  -5.4895  -5.3382  -5.1818  -5.1084
    -5.0618  -5.0266  -5.0175  -4.9640  -4.7819  -4.7209  -4.6050  -4.5069
    -4.4385  -4.4274  -1.8621  -1.8453  -1.7308  -1.7194  -1.7154  -1.6983
    16.8251  16.8904  16.9320  17.0150  17.3028  17.3839  17.9179  17.9563
    18.3308  18.3597  18.4325  18.5131  18.8538  18.9521  18.9973  19.1477
    19.8123  19.8270  20.1305  20.1856  20.3370  20.4593  20.4684  20.6016
    20.9310  21.0714  21.4661  21.7538  21.8892  22.0913  22.4637  22.6657
    22.6677  22.7184

          k = 0.0000-0.5774 0.3616 (  5090 PWs)   bands (ev):

   -26.8078 -26.7666 -26.6804 -26.6716 -26.6347 -26.5997 -21.8947 -21.8923
    -5.7581  -5.7360  -5.6043  -5.6001  -5.5259  -5.3759  -5.2106  -5.1647
    -5.1253  -4.9464  -4.9292  -4.9122  -4.7257  -4.5952  -4.5855  -4.5674
    -4.4609  -4.4323  -1.8329  -1.8264  -1.7485  -1.7263  -1.7163  -1.6887
    16.8567  16.9175  17.0858  17.1270  17.5389  17.6194  17.6437  17.6797
    18.3091  18.3462  18.4143  18.5086  18.7268  18.8155  19.1485  19.2731
    19.7303  19.8327  19.8450  19.9200  20.4412  20.4942  20.7472  20.8230
    20.8246  20.9309  21.2807  21.5806  21.7910  22.0618  22.4383  22.5788
    22.8083  22.9790

          k = 0.0000-0.5774 0.5424 (  5080 PWs)   bands (ev):

   -26.7630 -26.7468 -26.6910 -26.6793 -26.6544 -26.6257 -21.8961 -21.8954
    -5.7842  -5.7747  -5.6192  -5.5307  -5.4974  -5.4890  -5.2423  -5.1926
    -5.1193  -5.0002  -4.8962  -4.8195  -4.6692  -4.5785  -4.5540  -4.5285
    -4.4882  -4.4416  -1.8165  -1.8106  -1.7594  -1.7446  -1.6975  -1.6857
    17.0795  17.1096  17.1857  17.2185  17.2869  17.3181  17.5126  17.6393
    18.2974  18.3948  18.6443  18.6610  18.8345  18.9048  18.9610  19.1402
    19.7402  19.8387  20.2400  20.2495  20.4557  20.5916  20.6801  20.8084
    20.8305  20.8749  21.0534  21.2205  21.3003  21.3201  21.6795  21.7407
    23.2793  23.6505

          k = 0.2000 0.1155 0.0000 (  5087 PWs)   bands (ev):

   -26.9145 -26.7237 -26.7035 -26.6636 -26.5789 -26.5764 -21.8917 -21.8830
    -5.9624  -5.8853  -5.5529  -5.5467  -5.5318  -5.4099  -5.3588  -5.3222
    -5.2841  -4.9895  -4.7697  -4.6547  -4.6271  -4.5533  -4.5378  -4.4944
    -4.4610  -4.4257  -1.7590  -1.7264  -1.7065  -1.7037  -1.7021  -1.6606
    16.0715  16.1669  16.3920  16.3982  16.5342  16.8616  16.9155  17.1934
    17.3311  17.5489  17.6106  19.2241  19.3151  19.4256  19.5864  20.1875
    20.4862  20.6303  20.8144  20.8940  20.9029  20.9141  20.9421  20.9991
    21.0818  21.0969  21.1115  21.2188  21.3183  21.6302  22.6260  24.3656
    24.8588  24.9611

          k = 0.2000 0.1155 0.1808 (  5078 PWs)   bands (ev):

   -26.9017 -26.7176 -26.6972 -26.6742 -26.5870 -26.5827 -21.8925 -21.8846
    -5.9007  -5.9004  -5.6873  -5.6688  -5.5589  -5.4005  -5.3687  -5.2143
    -5.2089  -4.9420  -4.7390  -4.6538  -4.6144  -4.5500  -4.5374  -4.4862
    -4.4643  -4.4401  -1.7526  -1.7236  -1.7208  -1.7055  -1.6956  -1.6599
    16.2228  16.3005  16.4674  16.4685  16.5597  16.5820  16.5941  16.6859
    18.0694  18.0710  18.1221  19.1928  19.2677  19.2785  19.5121  19.5541
    19.7990  19.8307  20.0337  20.1266  20.2242  20.8849  21.0884  21.2784
    21.5099  21.5856  21.6824  22.1608  22.2170  22.4113  22.5979  24.3507
    24.5679  24.7318

          k = 0.2000 0.1155 0.3616 (  5067 PWs)   bands (ev):

   -26.8659 -26.7139 -26.6916 -26.6795 -26.6085 -26.6003 -21.8940 -21.8884
    -5.9260  -5.8219  -5.7901  -5.7790  -5.5811  -5.5462  -5.4854  -5.0345
    -4.9638  -4.7996  -4.7356  -4.6771  -4.6184  -4.5936  -4.5405  -4.4868
    -4.4786  -4.4156  -1.7750  -1.7221  -1.7201  -1.7005  -1.6787  -1.6572
    16.1770  16.2569  16.3037  16.6296  16.7723  16.8181  16.8641  16.9321
    18.1720  18.1962  18.2232  18.5482  18.6033  18.6305  19.3389  19.5102
    19.6079  19.6577  19.7728  19.8755  20.3088  20.5149  21.3560  21.7185
    21.7667  22.0979  22.4111  22.6260  22.8718  22.9246  23.3460  23.5354
    23.7541  23.8929

          k = 0.2000 0.1155 0.5424 (  5053 PWs)   bands (ev):

   -26.8145 -26.7588 -26.6683 -26.6540 -26.6377 -26.6258 -21.8943 -21.8923
    -5.9189  -5.8669  -5.8007  -5.7937  -5.7173  -5.7078  -5.2337  -4.9301
    -4.8951  -4.7717  -4.7647  -4.6771  -4.6314  -4.5578  -4.5450  -4.4970
    -4.4864  -4.4325  -1.7768  -1.7448  -1.7042  -1.6971  -1.6636  -1.6560
    16.3014  16.3910  16.4275  16.6909  16.8499  16.8568  17.2716  17.3464
    17.7147  17.7207  17.7226  18.1601  18.2271  18.2471  19.0302  19.1708
    19.8925  19.9833  20.1247  20.3941  20.6212  20.8709  21.2094  21.6571
    21.8986  22.3171  22.3604  22.6337  22.8326  23.2214  23.3473  23.4719
    23.5876  23.8768

          k = 0.2000 0.3079 0.0000 (  5075 PWs)   bands (ev):

   -26.8886 -26.7435 -26.7205 -26.6489 -26.5807 -26.5792 -21.8915 -21.8852
    -5.8953  -5.7655  -5.4743  -5.4674  -5.4636  -5.4557  -5.3880  -5.2828
    -5.1382  -5.0552  -4.8058  -4.7679  -4.7224  -4.6628  -4.5630  -4.5237
    -4.4898  -4.3948  -1.8193  -1.7706  -1.7301  -1.7194  -1.7028  -1.6996
    16.5488  16.6087  16.6636  16.6649  16.9360  17.1344  17.3357  17.4304
    17.5909  17.6866  18.1364  18.7450  19.3773  19.4610  19.6472  20.0292
    20.1295  20.1959  20.2644  20.3642  20.5057  20.6426  20.7312  20.8190
    20.9448  21.0501  21.0927  21.2690  21.6292  21.6901  22.2240  23.5079
    23.7355  24.0596

          k = 0.2000 0.3079 0.1808 (  5088 PWs)   bands (ev):

   -26.8763 -26.7365 -26.7163 -26.6558 -26.5897 -26.5864 -21.8926 -21.8868
    -5.8418  -5.7827  -5.6451  -5.5996  -5.4832  -5.3633  -5.2637  -5.2353
    -5.2234  -4.9782  -4.7974  -4.7871  -4.6753  -4.6541  -4.5275  -4.5051
    -4.5032  -4.4430  -1.8061  -1.7695  -1.7225  -1.7223  -1.7184  -1.6966
    16.6062  16.6339  16.6955  16.7581  16.9636  16.9766  17.0613  17.2436
    18.2231  18.2694  18.3231  18.8049  18.9787  19.1337  19.3260  19.4804
    19.6933  19.9387  20.0106  20.0999  20.4319  20.7318  20.8143  20.9697
    21.2196  21.3927  21.6173  21.6713  21.8670  21.8845  22.2838  23.3580
    23.5387  24.2416

          k = 0.2000 0.3079 0.3616 (  5068 PWs)   bands (ev):

   -26.8421 -26.7184 -26.7124 -26.6679 -26.6157 -26.6038 -21.8944 -21.8904
    -5.8140  -5.7573  -5.7374  -5.6934  -5.5153  -5.5004  -5.3632  -5.1511
    -4.9888  -4.8365  -4.8321  -4.7755  -4.6389  -4.6123  -4.5933  -4.5388
    -4.4697  -4.4380  -1.7792  -1.7622  -1.7566  -1.7210  -1.7055  -1.6883
    16.4865  16.5490  16.6265  17.0954  17.1387  17.2012  17.3470  17.5463
    18.1174  18.1867  18.2161  18.7071  18.7921  18.8711  19.1074  19.1310
    19.2639  19.4591  19.9115  20.0365  20.2829  20.9212  21.0031  21.0409
    21.2404  21.7112  22.0588  22.1655  22.2917  22.5362  22.6787  22.8189
    23.0441  23.5225

          k = 0.2000 0.3079 0.5424 (  5058 PWs)   bands (ev):

   -26.7939 -26.7447 -26.6871 -26.6612 -26.6448 -26.6280 -21.8954 -21.8939
    -5.8226  -5.7826  -5.7409  -5.7041  -5.6338  -5.5958  -5.2342  -5.0543
    -4.9549  -4.9130  -4.8011  -4.7144  -4.6373  -4.6221  -4.5751  -4.5184
    -4.4636  -4.4512  -1.7681  -1.7566  -1.7540  -1.7399  -1.6905  -1.6842
    16.6017  16.6620  16.7986  17.0280  17.0892  17.3128  17.6919  17.7674
    17.9377  17.9527  18.0503  18.4871  18.5062  18.6091  18.6370  18.7284
    19.7226  19.7446  20.2741  20.5599  20.6174  20.6971  20.7936  20.9514
    21.3204  21.3897  21.9843  22.1066  22.1640  22.1941  22.4679  22.6221
    23.4189  24.0021

          k = 0.2000 0.5004 0.0000 (  5072 PWs)   bands (ev):

   -26.8521 -26.7748 -26.7368 -26.6282 -26.5899 -26.5800 -21.8908 -21.8879
    -5.8073  -5.6131  -5.5385  -5.4426  -5.4307  -5.3585  -5.3115  -5.2040
    -5.1470  -5.0062  -4.9280  -4.8518  -4.8035  -4.6856  -4.6659  -4.6130
    -4.5179  -4.3501  -1.8523  -1.8248  -1.7655  -1.7461  -1.7129  -1.7048
    16.5366  17.0723  17.2592  17.3734  17.4701  17.5953  17.6811  17.9773
    18.1317  18.1453  18.4202  18.5657  18.8422  18.9854  19.0235  19.3618
    19.5547  19.6531  19.7245  20.0670  20.1120  20.3127  20.3469  20.5231
    21.2837  21.5406  21.5586  21.6141  21.9057  21.9394  22.3190  22.5400
    22.8913  23.0959

          k = 0.2000 0.5004 0.1808 (  5079 PWs)   bands (ev):

   -26.8400 -26.7682 -26.7317 -26.6333 -26.5983 -26.5899 -21.8920 -21.8894
    -5.7716  -5.6483  -5.5829  -5.5407  -5.4587  -5.3380  -5.2423  -5.1800
    -5.0590  -5.0328  -5.0035  -4.9288  -4.7030  -4.6766  -4.6181  -4.5508
    -4.5222  -4.4151  -1.8371  -1.8201  -1.7600  -1.7386  -1.7185  -1.7153
    16.6989  17.0700  17.2542  17.3306  17.4704  17.5229  17.6627  18.1223
    18.1713  18.3410  18.4014  18.4955  18.5776  18.7777  19.0187  19.0649
    19.6893  19.7724  19.9184  19.9711  20.3231  20.3544  20.4435  20.6342
    21.0275  21.2092  21.3825  21.6840  21.8126  22.2622  22.3846  22.5830
    22.8506  23.3032

          k = 0.2000 0.5004 0.3616 (  5085 PWs)   bands (ev):

   -26.8066 -26.7506 -26.7198 -26.6467 -26.6282 -26.6090 -21.8945 -21.8927
    -5.7057  -5.6942  -5.6382  -5.6068  -5.5063  -5.4005  -5.2554  -5.1887
    -5.0251  -5.0060  -4.9566  -4.8539  -4.7114  -4.6025  -4.5837  -4.5636
    -4.4973  -4.4570  -1.8114  -1.8029  -1.7458  -1.7444  -1.7287  -1.7224
    16.9686  17.0655  17.1374  17.3184  17.7094  17.7360  17.8159  17.8902
    18.0001  18.1054  18.2248  18.3828  18.6747  18.9684  19.1224  19.3052
    19.4710  19.6293  19.8875  19.9642  20.3244  20.4830  20.5725  20.6799
    20.7754  20.8821  21.0991  21.6355  21.7322  22.2985  22.4919  22.8894
    22.9447  23.3507

          k = 0.2000 0.5004 0.5424 (  5080 PWs)   bands (ev):

   -26.7618 -26.7345 -26.7094 -26.6782 -26.6455 -26.6309 -21.8962 -21.8956
    -5.7263  -5.7084  -5.6417  -5.6010  -5.5056  -5.4824  -5.2487  -5.2148
    -5.0606  -5.0452  -4.8296  -4.7888  -4.6889  -4.6749  -4.5448  -4.5274
    -4.4816  -4.4535  -1.7946  -1.7897  -1.7572  -1.7462  -1.7260  -1.7165
    17.0654  17.1413  17.2976  17.3294  17.4670  17.5277  17.5490  17.8752
    18.3544  18.4023  18.4678  18.5355  18.6721  18.9493  19.0098  19.2333
    19.4854  19.7812  19.9783  20.0228  20.1551  20.2370  20.3682  20.4942
    20.8127  21.0158  21.1590  21.3730  21.5926  21.6641  21.8882  21.9816
    23.5438  24.2190

          k = 0.2000-0.4619 0.0000 (  5078 PWs)   bands (ev):

   -26.8586 -26.7685 -26.7352 -26.6315 -26.5879 -26.5800 -21.8910 -21.8875
    -5.8227  -5.6384  -5.5267  -5.4371  -5.4255  -5.3784  -5.3433  -5.2094
    -5.1436  -4.9791  -4.9507  -4.8304  -4.8055  -4.6813  -4.6391  -4.5991
    -4.5182  -4.3559  -1.8503  -1.8172  -1.7600  -1.7401  -1.7140  -1.7046
    16.5517  16.9835  17.1605  17.2593  17.3246  17.5736  17.6938  17.9159
    17.9589  17.9642  18.4159  18.5292  19.0575  19.2015  19.2374  19.3800
    19.6321  19.6993  19.7055  20.1150  20.1288  20.3932  20.4131  20.5732
    21.2438  21.4496  21.4787  21.4924  21.7966  21.9924  22.4066  22.6153
    22.8477  23.2885

          k = 0.2000-0.4619 0.1808 (  5075 PWs)   bands (ev):

   -26.8466 -26.7618 -26.7303 -26.6370 -26.5960 -26.5898 -21.8921 -21.8889
    -5.7825  -5.6620  -5.6041  -5.5463  -5.4437  -5.3437  -5.2544  -5.2063
    -5.0680  -5.0375  -4.9659  -4.9013  -4.6953  -4.6772  -4.5997  -4.5437
    -4.5228  -4.4185  -1.8350  -1.8125  -1.7538  -1.7331  -1.7187  -1.7158
    16.6919  16.9883  17.1883  17.2140  17.3890  17.4441  17.5048  17.9882
    18.2262  18.3146  18.4146  18.5047  18.6973  18.8300  19.1155  19.1544
    19.7580  19.8074  19.8365  19.9669  20.3386  20.4126  20.5224  20.7315
    21.0890  21.1903  21.4076  21.5847  21.8063  22.2669  22.4168  22.6105
    22.7553  23.5289

          k = 0.2000-0.4619 0.3616 (  5078 PWs)   bands (ev):

   -26.8134 -26.7436 -26.7195 -26.6510 -26.6250 -26.6083 -21.8945 -21.8923
    -5.7154  -5.7021  -5.6641  -5.6218  -5.4962  -5.4165  -5.2527  -5.2166
    -5.0088  -4.9776  -4.9443  -4.8372  -4.6983  -4.6062  -4.5831  -4.5619
    -4.4926  -4.4547  -1.8068  -1.7983  -1.7476  -1.7385  -1.7266  -1.7181
    16.8703  16.9737  17.0142  17.3523  17.5964  17.7352  17.7869  17.8717
    17.9604  18.1078  18.2353  18.5139  18.5314  18.8916  19.2033  19.2627
    19.4532  19.7854  19.7890  19.8741  20.3848  20.4912  20.5756  20.8034
    20.8489  21.1184  21.2842  21.5590  21.7534  22.4041  22.5222  22.8204
    22.8980  23.3276

          k = 0.2000-0.4619 0.5424 (  5069 PWs)   bands (ev):

   -26.7684 -26.7336 -26.7071 -26.6752 -26.6455 -26.6305 -21.8961 -21.8953
    -5.7371  -5.7171  -5.6594  -5.6272  -5.5102  -5.5047  -5.2479  -5.1924
    -5.0368  -5.0279  -4.8277  -4.7690  -4.6860  -4.6690  -4.5496  -4.5239
    -4.4779  -4.4537  -1.7892  -1.7852  -1.7586  -1.7450  -1.7206  -1.7121
    16.9656  17.0440  17.2019  17.3123  17.3892  17.5300  17.6342  17.9786
    18.2795  18.3190  18.3790  18.5310  18.5624  18.8366  18.9395  19.0904
    19.4791  19.8791  20.0197  20.1959  20.2487  20.3855  20.4306  20.6182
    20.8495  21.0875  21.1817  21.3274  21.6940  21.7650  21.9599  22.0691
    23.4716  24.1780

          k = 0.2000-0.2694 0.0000 (  5077 PWs)   bands (ev):

   -26.8953 -26.7390 -26.7153 -26.6532 -26.5802 -26.5782 -21.8917 -21.8846
    -5.9122  -5.7957  -5.4936  -5.4863  -5.4752  -5.4547  -5.3782  -5.2932
    -5.1767  -5.0359  -4.8017  -4.7283  -4.6906  -4.6587  -4.5476  -4.5233
    -4.4685  -4.4079  -1.8070  -1.7580  -1.7223  -1.7209  -1.7021  -1.6889
    16.4220  16.4815  16.5898  16.7037  16.8353  16.9557  17.2160  17.3852
    17.5155  17.6589  18.0155  18.8559  19.3677  19.4410  19.6429  20.2458
    20.2887  20.3622  20.3681  20.5050  20.6069  20.6417  20.7049  20.8651
    21.0108  21.0222  21.0717  21.2177  21.5240  21.6103  22.2847  23.7756
    24.0099  24.1398

          k = 0.2000-0.2694 0.1808 (  5087 PWs)   bands (ev):

   -26.8829 -26.7322 -26.7109 -26.6607 -26.5893 -26.5850 -21.8926 -21.8863
    -5.8567  -5.8125  -5.6541  -5.6158  -5.5027  -5.3728  -5.2660  -5.2483
    -5.2302  -4.9668  -4.7809  -4.7454  -4.6654  -4.6414  -4.5291  -4.4943
    -4.4840  -4.4501  -1.7955  -1.7563  -1.7236  -1.7188  -1.7148  -1.6862
    16.4956  16.6025  16.6288  16.6504  16.8646  16.8756  16.9647  17.0677
    18.1935  18.2241  18.2809  18.9056  19.0341  19.2267  19.3173  19.4834
    19.8046  19.9220  19.9994  20.1054  20.3692  20.8269  20.9527  21.0549
    21.1535  21.5464  21.6923  21.7272  21.7949  21.9817  22.3267  23.6153
    23.8029  24.2519

          k = 0.2000-0.2694 0.3616 (  5068 PWs)   bands (ev):

   -26.8483 -26.7172 -26.7064 -26.6715 -26.6142 -26.6025 -21.8943 -21.8900
    -5.8425  -5.7730  -5.7497  -5.7140  -5.5353  -5.5080  -5.3968  -5.1227
    -4.9846  -4.8188  -4.7940  -4.7622  -4.6369  -4.6027  -4.5888  -4.5325
    -4.4658  -4.4324  -1.7736  -1.7552  -1.7496  -1.7197  -1.6983  -1.6799
    16.3990  16.4720  16.5447  16.9632  17.0472  17.1126  17.2483  17.3734
    18.1310  18.2059  18.2128  18.7489  18.8026  18.8341  19.1426  19.1587
    19.2400  19.4879  19.8583  20.1178  20.1866  20.8266  21.1202  21.2284
    21.3684  21.9195  22.1419  22.3419  22.4501  22.6249  22.6797  22.9386
    23.1891  23.5982

          k = 0.2000-0.2694 0.5424 (  5058 PWs)   bands (ev):

   -26.7993 -26.7482 -26.6823 -26.6584 -26.6442 -26.6272 -21.8951 -21.8935
    -5.8458  -5.8029  -5.7560  -5.7221  -5.6603  -5.6237  -5.2328  -5.0184
    -4.9431  -4.8781  -4.7930  -4.7096  -4.6260  -4.5969  -4.5812  -4.5193
    -4.4664  -4.4463  -1.7699  -1.7499  -1.7444  -1.7352  -1.6831  -1.6769
    16.5205  16.5896  16.7063  16.9420  17.0224  17.2233  17.6018  17.6612
    17.8788  17.8895  17.9493  18.4092  18.4570  18.5559  18.7136  18.7667
    19.8156  19.8189  20.2044  20.4583  20.6052  20.7332  20.9119  21.1001
    21.5254  21.6503  22.0645  22.2109  22.4020  22.4700  22.6025  22.7787
    23.4437  23.9611

          k = 0.2000-0.0770 0.0000 (  5083 PWs)   bands (ev):

   -26.9170 -26.7204 -26.7039 -26.6641 -26.5786 -26.5766 -21.8917 -21.8828
    -5.9688  -5.8971  -5.5624  -5.5538  -5.5375  -5.4022  -5.3591  -5.3311
    -5.2935  -4.9848  -4.7611  -4.6553  -4.6066  -4.5523  -4.5210  -4.4853
    -4.4699  -4.4278  -1.7493  -1.7268  -1.7021  -1.7021  -1.6972  -1.6583
    16.0250  16.1472  16.3016  16.3707  16.4936  16.8407  16.9444  17.1445
    17.3251  17.4874  17.5810  19.2771  19.3078  19.4327  19.5660  20.1447
    20.5138  20.6018  20.8641  20.8994  20.9412  20.9779  21.0057  21.0437
    21.0659  21.0897  21.1395  21.2619  21.3212  21.6564  22.7214  24.4975
    24.9113  24.9245

          k = 0.2000-0.0770 0.1808 (  5080 PWs)   bands (ev):

   -26.9041 -26.7143 -26.6979 -26.6748 -26.5864 -26.5828 -21.8925 -21.8844
    -5.9133  -5.9060  -5.6925  -5.6770  -5.5652  -5.4104  -5.3774  -5.2108
    -5.2056  -4.9404  -4.7313  -4.6536  -4.5947  -4.5511  -4.5221  -4.4866
    -4.4613  -4.4423  -1.7458  -1.7219  -1.7213  -1.6983  -1.6928  -1.6576
    16.2014  16.2624  16.3883  16.4552  16.5183  16.5458  16.5581  16.6515
    18.0482  18.0492  18.0987  19.2308  19.2996  19.3189  19.5024  19.5378
    19.7915  19.8351  19.9962  20.1334  20.2696  20.8440  21.1258  21.2786
    21.5235  21.6278  21.6945  22.2494  22.3077  22.4623  22.6606  24.4667
    24.6347  24.8089

          k = 0.2000-0.0770 0.3616 (  5063 PWs)   bands (ev):

   -26.8682 -26.7133 -26.6914 -26.6791 -26.6073 -26.6004 -21.8938 -21.8882
    -5.9366  -5.8288  -5.7965  -5.7866  -5.5842  -5.5567  -5.4940  -5.0233
    -4.9574  -4.8035  -4.7283  -4.6718  -4.6133  -4.5786  -4.5378  -4.4929
    -4.4656  -4.4169  -1.7761  -1.7208  -1.7134  -1.6933  -1.6760  -1.6553
    16.1575  16.2212  16.2727  16.6003  16.7088  16.7652  16.8243  16.8857
    18.1731  18.2004  18.2245  18.5198  18.5552  18.5926  19.3662  19.5392
    19.6327  19.7132  19.8441  19.8717  20.2770  20.4736  21.4078  21.7050
    21.8125  22.1268  22.4414  22.6097  22.9490  23.0869  23.4060  23.5926
    23.8349  23.9421

          k = 0.2000-0.0770 0.5424 (  5055 PWs)   bands (ev):

   -26.8165 -26.7602 -26.6665 -26.6541 -26.6360 -26.6258 -21.8942 -21.8921
    -5.9291  -5.8753  -5.8108  -5.8014  -5.7275  -5.7154  -5.2343  -4.9267
    -4.8808  -4.7610  -4.7563  -4.6688  -4.6351  -4.5545  -4.5435  -4.5007
    -4.4744  -4.4351  -1.7775  -1.7451  -1.6969  -1.6903  -1.6614  -1.6547
    16.2806  16.3512  16.3974  16.6701  16.7828  16.8324  17.2269  17.3017
    17.6930  17.6984  17.7009  18.1324  18.1806  18.2095  19.0807  19.2386
    19.8598  19.9897  20.0904  20.4350  20.7304  20.8829  21.1886  21.7117
    21.9968  22.3205  22.4340  22.6535  22.9172  23.3322  23.4509  23.5396
    23.6436  23.8803

          k = 0.4000 0.2309 0.0000 (  5085 PWs)   bands (ev):

   -26.8684 -26.7754 -26.7046 -26.6523 -26.5856 -26.5755 -21.8914 -21.8866
    -5.8467  -5.6864  -5.5447  -5.5058  -5.4045  -5.3651  -5.3489  -5.1523
    -5.1254  -5.0386  -4.9230  -4.8447  -4.8019  -4.7052  -4.6460  -4.5573
    -4.4290  -4.3728  -1.8667  -1.8269  -1.7312  -1.7164  -1.7043  -1.6972
    16.6154  16.8520  16.8542  16.9307  17.0903  17.4010  17.4716  17.5127
    18.0571  18.2028  18.2123  18.8091  19.3224  19.4083  19.4552  19.5943
    19.6334  19.7588  19.9462  20.1450  20.4424  20.5193  20.7649  20.9205
    20.9503  21.2432  21.3111  21.3267  21.6644  21.8150  21.9994  22.7893
    23.2534  23.3416

          k = 0.4000 0.2309 0.1808 (  5088 PWs)   bands (ev):

   -26.8563 -26.7686 -26.6982 -26.6590 -26.5974 -26.5819 -21.8925 -21.8881
    -5.8030  -5.7227  -5.6101  -5.5321  -5.5236  -5.3076  -5.2307  -5.1762
    -5.1704  -4.9902  -4.9207  -4.8699  -4.7468  -4.7033  -4.6034  -4.5030
    -4.4386  -4.4353  -1.8494  -1.8230  -1.7260  -1.7214  -1.7163  -1.6931
    16.6453  16.8585  16.8882  16.9375  17.1590  17.2584  17.5797  17.5817
    18.2111  18.2317  18.5850  18.7600  18.8838  18.8898  19.2147  19.4144
    19.8104  19.9251  20.0553  20.0994  20.2109  20.4430  20.6942  20.8591
    21.1551  21.2605  21.4437  21.5455  21.8349  21.8809  22.2761  22.8650
    23.2586  23.3299

          k = 0.4000 0.2309 0.3616 (  5084 PWs)   bands (ev):

   -26.8230 -26.7511 -26.6803 -26.6778 -26.6287 -26.5998 -21.8947 -21.8916
    -5.7830  -5.7430  -5.6437  -5.6398  -5.5363  -5.4008  -5.2727  -5.1883
    -5.0620  -4.8934  -4.8711  -4.8661  -4.7285  -4.6048  -4.5671  -4.5633
    -4.4660  -4.4274  -1.8193  -1.8063  -1.7522  -1.7244  -1.7103  -1.6843
    16.6209  16.8671  16.8950  17.0860  17.2691  17.6339  17.8225  17.8287
    17.9042  17.9575  18.3622  18.6673  18.8654  18.9813  19.0382  19.3184
    19.3844  19.6383  19.6890  20.3828  20.4144  20.4659  20.6691  20.9034
    21.2136  21.3434  21.4814  21.5791  22.0108  22.3312  22.4918  22.7392
    22.7929  23.2751

          k = 0.4000 0.2309 0.5424 (  5068 PWs)   bands (ev):

   -26.7775 -26.7417 -26.6932 -26.6677 -26.6544 -26.6257 -21.8959 -21.8948
    -5.8041  -5.7815  -5.6526  -5.5913  -5.5636  -5.5251  -5.2483  -5.0971
    -5.0805  -4.9596  -4.8613  -4.8120  -4.6559  -4.5695  -4.5668  -4.5157
    -4.4973  -4.4374  -1.8003  -1.7933  -1.7619  -1.7432  -1.6922  -1.6816
    16.7835  16.9859  16.9900  17.1979  17.3148  17.3411  17.4485  17.8937
    18.1416  18.3508  18.3520  18.3739  18.6771  18.8599  18.8963  18.9879
    19.7921  19.8398  19.8918  20.5345  20.5814  20.6150  20.7380  20.8848
    21.0359  21.0677  21.3837  21.4935  21.5793  21.7568  21.9417  21.9438
    23.2985  23.8744

          k = 0.4000 0.4234 0.0000 (  5078 PWs)   bands (ev):

   -26.8484 -26.7835 -26.7301 -26.6308 -26.5899 -26.5791 -21.8908 -21.8880
    -5.8001  -5.6029  -5.5584  -5.4725  -5.4163  -5.3431  -5.2724  -5.2075
    -5.1239  -5.0333  -4.9105  -4.8796  -4.8161  -4.7156  -4.6770  -4.6062
    -4.4928  -4.3501  -1.8620  -1.8369  -1.7602  -1.7381  -1.7128  -1.7056
    16.5618  17.0701  17.1589  17.4517  17.4686  17.5273  17.7466  17.9916
    18.2528  18.4575  18.4943  18.6552  18.7601  18.7677  18.8595  19.3321
    19.4528  19.6148  19.8393  20.0702  20.1503  20.2023  20.3957  20.5692
    21.2458  21.5553  21.5646  21.8430  21.8616  21.9736  22.1323  22.5756
    22.6055  23.2252

          k = 0.4000 0.4234 0.1808 (  5071 PWs)   bands (ev):

   -26.8362 -26.7771 -26.7249 -26.6355 -26.6001 -26.5878 -21.8919 -21.8894
    -5.7657  -5.6578  -5.5501  -5.5366  -5.4971  -5.3175  -5.2338  -5.1317
    -5.0844  -5.0220  -5.0027  -4.9652  -4.7293  -4.6856  -4.6273  -4.5433
    -4.4986  -4.4157  -1.8437  -1.8322  -1.7558  -1.7308  -1.7181  -1.7148
    16.7277  17.0629  17.1572  17.3707  17.4740  17.5380  17.8389  18.1483
    18.1814  18.3094  18.4199  18.5740  18.6267  18.7909  18.8750  19.0188
    19.6463  19.7156  20.0341  20.1186  20.2422  20.3675  20.4628  20.5643
    20.9212  21.2350  21.3427  21.7227  21.9336  22.1334  22.3971  22.6275
    22.8803  23.0928

          k = 0.4000 0.4234 0.3616 (  5075 PWs)   bands (ev):

   -26.8022 -26.7601 -26.7126 -26.6463 -26.6332 -26.6065 -21.8945 -21.8927
    -5.7150  -5.6991  -5.6138  -5.5851  -5.5300  -5.3686  -5.2669  -5.1587
    -5.0529  -5.0192  -4.9505  -4.8709  -4.7253  -4.5975  -4.5814  -4.5635
    -4.4942  -4.4510  -1.8196  -1.8119  -1.7446  -1.7398  -1.7285  -1.7154
    17.0310  17.1054  17.1482  17.2712  17.5706  17.7613  17.7752  17.8600
    18.1891  18.2055  18.2514  18.3278  18.7265  18.9511  19.2339  19.3544
    19.4258  19.4923  19.9354  20.1609  20.3027  20.4332  20.5118  20.6917
    20.7266  20.8704  21.0014  21.5052  21.9026  22.1159  22.4968  22.8954
    22.9381  23.3736

          k = 0.4000 0.4234 0.5424 (  5077 PWs)   bands (ev):

   -26.7568 -26.7409 -26.7050 -26.6804 -26.6476 -26.6296 -21.8963 -21.8956
    -5.7380  -5.7223  -5.6232  -5.5616  -5.5080  -5.4651  -5.2432  -5.2320
    -5.0847  -5.0472  -4.8383  -4.8143  -4.6849  -4.6553  -4.5363  -4.5302
    -4.4874  -4.4499  -1.8038  -1.7972  -1.7564  -1.7463  -1.7208  -1.7106
    17.1668  17.2237  17.2716  17.3304  17.3648  17.4692  17.6011  17.7225
    18.3882  18.4045  18.5119  18.6955  18.7408  18.9722  19.0180  19.3851
    19.6071  19.7331  19.8702  20.0062  20.1538  20.2688  20.4022  20.4416
    20.6725  21.0626  21.1217  21.4121  21.4261  21.6182  21.7749  21.8772
    23.5665  23.9182

          k = 0.4000 0.6158 0.0000 (  5071 PWs)   bands (ev):

   -26.8428 -26.7730 -26.7523 -26.6163 -26.5964 -26.5810 -21.8903 -21.8888
    -5.7875  -5.5706  -5.5286  -5.4700  -5.4026  -5.3480  -5.2901  -5.2345
    -5.1419  -5.0638  -4.8736  -4.8522  -4.7761  -4.7144  -4.6665  -4.6301
    -4.5758  -4.3414  -1.8364  -1.8188  -1.7856  -1.7769  -1.7112  -1.7063
    16.4807  17.4149  17.5275  17.5860  17.6379  17.7762  17.8951  17.9202
    18.2305  18.2390  18.4119  18.4849  18.5270  18.6604  18.6660  19.3161
    19.4079  19.6012  19.7988  19.9322  20.1239  20.1547  20.2235  20.3333
    21.4335  21.5931  21.7306  21.7561  21.9458  22.0005  22.1840  22.4845
    23.0037  23.4840

          k = 0.4000 0.6158 0.1808 (  5066 PWs)   bands (ev):

   -26.8305 -26.7668 -26.7470 -26.6214 -26.6025 -26.5934 -21.8914 -21.8901
    -5.7555  -5.6054  -5.5636  -5.5373  -5.4425  -5.3771  -5.1988  -5.1560
    -5.0997  -5.0595  -4.9831  -4.9546  -4.6838  -4.6528  -4.6248  -4.5813
    -4.5745  -4.4070  -1.8215  -1.8137  -1.7806  -1.7683  -1.7163  -1.7149
    16.6763  17.3788  17.4782  17.5593  17.6527  17.6995  17.8162  18.0830
    18.2027  18.2405  18.3335  18.4002  18.4262  18.5802  18.7473  19.1147
    19.6883  19.7647  19.9377  19.9871  20.1469  20.2151  20.2896  20.4418
    21.1087  21.2152  21.4221  21.8064  21.8500  22.0796  22.2405  22.8070
    23.2387  23.4038

          k = 0.4000 0.6158 0.3616 (  5090 PWs)   bands (ev):

   -26.7961 -26.7505 -26.7339 -26.6360 -26.6285 -26.6159 -21.8943 -21.8934
    -5.6713  -5.6656  -5.6309  -5.5714  -5.5098  -5.4450  -5.2085  -5.1611
    -5.0600  -5.0572  -4.9457  -4.8800  -4.7116  -4.6044  -4.5938  -4.5634
    -4.5010  -4.4741  -1.8014  -1.7948  -1.7656  -1.7480  -1.7405  -1.7315
    17.1916  17.2385  17.3539  17.4284  17.6410  17.7422  17.8817  17.8927
    18.0275  18.0902  18.2055  18.3857  18.7900  18.9521  18.9950  19.0991
    19.5901  19.6768  19.9202  20.0919  20.2756  20.3511  20.4597  20.5071
    20.6220  20.6329  20.8053  21.6240  21.9664  22.2098  22.3618  22.9686
    23.2915  23.4811

          k = 0.4000 0.6158 0.5424 (  5076 PWs)   bands (ev):

   -26.7494 -26.7321 -26.7208 -26.6819 -26.6419 -26.6343 -21.8962 -21.8959
    -5.6808  -5.6651  -5.6270  -5.5933  -5.5228  -5.4702  -5.2408  -5.2313
    -5.0864  -5.0727  -4.8149  -4.7867  -4.7216  -4.6955  -4.5404  -4.5357
    -4.4747  -4.4602  -1.7864  -1.7826  -1.7549  -1.7500  -1.7436  -1.7362
    17.2534  17.3183  17.3900  17.4884  17.5019  17.5355  17.5931  17.6904
    18.2144  18.5928  18.6939  18.7411  18.8089  19.1390  19.2167  19.2715
    19.3754  19.4997  19.5095  19.8887  19.9360  20.0712  20.2110  20.3184
    20.7933  21.0248  21.0490  21.4741  21.5223  21.7090  21.8415  21.9385
    23.8379  24.2634

          k = 0.4000-0.3464 0.0000 (  5079 PWs)   bands (ev):

   -26.8558 -26.7840 -26.7156 -26.6421 -26.5874 -26.5770 -21.8911 -21.8874
    -5.8156  -5.6373  -5.5629  -5.5004  -5.3854  -5.3647  -5.2915  -5.1822
    -5.1016  -5.0029  -4.9557  -4.8740  -4.8377  -4.7249  -4.6578  -4.5780
    -4.4527  -4.3587  -1.8711  -1.8396  -1.7441  -1.7147  -1.7143  -1.7048
    16.6659  16.8361  17.0047  17.2064  17.2712  17.4684  17.6391  17.9515
    18.1099  18.3200  18.4055  18.7713  19.0345  19.1026  19.2491  19.3252
    19.5052  19.5440  19.9571  20.1323  20.2544  20.2872  20.5776  20.7794
    21.0889  21.3634  21.4637  21.6828  21.7872  21.8051  22.3016  22.6241
    22.7223  22.9568

          k = 0.4000-0.3464 0.1808 (  5074 PWs)   bands (ev):

   -26.8437 -26.7773 -26.7101 -26.6472 -26.5991 -26.5840 -21.8922 -21.8888
    -5.7795  -5.6868  -5.5796  -5.5381  -5.4952  -5.3197  -5.2235  -5.1557
    -5.0699  -5.0276  -4.9820  -4.9413  -4.7500  -4.7035  -4.6132  -4.5193
    -4.4610  -4.4239  -1.8534  -1.8353  -1.7385  -1.7191  -1.7153  -1.7091
    16.7853  16.8512  17.0147  17.1649  17.3274  17.4095  17.7452  17.9875
    18.1798  18.3194  18.5144  18.7017  18.7771  18.8231  18.9672  19.1881
    19.7197  19.8319  20.0403  20.1403  20.2620  20.4472  20.5343  20.7227
    20.8808  21.2346  21.3640  21.7081  21.8247  22.1721  22.3593  22.6762
    22.8484  22.8858

          k = 0.4000-0.3464 0.3616 (  5081 PWs)   bands (ev):

   -26.8102 -26.7596 -26.6979 -26.6587 -26.6323 -26.6021 -21.8946 -21.8922
    -5.7476  -5.7228  -5.6171  -5.6080  -5.5256  -5.3717  -5.2538  -5.1870
    -5.0660  -4.9696  -4.9307  -4.8694  -4.7259  -4.5930  -4.5868  -4.5613
    -4.4758  -4.4382  -1.8254  -1.8164  -1.7480  -1.7263  -1.7233  -1.6977
    16.8251  17.0260  17.0635  17.1244  17.5247  17.6660  17.7501  17.7760
    18.0858  18.3203  18.3659  18.4571  18.6084  19.0019  19.1510  19.3376
    19.4026  19.8476  19.8940  19.9562  20.3664  20.4992  20.5701  20.7946
    20.9420  21.0306  21.3115  21.5393  21.7064  22.2440  22.5122  22.6517
    22.8529  23.2669

          k = 0.4000-0.3464 0.5424 (  5079 PWs)   bands (ev):

   -26.7655 -26.7419 -26.6976 -26.6769 -26.6513 -26.6271 -21.8962 -21.8953
    -5.7724  -5.7567  -5.6292  -5.5640  -5.5109  -5.4864  -5.2501  -5.1903
    -5.0845  -5.0142  -4.8609  -4.8146  -4.6733  -4.6135  -4.5448  -4.5231
    -4.4918  -4.4439  -1.8081  -1.8017  -1.7586  -1.7447  -1.7054  -1.6948
    16.9923  17.1092  17.1968  17.2716  17.3582  17.4177  17.4418  17.8103
    18.2720  18.3674  18.5565  18.6173  18.7400  18.8395  18.9254  19.2183
    19.8009  19.8426  19.8793  20.2821  20.4033  20.4394  20.5224  20.7595
    20.7887  21.0083  21.1929  21.2933  21.4057  21.5342  21.8085  21.8633
    23.3713  23.8341

          k = 0.4000-0.1540 0.0000 (  5078 PWs)   bands (ev):

   -26.8753 -26.7657 -26.7092 -26.6506 -26.5845 -26.5763 -21.8914 -21.8861
    -5.8616  -5.7128  -5.5200  -5.4930  -5.4254  -5.3874  -5.3717  -5.1941
    -5.1269  -5.0535  -4.8709  -4.8322  -4.7695  -4.6534  -4.6512  -4.5595
    -4.4397  -4.3784  -1.8523  -1.8099  -1.7313  -1.7171  -1.7033  -1.6982
    16.5701  16.7435  16.7876  17.0420  17.0762  17.1698  17.3796  17.4957
    17.8685  18.0359  18.2371  18.7481  19.3492  19.4195  19.6766  19.6934
    19.8437  19.8449  19.9595  20.1728  20.5437  20.5528  20.6969  20.8780
    20.9896  21.1198  21.3056  21.3731  21.5082  21.9061  21.9456  23.0767
    23.3256  23.4816

          k = 0.4000-0.1540 0.1808 (  5082 PWs)   bands (ev):

   -26.8632 -26.7591 -26.7035 -26.6572 -26.5955 -26.5829 -21.8925 -21.8877
    -5.8157  -5.7381  -5.6205  -5.5602  -5.5062  -5.2917  -5.2681  -5.2209
    -5.1778  -4.9853  -4.8735  -4.8419  -4.7195  -4.6786  -4.6005  -4.5041
    -4.4502  -4.4367  -1.8366  -1.8061  -1.7258  -1.7215  -1.7166  -1.6939
    16.6059  16.7570  16.8786  16.9305  17.0958  17.1977  17.3152  17.4981
    18.2133  18.2521  18.4867  18.7623  18.8964  19.0354  19.2118  19.5133
    19.8065  19.8577  20.0090  20.0380  20.3823  20.4536  20.7792  20.9767
    21.1572  21.3002  21.4575  21.5416  21.8298  21.8696  22.2583  23.0836
    23.3206  23.3535

          k = 0.4000-0.1540 0.3616 (  5080 PWs)   bands (ev):

   -26.8297 -26.7422 -26.6927 -26.6705 -26.6247 -26.6008 -21.8946 -21.8912
    -5.7909  -5.7451  -5.6767  -5.6560  -5.5360  -5.4231  -5.3093  -5.1784
    -5.0352  -4.8737  -4.8661  -4.8141  -4.7205  -4.6044  -4.5760  -4.5499
    -4.4737  -4.4282  -1.8068  -1.7921  -1.7544  -1.7231  -1.7104  -1.6858
    16.5626  16.7680  16.8013  17.1329  17.1864  17.5638  17.6335  17.7919
    17.9193  18.0192  18.3088  18.7310  18.7976  18.9520  19.1177  19.2538
    19.3815  19.5114  19.6190  20.3428  20.3724  20.6177  20.7805  21.0888
    21.1985  21.2628  21.6692  21.8085  22.1383  22.3725  22.6105  22.7638
    22.8683  23.3378

          k = 0.4000-0.1540 0.5424 (  5062 PWs)   bands (ev):

   -26.7832 -26.7413 -26.6927 -26.6644 -26.6520 -26.6262 -21.8957 -21.8945
    -5.8098  -5.7807  -5.6768  -5.6361  -5.5791  -5.5529  -5.2422  -5.0895
    -5.0275  -4.9465  -4.8324  -4.7945  -4.6517  -4.5872  -4.5638  -4.5102
    -4.4975  -4.4383  -1.7873  -1.7807  -1.7634  -1.7425  -1.6924  -1.6826
    16.7087  16.8742  16.9365  17.1241  17.2652  17.3570  17.5418  17.9371
    18.0680  18.1852  18.2515  18.3708  18.6118  18.7882  18.8091  18.8900
    19.7418  19.7833  20.0443  20.4166  20.6335  20.7001  20.7911  20.8864
    21.0548  21.1666  21.6025  21.7064  21.7853  21.9478  22.0958  22.1435
    23.3403  24.0850

          k = 0.4000 0.0385 0.0000 (  5079 PWs)   bands (ev):

   -26.8809 -26.7507 -26.7234 -26.6449 -26.5823 -26.5792 -21.8914 -21.8859
    -5.8753  -5.7315  -5.4852  -5.4609  -5.4393  -5.4306  -5.3955  -5.2626
    -5.1018  -5.0750  -4.8178  -4.8101  -4.7533  -4.6659  -4.5786  -4.5506
    -4.4911  -4.3833  -1.8327  -1.7860  -1.7372  -1.7177  -1.7090  -1.7038
    16.6368  16.6492  16.7348  16.8233  17.0397  17.3271  17.3701  17.5730
    17.6182  17.7773  18.2532  18.6456  19.3764  19.4776  19.6694  19.7850
    19.9060  19.9654  20.1911  20.2102  20.4113  20.5860  20.7098  20.7951
    20.9755  21.0886  21.1775  21.3226  21.6414  21.8766  22.1484  23.2445
    23.4518  23.8042

          k = 0.4000 0.0385 0.1808 (  5082 PWs)   bands (ev):

   -26.8687 -26.7438 -26.7191 -26.6514 -26.5912 -26.5870 -21.8925 -21.8874
    -5.8256  -5.7500  -5.6342  -5.5819  -5.4695  -5.3450  -5.2756  -5.2333
    -5.1847  -4.9905  -4.8332  -4.8212  -4.6877  -4.6604  -4.5520  -4.5137
    -4.5018  -4.4359  -1.8176  -1.7839  -1.7302  -1.7213  -1.7175  -1.7052
    16.6565  16.6894  16.8256  16.8788  17.0695  17.1006  17.1640  17.4336
    18.2445  18.2976  18.3721  18.7091  18.9169  19.0633  19.2658  19.5211
    19.6118  19.9216  19.9915  20.0789  20.4470  20.5995  20.7243  20.9686
    21.1702  21.3309  21.4830  21.6133  21.8320  21.9788  22.2538  23.1191
    23.2871  23.9969

          k = 0.4000 0.0385 0.3616 (  5063 PWs)   bands (ev):

   -26.8350 -26.7259 -26.7124 -26.6643 -26.6182 -26.6045 -21.8944 -21.8909
    -5.7860  -5.7411  -5.7204  -5.6716  -5.5089  -5.4747  -5.3277  -5.1791
    -4.9960  -4.8715  -4.8590  -4.7904  -4.6596  -4.6110  -4.5905  -4.5443
    -4.4760  -4.4408  -1.7882  -1.7744  -1.7551  -1.7222  -1.7133  -1.6952
    16.5716  16.6549  16.7201  17.2004  17.2419  17.3307  17.4622  17.7256
    18.0640  18.1809  18.2096  18.5899  18.7967  18.9182  19.0483  19.1399
    19.4175  19.4355  19.8398  20.0663  20.3718  20.7861  20.8484  21.0915
    21.1290  21.4557  21.8917  21.9569  22.0993  22.5151  22.6890  22.7341
    22.9292  23.4426

          k = 0.4000 0.0385 0.5424 (  5064 PWs)   bands (ev):

   -26.7878 -26.7411 -26.6924 -26.6644 -26.6457 -26.6284 -21.8956 -21.8943
    -5.7993  -5.7646  -5.7189  -5.6840  -5.6005  -5.5677  -5.2375  -5.0907
    -4.9741  -4.9461  -4.8112  -4.7306  -4.6560  -4.6319  -4.5686  -4.5182
    -4.4700  -4.4507  -1.7694  -1.7665  -1.7626  -1.7421  -1.6981  -1.6911
    16.6849  16.7584  16.8988  17.1052  17.1791  17.3885  17.7188  17.9096
    18.0046  18.0371  18.1737  18.4142  18.5632  18.6643  18.6892  18.7573
    19.6741  19.6831  20.3179  20.4660  20.6534  20.6853  20.7762  20.8520
    21.0492  21.1542  21.8208  21.8616  21.9625  22.0697  22.2984  22.4440
    23.3995  24.0479

     the Fermi energy is    20.8908 ev

!    total energy              =    -848.45239559 Ry
     Harris-Foulkes estimate   =    -848.45245066 Ry
     estimated scf accuracy    <       0.00006130 Ry

     The total energy is the sum of the following terms:

     one-electron contribution =       7.15506829 Ry
     hartree contribution      =      71.81557566 Ry
     xc contribution           =    -101.42084290 Ry
     ewald contribution        =    -825.35335583 Ry
     smearing contrib. (-TS)   =      -0.64884080 Ry

     convergence has been achieved in  16 iterations

     Forces acting on atoms (Ry/au):

     atom    1 type  1   force =     0.01236191    0.00713715    0.00000000
     atom    2 type  1   force =     0.01236191   -0.00713715    0.00000000
     atom    3 type  1   force =    -0.01236191   -0.00713715    0.00000000
     atom    4 type  1   force =    -0.01236191    0.00713715    0.00000000
     atom    5 type  1   force =     0.00000000   -0.01427431    0.00000000
     atom    6 type  1   force =     0.00000000    0.01427431    0.00000000
     atom    7 type  2   force =     0.00000000    0.00000000    0.00000000
     atom    8 type  2   force =     0.00000000    0.00000000    0.00000000

     Total force =     0.034965     Total SCF correction =     0.000000


     entering subroutine stress ...

          total   stress  (Ry/bohr**3)                   (kbar)     P=    0.79
  -0.00004069   0.00000000   0.00000000         -5.99      0.00      0.00
   0.00000000  -0.00004069   0.00000000          0.00     -5.99      0.00
   0.00000000   0.00000000   0.00009741          0.00      0.00     14.33


     BFGS Geometry Optimization

     number of scf cycles    =   1
     number of bfgs steps    =   0

     enthalpy new            =    -848.4523955892 Ry

     new trust radius        =       0.0167829097 bohr
     new conv_thr            =       0.0001000000 Ry

     new unit-cell volume =   1187.81242 a.u.^3 (   176.01564 Ang^3 )

CELL_PARAMETERS (alat= 12.01680127)
   0.998982706   0.000000000   0.000000000
  -0.499491353   0.865144401   0.000000000
   0.000000000   0.000000000   0.792017277

ATOMIC_POSITIONS (crystal)
Mg       0.665229625   0.832614813   0.250000000
Mg       0.832614813   0.167385187   0.750000000
Mg       0.334770375   0.167385187   0.750000000
Mg       0.167385187   0.832614813   0.250000000
Mg       0.167385187   0.334770375   0.250000000
Mg       0.832614813   0.665229625   0.750000000
Cd       0.666667000   0.333333000   0.250000000
Cd       0.333333000   0.666667000   0.750000000



     Writing output data file Prototype-La-hP8-Mg3Cd.save
     Check: negative starting charge=   -0.001098
     NEW-OLD atomic charge density approx. for the potential
     NEW k-points:
        k(    1) = (   0.0000000   0.0000000   0.0000000), wk =   0.0095238
        k(    2) = (   0.0000000   0.0000000   0.1803712), wk =   0.0190476
        k(    3) = (   0.0000000   0.0000000   0.3607425), wk =   0.0190476
        k(    4) = (   0.0000000   0.0000000   0.5411137), wk =   0.0190476
        k(    5) = (   0.0000000   0.1926461   0.0000000), wk =   0.0190476
        k(    6) = (   0.0000000   0.1926461   0.1803712), wk =   0.0380952
        k(    7) = (   0.0000000   0.1926461   0.3607425), wk =   0.0380952
        k(    8) = (   0.0000000   0.1926461   0.5411137), wk =   0.0380952
        k(    9) = (   0.0000000   0.3852921   0.0000000), wk =   0.0190476
        k(   10) = (   0.0000000   0.3852921   0.1803712), wk =   0.0380952
        k(   11) = (   0.0000000   0.3852921   0.3607425), wk =   0.0380952
        k(   12) = (   0.0000000   0.3852921   0.5411137), wk =   0.0380952
        k(   13) = (   0.0000000  -0.5779382   0.0000000), wk =   0.0095238
        k(   14) = (   0.0000000  -0.5779382   0.1803712), wk =   0.0190476
        k(   15) = (   0.0000000  -0.5779382   0.3607425), wk =   0.0190476
        k(   16) = (   0.0000000  -0.5779382   0.5411137), wk =   0.0190476
        k(   17) = (   0.2002037   0.1155876   0.0000000), wk =   0.0190476
        k(   18) = (   0.2002037   0.1155876   0.1803712), wk =   0.0380952
        k(   19) = (   0.2002037   0.1155876   0.3607425), wk =   0.0380952
        k(   20) = (   0.2002037   0.1155876   0.5411137), wk =   0.0380952
        k(   21) = (   0.2002037   0.3082337   0.0000000), wk =   0.0190476
        k(   22) = (   0.2002037   0.3082337   0.1803712), wk =   0.0380952
        k(   23) = (   0.2002037   0.3082337   0.3607425), wk =   0.0380952
        k(   24) = (   0.2002037   0.3082337   0.5411137), wk =   0.0380952
        k(   25) = (   0.2002037   0.5008798   0.0000000), wk =   0.0190476
        k(   26) = (   0.2002037   0.5008798   0.1803712), wk =   0.0380952
        k(   27) = (   0.2002037   0.5008798   0.3607425), wk =   0.0380952
        k(   28) = (   0.2002037   0.5008798   0.5411137), wk =   0.0380952
        k(   29) = (   0.2002037  -0.4623506   0.0000000), wk =   0.0190476
        k(   30) = (   0.2002037  -0.4623506   0.1803712), wk =   0.0380952
        k(   31) = (   0.2002037  -0.4623506   0.3607425), wk =   0.0380952
        k(   32) = (   0.2002037  -0.4623506   0.5411137), wk =   0.0380952
        k(   33) = (   0.2002037  -0.2697045   0.0000000), wk =   0.0190476
        k(   34) = (   0.2002037  -0.2697045   0.1803712), wk =   0.0380952
        k(   35) = (   0.2002037  -0.2697045   0.3607425), wk =   0.0380952
        k(   36) = (   0.2002037  -0.2697045   0.5411137), wk =   0.0380952
        k(   37) = (   0.2002037  -0.0770584   0.0000000), wk =   0.0190476
        k(   38) = (   0.2002037  -0.0770584   0.1803712), wk =   0.0380952
        k(   39) = (   0.2002037  -0.0770584   0.3607425), wk =   0.0380952
        k(   40) = (   0.2002037  -0.0770584   0.5411137), wk =   0.0380952
        k(   41) = (   0.4004073   0.2311753   0.0000000), wk =   0.0190476
        k(   42) = (   0.4004073   0.2311753   0.1803712), wk =   0.0380952
        k(   43) = (   0.4004073   0.2311753   0.3607425), wk =   0.0380952
        k(   44) = (   0.4004073   0.2311753   0.5411137), wk =   0.0380952
        k(   45) = (   0.4004073   0.4238213   0.0000000), wk =   0.0190476
        k(   46) = (   0.4004073   0.4238213   0.1803712), wk =   0.0380952
        k(   47) = (   0.4004073   0.4238213   0.3607425), wk =   0.0380952
        k(   48) = (   0.4004073   0.4238213   0.5411137), wk =   0.0380952
        k(   49) = (   0.4004073   0.6164674   0.0000000), wk =   0.0190476
        k(   50) = (   0.4004073   0.6164674   0.1803712), wk =   0.0380952
        k(   51) = (   0.4004073   0.6164674   0.3607425), wk =   0.0380952
        k(   52) = (   0.4004073   0.6164674   0.5411137), wk =   0.0380952
        k(   53) = (   0.4004073  -0.3467629   0.0000000), wk =   0.0190476
        k(   54) = (   0.4004073  -0.3467629   0.1803712), wk =   0.0380952
        k(   55) = (   0.4004073  -0.3467629   0.3607425), wk =   0.0380952
        k(   56) = (   0.4004073  -0.3467629   0.5411137), wk =   0.0380952
        k(   57) = (   0.4004073  -0.1541169   0.0000000), wk =   0.0190476
        k(   58) = (   0.4004073  -0.1541169   0.1803712), wk =   0.0380952
        k(   59) = (   0.4004073  -0.1541169   0.3607425), wk =   0.0380952
        k(   60) = (   0.4004073  -0.1541169   0.5411137), wk =   0.0380952
        k(   61) = (   0.4004073   0.0385292   0.0000000), wk =   0.0190476
        k(   62) = (   0.4004073   0.0385292   0.1803712), wk =   0.0380952
        k(   63) = (   0.4004073   0.0385292   0.3607425), wk =   0.0380952
        k(   64) = (   0.4004073   0.0385292   0.5411137), wk =   0.0380952
     Check: negative starting charge=   -0.001112
     extrapolated charge  110.01030, renormalised to  110.00000

     total cpu time spent up to now is      761.7 secs

     Self-consistent Calculation

     iteration #  1     ecut=    40.00 Ry     beta=0.70
     CG style diagonalization
     c_bands:  1 eigenvalues not converged
     c_bands:  2 eigenvalues not converged
     c_bands:  1 eigenvalues not converged
     c_bands:  2 eigenvalues not converged
     c_bands:  1 eigenvalues not converged
     c_bands:  1 eigenvalues not converged
     c_bands:  1 eigenvalues not converged
     c_bands:  1 eigenvalues not converged
     c_bands:  1 eigenvalues not converged
     c_bands:  1 eigenvalues not converged
     c_bands:  1 eigenvalues not converged
     c_bands:  2 eigenvalues not converged
     c_bands:  1 eigenvalues not converged
     c_bands:  1 eigenvalues not converged
     c_bands:  3 eigenvalues not converged
     c_bands:  3 eigenvalues not converged
     c_bands:  2 eigenvalues not converged
     c_bands:  1 eigenvalues not converged
     c_bands:  3 eigenvalues not converged
     c_bands:  2 eigenvalues not converged
     c_bands:  1 eigenvalues not converged
     c_bands:  1 eigenvalues not converged
     c_bands:  1 eigenvalues not converged
     ethr =  1.00E-06,  avg # of iterations =  8.8

     total cpu time spent up to now is      819.2 secs

     total energy              =    -848.01614384 Ry
     Harris-Foulkes estimate   =    -848.56205022 Ry
     estimated scf accuracy    <       0.64428853 Ry

     iteration #  2     ecut=    40.00 Ry     beta=0.70
     CG style diagonalization
     ethr =  5.86E-04,  avg # of iterations =  4.9

     total cpu time spent up to now is      851.0 secs

     total energy              =    -847.58106804 Ry
     Harris-Foulkes estimate   =    -849.44193226 Ry
     estimated scf accuracy    <       6.59957446 Ry

     iteration #  3     ecut=    40.00 Ry     beta=0.70
     CG style diagonalization
     ethr =  5.86E-04,  avg # of iterations =  4.6

     total cpu time spent up to now is      881.4 secs

     total energy              =    -848.43477816 Ry
     Harris-Foulkes estimate   =    -848.46058867 Ry
     estimated scf accuracy    <       0.06010001 Ry

     iteration #  4     ecut=    40.00 Ry     beta=0.70
     CG style diagonalization
     ethr =  5.46E-05,  avg # of iterations =  4.0

     total cpu time spent up to now is      907.9 secs

     total energy              =    -848.45263677 Ry
     Harris-Foulkes estimate   =    -848.45299844 Ry
     estimated scf accuracy    <       0.00086946 Ry

     iteration #  5     ecut=    40.00 Ry     beta=0.70
     CG style diagonalization
     ethr =  7.90E-07,  avg # of iterations =  5.8

     total cpu time spent up to now is      945.5 secs

     total energy              =    -848.45419185 Ry
     Harris-Foulkes estimate   =    -848.45426654 Ry
     estimated scf accuracy    <       0.00020350 Ry

     iteration #  6     ecut=    40.00 Ry     beta=0.70
     CG style diagonalization
     ethr =  1.85E-07,  avg # of iterations =  3.6

     total cpu time spent up to now is      968.0 secs

     End of self-consistent calculation

          k = 0.0000 0.0000 0.0000 (  5047 PWs)   bands (ev):

   -26.9470 -26.7154 -26.7154 -26.6804 -26.5893 -26.5892 -21.8990 -21.8889
    -6.0253  -5.9920  -5.6275  -5.6153  -5.6153  -5.3827  -5.3827  -5.3673
    -5.3672  -4.9608  -4.6663  -4.6662  -4.5698  -4.5032  -4.5032  -4.4641
    -4.4640  -4.4104  -1.7363  -1.7087  -1.6902  -1.6902  -1.6445  -1.6445
    15.6960  15.9796  15.9796  15.9801  16.2127  16.8634  16.8635  16.8972
    17.2026  17.2026  17.2865  19.2561  19.4811  19.4811  19.8579  19.8580
    20.0776  20.7403  20.7403  20.8674  20.9465  20.9466  21.3478  21.3478
    21.4293  21.4293  21.4921  21.4921  21.5878  21.7788  24.0820  24.6887
    24.6888  25.1005

          k = 0.0000 0.0000 0.1804 (  5065 PWs)   bands (ev):

   -26.9338 -26.7092 -26.7092 -26.6935 -26.5955 -26.5954 -21.8999 -21.8905
    -6.0106  -5.9590  -5.7401  -5.7401  -5.6423  -5.4626  -5.4626  -5.1941
    -5.1941  -4.9331  -4.6559  -4.6559  -4.5896  -4.4753  -4.4753  -4.4667
    -4.4667  -4.4405  -1.7406  -1.7302  -1.6825  -1.6825  -1.6471  -1.6471
    15.9178  16.0891  16.0891  16.0960  16.2832  16.3233  16.3233  16.4139
    17.8795  17.8795  17.8991  19.4229  19.4229  19.4535  19.5509  19.7477
    19.7477  19.8331  19.8331  19.9853  20.5731  20.5731  21.2328  21.2329
    21.6869  21.7929  21.7929  22.9053  22.9308  22.9308  23.4994  24.8082
    24.8084  24.8782

          k = 0.0000 0.0000 0.3607 (  5047 PWs)   bands (ev):

   -26.8967 -26.7302 -26.6917 -26.6916 -26.6130 -26.6129 -21.9007 -21.8944
    -6.0295  -5.8911  -5.8531  -5.8531  -5.6316  -5.6316  -5.5530  -4.9361
    -4.9361  -4.8613  -4.6907  -4.6345  -4.6344  -4.5201  -4.4688  -4.4688
    -4.4440  -4.4440  -1.7880  -1.7265  -1.6667  -1.6667  -1.6474  -1.6474
    16.0075  16.0076  16.0627  16.3429  16.3747  16.3747  16.5219  16.5772
    18.1762  18.1762  18.2368  18.2385  18.2585  18.2585  19.6219  19.6219
    19.7269  20.0335  20.1846  20.1846  20.3592  20.3592  21.4978  21.4978
    21.9292  22.2156  22.5754  22.5754  23.5879  24.1590  24.1590  24.3029
    24.4131  24.4134

          k = 0.0000 0.0000 0.5411 (  5041 PWs)   bands (ev):

   -26.8430 -26.7836 -26.6664 -26.6663 -26.6383 -26.6382 -21.9006 -21.8984
    -6.0119  -5.9532  -5.8697  -5.8697  -5.7871  -5.7871  -5.2539  -4.9220
    -4.7546  -4.7303  -4.7303  -4.6344  -4.6343  -4.6321  -4.4752  -4.4751
    -4.4566  -4.4565  -1.7892  -1.7516  -1.6530  -1.6530  -1.6487  -1.6487
    16.1191  16.1191  16.1675  16.4909  16.4909  16.4997  16.8903  16.9757
    17.5421  17.5422  17.5662  17.9045  17.9130  17.9130  19.6380  19.6380
    19.8474  19.8474  19.8627  20.8019  20.9612  21.2943  21.2943  22.1797
    22.4952  22.4952  22.6789  22.6789  23.0491  23.7418  23.7419  24.2090
    24.2092  24.4137

          k = 0.0000 0.1926 0.0000 (  5083 PWs)   bands (ev):

   -26.9340 -26.7297 -26.7159 -26.6775 -26.5913 -26.5889 -21.8994 -21.8905
    -5.9899  -5.9281  -5.5877  -5.5767  -5.5619  -5.4068  -5.3721  -5.3545
    -5.3247  -4.9882  -4.7525  -4.6639  -4.5953  -4.5347  -4.5344  -4.4885
    -4.4858  -4.4355  -1.7437  -1.7343  -1.7106  -1.7044  -1.6952  -1.6620
    15.9554  16.1064  16.2686  16.2692  16.4433  16.8632  16.8908  17.0848
    17.2883  17.4396  17.4993  19.2946  19.3418  19.4535  19.5670  20.0872
    20.4731  20.5757  20.8618  20.8719  20.9582  20.9678  21.0342  21.0843
    21.1104  21.1400  21.2152  21.2970  21.3075  21.6594  22.8201  24.6187
    24.8878  25.0298

          k = 0.0000 0.1926 0.1804 (  5077 PWs)   bands (ev):

   -26.9210 -26.7236 -26.7096 -26.6889 -26.5988 -26.5951 -21.9001 -21.8920
    -5.9426  -5.9277  -5.7112  -5.6996  -5.5897  -5.4330  -5.4078  -5.2187
    -5.2130  -4.9483  -4.7258  -4.6587  -4.5850  -4.5429  -4.5286  -4.4978
    -4.4686  -4.4507  -1.7471  -1.7283  -1.7252  -1.6968  -1.6949  -1.6614
    16.1492  16.2106  16.3639  16.3643  16.4755  16.4914  16.5072  16.5910
    18.0042  18.0102  18.0375  19.2630  19.3188  19.3525  19.5061  19.5221
    19.7955  19.8135  19.9559  20.1097  20.3118  20.7892  21.1391  21.2807
    21.5799  21.6409  21.6860  22.3532  22.3907  22.5238  22.7231  24.5775
    24.7399  24.9227

          k = 0.0000 0.1926 0.3607 (  5061 PWs)   bands (ev):

   -26.8848 -26.7262 -26.7020 -26.6920 -26.6189 -26.6127 -21.9013 -21.8957
    -5.9633  -5.8538  -5.8165  -5.8095  -5.6042  -5.5813  -5.5149  -5.0161
    -4.9645  -4.8216  -4.7278  -4.6679  -4.6238  -4.5723  -4.5444  -4.4872
    -4.4820  -4.4285  -1.7823  -1.7269  -1.7124  -1.6923  -1.6804  -1.6605
    16.1238  16.1791  16.2193  16.5426  16.6471  16.6796  16.7599  16.8228
    18.1517  18.1762  18.2124  18.4519  18.4849  18.5048  19.4057  19.6305
    19.6374  19.7837  19.8063  19.9179  20.2934  20.4365  21.4260  21.7222
    21.8448  22.1100  22.4548  22.5989  23.0997  23.2070  23.5012  23.7369
    23.8945  23.9985

          k = 0.0000 0.1926 0.5411 (  5050 PWs)   bands (ev):

   -26.8326 -26.7754 -26.6767 -26.6665 -26.6468 -26.6382 -21.9015 -21.8995
    -5.9535  -5.8999  -5.8320  -5.8255  -5.7490  -5.7408  -5.2461  -4.9323
    -4.8712  -4.7626  -4.7484  -4.6680  -4.6578  -4.5677  -4.5472  -4.4953
    -4.4905  -4.4469  -1.7831  -1.7502  -1.6970  -1.6905  -1.6663  -1.6601
    16.2429  16.3061  16.3405  16.6239  16.7410  16.7450  17.1546  17.2305
    17.6458  17.6482  17.6689  18.0699  18.1196  18.1259  19.1482  19.3306
    19.8253  19.9813  20.0466  20.5379  20.7817  20.8660  21.2246  21.8028
    22.0575  22.3718  22.4830  22.7234  22.9486  23.4500  23.5596  23.6800
    23.6961  23.8813

          k = 0.0000 0.3853 0.0000 (  5079 PWs)   bands (ev):

   -26.8995 -26.7687 -26.7169 -26.6669 -26.5982 -26.5880 -21.8994 -21.8935
    -5.9013  -5.7678  -5.5111  -5.5069  -5.4632  -5.4413  -5.3763  -5.2231
    -5.1873  -5.0635  -4.8278  -4.8274  -4.7245  -4.6549  -4.6453  -4.5566
    -4.4389  -4.4002  -1.8461  -1.8004  -1.7305  -1.7257  -1.7113  -1.6942
    16.4376  16.6164  16.8649  16.9059  16.9357  17.0611  17.0682  17.4242
[...]
    -5.8980  -5.7342  -5.5681  -5.5312  -5.4171  -5.4036  -5.3822  -5.1960
    -5.1657  -5.0988  -4.9468  -4.8453  -4.8433  -4.7244  -4.6660  -4.5809
    -4.4552  -4.3905  -1.8942  -1.8573  -1.7558  -1.7461  -1.7356  -1.7219
    16.6014  16.8408  16.8662  16.8883  17.0795  17.4016  17.4657  17.4661
    18.0205  18.1742  18.2051  18.8013  19.3131  19.3219  19.4572  19.5695
    19.6320  19.7728  19.9711  20.0838  20.3684  20.5754  20.6597  20.8955
    20.9756  21.1406  21.2148  21.2766  21.5563  21.7434  21.9895  22.7572
    23.2015  23.2077

          k = 0.4010 0.2315 0.1797 (  5089 PWs)   bands (ev):

   -26.8982 -26.7963 -26.7319 -26.6861 -26.6387 -26.6141 -21.9211 -21.9172
    -5.8563  -5.7661  -5.6354  -5.5743  -5.5545  -5.3188  -5.2514  -5.2196
    -5.2114  -5.0409  -4.9466  -4.9022  -4.7635  -4.7251  -4.6290  -4.5325
    -4.4648  -4.4551  -1.8793  -1.8538  -1.7512  -1.7511  -1.7456  -1.7191
    16.6325  16.8581  16.8831  16.8923  17.1344  17.2323  17.5685  17.5698
    18.1747  18.2319  18.5349  18.7613  18.8346  18.8706  19.1961  19.3788
    19.7447  19.8650  20.0809  20.0870  20.1796  20.4815  20.6558  20.8413
    21.1456  21.1620  21.3761  21.5289  21.7486  21.8757  22.1888  22.8361
    23.1548  23.2146

          k = 0.4010 0.2315 0.3594 (  5095 PWs)   bands (ev):

   -26.8637 -26.7790 -26.7137 -26.7080 -26.6684 -26.6322 -21.9230 -21.9202
    -5.8206  -5.7885  -5.6842  -5.6742  -5.5774  -5.4450  -5.2856  -5.1960
    -5.0662  -4.9381  -4.9034  -4.8819  -4.7781  -4.6365  -4.5988  -4.5917
    -4.4939  -4.4632  -1.8525  -1.8406  -1.7787  -1.7516  -1.7387  -1.7132
    16.6082  16.8474  16.8632  17.0601  17.2430  17.6046  17.7673  17.8146
    17.8763  17.9438  18.3279  18.6587  18.8360  18.8922  19.0471  19.2801
    19.3507  19.5583  19.6579  20.3720  20.4444  20.4851  20.6720  20.8814
    21.1349  21.3580  21.4621  21.5370  21.9640  22.3259  22.5621  22.6858
    22.7288  23.1876

          k = 0.4010 0.2315 0.5392 (  5084 PWs)   bands (ev):

   -26.8152 -26.7725 -26.7277 -26.7036 -26.6875 -26.6584 -21.9240 -21.9230
    -5.8390  -5.8149  -5.6969  -5.6323  -5.6084  -5.5778  -5.2430  -5.0941
    -5.0858  -4.9652  -4.9091  -4.8439  -4.7075  -4.6126  -4.6063  -4.5474
    -4.5257  -4.4792  -1.8357  -1.8292  -1.7860  -1.7692  -1.7218  -1.7119
    16.7651  16.9521  16.9572  17.1774  17.2758  17.2964  17.4284  17.8615
    18.0859  18.3174  18.3183  18.3662  18.6064  18.8291  18.8407  18.9684
    19.7556  19.8186  19.8712  20.5102  20.5267  20.6241  20.7356  20.8882
    21.0018  21.1401  21.3826  21.4370  21.6157  21.7286  21.8860  21.9491
    23.2697  23.8156

          k = 0.4010 0.4244 0.0000 (  5092 PWs)   bands (ev):

   -26.8943 -26.8084 -26.7601 -26.6586 -26.6300 -26.6143 -21.9199 -21.9172
    -5.8607  -5.6539  -5.5800  -5.4846  -5.4493  -5.3549  -5.2832  -5.2576
    -5.1841  -5.0934  -4.9487  -4.9176  -4.8196  -4.7394  -4.6948  -4.6305
    -4.5222  -4.3705  -1.8913  -1.8676  -1.7865  -1.7650  -1.7430  -1.7375
    16.5573  17.0484  17.1812  17.4215  17.4503  17.4976  17.7239  17.9890
    18.2439  18.4209  18.4941  18.6526  18.7423  18.7661  18.8675  19.3098
    19.4504  19.5424  19.8349  20.0515  20.0928  20.1603  20.3010  20.5359
    21.2152  21.5022  21.5125  21.7614  21.7750  21.9493  22.0582  22.4388
    22.5952  23.2007

          k = 0.4010 0.4244 0.1797 (  5083 PWs)   bands (ev):

   -26.8818 -26.8020 -26.7545 -26.6639 -26.6423 -26.6211 -21.9207 -21.9185
    -5.8252  -5.6978  -5.5869  -5.5659  -5.5241  -5.3118  -5.2649  -5.1813
    -5.1153  -5.0935  -5.0204  -4.9869  -4.7554  -4.7087  -4.6537  -4.5727
    -4.5274  -4.4383  -1.8752  -1.8632  -1.7821  -1.7584  -1.7487  -1.7442
    16.7200  17.0458  17.1641  17.3455  17.4562  17.5018  17.8114  18.1068
    18.1817  18.2974  18.4137  18.5804  18.6034  18.7817  18.8672  18.9950
    19.5992  19.6770  19.9911  20.0684  20.2194  20.2966  20.4862  20.5398
    20.8803  21.1868  21.2854  21.6726  21.8906  22.0401  22.3719  22.5180
    22.8744  23.0931

          k = 0.4010 0.4244 0.3594 (  5082 PWs)   bands (ev):

   -26.8468 -26.7848 -26.7410 -26.6793 -26.6745 -26.6389 -21.9229 -21.9212
    -5.7551  -5.7490  -5.6572  -5.6086  -5.5689  -5.4222  -5.2564  -5.1591
    -5.0718  -5.0612  -4.9785  -4.8940  -4.7710  -4.6280  -4.6134  -4.5961
    -4.5263  -4.4891  -1.8525  -1.8461  -1.7704  -1.7691  -1.7561  -1.7459
    17.0215  17.0955  17.1244  17.2353  17.5378  17.7387  17.7487  17.8204
    18.1340  18.1981  18.2505  18.3025  18.7185  18.9404  19.2089  19.3165
    19.3800  19.4681  19.8863  20.1048  20.2921  20.4142  20.5145  20.6869
    20.7165  20.8254  20.9371  21.4707  21.8976  22.1537  22.4790  22.8443
    22.8972  23.3355

          k = 0.4010 0.4244 0.5392 (  5083 PWs)   bands (ev):

   -26.7977 -26.7673 -26.7342 -26.7233 -26.6804 -26.6624 -21.9244 -21.9237
    -5.7738  -5.7536  -5.6674  -5.5997  -5.5641  -5.5290  -5.2214  -5.2111
    -5.0921  -5.0702  -4.8758  -4.8347  -4.7354  -4.6865  -4.5827  -4.5682
    -4.5229  -4.4942  -1.8384  -1.8330  -1.7804  -1.7712  -1.7521  -1.7424
    17.1536  17.1898  17.2474  17.3078  17.3195  17.4334  17.5771  17.6970
    18.3348  18.3834  18.4825  18.6646  18.7230  18.9124  18.9894  19.3326
    19.5961  19.7071  19.8445  19.9741  20.1322  20.2436  20.3632  20.4047
    20.6949  21.0705  21.1271  21.3758  21.4905  21.6158  21.7509  21.8188
    23.5357  23.8722

          k = 0.4010 0.6173 0.0000 (  5081 PWs)   bands (ev):

   -26.8895 -26.7988 -26.7796 -26.6459 -26.6288 -26.6230 -21.9193 -21.9180
    -5.8472  -5.6182  -5.5508  -5.4970  -5.4078  -5.3637  -5.3120  -5.2774
    -5.1975  -5.1333  -4.9097  -4.8855  -4.7851  -4.7288  -4.6940  -4.6549
    -4.6064  -4.3632  -1.8656  -1.8485  -1.8127  -1.8047  -1.7414  -1.7384
    16.4774  17.4076  17.5504  17.5630  17.6378  17.7312  17.8790  17.8897
    18.2120  18.2241  18.3757  18.4963  18.5407  18.6558  18.6677  19.3228
    19.3947  19.5920  19.7221  19.9182  20.0122  20.0629  20.1937  20.3104
    21.4048  21.5505  21.6247  21.7073  21.8789  21.9199  22.0663  22.4218
    23.0003  23.4988

          k = 0.4010 0.6173 0.1797 (  5076 PWs)   bands (ev):

   -26.8769 -26.7926 -26.7740 -26.6518 -26.6391 -26.6313 -21.9203 -21.9191
    -5.8157  -5.6424  -5.6042  -5.5726  -5.4543  -5.3837  -5.2267  -5.1910
    -5.1432  -5.1319  -4.9966  -4.9698  -4.7141  -4.6763  -4.6526  -4.6112
    -4.6050  -4.4313  -1.8517  -1.8438  -1.8083  -1.7970  -1.7469  -1.7446
    16.6698  17.3771  17.4818  17.5230  17.6356  17.6847  17.7855  18.0532
    18.1883  18.2153  18.3154  18.3777  18.4413  18.5769  18.7451  19.1094
    19.6501  19.7393  19.8916  19.9443  20.1022  20.1152  20.2884  20.4132
    21.0745  21.1753  21.3761  21.7446  21.7962  21.9994  22.1439  22.7652
    23.2629  23.3867

          k = 0.4010 0.6173 0.3594 (  5084 PWs)   bands (ev):

   -26.8417 -26.7760 -26.7600 -26.6773 -26.6626 -26.6478 -21.9227 -21.9218
    -5.7270  -5.7045  -5.6724  -5.5928  -5.5398  -5.4860  -5.2107  -5.1643
    -5.1101  -5.0778  -4.9592  -4.9011  -4.7539  -4.6362  -4.6269  -4.5970
    -4.5357  -4.5116  -1.8331  -1.8270  -1.7956  -1.7803  -1.7660  -1.7579
    17.1735  17.2299  17.3277  17.4028  17.6162  17.7289  17.8464  17.8609
    17.9928  18.0842  18.1843  18.3545  18.7773  18.9425  18.9852  19.0811
    19.5454  19.6322  19.8726  20.0607  20.2606  20.2873  20.4346  20.4803
    20.5900  20.6187  20.7793  21.5902  21.9568  22.2311  22.3537  22.8976
    23.2506  23.3846

          k = 0.4010 0.6173 0.5392 (  5092 PWs)   bands (ev):

   -26.7913 -26.7579 -26.7485 -26.7260 -26.6746 -26.6670 -21.9244 -21.9241
    -5.7183  -5.6982  -5.6677  -5.6304  -5.5782  -5.5390  -5.2193  -5.2100
    -5.0992  -5.0972  -4.8359  -4.8040  -4.7574  -4.7480  -4.5868  -4.5776
    -4.5165  -4.5049  -1.8202  -1.8163  -1.7840  -1.7783  -1.7722  -1.7673
    17.2345  17.2901  17.3595  17.4461  17.4700  17.5146  17.5667  17.6648
    18.1985  18.5652  18.6535  18.7104  18.7919  19.0862  19.1935  19.2284
    19.3537  19.4498  19.4830  19.8723  19.8983  20.0073  20.1900  20.2955
    20.8186  21.0240  21.0505  21.4799  21.5407  21.6968  21.8240  21.8774
    23.8072  24.2690

          k = 0.4010-0.3472 0.0000 (  5087 PWs)   bands (ev):

   -26.9002 -26.8096 -26.7474 -26.6689 -26.6295 -26.6099 -21.9200 -21.9166
    -5.8738  -5.6877  -5.5850  -5.5187  -5.4215  -5.3741  -5.3150  -5.2300
    -5.1595  -5.0416  -5.0072  -4.9113  -4.8381  -4.7455  -4.6764  -4.6018
    -4.4811  -4.3786  -1.9006  -1.8700  -1.7695  -1.7442  -1.7410  -1.7370
    16.6603  16.8197  17.0113  17.1887  17.2439  17.4411  17.6199  17.9471
    18.0975  18.2855  18.4004  18.7696  19.0204  19.0795  19.2632  19.2967
    19.4427  19.5387  19.9630  20.0582  20.2184  20.2997  20.4835  20.7501
    21.0574  21.3216  21.3747  21.6502  21.7180  21.7190  22.2697  22.5860
    22.6205  22.8786

          k = 0.4010-0.3472 0.1797 (  5082 PWs)   bands (ev):

   -26.8878 -26.8030 -26.7416 -26.6748 -26.6417 -26.6165 -21.9209 -21.9179
    -5.8361  -5.7289  -5.6062  -5.5677  -5.5360  -5.3191  -5.2464  -5.2033
    -5.1030  -5.0765  -5.0195  -4.9712  -4.7706  -4.7253  -4.6396  -4.5487
    -4.4893  -4.4456  -1.8843  -1.8663  -1.7646  -1.7497  -1.7448  -1.7361
    16.7782  16.8345  17.0144  17.1393  17.3042  17.3757  17.7268  17.9715
    18.1581  18.3100  18.5076  18.6695  18.7584  18.8004  18.9715  19.1552
    19.6643  19.8047  19.9846  20.1103  20.2483  20.4356  20.5340  20.7095
    20.8230  21.1814  21.3082  21.6399  21.7916  22.1505  22.2880  22.5967
    22.8147  22.8356

          k = 0.4010-0.3472 0.3594 (  5083 PWs)   bands (ev):

   -26.8531 -26.7855 -26.7278 -26.6905 -26.6737 -26.6346 -21.9229 -21.9208
    -5.7870  -5.7682  -5.6623  -5.6351  -5.5655  -5.4213  -5.2492  -5.1930
    -5.0668  -5.0160  -4.9661  -4.8904  -4.7748  -4.6251  -4.6158  -4.5915
    -4.5050  -4.4757  -1.8588  -1.8507  -1.7740  -1.7537  -1.7514  -1.7271
    16.8141  17.0045  17.0681  17.0695  17.4998  17.6289  17.7155  17.7439
    18.0598  18.2948  18.3539  18.4470  18.5839  18.9710  19.1153  19.2954
    19.3778  19.7831  19.8817  19.9085  20.3618  20.5302  20.5792  20.7706
    20.8941  20.9849  21.2699  21.5064  21.7092  22.2816  22.5018  22.6225
    22.7831  23.2118

          k = 0.4010-0.3472 0.5392 (  5084 PWs)   bands (ev):

   -26.8047 -26.7702 -26.7299 -26.7161 -26.6842 -26.6599 -21.9243 -21.9234
    -5.8082  -5.7888  -5.6745  -5.6049  -5.5632  -5.5432  -5.2314  -5.1775
    -5.0893  -5.0305  -4.9027  -4.8424  -4.7236  -4.6474  -4.5896  -4.5576
    -4.5230  -4.4881  -1.8433  -1.8374  -1.7824  -1.7701  -1.7355  -1.7258
    16.9773  17.0746  17.1616  17.2508  17.3248  17.3751  17.4204  17.7823
    18.2145  18.3470  18.5263  18.5975  18.6935  18.7885  18.8968  19.1775
    19.7943  19.8162  19.8345  20.2523  20.3901  20.3956  20.5088  20.7532
    20.8001  21.0000  21.2427  21.2682  21.4076  21.5365  21.7650  21.8342
    23.3416  23.7736

          k = 0.4010-0.1543 0.0000 (  5089 PWs)   bands (ev):

   -26.9165 -26.7947 -26.7420 -26.6787 -26.6247 -26.6087 -21.9203 -21.9155
    -5.9120  -5.7582  -5.5481  -5.5207  -5.4468  -5.4192  -5.4100  -5.2381
    -5.1725  -5.1067  -4.8974  -4.8332  -4.8057  -4.6788  -4.6709  -4.5838
    -4.4676  -4.3972  -1.8804  -1.8404  -1.7556  -1.7471  -1.7361  -1.7241
    16.5561  16.7337  16.7643  17.0428  17.0529  17.1665  17.3841  17.4416
    17.8318  18.0088  18.2169  18.7349  19.3137  19.3830  19.6732  19.6740
    19.8510  19.8652  19.9575  20.1217  20.4823  20.5855  20.5988  20.8851
    20.9488  21.0581  21.1977  21.2829  21.4228  21.8778  21.8828  23.0441
    23.2661  23.4110

          k = 0.4010-0.1543 0.1797 (  5088 PWs)   bands (ev):

   -26.9041 -26.7880 -26.7360 -26.6865 -26.6354 -26.6152 -21.9211 -21.9168
    -5.8675  -5.7805  -5.6502  -5.5968  -5.5391  -5.3144  -5.2935  -5.2551
    -5.2200  -5.0346  -4.8995  -4.8665  -4.7359  -4.7043  -4.6271  -4.5340
    -4.4767  -4.4574  -1.8663  -1.8371  -1.7518  -1.7502  -1.7460  -1.7205
    16.5938  16.7428  16.8598  16.9042  17.0723  17.1783  17.2991  17.4892
    18.1852  18.2442  18.4348  18.7492  18.8675  18.9901  19.1848  19.4802
    19.7453  19.7940  20.0246  20.0431  20.3592  20.4823  20.7575  20.9511
    21.1265  21.2213  21.4158  21.4954  21.7608  21.8291  22.1836  23.0304
    23.2962  23.3251

          k = 0.4010-0.1543 0.3594 (  5087 PWs)   bands (ev):

   -26.8694 -26.7712 -26.7239 -26.7045 -26.6628 -26.6332 -21.9229 -21.9198
    -5.8287  -5.7916  -5.7140  -5.6929  -5.5758  -5.4674  -5.3265  -5.1845
    -5.0494  -4.9057  -4.8883  -4.8462  -4.7636  -4.6355  -4.6032  -4.5815
    -4.5013  -4.4647  -1.8392  -1.8256  -1.7802  -1.7514  -1.7378  -1.7143
    16.5497  16.7541  16.7605  17.0967  17.1717  17.5386  17.6110  17.7682
    17.8870  17.9797  18.2723  18.7233  18.7630  18.8845  19.0895  19.2211
    19.3368  19.4383  19.6006  20.3460  20.4059  20.6161  20.7825  21.0466
    21.1933  21.2269  21.6409  21.7720  22.1002  22.3578  22.6647  22.7130
    22.8173  23.2388

          k = 0.4010-0.1543 0.5392 (  5066 PWs)   bands (ev):

   -26.8205 -26.7732 -26.7267 -26.7002 -26.6851 -26.6590 -21.9238 -21.9226
    -5.8435  -5.8145  -5.7186  -5.6744  -5.6250  -5.6014  -5.2442  -5.0894
    -5.0356  -4.9588  -4.8687  -4.8244  -4.6999  -4.6271  -4.6027  -4.5481
    -4.5245  -4.4782  -1.8215  -1.8155  -1.7872  -1.7688  -1.7215  -1.7122
    16.6898  16.8423  16.9029  17.0995  17.2268  17.3162  17.5199  17.9035
    18.0129  18.1477  18.2250  18.3581  18.5432  18.7364  18.7739  18.8641
    19.7169  19.7422  20.0344  20.4007  20.5940  20.6850  20.7882  20.8813
    21.0875  21.1700  21.5794  21.7206  21.7601  21.9379  22.0908  22.1068
    23.3060  24.0222

          k = 0.4010 0.0386 0.0000 (  5081 PWs)   bands (ev):

   -26.9214 -26.7816 -26.7539 -26.6757 -26.6197 -26.6128 -21.9202 -21.9151
    -5.9243  -5.7757  -5.5171  -5.4845  -5.4750  -5.4575  -5.4306  -5.3093
    -5.1491  -5.1181  -4.8498  -4.8120  -4.7765  -4.6841  -4.6057  -4.5778
    -4.5211  -4.3999  -1.8586  -1.8159  -1.7614  -1.7473  -1.7364  -1.7352
    16.6245  16.6340  16.7093  16.8149  17.0473  17.3268  17.3384  17.5431
    17.5784  17.7397  18.2298  18.6259  19.3415  19.4671  19.6775  19.7610
    19.9240  19.9696  20.1524  20.1964  20.4201  20.4922  20.6486  20.7584
    20.9476  21.0372  21.0688  21.2260  21.5652  21.8368  22.1037  23.1676
    23.4074  23.7896

          k = 0.4010 0.0386 0.1797 (  5090 PWs)   bands (ev):

   -26.9089 -26.7748 -26.7491 -26.6835 -26.6296 -26.6192 -21.9211 -21.9165
    -5.8764  -5.7905  -5.6694  -5.6136  -5.4989  -5.3918  -5.2866  -5.2657
    -5.2291  -5.0366  -4.8606  -4.8382  -4.7044  -4.6845  -4.5807  -4.5456
    -4.5296  -4.4581  -1.8462  -1.8140  -1.7555  -1.7521  -1.7466  -1.7330
    16.6447  16.6773  16.8002  16.8565  17.0472  17.0725  17.1529  17.4264
    18.2289  18.2739  18.3214  18.6838  18.8916  19.0341  19.2143  19.4693
    19.5757  19.8623  20.0071  20.0894  20.4506  20.5786  20.7039  20.9456
    21.1254  21.3082  21.4167  21.5426  21.7599  21.9214  22.2090  23.0509
    23.2673  23.9933

          k = 0.4010 0.0386 0.3594 (  5075 PWs)   bands (ev):

   -26.8741 -26.7566 -26.7422 -26.7003 -26.6549 -26.6368 -21.9227 -21.9195
    -5.8215  -5.7916  -5.7572  -5.7047  -5.5491  -5.5176  -5.3516  -5.1834
    -5.0244  -4.8920  -4.8751  -4.8349  -4.6929  -4.6357  -4.6200  -4.5779
    -4.5082  -4.4783  -1.8200  -1.8066  -1.7808  -1.7505  -1.7412  -1.7252
    16.5641  16.6299  16.6843  17.1566  17.2291  17.3052  17.4489  17.7082
    18.0191  18.1448  18.1650  18.5715  18.7698  18.8813  18.9863  19.0890
    19.3537  19.3864  19.8433  20.0749  20.3888  20.7817  20.8570  21.0531
    21.1090  21.4352  21.8515  21.9225  22.0725  22.4921  22.6710  22.7547
    22.8717  23.3240

          k = 0.4010 0.0386 0.5392 (  5070 PWs)   bands (ev):

   -26.8247 -26.7739 -26.7256 -26.7004 -26.6789 -26.6611 -21.9236 -21.9224
    -5.8312  -5.7996  -5.7595  -5.7188  -5.6484  -5.6135  -5.2452  -5.0918
    -4.9911  -4.9636  -4.8363  -4.7598  -4.6942  -4.6628  -4.6154  -4.5571
    -4.5053  -4.4903  -1.8014  -1.7988  -1.7883  -1.7685  -1.7282  -1.7219
    16.6702  16.7230  16.8652  17.0864  17.1357  17.3476  17.6952  17.8765
    17.9449  18.0023  18.1495  18.4034  18.4988  18.5948  18.6652  18.7283
    19.6259  19.6609  20.2958  20.4574  20.6254  20.6732  20.7637  20.8603
    21.0398  21.1795  21.7855  21.8710  21.9575  22.0578  22.2858  22.4124
    23.3594  23.9919

     the Fermi energy is    20.8648 ev

!    total energy              =    -848.45731759 Ry
     Harris-Foulkes estimate   =    -848.45731827 Ry
     estimated scf accuracy    <       0.00000076 Ry

     The total energy is the sum of the following terms:

     one-electron contribution =       6.60296880 Ry
     hartree contribution      =      71.97693708 Ry
     xc contribution           =    -101.40368953 Ry
     ewald contribution        =    -824.98277297 Ry
     smearing contrib. (-TS)   =      -0.65076097 Ry

     convergence has been achieved in  17 iterations

     Forces acting on atoms (Ry/au):

     atom    1 type  1   force =     0.00412775    0.00238316    0.00000000
     atom    2 type  1   force =     0.00412775   -0.00238316    0.00000000
     atom    3 type  1   force =    -0.00412775   -0.00238316    0.00000000
     atom    4 type  1   force =    -0.00412775    0.00238316    0.00000000
     atom    5 type  1   force =     0.00000000   -0.00476632    0.00000000
     atom    6 type  1   force =     0.00000000    0.00476632    0.00000000
     atom    7 type  2   force =     0.00000000    0.00000000    0.00000000
     atom    8 type  2   force =     0.00000000    0.00000000    0.00000000

     Total force =     0.011675     Total SCF correction =     0.000000


     entering subroutine stress ...

          total   stress  (Ry/bohr**3)                   (kbar)     P=   -0.06
  -0.00003282   0.00000000   0.00000000         -4.83      0.00      0.00
   0.00000000  -0.00003282   0.00000000          0.00     -4.83      0.00
   0.00000000   0.00000000   0.00006434          0.00      0.00      9.46


     Writing output data file Prototype-La-hP8-Mg3Cd.save
 
     init_run     :      9.02s CPU     11.65s WALL (       2 calls)
     electrons    :   2062.56s CPU   2525.03s WALL (       5 calls)
     update_pot   :      2.49s CPU      2.52s WALL (       3 calls)
     forces       :      7.97s CPU      8.51s WALL (       5 calls)
     stress       :     22.29s CPU     23.33s WALL (       5 calls)

     Called by init_run:
     wfcinit      :      7.99s CPU     10.59s WALL (       2 calls)
     potinit      :      0.44s CPU      0.44s WALL (       2 calls)

     Called by electrons:
     c_bands      :   1987.17s CPU   2398.26s WALL (      53 calls)
     sum_band     :     74.81s CPU    102.35s WALL (      53 calls)
     v_of_rho     :      0.10s CPU      0.12s WALL (      58 calls)
     mix_rho      :      0.10s CPU      0.12s WALL (      53 calls)

     Called by c_bands:
     init_us_2    :      5.54s CPU      6.91s WALL (    7552 calls)
     ccgdiagg     :   1774.56s CPU   2115.62s WALL (    3718 calls)
     wfcrot       :    215.30s CPU    284.84s WALL (    3782 calls)

     Called by *cgdiagg:
     h_psi        :   1415.15s CPU   1778.40s WALL ( 1305279 calls)
     cdiaghg      :      5.81s CPU      6.13s WALL (    3782 calls)

     Called by h_psi:
     add_vuspsi   :    122.47s CPU    172.27s WALL ( 1305279 calls)

     General routines
     calbec       :    442.61s CPU    468.83s WALL ( 2607416 calls)
     fft          :      0.19s CPU      0.23s WALL (     255 calls)
     fftw         :   1070.50s CPU   1310.45s WALL ( 3326090 calls)
     davcio       :      3.49s CPU      6.73s WALL (   10944 calls)
 
     Parallel routines
     fft_scatter  :    412.66s CPU    517.75s WALL ( 3326345 calls)
 
     PWSCF        : 35m 5.07s CPU    42m57.22s WALL

 
   This run was terminated on:  18:17:48  22Mar2018            

=------------------------------------------------------------------------------=
   JOB DONE.
=------------------------------------------------------------------------------=
