
     Program PWSCF v.5.0.2 starts on 22Mar2018 at  0: 3:10 

     This program is part of the open-source Quantum ESPRESSO suite
     for quantum simulation of materials; please cite
         "P. Giannozzi et al., J. Phys.:Condens. Matter 21 395502 (2009);
          URL http://www.quantum-espresso.org", 
     in publications or presentations arising from this work. More details at
     http://www.quantum-espresso.org/quote.php

     Parallel version (MPI), running on     4 processors
     R & G space division:  proc/nbgrp/npool/nimage =       4

     Current dimensions of program PWSCF are:
     Max number of different atomic species (ntypx) = 10
     Max number of k-points (npk) =  40000
     Max angular momentum in pseudopotentials (lmaxx) =  3
     Waiting for input...
     Reading input from standard input

     Subspace diagonalization in iterative solution of the eigenvalue problem:
     a serial algorithm will be used

 
     Parallelization info
     --------------------
     sticks:   dense  smooth     PW     G-vecs:    dense   smooth      PW
     Min         233     233     69                 5311     5311     851
     Max         234     234     70                 5314     5314     854
     Sum         933     933    277                21247    21247    3407
 


     bravais-lattice index     =            0
     lattice parameter (alat)  =       8.5346  a.u.
     unit-cell volume          =     621.6493 (a.u.)^3
     number of atoms/cell      =            8
     number of atomic types    =            2
     number of electrons       =       186.00
     number of Kohn-Sham states=          112
     kinetic-energy cutoff     =      40.0000  Ry
     charge density cutoff     =     160.0000  Ry
     convergence threshold     =      1.0E-04
     mixing beta               =       0.7000
     number of iterations used =            8  plain     mixing
     Exchange-correlation      = SLA-PZ-NOGX-NOGC ( 1 1 0 0 0)
     EXX-fraction              =        0.00
     nstep                     =           50


     celldm(1)=   8.534573  celldm(2)=   0.000000  celldm(3)=   0.000000
     celldm(4)=   0.000000  celldm(5)=   0.000000  celldm(6)=   0.000000

     crystal axes: (cart. coord. in units of alat)
               a(1) = (   1.000000   0.000000   0.000000 )  
               a(2) = (   0.000000   1.000000   0.000000 )  
               a(3) = (   0.000000   0.000000   1.000000 )  

     reciprocal axes: (cart. coord. in units 2 pi/alat)
               b(1) = (  1.000000  0.000000  0.000000 )  
               b(2) = (  0.000000  1.000000  0.000000 )  
               b(3) = (  0.000000  0.000000  1.000000 )  


     PseudoPot. # 1 for Lu read from file:
     /home/cwx6513/pp.La/La.UPF
     MD5 check sum: 4fc038260c66a0bf25fb4835376efb80
     Pseudo is Norm-conserving, Zval = 25.0
     Generated in analytical, separable form
     Using radial grid of 1271 points,  6 beta functions with: 
                l(1) =   0
                l(2) =   0
                l(3) =   1
                l(4) =   1
                l(5) =   2
                l(6) =   3

     PseudoPot. # 2 for Gd read from file:
     /home/cwx6513/pp.La/Gd.UPF
     MD5 check sum: 09a8be538722f05520810cb6aac0efd2
     Pseudo is Norm-conserving, Zval = 18.0
     Generated in analytical, separable form
     Using radial grid of 1263 points,  6 beta functions with: 
                l(1) =   0
                l(2) =   0
                l(3) =   1
                l(4) =   1
                l(5) =   2
                l(6) =   3

     atomic species   valence    mass     pseudopotential
        Cr            25.00    51.99610     Lu( 1.00)
        Si            18.00    28.08550     Gd( 1.00)

     48 Sym. Ops., with inversion, found (24 have fractional translation)



   Cartesian axes

     site n.     atom                  positions (alat units)
         1           Cr  tau(   1) = (   0.0000000   0.5000000   0.2500000  )
         2           Cr  tau(   2) = (   0.0000000   0.5000000   0.7500000  )
         3           Cr  tau(   3) = (   0.5000000   0.7500000   0.0000000  )
         4           Cr  tau(   4) = (   0.5000000   0.2500000   0.0000000  )
         5           Cr  tau(   5) = (   0.7500000   0.0000000   0.5000000  )
         6           Cr  tau(   6) = (   0.2500000   0.0000000   0.5000000  )
         7           Si  tau(   7) = (   0.5000000   0.5000000   0.5000000  )
         8           Si  tau(   8) = (   0.0000000   0.0000000   0.0000000  )

     number of k points=    48  gaussian smearing, width (Ry)=  0.1000
                       cart. coord. in units 2pi/alat
        k(    1) = (   0.0000000   0.0000000   0.0000000), wk =   0.0095238
        k(    2) = (   0.0000000   0.0000000   0.1428571), wk =   0.0190476
        k(    3) = (   0.0000000   0.0000000   0.2857143), wk =   0.0190476
        k(    4) = (   0.0000000   0.0000000   0.4285714), wk =   0.0190476
        k(    5) = (   0.0000000   0.1666667   0.0000000), wk =   0.0190476
        k(    6) = (   0.0000000   0.1666667   0.1428571), wk =   0.0380952
        k(    7) = (   0.0000000   0.1666667   0.2857143), wk =   0.0380952
        k(    8) = (   0.0000000   0.1666667   0.4285714), wk =   0.0380952
        k(    9) = (   0.0000000   0.3333333   0.0000000), wk =   0.0190476
        k(   10) = (   0.0000000   0.3333333   0.1428571), wk =   0.0380952
        k(   11) = (   0.0000000   0.3333333   0.2857143), wk =   0.0380952
        k(   12) = (   0.0000000   0.3333333   0.4285714), wk =   0.0380952
        k(   13) = (   0.0000000  -0.5000000   0.0000000), wk =   0.0095238
        k(   14) = (   0.0000000  -0.5000000   0.1428571), wk =   0.0190476
        k(   15) = (   0.0000000  -0.5000000   0.2857143), wk =   0.0190476
        k(   16) = (   0.0000000  -0.5000000   0.4285714), wk =   0.0190476
        k(   17) = (   0.2000000   0.0000000   0.0000000), wk =   0.0190476
        k(   18) = (   0.2000000   0.0000000   0.1428571), wk =   0.0380952
        k(   19) = (   0.2000000   0.0000000   0.2857143), wk =   0.0380952
        k(   20) = (   0.2000000   0.0000000   0.4285714), wk =   0.0380952
        k(   21) = (   0.2000000   0.1666667   0.0000000), wk =   0.0380952
        k(   22) = (   0.2000000   0.1666667   0.1428571), wk =   0.0761905
        k(   23) = (   0.2000000   0.1666667   0.2857143), wk =   0.0761905
        k(   24) = (   0.2000000   0.1666667   0.4285714), wk =   0.0761905
        k(   25) = (   0.2000000   0.3333333   0.0000000), wk =   0.0380952
        k(   26) = (   0.2000000   0.3333333   0.1428571), wk =   0.0761905
        k(   27) = (   0.2000000   0.3333333   0.2857143), wk =   0.0761905
        k(   28) = (   0.2000000   0.3333333   0.4285714), wk =   0.0761905
        k(   29) = (   0.2000000  -0.5000000   0.0000000), wk =   0.0190476
        k(   30) = (   0.2000000  -0.5000000   0.1428571), wk =   0.0380952
        k(   31) = (   0.2000000  -0.5000000   0.2857143), wk =   0.0380952
        k(   32) = (   0.2000000  -0.5000000   0.4285714), wk =   0.0380952
        k(   33) = (   0.4000000   0.0000000   0.0000000), wk =   0.0190476
        k(   34) = (   0.4000000   0.0000000   0.1428571), wk =   0.0380952
        k(   35) = (   0.4000000   0.0000000   0.2857143), wk =   0.0380952
        k(   36) = (   0.4000000   0.0000000   0.4285714), wk =   0.0380952
        k(   37) = (   0.4000000   0.1666667   0.0000000), wk =   0.0380952
        k(   38) = (   0.4000000   0.1666667   0.1428571), wk =   0.0761905
        k(   39) = (   0.4000000   0.1666667   0.2857143), wk =   0.0761905
        k(   40) = (   0.4000000   0.1666667   0.4285714), wk =   0.0761905
        k(   41) = (   0.4000000   0.3333333   0.0000000), wk =   0.0380952
        k(   42) = (   0.4000000   0.3333333   0.1428571), wk =   0.0761905
        k(   43) = (   0.4000000   0.3333333   0.2857143), wk =   0.0761905
        k(   44) = (   0.4000000   0.3333333   0.4285714), wk =   0.0761905
        k(   45) = (   0.4000000  -0.5000000   0.0000000), wk =   0.0190476
        k(   46) = (   0.4000000  -0.5000000   0.1428571), wk =   0.0380952
        k(   47) = (   0.4000000  -0.5000000   0.2857143), wk =   0.0380952
        k(   48) = (   0.4000000  -0.5000000   0.4285714), wk =   0.0380952

     Dense  grid:    21247 G-vectors     FFT dimensions: (  36,  36,  36)

     Largest allocated arrays     est. size (Mb)     dimensions
        Kohn-Sham Wavefunctions         1.17 Mb     (    683,  112)
        NL pseudopotentials             1.67 Mb     (    683,  160)
        Each V/rho on FFT grid          0.18 Mb     (  11664)
        Each G-vector array             0.04 Mb     (   5314)
        G-vector shells                 0.04 Mb     (   5314)
     Largest temporary arrays     est. size (Mb)     dimensions
        Each subspace H/S matrix        0.19 Mb     ( 112, 112)
        Each <psi_i|beta_j> matrix      0.27 Mb     (    160,  112)
        Arrays for rho mixing           1.42 Mb     (  11664,   8)

     Initial potential from superposition of free atoms

     Starting from uniform charge
     Starting wfc are    0 randomized atomic wfcs

     total cpu time spent up to now is        4.8 secs

     Self-consistent Calculation

     iteration #  1     ecut=    40.00 Ry     beta=0.70
     CG style diagonalization
     ethr =  1.00E-02,  avg # of iterations = 17.7

     total cpu time spent up to now is      121.7 secs

     total energy              =   -2401.73044347 Ry
     Harris-Foulkes estimate   =   -3768.08718219 Ry
     estimated scf accuracy    <    1664.89656372 Ry

     iteration #  2     ecut=    40.00 Ry     beta=0.70
     CG style diagonalization
     c_bands:  5 eigenvalues not converged
     c_bands:  1 eigenvalues not converged
     c_bands:  4 eigenvalues not converged
     c_bands:  3 eigenvalues not converged
     c_bands:  1 eigenvalues not converged
     c_bands:  3 eigenvalues not converged
     c_bands:  1 eigenvalues not converged
     c_bands:  1 eigenvalues not converged
     c_bands:  2 eigenvalues not converged
     c_bands:  2 eigenvalues not converged
     c_bands:  1 eigenvalues not converged
     c_bands:  2 eigenvalues not converged
     c_bands:  2 eigenvalues not converged
     c_bands:  1 eigenvalues not converged
     c_bands:  3 eigenvalues not converged
     c_bands:  2 eigenvalues not converged
     c_bands:  1 eigenvalues not converged
     c_bands:  1 eigenvalues not converged
     c_bands:  1 eigenvalues not converged
     c_bands:  1 eigenvalues not converged
     c_bands:  1 eigenvalues not converged
     c_bands:  1 eigenvalues not converged
     c_bands:  1 eigenvalues not converged
     ethr =  1.00E-02,  avg # of iterations = 12.8

     total cpu time spent up to now is      221.0 secs

     total energy              =   -2616.32451578 Ry
     Harris-Foulkes estimate   =   -3590.82017062 Ry
     estimated scf accuracy    <    1830.35404405 Ry

     iteration #  3     ecut=    40.00 Ry     beta=0.70
     CG style diagonalization
     c_bands:  1 eigenvalues not converged
     c_bands:  1 eigenvalues not converged
     c_bands:  1 eigenvalues not converged
     c_bands:  1 eigenvalues not converged
     c_bands:  1 eigenvalues not converged
     c_bands:  1 eigenvalues not converged
     c_bands:  2 eigenvalues not converged
     c_bands:  1 eigenvalues not converged
     ethr =  1.00E-02,  avg # of iterations = 10.6

     total cpu time spent up to now is      303.1 secs

     total energy              =   -3093.73424359 Ry
     Harris-Foulkes estimate   =   -3152.76285412 Ry
     estimated scf accuracy    <     117.90395564 Ry

     iteration #  4     ecut=    40.00 Ry     beta=0.70
     CG style diagonalization
     ethr =  1.00E-02,  avg # of iterations =  4.8

     total cpu time spent up to now is      339.1 secs

     total energy              =   -3111.39228369 Ry
     Harris-Foulkes estimate   =   -3112.26725074 Ry
     estimated scf accuracy    <       1.93743365 Ry

     iteration #  5     ecut=    40.00 Ry     beta=0.70
     CG style diagonalization
     ethr =  1.04E-03,  avg # of iterations =  4.3

     total cpu time spent up to now is      370.3 secs

     total energy              =   -3111.73592007 Ry
     Harris-Foulkes estimate   =   -3111.87270263 Ry
     estimated scf accuracy    <       0.27713100 Ry

     iteration #  6     ecut=    40.00 Ry     beta=0.70
     CG style diagonalization
     c_bands:  1 eigenvalues not converged
     c_bands:  1 eigenvalues not converged
     c_bands:  1 eigenvalues not converged
     c_bands:  2 eigenvalues not converged
     c_bands:  1 eigenvalues not converged
     ethr =  1.49E-04,  avg # of iterations =  4.0

     total cpu time spent up to now is      400.2 secs

     total energy              =   -3111.78972048 Ry
     Harris-Foulkes estimate   =   -3111.79674195 Ry
     estimated scf accuracy    <       0.01226309 Ry

     iteration #  7     ecut=    40.00 Ry     beta=0.70
     CG style diagonalization
     c_bands:  1 eigenvalues not converged
     c_bands:  1 eigenvalues not converged
     c_bands:  1 eigenvalues not converged
     c_bands:  1 eigenvalues not converged
     c_bands:  1 eigenvalues not converged
     c_bands:  2 eigenvalues not converged
     c_bands:  2 eigenvalues not converged
     c_bands:  1 eigenvalues not converged
     c_bands:  1 eigenvalues not converged
     c_bands:  1 eigenvalues not converged
     c_bands:  3 eigenvalues not converged
     c_bands:  1 eigenvalues not converged
     ethr =  6.59E-06,  avg # of iterations =  4.7

     total cpu time spent up to now is      434.5 secs

     total energy              =   -3111.79463805 Ry
     Harris-Foulkes estimate   =   -3111.79493579 Ry
     estimated scf accuracy    <       0.00058307 Ry

     iteration #  8     ecut=    40.00 Ry     beta=0.70
     CG style diagonalization
     c_bands:  1 eigenvalues not converged
     c_bands:  1 eigenvalues not converged
     c_bands:  1 eigenvalues not converged
     c_bands:  1 eigenvalues not converged
     c_bands:  1 eigenvalues not converged
     c_bands:  2 eigenvalues not converged
     ethr =  3.13E-07,  avg # of iterations =  4.2

     total cpu time spent up to now is      463.8 secs

     total energy              =   -3111.79480163 Ry
     Harris-Foulkes estimate   =   -3111.79490151 Ry
     estimated scf accuracy    <       0.00019085 Ry

     iteration #  9     ecut=    40.00 Ry     beta=0.70
     CG style diagonalization
     ethr =  1.03E-07,  avg # of iterations =  3.4

     total cpu time spent up to now is      486.8 secs

     End of self-consistent calculation

          k = 0.0000 0.0000 0.0000 (  2601 PWs)   bands (ev):

   -83.4121 -83.4121 -83.0779 -82.9849 -82.9849 -82.9849 -39.6792 -39.6792
   -39.6515 -38.9298 -38.9298 -38.9298 -38.8247 -38.8247 -38.8247 -38.7471
   -38.7471 -38.7471 -38.7279 -38.7279 -38.7279 -38.6848 -38.6848 -38.6848
   -18.4047 -18.4025   9.6679   9.6679   9.6679   9.6865   9.6865   9.6865
    16.9668  17.0190  17.0190  18.8341  18.8341  18.8341  20.1252  20.1810
    20.1810  20.1810  20.6786  20.6786  20.7664  20.7664  20.7664  20.9319
    21.5314  21.5314  21.5314  22.1063  22.1063  22.2698  22.2698  22.2698
    22.3137  22.3137  22.3137  23.3733  23.3733  23.3733  27.3047  33.3559
    33.3559  38.5654  38.5654  38.5654  39.3848  39.3848  40.4623  40.4623
    40.4623  41.9756  41.9756  41.9756  42.2138  45.0939  45.0939  45.0939
    48.1213  48.1213  49.1883  49.1883  49.7409  49.7409  49.7409  52.5617
    53.6713  54.5922  54.5922  54.5922  54.8641  54.8641  54.8641  55.5602
    55.5602  55.5602  55.8943  55.8943  55.8943  56.8367  59.4744  59.4745
    59.4745  59.6573  59.6574  60.6193  60.6193  60.6196  62.6315  63.0091

          k = 0.0000 0.0000 0.1429 (  2657 PWs)   bands (ev):

   -83.4359 -83.3714 -83.2098 -83.1831 -83.1831 -83.1392 -39.7091 -39.7003
   -39.6509 -38.9309 -38.9309 -38.9253 -38.8287 -38.8287 -38.8091 -38.7889
   -38.7889 -38.7800 -38.7643 -38.7643 -38.7608 -38.7394 -38.6984 -38.6984
   -18.4132 -18.4050   9.6476   9.6537   9.6537   9.6847   9.6886   9.6886
    16.9865  17.0169  17.2807  18.7857  18.8902  18.8902  20.0186  20.1637
    20.1872  20.1872  20.6957  20.7265  20.7432  20.7432  20.7622  21.0215
    21.5087  21.5302  21.5302  21.9915  22.0188  22.1387  22.1387  22.2929
    22.2929  22.3314  22.3837  23.0179  23.3954  23.3954  27.5198  33.0730
    33.5177  38.0820  38.4208  38.4208  38.6565  39.6582  40.2710  40.2710
    40.5719  41.9402  42.4102  42.4102  42.8714  45.5732  45.5977  45.5977
    46.6898  48.3522  48.3746  49.6956  49.6956  49.8183  51.2775  52.5772
    53.2144  53.2144  53.6963  54.3917  54.3917  54.4061  55.2200  55.4239
    55.9233  55.9233  55.9683  56.6011  56.6011  57.1773  58.8245  59.7116
    59.7117  59.7622  60.0231  60.4515  60.5945  60.5945  61.6197  62.7915

          k = 0.0000 0.0000 0.2857 (  2677 PWs)   bands (ev):

   -83.4305 -83.3707 -83.2898 -83.2257 -83.2177 -83.2177 -39.7092 -39.7007
   -39.5224 -38.9227 -38.9227 -38.9198 -38.9117 -38.8385 -38.8385 -38.8382
   -38.7938 -38.7938 -38.7783 -38.7758 -38.7758 -38.7675 -38.7103 -38.7103
   -18.4125 -18.4071   9.6430   9.6601   9.6601   9.6671   9.6972   9.6972
    16.9951  17.0157  18.0702  18.7595  19.0368  19.0368  19.6511  20.2355
    20.2355  20.2904  20.7192  20.7192  20.7320  20.7427  20.8083  21.2007
    21.4742  21.5496  21.5496  21.7407  21.7407  21.8340  21.8888  22.0620
    22.2956  22.2956  22.4152  22.4611  23.4493  23.4493  28.1634  32.0730
    33.9757  37.1563  38.1834  38.1834  38.2749  39.9064  39.9064  40.4102
    40.8708  41.8232  43.1651  43.5980  43.5980  44.1168  46.6394  46.9280
    46.9280  48.0769  48.9261  48.9261  49.3022  51.1905  51.9486  52.6022
    52.6022  52.6627  52.6627  53.1513  53.9259  54.0647  54.6779  55.1907
    55.8510  55.8510  57.0561  57.7950  58.0684  58.0684  58.5379  59.4561
    59.4562  60.1685  60.4247  60.5734  60.7115  61.2792  61.2794  62.9272

          k = 0.0000 0.0000 0.4286 (  2658 PWs)   bands (ev):

   -83.3328 -83.3082 -83.2819 -83.2349 -83.1884 -83.1884 -39.7077 -39.7031
   -39.3214 -39.1016 -38.9180 -38.9180 -38.8704 -38.8551 -38.8275 -38.8275
   -38.7850 -38.7850 -38.7717 -38.7695 -38.7695 -38.7664 -38.7095 -38.7095
   -18.4073 -18.4062   9.6502   9.6661   9.6666   9.6666   9.7091   9.7091
    17.0078  17.0149  18.8846  19.0913  19.1596  19.1596  19.4144  20.2835
    20.2835  20.4690  20.6342  20.6858  20.8395  20.8455  20.8546  20.8546
    21.2626  21.2626  21.3631  21.4344  21.5727  21.5727  21.7557  21.7877
    22.2998  22.2998  22.4727  22.4890  23.4858  23.4858  29.2496  30.6376
    34.7329  35.7949  38.0295  38.0295  39.5575  39.6747  39.6747  41.2508
    41.2517  41.5940  41.8708  42.5575  45.2302  45.2302  47.2319  47.2319
    47.3409  47.7513  48.7383  48.7383  50.7016  50.7016  51.0853  52.0590
    52.1799  52.8283  52.8283  53.1361  53.8958  54.0976  54.1853  54.3381
    55.8914  55.8914  58.5818  58.6014  59.0584  59.0585  59.2446  59.4390
    59.4391  59.5443  60.6623  61.1088  61.1454  61.4223  61.4224  61.6088

          k = 0.0000 0.1667 0.0000 (  2653 PWs)   bands (ev):

   -83.4054 -83.3611 -83.2127 -83.1846 -83.1846 -83.1320 -39.7087 -39.6981
   -39.6366 -38.9261 -38.9261 -38.9148 -38.8292 -38.8292 -38.8131 -38.7880
   -38.7880 -38.7796 -38.7652 -38.7652 -38.7614 -38.7512 -38.6967 -38.6967
   -18.4122 -18.4049   9.6491   9.6562   9.6562   9.6842   9.6900   9.6900
    16.9886  17.0177  17.3789  18.7761  18.9111  18.9111  19.9680  20.1798
    20.1928  20.1928  20.7029  20.7375  20.7375  20.7408  20.7603  21.0493
    21.5036  21.5325  21.5325  21.9641  21.9977  22.0876  22.0876  22.2944
    22.2944  22.3464  22.3993  22.8959  23.4041  23.4041  27.6008  32.9623
    33.5749  38.0087  38.3820  38.3820  38.4486  39.7556  40.2135  40.2135
    40.6110  41.9275  42.5637  42.5637  42.9966  45.7412  45.7774  45.7774
    46.2725  48.3260  48.4475  49.6482  49.6482  50.0274  51.4754  52.6346
    53.0261  53.0261  53.7252  54.1337  54.1337  54.3517  55.2980  55.3033
    55.9276  55.9276  56.1098  56.8534  56.8535  57.2695  58.7199  59.7285
    59.7285  59.8174  60.1224  60.4201  60.6720  60.6721  61.4471  62.8499

          k = 0.0000 0.1667 0.1429 (  2662 PWs)   bands (ev):

   -83.3849 -83.3634 -83.2592 -83.2097 -83.1946 -83.1757 -39.7090 -39.6629
   -39.6313 -38.9249 -38.9209 -38.9169 -38.8381 -38.8303 -38.8141 -38.7925
   -38.7899 -38.7797 -38.7754 -38.7714 -38.7703 -38.7564 -38.7455 -38.7022
   -18.4132 -18.4047   9.6513   9.6519   9.6603   9.6835   9.6894   9.6932
    17.0033  17.2779  17.3830  18.8328  18.8857  18.9794  19.9910  20.0542
    20.2065  20.2222  20.6577  20.6722  20.7572  20.7921  20.8050  21.1293
    21.4751  21.5201  21.5465  21.8335  21.9523  22.0652  22.1402  22.1544
    22.2482  22.2997  22.4035  22.9157  23.0738  23.4256  27.8103  33.0509
    33.4208  37.2384  37.9005  38.2974  39.0035  39.3896  40.0654  40.6974
    40.7205  42.3143  42.5517  42.5679  43.5691  45.5324  46.2109  46.2910
    46.4881  47.3300  48.6107  49.2691  49.4502  50.9045  52.2298  52.4705
    52.6988  53.1897  53.2631  53.9389  54.1275  54.4331  54.6305  55.5751
    55.8620  55.8732  56.4220  57.0925  57.1146  57.2261  58.7578  59.3705
    59.6240  60.1242  60.1636  60.3770  60.4228  61.1894  62.1652  62.4230

          k = 0.0000 0.1667 0.2857 (  2666 PWs)   bands (ev):

   -83.3739 -83.3153 -83.3072 -83.2355 -83.2040 -83.2017 -39.7111 -39.6427
   -39.5232 -38.9199 -38.9115 -38.9071 -38.9005 -38.8481 -38.8331 -38.8171
   -38.7943 -38.7918 -38.7777 -38.7766 -38.7719 -38.7707 -38.7598 -38.7072
   -18.4104 -18.4058   9.6495   9.6593   9.6733   9.6792   9.6935   9.6973
    17.0083  17.3805  18.0730  18.8466  19.0010  19.1437  19.7069  20.0883
    20.2573  20.3279  20.5994  20.6175  20.8019  20.8391  20.8621  21.2890
    21.4593  21.4810  21.5360  21.5895  21.7120  21.8775  21.9320  22.0170
    22.1801  22.2644  22.2990  22.4487  22.9936  23.4660  28.4693  32.3084
    33.6574  36.6170  37.1055  38.1397  39.2018  39.6882  39.7551  41.0311
    41.0682  42.3378  43.2143  43.5142  43.6952  44.2511  46.1070  47.2289
    47.3673  47.7977  48.4829  48.7486  49.8470  51.3259  52.1414  52.5656
    52.8135  52.8317  52.8516  53.6144  53.9315  54.3186  54.5077  55.3234
    55.7225  56.4320  56.8637  57.0622  57.7936  57.8814  58.7466  59.0125
    59.6787  59.9508  60.4621  60.8305  60.8854  61.5002  62.1073  62.4973

          k = 0.0000 0.1667 0.4286 (  2658 PWs)   bands (ev):

   -83.3371 -83.3051 -83.2605 -83.2270 -83.2211 -83.1939 -39.7155 -39.6432
   -39.3188 -39.1022 -38.9044 -38.9042 -38.8728 -38.8527 -38.8321 -38.8215
   -38.7998 -38.7959 -38.7771 -38.7750 -38.7717 -38.7708 -38.7638 -38.7006
   -18.4074 -18.4051   9.6538   9.6627   9.6740   9.6780   9.7056   9.7094
    17.0140  17.3840  18.9524  19.1172  19.1479  19.2837  19.4441  20.2310
    20.2958  20.4604  20.5654  20.6385  20.7305  20.8366  20.8991  20.9681
    21.2334  21.2404  21.4300  21.4485  21.4889  21.5589  21.6875  21.8885
    22.0901  22.2821  22.3284  22.4726  23.0275  23.4929  29.5368  30.8983
    34.3593  35.3784  37.6564  38.0365  38.8798  39.5411  40.5449  41.5402
    41.7522  42.0239  42.1438  42.9457  44.5345  45.0339  45.5887  46.8990
    47.9176  48.3830  48.9670  49.2133  50.4179  50.7581  51.1945  51.9509
    52.9828  53.2141  53.2363  53.6894  53.7402  54.1264  54.3415  54.7114
    55.8912  56.6801  56.9920  57.9399  58.1160  58.3844  59.1043  59.3663
    59.8105  60.2637  60.7685  61.0262  61.0570  61.3917  61.4451  61.8565

          k = 0.0000 0.3333 0.0000 (  2677 PWs)   bands (ev):

   -83.4271 -83.3813 -83.2946 -83.2716 -83.1872 -83.1872 -39.7097 -39.6971
   -39.4765 -38.9597 -38.9246 -38.9246 -38.9020 -38.8516 -38.8379 -38.8379
   -38.7953 -38.7953 -38.7760 -38.7731 -38.7731 -38.7623 -38.7175 -38.7175
   -18.4117 -18.4069   9.6422   9.6614   9.6614   9.6700   9.6996   9.6996
    16.9981  17.0152  18.4289  18.7822  19.0861  19.0861  19.5129  20.2554
    20.2554  20.3469  20.7095  20.7360  20.7360  20.7622  20.8294  21.2539
    21.4621  21.5578  21.5578  21.5827  21.5827  21.6506  21.7947  21.8491
    22.2958  22.2958  22.4378  22.4747  23.4646  23.4646  28.4859  31.6085
    34.1941  36.6741  38.1180  38.1180  38.5868  39.8068  39.8068  40.7301
    40.9950  41.7601  43.0341  43.2748  44.1108  44.1108  46.9245  47.4739
    47.4739  47.9696  48.4379  48.4379  49.8478  51.6004  52.0073  52.0073
    52.0218  52.6634  52.6634  53.3179  53.9796  54.0263  54.4509  54.8813
    55.8575  55.8575  57.5188  57.9976  58.4873  58.4873  58.7280  59.3850
    59.3851  60.2580  60.3276  60.6041  60.9411  61.4765  61.4766  62.4787

          k = 0.0000 0.3333 0.1429 (  2660 PWs)   bands (ev):

   -83.3442 -83.3001 -83.2756 -83.2335 -83.2111 -83.2026 -39.7126 -39.6635
   -39.4610 -38.9616 -38.9110 -38.9097 -38.8911 -38.8494 -38.8323 -38.8151
   -38.7932 -38.7916 -38.7754 -38.7749 -38.7702 -38.7618 -38.7528 -38.7020
   -18.4088 -18.4056   9.6494   9.6623   9.6740   9.6792   9.6975   9.7021
    17.0102  17.2850  18.4301  18.8459  19.0558  19.1705  19.5601  20.1694
    20.2715  20.3685  20.6078  20.6233  20.8185  20.8353  20.8718  21.3076
    21.4525  21.4724  21.5018  21.5229  21.5871  21.7075  21.8070  21.8854
    22.1526  22.2982  22.3289  22.4611  23.1251  23.4745  28.7096  31.7980
    33.9675  36.3145  37.3466  38.1007  39.0864  39.6982  39.8208  41.1605
    41.1775  42.1273  43.2953  43.3748  43.9565  44.0252  46.2055  47.5284
    47.7373  47.9812  48.1316  48.7334  50.0978  51.5066  51.8092  51.9754
    52.7075  52.8633  52.8956  53.7339  53.9394  54.2484  54.4075  54.9643
    55.7884  56.4398  57.1529  57.2680  58.0933  58.1829  58.8850  59.0164
    59.7950  59.9824  60.6582  60.8365  60.9645  61.5629  61.8806  62.2525

          k = 0.0000 0.3333 0.2857 (  2658 PWs)   bands (ev):

   -83.3367 -83.2824 -83.2657 -83.2420 -83.2301 -83.1964 -39.7154 -39.5233
   -39.4603 -38.9720 -38.9116 -38.8971 -38.8891 -38.8793 -38.8500 -38.8401
   -38.8041 -38.7926 -38.7873 -38.7805 -38.7802 -38.7759 -38.7640 -38.7016
   -18.4079 -18.4039   9.6535   9.6583   9.6878   9.6908   9.6975   9.7028
    17.0157  18.0710  18.4337  18.9701  19.0253  19.3886  19.7443  19.9368
    20.3054  20.3531  20.5066  20.6729  20.7531  20.9190  20.9563  21.2951
    21.3269  21.3645  21.4197  21.4818  21.5631  21.7184  21.7855  21.8813
    21.9779  22.0198  22.2424  22.3078  22.4479  23.4943  29.3524  32.3115
    32.9952  35.3060  37.3454  38.0685  39.4007  39.4917  40.4041  41.2683
    41.6267  43.0437  43.1381  43.4743  43.7387  43.7667  45.0158  47.1900
    48.1122  48.5684  48.5695  49.5663  50.1103  50.9283  51.6069  52.0175
    53.0216  53.5386  53.6622  53.7061  54.2693  54.3213  54.5590  55.5721
    55.7280  56.4156  56.8663  57.6196  57.7912  58.0045  58.8782  59.1597
    59.4064  59.9671  60.5173  60.8706  60.9833  61.3309  62.1724  62.4471

          k = 0.0000 0.3333 0.4286 (  2654 PWs)   bands (ev):

   -83.2999 -83.2804 -83.2663 -83.2200 -83.2177 -83.2166 -39.7162 -39.4570
   -39.3165 -39.1043 -38.9675 -38.8914 -38.8906 -38.8729 -38.8432 -38.8381
   -38.8216 -38.7982 -38.7854 -38.7801 -38.7790 -38.7682 -38.7655 -38.7102
   -18.4048 -18.4035   9.6549   9.6598   9.6927   9.6975   9.7044   9.7074
    17.0194  18.4282  19.0186  19.0576  19.2376  19.6008  19.7237  20.1185
    20.2495  20.3698  20.4647  20.6029  20.7545  20.8033  20.9650  20.9690
    21.0870  21.1476  21.3184  21.4982  21.5051  21.5575  21.5716  21.7502
    21.8713  21.8929  22.0580  22.3180  22.4168  23.5074  30.3533  31.6311
    33.0798  34.1654  38.0501  38.1881  39.2573  39.3558  40.9925  41.5608
    42.2504  42.2723  42.6214  43.0968  44.1736  44.3935  44.5513  45.9249
    48.5029  49.6272  49.7609  49.9083  50.3879  50.5516  51.2424  51.7286
    52.7849  53.2589  53.6010  53.7237  54.5588  54.7846  55.0058  55.6655
    55.7860  56.8120  57.1185  57.7622  58.2643  58.5124  58.7775  59.3120
    59.4470  59.7753  60.1167  60.3602  60.7941  61.1493  61.2210  61.6390

          k = 0.0000-0.5000 0.0000 (  2666 PWs)   bands (ev):

   -83.3428 -83.3428 -83.2719 -83.2719 -83.1953 -83.1953 -39.7102 -39.7102
   -39.2150 -39.2150 -38.9174 -38.9174 -38.8704 -38.8704 -38.8284 -38.8284
   -38.7946 -38.7946 -38.7702 -38.7702 -38.7664 -38.7664 -38.7100 -38.7100
   -18.4074 -18.4074   9.6553   9.6553   9.6652   9.6652   9.7097   9.7097
    17.0104  17.0104  19.0092  19.0092  19.1772  19.1772  20.0102  20.0102
    20.2868  20.2868  20.5569  20.5569  20.8362  20.8362  20.9709  20.9709
    21.0981  21.0981  21.4036  21.4036  21.5770  21.5770  21.7586  21.7586
    22.2999  22.2999  22.4865  22.4865  23.4903  23.4903  29.9132  29.9132
    35.2233  35.2233  38.0084  38.0084  39.6434  39.6434  40.4767  40.4767
    41.4338  41.4338  42.0932  42.0932  45.8680  45.8680  46.5839  46.5839
    47.5589  47.5589  49.6012  49.6012  49.8051  49.8051  51.8326  51.8326
    52.5535  52.5535  52.8703  52.8703  53.9434  53.9434  54.2470  54.2470
    55.8953  55.8953  59.0373  59.0374  59.1857  59.1858  59.1943  59.1944
    59.5037  59.5039  60.7759  60.7764  61.2578  61.2579  61.4678  61.4680

          k = 0.0000-0.5000 0.1429 (  2666 PWs)   bands (ev):

   -83.3497 -83.3299 -83.2732 -83.2666 -83.2102 -83.2001 -39.7116 -39.6610
   -39.2159 -39.2153 -38.9078 -38.9066 -38.8750 -38.8652 -38.8290 -38.8256
   -38.8048 -38.7968 -38.7750 -38.7750 -38.7718 -38.7640 -38.7629 -38.7067
   -18.4069 -18.4069   9.6540   9.6641   9.6644   9.6754   9.7073   9.7108
    17.0122  17.2856  19.0139  19.1264  19.1440  19.2712  19.9659  20.0073
    20.2975  20.3058  20.5057  20.6214  20.6715  20.8186  20.9541  21.0595
    21.0677  21.1234  21.4349  21.4619  21.4685  21.5612  21.6857  21.8618
    22.1402  22.2956  22.3639  22.4785  23.1497  23.4954  30.1053  30.1274
    34.8543  35.0296  37.8022  38.0190  38.8651  39.5409  41.0454  41.1682
    41.6437  41.7600  42.1632  42.5069  45.2086  45.4174  45.6930  46.3711
    47.8148  48.3592  49.6436  49.7768  49.8279  49.8623  51.5281  52.2027
    52.9315  53.0702  53.1511  53.1879  53.7261  54.1638  54.2501  54.5859
    55.9377  56.5166  57.2126  58.2716  58.3575  58.5625  59.2122  59.5085
    59.8372  60.4186  60.7956  60.9613  60.9789  61.0575  61.4665  61.9746

          k = 0.0000-0.5000 0.2857 (  2658 PWs)   bands (ev):

   -83.2953 -83.2726 -83.2713 -83.2576 -83.2417 -83.2046 -39.7198 -39.5179
   -39.2136 -39.2105 -38.9058 -38.8937 -38.8932 -38.8635 -38.8472 -38.8389
   -38.8186 -38.7976 -38.7904 -38.7856 -38.7765 -38.7755 -38.7683 -38.7109
   -18.4050 -18.4047   9.6550   9.6608   9.6850   9.6905   9.7081   9.7083
    17.0193  18.0729  19.0246  19.0818  19.4558  19.5269  19.8901  20.0104
    20.2656  20.3216  20.4570  20.4838  20.7108  20.7445  20.9510  21.0313
    21.0701  21.0961  21.3790  21.5112  21.5120  21.5156  21.5493  21.8078
    22.0072  22.0168  22.2460  22.3195  22.4335  23.5051  30.6697  30.7332
    33.8121  34.1805  38.0413  38.2383  38.7719  39.3741  41.3670  41.6923
    42.0661  42.2307  42.5673  42.6344  44.4021  44.4311  45.1185  45.7479
    48.3521  49.6035  49.8554  50.0275  50.0496  50.4572  50.7411  52.0473
    53.0822  53.1503  53.7251  53.8216  54.3964  54.4630  54.8419  55.1532
    55.9292  56.5704  57.5356  57.7829  58.0689  58.0857  58.8187  59.4453
    59.7810  59.8468  60.2046  60.3939  60.7581  61.3290  61.8333  62.2024

          k = 0.0000-0.5000 0.4286 (  2662 PWs)   bands (ev):

   -83.3170 -83.2994 -83.2774 -83.2641 -83.2207 -83.2080 -39.7112 -39.3258
   -39.2173 -39.2127 -39.1069 -38.8897 -38.8801 -38.8783 -38.8432 -38.8397
   -38.8394 -38.8009 -38.7966 -38.7894 -38.7798 -38.7671 -38.7612 -38.7171
   -18.4041 -18.4040   9.6512   9.6559   9.6943   9.7067   9.7072   9.7088
    17.0208  19.0351  19.0421  19.2240  19.8232  19.8352  19.8454  20.1081
    20.1955  20.2894  20.3359  20.4943  20.5743  20.6415  20.6729  20.8670
    20.9059  21.2015  21.3725  21.4010  21.4146  21.4322  21.4854  21.5818
    21.5900  21.7490  22.1600  22.3232  22.3500  23.5135  31.5114  31.6217
    32.5978  32.9928  38.0577  39.2830  39.3722  39.4190  40.8825  41.0072
    41.9583  42.0169  43.0297  43.6152  44.2800  44.4416  44.4737  44.7992
    48.6890  50.0225  50.1272  50.6064  50.8130  50.9546  51.3001  51.9422
    52.3991  52.5283  52.7226  52.9981  55.2989  55.4856  55.7947  56.0639
    56.1912  57.3837  57.4659  57.4888  58.0051  58.8266  59.0760  59.2904
    59.4879  59.4899  59.5353  59.8666  59.9100  60.2070  61.8217  61.9439

          k = 0.2000 0.0000 0.0000 (  2661 PWs)   bands (ev):

   -83.4049 -83.3605 -83.2202 -83.2167 -83.1861 -83.1861 -39.7080 -39.6966
   -39.6111 -38.9250 -38.9250 -38.9115 -38.8338 -38.8338 -38.8264 -38.7932
   -38.7875 -38.7875 -38.7788 -38.7666 -38.7666 -38.7624 -38.7057 -38.7057
   -18.4137 -18.4046   9.6447   9.6560   9.6560   9.6833   9.6922   9.6922
    16.9900  17.0171  17.5401  18.7649  18.9438  18.9438  19.8882  20.2025
    20.2025  20.2060  20.7116  20.7265  20.7265  20.7555  20.7608  21.0912
    21.4958  21.5362  21.5362  21.9255  21.9674  22.0023  22.0023  22.2938
    22.2938  22.3670  22.4193  22.6977  23.4169  23.4169  27.7222  32.7655
    33.6671  37.9077  38.1841  38.3253  38.3253  39.9123  40.1280  40.1280
    40.6736  41.9056  42.8117  42.8117  43.1251  45.6708  45.9906  46.0580
    46.0580  48.2590  48.6169  49.5307  49.5307  50.3446  51.6816  52.7524
    52.8184  52.8184  53.7435  53.7435  53.7714  54.2705  55.1284  55.3661
    55.9105  55.9105  56.3149  57.2078  57.2078  57.4074  58.5803  59.6826
    59.6827  59.9053  60.2739  60.3844  60.8327  60.8330  61.2043  62.9132

          k = 0.2000 0.0000 0.1429 (  2667 PWs)   bands (ev):

   -83.3906 -83.3582 -83.2797 -83.2235 -83.2177 -83.1755 -39.7112 -39.6595
   -39.6078 -38.9224 -38.9195 -38.9168 -38.8426 -38.8353 -38.8217 -38.8060
   -38.7915 -38.7915 -38.7833 -38.7748 -38.7693 -38.7592 -38.7498 -38.7029
   -18.4122 -18.4061   9.6517   9.6551   9.6631   9.6786   9.6885   9.6931
    17.0048  17.2804  17.5415  18.8263  18.9155  19.0147  19.9158  20.0683
    20.2163  20.2460  20.6455  20.6566  20.7702  20.8062  20.8102  21.1677
    21.4700  21.5157  21.5476  21.7815  21.9337  21.9803  22.0894  22.1340
    22.2627  22.2987  22.4172  22.7271  23.0811  23.4358  27.9407  32.8966
    33.4791  37.1476  37.6021  38.2543  39.0679  39.4323  39.9864  40.7525
    40.7893  42.3035  42.7051  42.7916  43.6603  45.3848  46.2357  46.4636
    46.5617  47.4048  48.6016  49.2814  49.4242  51.0251  52.4113  52.5064
    52.6511  52.9808  53.2653  53.6103  54.1545  54.3028  54.6092  55.5466
    55.8245  56.0368  56.4753  57.1092  57.3282  57.4072  58.6772  59.3080
    59.6100  60.1143  60.1882  60.4881  60.5199  61.2869  62.0680  62.5724

          k = 0.2000 0.0000 0.2857 (  2659 PWs)   bands (ev):

   -83.3554 -83.2952 -83.2815 -83.2232 -83.2121 -83.1966 -39.7118 -39.6129
   -39.5185 -38.9184 -38.9076 -38.9042 -38.8974 -38.8398 -38.8355 -38.8177
   -38.7903 -38.7896 -38.7861 -38.7804 -38.7753 -38.7727 -38.7605 -38.7040
   -18.4091 -18.4052   9.6515   9.6605   9.6794   9.6839   9.6933   9.6972
    17.0106  17.5420  18.0739  18.8780  18.9932  19.1872  19.7346  20.0286
    20.2689  20.3336  20.5798  20.6115  20.7969  20.8587  20.8852  21.3218
    21.4557  21.4583  21.5250  21.5395  21.6934  21.8773  21.9520  21.9685
    22.1688  22.1978  22.3002  22.4506  22.8059  23.4722  28.6041  32.4105
    33.4728  36.3880  37.0267  38.1243  39.2895  39.7013  39.7928  41.0968
    41.1544  42.5409  43.2375  43.4750  43.7069  44.2159  45.8510  47.4246
    47.5556  47.7799  48.2834  48.9368  49.8791  51.2565  52.0400  52.5480
    52.9535  52.9944  53.1113  53.6948  53.7059  54.4138  54.5375  55.4621
    55.6505  56.4055  56.9941  57.0205  57.6722  57.8669  58.8230  58.9696
    59.5179  60.0237  60.4469  60.9246  61.0004  61.4775  62.2177  62.3401

          k = 0.2000 0.0000 0.4286 (  2660 PWs)   bands (ev):

   -83.3312 -83.2959 -83.2748 -83.2385 -83.2339 -83.1912 -39.7170 -39.6165
   -39.3218 -39.1016 -38.9020 -38.9011 -38.8749 -38.8562 -38.8345 -38.8270
   -38.8038 -38.7980 -38.7957 -38.7790 -38.7719 -38.7719 -38.7628 -38.6998
   -18.4072 -18.4050   9.6546   9.6609   9.6757   9.6819   9.7045   9.7089
    17.0147  17.5444  18.9701  19.1029  19.1733  19.3357  19.4681  20.2114
    20.2967  20.4493  20.5207  20.6614  20.7116  20.8300  20.9099  20.9859
    21.2112  21.2335  21.4203  21.4530  21.5041  21.5525  21.6583  21.9219
    22.0104  22.2230  22.3172  22.4654  22.8362  23.4960  29.6614  31.0114
    34.1615  35.1812  37.6612  38.0391  38.8564  39.4989  40.7176  41.6572
    41.7178  42.2001  42.2886  43.0298  44.3329  44.9423  45.2670  46.7509
    48.0165  48.6140  49.0795  49.3444  50.3858  50.8122  51.0935  51.8950
    53.1233  53.4012  53.4921  53.5600  53.9270  54.1935  54.3845  54.8546
    55.8535  56.7759  56.9348  57.7850  57.9617  58.2297  59.0575  59.3573
    59.8245  60.1057  60.7129  60.9423  61.0419  61.3405  61.7026  61.7869

          k = 0.2000 0.1667 0.0000 (  2672 PWs)   bands (ev):

   -83.4012 -83.3321 -83.3017 -83.2426 -83.2180 -83.2102 -39.7145 -39.6457
   -39.6123 -38.9206 -38.9184 -38.9156 -38.8489 -38.8370 -38.8230 -38.8051
   -38.7946 -38.7899 -38.7872 -38.7806 -38.7754 -38.7622 -38.7587 -38.7078
   -18.4118 -18.4071   9.6515   9.6548   9.6664   9.6777   9.6874   9.6896
    17.0049  17.3775  17.5435  18.8436  18.9116  19.0375  19.9258  20.0224
    20.2216  20.2583  20.6328  20.6442  20.7754  20.8189  20.8192  21.1916
    21.4654  21.5081  21.5471  21.7458  21.9261  21.9652  22.0907  22.0984
    22.2280  22.2978  22.4219  22.7292  22.9687  23.4413  28.0179  32.9259
    33.4053  37.0469  37.4247  38.2325  39.1853  39.4058  39.9422  40.8233
    40.8330  42.4253  42.7448  42.7942  43.7265  45.2918  46.3106  46.6071
    46.6413  47.2352  48.6776  49.1717  49.4654  51.0936  52.5091  52.5913
    52.6547  52.8647  53.3046  53.5390  54.1607  54.2057  54.5890  55.6329
    55.7836  55.9767  56.5657  57.1347  57.3756  57.3871  58.7065  59.2808
    59.4753  60.2048  60.2082  60.4722  60.5808  61.3616  62.2310  62.5038

          k = 0.2000 0.1667 0.1429 (  2665 PWs)   bands (ev):

   -83.3782 -83.3610 -83.2673 -83.2329 -83.2173 -83.1708 -39.6615 -39.6423
   -39.6096 -38.9201 -38.9154 -38.9144 -38.8563 -38.8255 -38.8183 -38.8055
   -38.7923 -38.7837 -38.7807 -38.7789 -38.7763 -38.7663 -38.7632 -38.7478
   -18.4110 -18.4056   9.6579   9.6614   9.6638   9.6815   9.6892   9.6919
    17.2791  17.3818  17.5446  18.9125  18.9845  19.0184  19.9506  20.0427
    20.0987  20.3019  20.5943  20.5985  20.8193  20.8389  20.8511  21.2531
    21.4243  21.4250  21.6092  21.7369  21.7939  22.0066  22.0904  22.1281
    22.1394  22.2351  22.2819  22.7538  22.9847  23.1134  28.2481  33.0703
    33.3644  36.2280  37.4248  37.9129  39.1111  39.2819  40.8523  40.8686
    40.9439  42.3725  42.7624  42.9921  44.1768  45.5508  45.8569  46.1472
    47.2463  47.4287  47.5843  49.3875  49.9071  52.1573  52.2737  52.7601
    52.7995  53.0080  53.1200  53.3304  54.0267  54.1316  54.2949  55.7796
    55.9498  56.1937  56.4618  57.1693  57.2386  57.8216  58.8464  59.1317
    59.2160  59.8805  59.9452  60.9113  60.9920  61.1606  62.0845  62.8183

          k = 0.2000 0.1667 0.2857 (  2655 PWs)   bands (ev):

   -83.3388 -83.3185 -83.2384 -83.2225 -83.1993 -83.1914 -39.6433 -39.6115
   -39.5227 -38.9147 -38.9132 -38.8985 -38.8874 -38.8484 -38.8194 -38.8120
   -38.7938 -38.7927 -38.7894 -38.7807 -38.7754 -38.7699 -38.7684 -38.7621
   -18.4088 -18.4031   9.6599   9.6691   9.6732   9.6872   9.6966   9.6973
    17.3833  17.5447  18.0754  18.9847  19.1072  19.1649  19.7741  20.0521
    20.1307  20.3925  20.5341  20.5471  20.8317  20.8982  20.9126  21.3081
    21.3294  21.3915  21.5740  21.6444  21.6742  21.8254  21.9472  21.9708
    22.0662  22.1855  22.2192  22.2733  22.8226  23.0243  28.9181  32.6392
    33.5362  35.8311  36.4104  37.4369  39.4711  39.8793  40.9758  41.0908
    41.3370  42.5038  43.0596  43.4935  44.3144  44.5504  45.6190  46.3757
    46.5435  47.9283  48.3282  49.8332  50.9259  51.8849  52.0051  52.3776
    52.6885  53.1320  53.2370  53.8574  53.9994  54.1424  54.6709  55.6781
    56.0693  56.3057  56.6804  57.1067  57.2390  58.5832  58.6432  58.8797
    59.0243  59.9965  60.2969  60.9392  61.1282  61.4054  61.7066  62.1039

          k = 0.2000 0.1667 0.4286 (  2655 PWs)   bands (ev):

   -83.3170 -83.3096 -83.2470 -83.2318 -83.2098 -83.1847 -39.6427 -39.6147
   -39.3221 -39.1008 -38.9047 -38.8998 -38.8711 -38.8563 -38.8276 -38.8250
   -38.8016 -38.7965 -38.7904 -38.7795 -38.7748 -38.7706 -38.7678 -38.7635
   -18.4053 -18.4039   9.6665   9.6716   9.6758   9.6787   9.7054   9.7079
    17.3878  17.5476  19.0982  19.1843  19.2427  19.3104  19.4869  20.2361
    20.2655  20.4570  20.5042  20.5609  20.7116  20.7313  20.9845  21.0018
    21.1139  21.2372  21.4199  21.5104  21.5210  21.5424  21.7423  21.8106
    22.0085  22.0887  22.2157  22.2786  22.8487  23.0438  29.9675  31.2904
    34.2125  35.1680  36.3870  37.0478  39.8347  40.2840  40.8745  41.4495
    41.9286  42.2763  42.9375  43.5446  43.9651  44.5840  45.1410  45.4360
    47.7467  48.3204  49.5915  50.1332  50.7294  50.8414  52.0758  52.5231
    52.8490  53.1825  53.4586  53.5588  53.9106  54.3725  55.1547  55.2362
    56.3341  56.5650  56.7773  57.0022  57.7079  58.3296  58.6993  58.8838
    59.6076  60.2170  60.4882  60.6570  61.1092  61.6484  61.8691  62.0672

          k = 0.2000 0.3333 0.0000 (  2656 PWs)   bands (ev):

   -83.3508 -83.2931 -83.2712 -83.2286 -83.2044 -83.1795 -39.7105 -39.6106
   -39.4591 -38.9657 -38.9074 -38.9058 -38.8918 -38.8463 -38.8340 -38.8190
   -38.7945 -38.7906 -38.7869 -38.7762 -38.7735 -38.7710 -38.7597 -38.7039
   -18.4086 -18.4043   9.6514   9.6615   9.6802   9.6828   9.6993   9.7029
    17.0122  17.5433  18.4307  18.8973  19.0395  19.2478  19.6131  20.0889
    20.2871  20.3679  20.5608  20.6211  20.7992  20.8724  20.9105  21.3505
    21.4058  21.4398  21.4695  21.4735  21.5859  21.7272  21.7991  21.9245
    22.0367  22.2107  22.3046  22.4577  22.8186  23.4826  28.9162  31.9685
    33.6703  35.9649  37.2016  38.0880  39.1803  39.6179  40.0655  41.2674
    41.3162  42.4488  43.3679  43.4734  43.8215  43.9340  45.6826  47.7653
    47.7813  48.0404  48.0499  49.0670  50.1289  51.2679  51.7544  51.9880
    53.1246  53.1353  53.2385  53.6419  53.9106  54.4104  54.4809  55.1722
    55.6668  56.6839  56.9429  57.2231  57.8133  58.0328  58.8980  58.9880
    59.7378  59.9041  60.5672  61.0646  61.0916  61.4511  62.0177  62.0227

          k = 0.2000 0.3333 0.1429 (  2657 PWs)   bands (ev):

   -83.3289 -83.3092 -83.2582 -83.2433 -83.2035 -83.1884 -39.6617 -39.6112
   -39.4616 -38.9625 -38.9097 -38.9015 -38.8891 -38.8516 -38.8230 -38.8209
   -38.7965 -38.7932 -38.7899 -38.7805 -38.7765 -38.7674 -38.7668 -38.7538
   -18.4081 -18.4036   9.6581   9.6678   9.6770   9.6841   9.6996   9.6999
    17.2874  17.5448  18.4314  18.9806  19.1313  19.2282  19.6414  20.1045
    20.2084  20.4008  20.5260  20.5634  20.8073  20.9095  20.9355  21.2610
    21.2915  21.4194  21.5269  21.5750  21.6146  21.7277  21.8021  21.8697
    22.0349  22.1539  22.2072  22.3163  22.8308  23.1482  29.1461  32.1555
    33.7344  35.9634  36.1756  37.5406  39.4275  40.0402  40.7225  41.2401
    41.4765  42.4906  43.2976  43.5255  44.0215  44.2066  45.5557  46.3327
    47.0157  48.0648  48.8157  49.6807  51.0388  51.5081  51.8031  52.1810
    52.7105  53.2286  53.3269  53.6840  54.0014  54.3496  54.8105  55.4133
    56.0966  56.5516  56.8085  56.9731  57.2364  58.5389  58.9178  58.9715
    59.1377  59.9965  60.4526  60.8003  61.1456  61.5406  61.7185  62.0331

          k = 0.2000 0.3333 0.2857 (  2656 PWs)   bands (ev):

   -83.3320 -83.3164 -83.2524 -83.2133 -83.2067 -83.1891 -39.6163 -39.5192
   -39.4602 -38.9667 -38.9139 -38.9029 -38.8847 -38.8771 -38.8615 -38.8247
   -38.8025 -38.7973 -38.7946 -38.7942 -38.7838 -38.7762 -38.7713 -38.7705
   -18.4061 -18.4026   9.6683   9.6726   9.6844   9.6905   9.6965   9.6995
    17.5488  18.0741  18.4336  19.1585  19.2152  19.3739  19.7810  19.9639
    20.1701  20.4090  20.4609  20.5799  20.8207  20.9164  20.9804  21.1090
    21.1319  21.4800  21.5355  21.5404  21.5979  21.7124  21.7755  21.8388
    21.8766  21.9905  22.0369  22.1724  22.2725  22.8563  29.7996  32.6595
    33.3202  35.4807  35.5172  36.7667  40.0905  40.6513  41.1729  41.3622
    41.6982  42.3892  43.3712  43.5330  44.0568  44.5367  44.8209  45.4407
    46.8469  48.4790  48.8145  50.7712  51.3696  51.8257  52.0210  52.3847
    52.8804  53.2463  53.4327  54.0843  54.2941  54.5354  55.2584  55.3503
    56.0043  56.3530  56.7353  57.3304  57.7176  58.3040  58.4175  58.4586
    58.9026  60.1381  60.3169  60.9496  61.1753  61.3442  61.3988  61.8635

          k = 0.2000 0.3333 0.4286 (  2643 PWs)   bands (ev):

   -83.2911 -83.2636 -83.2288 -83.2096 -83.2049 -83.1601 -39.6153 -39.4523
   -39.3168 -39.1004 -38.9695 -38.8866 -38.8767 -38.8645 -38.8500 -38.8235
   -38.8071 -38.7968 -38.7948 -38.7890 -38.7817 -38.7789 -38.7710 -38.7685
   -18.4020 -18.4017   9.6707   9.6769   9.6918   9.6965   9.7040   9.7067
    17.5538  18.4304  19.2062  19.2754  19.2784  19.6041  19.7303  20.1299
    20.2895  20.3610  20.3893  20.6033  20.6486  20.7059  20.8871  20.9587
    21.0472  21.2320  21.3546  21.4890  21.5373  21.5812  21.6253  21.7173
    21.8587  21.8681  21.9078  22.0098  22.1534  22.8701  30.8031  32.0474
    33.4458  34.4390  35.9679  36.5314  40.4602  40.8220  41.3228  41.6055
    42.1194  42.3536  43.1010  43.2962  43.7680  44.2642  44.5939  45.0923
    47.8319  48.6374  49.4287  50.8012  51.2830  51.5519  52.1836  52.4128
    53.0172  53.2056  53.9539  54.0739  54.6862  54.7008  55.3755  55.5831
    56.0631  56.4384  56.9986  57.2643  57.6193  57.9304  58.1762  58.4747
    59.3411  60.2487  60.4340  60.9520  61.1005  61.2361  61.5769  61.8649

          k = 0.2000-0.5000 0.0000 (  2658 PWs)   bands (ev):

   -83.3077 -83.3006 -83.2602 -83.2572 -83.2098 -83.2030 -39.7142 -39.6153
   -39.2139 -39.2126 -38.9023 -38.9015 -38.8763 -38.8552 -38.8282 -38.8278
   -38.8076 -38.7940 -38.7921 -38.7778 -38.7723 -38.7718 -38.7601 -38.7016
   -18.4056 -18.4056   9.6559   9.6628   9.6728   9.6833   9.7075   9.7113
    17.0140  17.5447  19.0178  19.1182  19.2365  19.3589  19.9347  20.0067
    20.2966  20.3147  20.4812  20.5812  20.6768  20.7858  20.9415  21.0645
    21.0851  21.1252  21.4096  21.4672  21.5041  21.5475  21.6256  21.9236
    22.0081  22.2251  22.3205  22.4673  22.8409  23.4998  30.2975  30.3286
    34.4979  34.7716  37.8550  38.0278  38.7027  39.4741  41.3109  41.3688
    41.8393  42.0396  42.1862  42.7361  44.8097  44.8614  45.5130  46.1700
    48.0074  48.8208  49.7127  49.8255  49.9119  50.0389  51.2447  52.1891
    53.0060  53.4790  53.5304  53.5679  53.6307  54.2624  54.3652  54.8246
    55.9510  56.6918  56.9780  57.9826  57.9947  58.2842  59.1399  59.5204
    59.8687  60.1274  60.7344  60.7928  60.9011  61.3107  61.7116  62.0180

          k = 0.2000-0.5000 0.1429 (  2658 PWs)   bands (ev):

   -83.3069 -83.3022 -83.2575 -83.2562 -83.2046 -83.2026 -39.6638 -39.6164
   -39.2115 -39.2106 -38.9049 -38.9048 -38.8662 -38.8568 -38.8309 -38.8289
   -38.8004 -38.7972 -38.7949 -38.7742 -38.7736 -38.7689 -38.7685 -38.7550
   -18.4049 -18.4049   9.6647   9.6706   9.6719   9.6795   9.7075   9.7083
    17.2905  17.5466  19.1359  19.2235  19.2424  19.3369  19.9381  19.9697
    20.3267  20.3317  20.5039  20.5851  20.5873  20.6636  21.0171  21.0394
    21.0673  21.1068  21.4318  21.4774  21.5097  21.5240  21.7136  21.8376
    22.0061  22.1389  22.2261  22.3267  22.8501  23.1635  30.5191  30.5323
    34.6011  34.7315  36.9113  36.9381  39.8367  39.9864  41.2417  41.3190
    42.0117  42.0731  42.8666  43.0410  44.5971  44.6647  45.0269  45.3559
    48.0862  48.3857  50.0228  50.0402  50.3289  50.3654  52.1328  52.4326
    52.9535  53.2280  53.4957  53.6032  53.8583  53.9804  55.0688  55.1671
    56.4492  56.5412  56.8593  56.9829  57.9605  58.3756  58.7588  58.9401
    59.7014  60.2581  60.6326  60.8182  61.1400  61.3564  61.7350  62.1387

          k = 0.2000-0.5000 0.2857 (  2648 PWs)   bands (ev):

   -83.2996 -83.2756 -83.2499 -83.2276 -83.2024 -83.1594 -39.6140 -39.5182
   -39.2096 -39.2083 -38.9103 -38.8934 -38.8888 -38.8595 -38.8568 -38.8319
   -38.8083 -38.7964 -38.7951 -38.7914 -38.7780 -38.7755 -38.7700 -38.7662
   -18.4026 -18.4026   9.6701   9.6778   9.6854   9.6899   9.7057   9.7081
    17.5522  18.0756  19.2565  19.2993  19.4689  19.5155  19.8970  19.9504
    20.3419  20.3580  20.4497  20.4880  20.5397  20.5978  20.9371  20.9767
    21.0798  21.1299  21.3994  21.4641  21.5543  21.5656  21.6300  21.7817
    21.8396  21.9821  22.0080  22.1728  22.2648  22.8668  31.1111  31.1528
    34.1597  34.3359  36.2201  36.2981  40.5693  40.6309  41.2075  41.5179
    42.2327  42.2880  43.2203  43.3218  43.9915  44.0907  44.6360  44.9652
    48.0165  48.3689  49.9768  50.3063  51.1457  51.1575  52.6065  52.6657
    52.7855  53.2865  53.7339  53.7660  54.4973  54.5012  55.5287  55.5496
    56.2171  56.7210  56.8105  57.4231  57.6166  57.6251  58.0770  58.3518
    59.7272  59.9966  60.7058  60.9644  61.0959  61.2925  61.6642  62.2253

          k = 0.2000-0.5000 0.4286 (  2646 PWs)   bands (ev):

   -83.2658 -83.2484 -83.2445 -83.2335 -83.2103 -83.1870 -39.6212 -39.3245
   -39.2124 -39.2082 -39.0969 -38.8843 -38.8826 -38.8607 -38.8466 -38.8269
   -38.8181 -38.7924 -38.7911 -38.7888 -38.7844 -38.7833 -38.7737 -38.7698
   -18.4012 -18.4012   9.6682   9.6764   9.6962   9.7030   9.7059   9.7089
    17.5548  19.2272  19.2695  19.2737  19.8288  19.8481  19.8795  20.0767
    20.2848  20.3252  20.3324  20.4366  20.5003  20.5130  20.6204  20.7277
    21.0569  21.1761  21.3155  21.3347  21.4230  21.4858  21.5211  21.5870
    21.6757  21.7182  21.9505  21.9913  22.0790  22.8779  31.9713  32.0884
    33.0303  33.2813  36.3028  36.5719  40.5599  40.5962  41.7393  42.0394
    42.3197  42.4040  42.6488  42.6880  43.5269  44.3336  44.7514  44.8727
    48.8699  48.9912  49.5094  50.3309  51.0316  51.7149  51.9548  52.2544
    52.9463  53.3005  54.3990  54.6253  55.1936  55.2031  55.4828  55.5678
    55.8505  56.2977  56.7034  57.0196  57.1425  58.2256  58.6138  58.9995
    59.4205  60.0330  60.4050  60.6670  61.1416  61.2117  61.7944  61.9137

          k = 0.4000 0.0000 0.0000 (  2657 PWs)   bands (ev):

   -83.3476 -83.3267 -83.2780 -83.2272 -83.1733 -83.1733 -39.7062 -39.6991
   -39.3627 -39.0557 -38.9188 -38.9188 -38.8726 -38.8490 -38.8342 -38.8342
   -38.7870 -38.7870 -38.7691 -38.7689 -38.7689 -38.7612 -38.7097 -38.7097
   -18.4093 -18.4046   9.6478   9.6655   9.6655   9.6710   9.7081   9.7081
    17.0035  17.0162  18.8457  18.9548  19.1436  19.1436  19.3649  20.2777
    20.2777  20.4328  20.6621  20.7791  20.8080  20.8080  20.8436  21.0097
    21.3458  21.3553  21.3553  21.4433  21.5694  21.5694  21.7626  21.8043
    22.2995  22.2995  22.4646  22.4873  23.4811  23.4811  29.0094  30.9324
    34.5570  36.0463  38.0493  38.0493  39.2280  39.7045  39.7045  41.1720
    41.1760  41.6515  42.1947  42.7247  44.8891  44.8891  47.2351  47.5714
    47.5714  47.8193  48.3799  48.3799  50.7148  51.0992  51.0992  52.0370
    52.0684  52.7837  52.7837  53.2913  53.9057  54.1501  54.1927  54.4427
    55.8809  55.8809  58.2868  58.4096  58.9387  58.9387  59.1125  59.4002
    59.4003  59.7712  60.5742  60.9779  61.1491  61.5036  61.5039  61.7707

          k = 0.4000 0.0000 0.1429 (  2659 PWs)   bands (ev):

   -83.3368 -83.2987 -83.2703 -83.2343 -83.2271 -83.1893 -39.7145 -39.6597
   -39.3664 -39.0566 -38.9077 -38.9064 -38.8732 -38.8520 -38.8319 -38.8199
   -38.7970 -38.7956 -38.7776 -38.7721 -38.7719 -38.7632 -38.7598 -38.7005
   -18.4083 -18.4051   9.6514   9.6628   9.6735   9.6750   9.7048   9.7083
    17.0127  17.2859  18.9020  18.9663  19.1108  19.2327  19.4119  20.2280
    20.2891  20.4394  20.6109  20.6277  20.8174  20.8654  20.9210  21.0047
    21.3192  21.3288  21.4033  21.4784  21.4849  21.5646  21.7274  21.8688
    22.1432  22.2977  22.3509  22.4735  23.1410  23.4872  29.2200  31.1220
    34.3100  35.7279  37.5939  38.0496  38.9791  39.5978  40.1970  41.3758
    41.5786  41.9836  42.4132  43.0309  44.4367  44.7632  45.9862  47.3207
    47.8760  48.1000  48.5568  48.9620  50.5403  51.1050  51.1705  51.8908
    52.7948  53.0153  53.0714  53.7852  53.8107  54.1226  54.3121  54.6523
    55.8665  56.4910  57.1909  57.8530  58.2327  58.4502  59.0702  59.2306
    59.7533  60.2853  60.7754  60.9352  61.0410  61.4854  61.5944  61.8725

          k = 0.4000 0.0000 0.2857 (  2657 PWs)   bands (ev):

   -83.3112 -83.2894 -83.2554 -83.2408 -83.2339 -83.2073 -39.7186 -39.5223
   -39.3643 -39.0582 -38.9069 -38.8967 -38.8921 -38.8728 -38.8493 -38.8406
   -38.8142 -38.7954 -38.7878 -38.7787 -38.7773 -38.7737 -38.7649 -38.7067
   -18.4067 -18.4037   9.6547   9.6598   9.6877   9.6907   9.7027   9.7057
    17.0177  18.0728  18.9592  19.0227  19.0615  19.4732  19.6254  20.0882
    20.2817  20.4169  20.4563  20.7039  20.7214  20.9373  20.9605  21.0208
    21.1698  21.2695  21.3504  21.5091  21.5205  21.5450  21.6485  21.8194
    21.9842  22.0243  22.2404  22.3140  22.4404  23.5013  29.8435  31.6637
    33.3366  34.7687  37.7377  38.0507  39.1806  39.4209  40.8260  41.4686
    41.9091  42.6452  42.8480  43.0416  43.9913  44.3451  44.7873  46.5380
    48.2954  49.0686  49.1948  49.6680  50.3837  50.7471  51.3589  51.6487
    53.0515  53.4145  53.8096  53.8637  54.2309  54.4261  54.6910  55.3853
    55.7194  56.7289  56.9872  57.7175  58.0148  58.1076  58.9209  59.2199
    59.6348  59.8361  60.5607  60.6002  60.9078  61.3414  61.4341  61.8929

          k = 0.4000 0.0000 0.4286 (  2657 PWs)   bands (ev):

   -83.3029 -83.2887 -83.2606 -83.2362 -83.2242 -83.2187 -39.7152 -39.3670
   -39.3183 -39.1095 -39.0573 -38.8871 -38.8860 -38.8749 -38.8432 -38.8411
   -38.8307 -38.7988 -38.7868 -38.7841 -38.7786 -38.7685 -38.7653 -38.7145
   -18.4047 -18.4033   9.6537   9.6578   9.6961   9.7029   9.7052   9.7078
    17.0217  18.9713  19.0326  19.0466  19.2494  19.7343  19.9290  20.0780
    20.2164  20.3128  20.5083  20.5273  20.7266  20.7569  20.8480  20.9414
    20.9733  21.1384  21.2722  21.4506  21.4604  21.5499  21.5625  21.5791
    21.6906  21.7366  22.1158  22.3192  22.3838  23.5113  30.7988  31.9984
    32.5075  33.6175  38.0539  38.6476  39.3076  39.5761  40.7421  41.6760
    41.7879  42.3308  42.6337  43.6006  44.0586  44.3140  44.4934  45.4159
    48.6560  49.9529  50.1785  50.2223  50.2481  50.7801  51.4741  51.7270
    52.3678  53.0651  53.1091  53.3831  55.0788  55.1868  55.3091  55.7867
    56.3521  56.8431  57.1107  57.8657  58.4091  58.6574  58.8989  59.1915
    59.4832  59.6692  59.7427  60.1787  60.2862  60.5051  61.3942  61.7898

          k = 0.4000 0.1667 0.0000 (  2659 PWs)   bands (ev):

   -83.3342 -83.2943 -83.2669 -83.2389 -83.2346 -83.1889 -39.7160 -39.6421
   -39.3663 -39.0567 -38.9052 -38.9049 -38.8726 -38.8529 -38.8329 -38.8207
   -38.7995 -38.7939 -38.7783 -38.7771 -38.7741 -38.7718 -38.7625 -38.6997
   -18.4077 -18.4053   9.6525   9.6624   9.6751   9.6777   9.7039   9.7077
    17.0135  17.3838  18.9166  18.9722  19.1014  19.2644  19.4319  20.2102
    20.2924  20.4346  20.5795  20.6326  20.8048  20.8785  20.9319  21.0095
    21.3017  21.3253  21.4176  21.4580  21.4951  21.5626  21.7122  21.8904
    22.0923  22.2817  22.3231  22.4702  23.0231  23.4894  29.2963  31.1909
    34.1989  35.6057  37.5433  38.0498  38.9530  39.5677  40.3281  41.4443
    41.6004  42.0976  42.4919  43.1112  44.3053  44.7154  45.7376  47.2259
    47.9223  48.2215  48.6295  49.0834  50.5074  51.1230  51.1379  51.8363
    52.9600  53.1717  53.1771  53.7232  53.9315  54.1036  54.3650  54.7479
    55.8402  56.6666  57.0071  57.7416  58.0943  58.3268  59.0395  59.2395
    59.7955  60.1834  60.7322  61.0493  61.0710  61.5155  61.5269  61.8429

          k = 0.4000 0.1667 0.1429 (  2662 PWs)   bands (ev):

   -83.3318 -83.3230 -83.2683 -83.2523 -83.2201 -83.1908 -39.6620 -39.6417
   -39.3678 -39.0562 -38.9103 -38.9052 -38.8740 -38.8546 -38.8279 -38.8244
   -38.8028 -38.7933 -38.7821 -38.7795 -38.7732 -38.7715 -38.7656 -38.7584
   -18.4072 -18.4050   9.6593   9.6696   9.6728   9.6764   9.7027   9.7050
    17.2881  17.3856  18.9698  19.0043  19.1988  19.2420  19.4630  20.2283
    20.2527  20.4511  20.5390  20.5677  20.7671  20.9199  20.9429  21.0054
    21.2103  21.3340  21.4370  21.4861  21.5107  21.5638  21.7733  21.8143
    22.0923  22.1442  22.2893  22.3305  23.0318  23.1542  29.5212  31.3876
    34.1803  35.5371  36.5892  37.4629  39.5150  40.0163  40.6108  41.4067
    41.7607  42.2284  42.8594  43.4718  44.0447  44.5234  45.6205  45.9748
    47.6183  48.1762  49.3186  49.6435  50.7556  50.9708  51.8127  52.2889
    52.6757  53.2721  53.3697  53.4397  53.7785  54.4555  54.8759  54.9566
    56.3544  56.6000  56.8361  56.9160  57.6516  58.5418  59.0072  59.1384
    59.5069  60.3169  60.3562  60.6438  61.0901  61.7759  61.8707  61.9986

          k = 0.4000 0.1667 0.2857 (  2650 PWs)   bands (ev):

   -83.3065 -83.2956 -83.2470 -83.2160 -83.1997 -83.1788 -39.6464 -39.5167
   -39.3609 -39.0607 -38.9088 -38.8982 -38.8861 -38.8675 -38.8537 -38.8264
   -38.8048 -38.7991 -38.7909 -38.7811 -38.7786 -38.7697 -38.7676 -38.7645
   -18.4041 -18.4030   9.6660   9.6725   9.6867   9.6903   9.7031   9.7045
    17.3909  18.0749  18.9789  19.1491  19.2075  19.4632  19.6402  20.1039
    20.2855  20.3820  20.4340  20.6261  20.7361  20.8566  20.9744  21.0145
    21.0626  21.3291  21.3911  21.5172  21.5412  21.5820  21.6767  21.8089
    21.8744  21.9920  22.0953  22.2343  22.2728  23.0508  30.1555  31.9444
    33.5638  34.9250  36.1185  36.9695  39.9944  40.6779  41.0778  41.4575
    41.9118  42.5554  43.1507  43.4005  43.7526  44.4353  44.6405  45.4585
    47.5931  48.5533  49.4186  50.6348  50.9639  51.2486  52.0680  52.3220
    52.9098  53.1937  53.6163  53.8755  54.4042  54.6173  55.3184  55.4394
    56.0591  56.5005  56.9566  57.0816  57.8331  58.3330  58.3454  58.5200
    59.3143  60.2708  60.3278  60.8189  61.1543  61.2769  61.5164  61.7453

          k = 0.4000 0.1667 0.4286 (  2652 PWs)   bands (ev):

   -83.2908 -83.2739 -83.2429 -83.2302 -83.2170 -83.2104 -39.6504 -39.3648
   -39.3179 -39.1055 -39.0587 -38.8870 -38.8756 -38.8742 -38.8479 -38.8284
   -38.8231 -38.7959 -38.7904 -38.7840 -38.7803 -38.7762 -38.7710 -38.7689
   -18.4027 -18.4023   9.6647   9.6701   9.6951   9.7008   9.7044   9.7053
    17.3946  18.9758  19.1841  19.2038  19.2560  19.7506  19.9337  20.0786
    20.2877  20.3093  20.4196  20.5357  20.6481  20.6918  20.7791  20.8596
    21.0373  21.1892  21.2857  21.4618  21.4811  21.5000  21.5752  21.6400
    21.6987  21.7204  21.9711  22.0907  22.1845  23.0619  31.1219  32.3209
    32.7666  33.8393  36.4859  36.9577  40.3422  40.7358  41.3722  41.8008
    42.3156  42.4016  42.5990  42.9497  43.6204  44.3042  44.6627  45.0792
    48.5603  48.8952  49.5497  50.6950  51.2104  51.3978  51.8130  52.1115
    52.7275  52.9763  54.1212  54.4016  54.6728  55.1207  55.5878  55.6992
    55.7698  56.6390  56.8289  57.5207  57.6617  57.8563  58.5524  58.9036
    59.2702  60.1751  60.2692  60.6609  60.8307  61.1267  61.5354  61.7817

          k = 0.4000 0.3333 0.0000 (  2652 PWs)   bands (ev):

   -83.3018 -83.2838 -83.2438 -83.2265 -83.2133 -83.2113 -39.7146 -39.4600
   -39.3620 -39.0568 -38.9645 -38.8920 -38.8904 -38.8737 -38.8432 -38.8377
   -38.8184 -38.7950 -38.7893 -38.7780 -38.7774 -38.7675 -38.7627 -38.7101
   -18.4053 -18.4033   9.6557   9.6598   9.6933   9.6980   9.7030   9.7063
    17.0187  18.4284  18.9699  19.0363  19.0515  19.5694  19.7500  20.0348
    20.2593  20.4209  20.4361  20.6553  20.7546  20.9560  20.9634  20.9790
    21.1262  21.2166  21.3028  21.5081  21.5108  21.5525  21.6337  21.7552
    21.8750  21.8982  22.0482  22.3159  22.4229  23.5059  30.1306  31.9058
    32.9141  34.3813  37.9885  38.0521  39.3740  39.3850  40.8333  41.4676
    42.1413  42.4498  42.7918  43.2059  44.0898  44.1452  44.6153  46.1863
    48.4715  49.4207  49.5056  49.9072  50.3246  50.6467  51.4972  51.6114
    52.7269  53.3907  53.7405  53.7615  54.4210  54.7047  54.9089  55.7519
    55.8170  56.8307  56.8354  57.7249  58.2645  58.4325  58.8823  59.2239
    59.3915  59.8420  60.2764  60.4466  60.8475  61.1220  61.2368  61.5634

          k = 0.4000 0.3333 0.1429 (  2654 PWs)   bands (ev):

   -83.2934 -83.2895 -83.2472 -83.2358 -83.2181 -83.2069 -39.6671 -39.4604
   -39.3608 -39.0608 -38.9665 -38.8922 -38.8857 -38.8708 -38.8487 -38.8281
   -38.8174 -38.7974 -38.7919 -38.7824 -38.7793 -38.7744 -38.7697 -38.7536
   -18.4044 -18.4030   9.6616   9.6688   9.6915   9.6952   9.7021   9.7039
    17.2946  18.4289  18.9814  19.1386  19.1622  19.5676  19.7554  20.0412
    20.3067  20.3688  20.4074  20.6423  20.7312  20.8558  20.9302  21.0233
    21.0314  21.2917  21.3433  21.5025  21.5269  21.5706  21.6650  21.7393
    21.8660  21.9042  21.9495  22.1523  22.2769  23.1718  30.3643  32.1202
    33.1064  34.5238  36.4707  37.2346  39.8947  40.6801  41.1301  41.5192
    42.0062  42.7493  42.8829  43.1256  43.6611  44.4451  44.5345  45.5029
    48.0029  48.7253  49.5601  50.7678  50.8294  51.1081  51.8215  52.2163
    52.7349  53.0717  53.9171  54.0257  54.5203  54.6719  55.3340  55.6045
    55.9233  56.5986  56.9816  57.1301  58.1761  58.3586  58.4475  58.5052
    59.2749  60.2410  60.3473  60.7922  60.9397  61.0879  61.3307  61.5578

          k = 0.4000 0.3333 0.2857 (  2651 PWs)   bands (ev):

   -83.3029 -83.2872 -83.2468 -83.2230 -83.2074 -83.1762 -39.5204 -39.4594
   -39.3621 -39.0624 -38.9720 -38.9118 -38.8935 -38.8745 -38.8531 -38.8465
   -38.8086 -38.8053 -38.8002 -38.7989 -38.7871 -38.7843 -38.7810 -38.7771
   -18.4022 -18.4016   9.6804   9.6858   9.6891   9.6932   9.6986   9.7010
    18.0785  18.4326  18.9847  19.4376  19.4708  19.5846  19.7897  20.0599
    20.1551  20.3587  20.4391  20.5910  20.7224  20.7613  20.8709  20.8930
    21.0545  21.3505  21.3957  21.4799  21.5401  21.5950  21.6470  21.6659
    21.7072  21.8084  21.8620  21.9103  21.9740  22.2824  31.0117  32.6708
    33.5519  34.8324  35.0242  35.7531  40.6736  40.9213  41.3344  41.6073
    41.9499  42.1480  43.6056  43.6677  44.1715  44.2719  44.6312  44.8156
    47.2225  48.4135  48.9477  51.2309  51.8347  51.9546  52.4448  52.8143
    53.5048  53.7168  53.8699  54.2509  54.5500  54.5686  55.0358  55.3651
    56.0629  56.2364  56.9559  57.0128  57.7367  57.9643  58.1038  58.2329
    59.0004  60.5144  60.6665  61.0462  61.2051  61.6661  61.9176  62.0113

          k = 0.4000 0.3333 0.4286 (  2646 PWs)   bands (ev):

   -83.2865 -83.2691 -83.2229 -83.2188 -83.2079 -83.1714 -39.4594 -39.3585
   -39.3151 -39.1083 -39.0669 -38.9714 -38.8882 -38.8780 -38.8456 -38.8386
   -38.8125 -38.8078 -38.7984 -38.7980 -38.7864 -38.7838 -38.7795 -38.7765
   -18.4002 -18.4002   9.6870   9.6924   9.6942   9.6971   9.7010   9.7022
    18.4338  18.9818  19.2344  19.6367  19.6460  19.8102  19.9445  20.0754
    20.1824  20.2842  20.3991  20.5206  20.5914  20.6028  20.7060  20.7224
    21.1049  21.2485  21.3082  21.3591  21.3868  21.4590  21.5083  21.6140
    21.6372  21.6733  21.7368  21.7453  21.8403  21.9386  31.9607  33.0297
    33.4769  34.3757  34.8646  35.2296  40.0390  40.2194  41.8627  41.9910
    42.1204  42.2247  43.7899  43.8269  44.2164  44.3642  44.6923  44.7904
    47.6695  48.4030  48.8608  50.9045  51.4192  52.2787  52.8350  53.0742
    53.7420  53.8823  54.0339  54.2710  54.6680  54.7973  55.1452  55.2257
    56.0209  56.1302  56.7326  57.0618  57.7313  57.8795  58.4320  58.6855
    59.1396  60.5161  60.9305  61.3674  61.5549  62.0137  62.0664  62.3097

          k = 0.4000-0.5000 0.0000 (  2650 PWs)   bands (ev):

   -83.2726 -83.2668 -83.2517 -83.2418 -83.2107 -83.2083 -39.7112 -39.3623
   -39.2155 -39.2103 -39.0524 -38.8808 -38.8786 -38.8758 -38.8390 -38.8383
   -38.8355 -38.7923 -38.7872 -38.7823 -38.7779 -38.7671 -38.7615 -38.7150
   -18.4032 -18.4030   9.6532   9.6615   9.6951   9.7054   9.7093   9.7103
    17.0228  18.9803  19.0339  19.0476  19.7719  19.7828  19.8509  20.0668
    20.2061  20.3101  20.3466  20.5553  20.5679  20.6738  20.7667  20.9355
    20.9738  21.1357  21.3922  21.3963  21.4363  21.4523  21.5351  21.5823
    21.6733  21.7442  22.1354  22.3227  22.3688  23.5127  31.3298  31.4355
    32.8355  33.2290  38.0556  39.1271  39.2637  39.2947  41.0464  41.2408
    41.9526  42.0809  42.8701  43.3987  44.4019  44.4465  44.4558  45.0043
    48.6744  49.9952  50.2027  50.4624  50.6390  50.7438  51.1383  51.9113
    52.5509  52.7852  52.8381  53.2315  55.2562  55.2886  55.7989  55.8185
    55.9012  57.2226  57.6181  57.6987  57.9417  58.7016  59.0154  59.4538
    59.4888  59.5791  59.5824  59.8676  60.1884  60.3720  61.6152  62.1461

          k = 0.4000-0.5000 0.1429 (  2650 PWs)   bands (ev):

   -83.2733 -83.2606 -83.2455 -83.2440 -83.2105 -83.2074 -39.6655 -39.3612
   -39.2160 -39.2113 -39.0592 -38.8821 -38.8791 -38.8745 -38.8415 -38.8307
   -38.8266 -38.7934 -38.7875 -38.7849 -38.7765 -38.7723 -38.7705 -38.7530
   -18.4024 -18.4023   9.6610   9.6678   9.6949   9.7039   9.7076   9.7084
    17.2980  18.9805  19.1541  19.1656  19.7780  19.7983  19.8517  20.0430
    20.2670  20.3303  20.3387  20.5180  20.5223  20.5994  20.7182  20.8810
    21.0272  21.1366  21.3640  21.3881  21.4583  21.4829  21.5608  21.5820
    21.6963  21.7278  22.0316  22.1450  22.2174  23.1800  31.5662  31.6735
    33.0616  33.3734  36.8471  37.2441  40.4196  40.4613  41.3160  41.8674
    42.1895  42.2780  42.6716  42.8177  43.7311  44.2915  44.7372  44.9627
    48.7317  49.4376  49.6307  50.4107  51.0444  51.2596  51.7930  52.1829
    52.3770  52.8079  53.8519  54.2282  55.1202  55.2255  55.5794  55.6695
    55.8746  56.7597  57.2836  57.3373  57.6579  57.8505  58.7893  58.8516
    59.6839  59.7768  60.2629  60.4567  60.7725  60.8031  61.5751  61.9874

          k = 0.4000-0.5000 0.2857 (  2640 PWs)   bands (ev):

   -83.2635 -83.2358 -83.2193 -83.2191 -83.2021 -83.1740 -39.5236 -39.3565
   -39.2090 -39.2067 -39.0610 -38.9089 -38.8800 -38.8780 -38.8437 -38.8322
   -38.8132 -38.8125 -38.8000 -38.7926 -38.7831 -38.7813 -38.7757 -38.7756
   -18.4000 -18.3999   9.6832   9.6882   9.6962   9.6998   9.7027   9.7057
    18.0805  18.9829  19.4966  19.5026  19.7991  19.8406  19.8583  19.9827
    20.2705  20.3730  20.3890  20.4288  20.4502  20.4658  20.6949  20.7516
    21.1420  21.1490  21.3028  21.3596  21.4167  21.4877  21.5568  21.5978
    21.6547  21.7396  21.7557  21.7600  21.9245  22.2898  32.2009  32.2795
    33.6463  33.7851  35.4838  35.5497  40.3209  40.3441  41.8677  41.9727
    42.1857  42.1980  43.5393  43.5936  43.8183  44.2992  44.6361  44.8365
    48.1478  48.3468  49.6217  50.0418  51.3743  52.2050  52.6156  53.0016
    53.6321  53.7243  54.1806  54.4361  54.8569  54.9135  55.3413  55.5268
    55.7966  55.8418  56.5887  57.1654  57.3567  57.9079  58.4314  58.7470
    59.6408  59.9742  60.9715  61.0025  61.5811  61.8058  62.1744  62.1988

          k = 0.4000-0.5000 0.4286 (  2640 PWs)   bands (ev):

   -83.2423 -83.2335 -83.2307 -83.2106 -83.1959 -83.1832 -39.3597 -39.3165
   -39.2109 -39.2103 -39.1076 -39.0669 -38.8843 -38.8834 -38.8275 -38.8242
   -38.8106 -38.8098 -38.8017 -38.7995 -38.7861 -38.7858 -38.7792 -38.7775
   -18.3987 -18.3986   9.6955   9.6961   9.6978   9.7012   9.7026   9.7030
    18.9837  19.2311  19.8291  19.8341  19.8904  19.9128  19.9738  20.0133
    20.2246  20.2455  20.3150  20.3860  20.3958  20.4147  20.5664  20.5670
    21.1233  21.1243  21.2161  21.2176  21.2819  21.2883  21.3512  21.4517
    21.6217  21.6376  21.6756  21.6941  21.7076  21.7286  33.0497  33.0713
    33.9492  33.9788  34.6289  34.6394  39.3724  39.3728  42.2093  42.2094
    42.2725  42.2730  44.0388  44.1229  44.4695  44.5383  44.7066  44.7482
    48.1576  48.4663  49.6353  49.6885  50.9977  51.5932  53.3131  53.4018
    53.7330  53.8019  53.9621  53.9973  54.4750  54.4791  55.9575  55.9630
    56.3181  56.3790  57.1383  57.2101  57.5943  57.6207  58.3689  58.3910
    60.2304  60.3292  61.2893  61.3204  62.0074  62.1349  62.6412  62.6528

     the Fermi energy is    54.4508 ev

!    total energy              =   -3111.79482719 Ry
     Harris-Foulkes estimate   =   -3111.79482972 Ry
     estimated scf accuracy    <       0.00000312 Ry

     The total energy is the sum of the following terms:

     one-electron contribution =    -278.02643757 Ry
     hartree contribution      =     367.71250986 Ry
     xc contribution           =    -255.46424455 Ry
     ewald contribution        =   -2945.67271548 Ry
     smearing contrib. (-TS)   =      -0.34393945 Ry

     convergence has been achieved in   9 iterations

     Forces acting on atoms (Ry/au):

     atom    1 type  1   force =     0.00000000    0.00000000    0.00000000
     atom    2 type  1   force =     0.00000000    0.00000000    0.00000000
     atom    3 type  1   force =     0.00000000    0.00000000    0.00000000
     atom    4 type  1   force =     0.00000000    0.00000000    0.00000000
     atom    5 type  1   force =     0.00000000    0.00000000    0.00000000
     atom    6 type  1   force =     0.00000000    0.00000000    0.00000000
     atom    7 type  2   force =     0.00000000    0.00000000    0.00000000
     atom    8 type  2   force =     0.00000000    0.00000000    0.00000000

     Total force =     0.000000     Total SCF correction =     0.000000


     entering subroutine stress ...

          total   stress  (Ry/bohr**3)                   (kbar)     P= 5424.00
   0.03687159   0.00000000   0.00000000       5424.00      0.00      0.00
   0.00000000   0.03687159   0.00000000          0.00   5424.00      0.00
   0.00000000   0.00000000   0.03687159          0.00      0.00   5424.00


     BFGS Geometry Optimization

     number of scf cycles    =   1
     number of bfgs steps    =   0

     enthalpy new            =   -3111.7948271929 Ry

     new trust radius        =       0.5000000000 bohr
     new conv_thr            =       0.0001000000 Ry

     new unit-cell volume =    828.02266 a.u.^3 (   122.70030 Ang^3 )

CELL_PARAMETERS (alat=  8.53457320)
   1.100269143   0.000000000   0.000000000
   0.000000000   1.100269143   0.000000000
   0.000000000   0.000000000   1.100269143

ATOMIC_POSITIONS (crystal)
Cr       0.000000000   0.500000000   0.250000000
Cr       0.000000000   0.500000000   0.750000000
Cr       0.500000000   0.750000000   0.000000000
Cr       0.500000000   0.250000000   0.000000000
Cr       0.750000000   0.000000000   0.500000000
Cr       0.250000000   0.000000000   0.500000000
Si       0.500000000   0.500000000   0.500000000
Si       0.000000000   0.000000000   0.000000000



     Writing output data file Prototype-La-cP8-Cr3Si.save
     NEW-OLD atomic charge density approx. for the potential
     NEW k-points:
        k(    1) = (   0.0000000   0.0000000   0.0000000), wk =   0.0095238
        k(    2) = (   0.0000000   0.0000000   0.1298384), wk =   0.0190476
        k(    3) = (   0.0000000   0.0000000   0.2596767), wk =   0.0190476
        k(    4) = (   0.0000000   0.0000000   0.3895151), wk =   0.0190476
        k(    5) = (   0.0000000   0.1514781   0.0000000), wk =   0.0190476
        k(    6) = (   0.0000000   0.1514781   0.1298384), wk =   0.0380952
        k(    7) = (   0.0000000   0.1514781   0.2596767), wk =   0.0380952
        k(    8) = (   0.0000000   0.1514781   0.3895151), wk =   0.0380952
        k(    9) = (   0.0000000   0.3029562   0.0000000), wk =   0.0190476
        k(   10) = (   0.0000000   0.3029562   0.1298384), wk =   0.0380952
        k(   11) = (   0.0000000   0.3029562   0.2596767), wk =   0.0380952
        k(   12) = (   0.0000000   0.3029562   0.3895151), wk =   0.0380952
        k(   13) = (   0.0000000  -0.4544343   0.0000000), wk =   0.0095238
        k(   14) = (   0.0000000  -0.4544343   0.1298384), wk =   0.0190476
        k(   15) = (   0.0000000  -0.4544343   0.2596767), wk =   0.0190476
        k(   16) = (   0.0000000  -0.4544343   0.3895151), wk =   0.0190476
        k(   17) = (   0.1817737   0.0000000   0.0000000), wk =   0.0190476
        k(   18) = (   0.1817737   0.0000000   0.1298384), wk =   0.0380952
        k(   19) = (   0.1817737   0.0000000   0.2596767), wk =   0.0380952
        k(   20) = (   0.1817737   0.0000000   0.3895151), wk =   0.0380952
        k(   21) = (   0.1817737   0.1514781   0.0000000), wk =   0.0380952
        k(   22) = (   0.1817737   0.1514781   0.1298384), wk =   0.0761905
        k(   23) = (   0.1817737   0.1514781   0.2596767), wk =   0.0761905
        k(   24) = (   0.1817737   0.1514781   0.3895151), wk =   0.0761905
        k(   25) = (   0.1817737   0.3029562   0.0000000), wk =   0.0380952
        k(   26) = (   0.1817737   0.3029562   0.1298384), wk =   0.0761905
        k(   27) = (   0.1817737   0.3029562   0.2596767), wk =   0.0761905
        k(   28) = (   0.1817737   0.3029562   0.3895151), wk =   0.0761905
        k(   29) = (   0.1817737  -0.4544343   0.0000000), wk =   0.0190476
        k(   30) = (   0.1817737  -0.4544343   0.1298384), wk =   0.0380952
        k(   31) = (   0.1817737  -0.4544343   0.2596767), wk =   0.0380952
        k(   32) = (   0.1817737  -0.4544343   0.3895151), wk =   0.0380952
        k(   33) = (   0.3635474   0.0000000   0.0000000), wk =   0.0190476
        k(   34) = (   0.3635474   0.0000000   0.1298384), wk =   0.0380952
        k(   35) = (   0.3635474   0.0000000   0.2596767), wk =   0.0380952
        k(   36) = (   0.3635474   0.0000000   0.3895151), wk =   0.0380952
        k(   37) = (   0.3635474   0.1514781   0.0000000), wk =   0.0380952
        k(   38) = (   0.3635474   0.1514781   0.1298384), wk =   0.0761905
        k(   39) = (   0.3635474   0.1514781   0.2596767), wk =   0.0761905
        k(   40) = (   0.3635474   0.1514781   0.3895151), wk =   0.0761905
        k(   41) = (   0.3635474   0.3029562   0.0000000), wk =   0.0380952
        k(   42) = (   0.3635474   0.3029562   0.1298384), wk =   0.0761905
        k(   43) = (   0.3635474   0.3029562   0.2596767), wk =   0.0761905
        k(   44) = (   0.3635474   0.3029562   0.3895151), wk =   0.0761905
        k(   45) = (   0.3635474  -0.4544343   0.0000000), wk =   0.0190476
        k(   46) = (   0.3635474  -0.4544343   0.1298384), wk =   0.0380952
        k(   47) = (   0.3635474  -0.4544343   0.2596767), wk =   0.0380952
        k(   48) = (   0.3635474  -0.4544343   0.3895151), wk =   0.0380952

     total cpu time spent up to now is      494.4 secs

     Self-consistent Calculation

     iteration #  1     ecut=    40.00 Ry     beta=0.70
     CG style diagonalization
     c_bands:  4 eigenvalues not converged
     c_bands:  1 eigenvalues not converged
     c_bands:  1 eigenvalues not converged
     c_bands:  1 eigenvalues not converged
     c_bands:  2 eigenvalues not converged
     c_bands:  1 eigenvalues not converged
     c_bands:  4 eigenvalues not converged
     c_bands:  2 eigenvalues not converged
     c_bands:  1 eigenvalues not converged
     c_bands:  1 eigenvalues not converged
     c_bands:  1 eigenvalues not converged
     c_bands:  1 eigenvalues not converged
     c_bands:  1 eigenvalues not converged
     c_bands:  1 eigenvalues not converged
     c_bands:  1 eigenvalues not converged
     c_bands:  2 eigenvalues not converged
     c_bands:  1 eigenvalues not converged
     c_bands:  2 eigenvalues not converged
     c_bands:  3 eigenvalues not converged
     c_bands:  3 eigenvalues not converged
     c_bands:  1 eigenvalues not converged
     c_bands:  1 eigenvalues not converged
     c_bands:  1 eigenvalues not converged
     c_bands:  1 eigenvalues not converged
     c_bands:  5 eigenvalues not converged
     c_bands:  2 eigenvalues not converged
     c_bands:  2 eigenvalues not converged
     c_bands:  3 eigenvalues not converged
     c_bands:  3 eigenvalues not converged
     c_bands:  1 eigenvalues not converged
     c_bands:  2 eigenvalues not converged
     ethr =  1.00E-06,  avg # of iterations = 22.6

     total cpu time spent up to now is      655.7 secs

     total energy              =   -3100.46901327 Ry
     Harris-Foulkes estimate   =   -3138.90915813 Ry
     estimated scf accuracy    <      47.88039182 Ry

     iteration #  2     ecut=    40.00 Ry     beta=0.70
     CG style diagonalization
     ethr =  1.00E-02,  avg # of iterations =  4.1

     total cpu time spent up to now is      683.9 secs

     total energy              =   -3113.22865956 Ry
     Harris-Foulkes estimate   =   -3117.36833713 Ry
     estimated scf accuracy    <       5.95856033 Ry

     iteration #  3     ecut=    40.00 Ry     beta=0.70
     CG style diagonalization
     ethr =  3.20E-03,  avg # of iterations =  3.6

     total cpu time spent up to now is      708.0 secs

     total energy              =   -3115.03088091 Ry
     Harris-Foulkes estimate   =   -3115.85421786 Ry
     estimated scf accuracy    <       1.67740872 Ry

     iteration #  4     ecut=    40.00 Ry     beta=0.70
     CG style diagonalization
     ethr =  9.02E-04,  avg # of iterations =  3.2

     total cpu time spent up to now is      730.2 secs

     total energy              =   -3115.31884422 Ry
     Harris-Foulkes estimate   =   -3115.33179860 Ry
     estimated scf accuracy    <       0.02486289 Ry

     iteration #  5     ecut=    40.00 Ry     beta=0.70
     CG style diagonalization
     c_bands:  1 eigenvalues not converged
     c_bands:  1 eigenvalues not converged
     c_bands:  2 eigenvalues not converged
     c_bands:  1 eigenvalues not converged
     c_bands:  1 eigenvalues not converged
     c_bands:  2 eigenvalues not converged
     c_bands:  1 eigenvalues not converged
     c_bands:  1 eigenvalues not converged
     c_bands:  1 eigenvalues not converged
     c_bands:  2 eigenvalues not converged
     c_bands:  1 eigenvalues not converged
     c_bands:  1 eigenvalues not converged
     ethr =  1.34E-05,  avg # of iterations =  4.5

     total cpu time spent up to now is      762.3 secs

     total energy              =   -3115.33243981 Ry
     Harris-Foulkes estimate   =   -3115.33511326 Ry
     estimated scf accuracy    <       0.00456347 Ry

     iteration #  6     ecut=    40.00 Ry     beta=0.70
     CG style diagonalization
     c_bands:  1 eigenvalues not converged
     c_bands:  1 eigenvalues not converged
     c_bands:  1 eigenvalues not converged
     c_bands:  1 eigenvalues not converged
     ethr =  2.45E-06,  avg # of iterations =  3.7

     total cpu time spent up to now is      787.6 secs

     total energy              =   -3115.33374296 Ry
     Harris-Foulkes estimate   =   -3115.33380303 Ry
     estimated scf accuracy    <       0.00014558 Ry

     iteration #  7     ecut=    40.00 Ry     beta=0.70
     CG style diagonalization
     ethr =  7.83E-08,  avg # of iterations =  3.9

     total cpu time spent up to now is      813.4 secs

     End of self-consistent calculation

          k = 0.0000 0.0000 0.0000 (  2601 PWs)   bands (ev):

   -95.2620 -95.2620 -94.6884 -94.6884 -94.6884 -94.6785 -52.6464 -52.6464
   -52.6450 -52.3608 -52.3608 -52.3608 -52.2915 -52.2915 -52.2915 -52.2645
   -52.2645 -52.2645 -52.2409 -52.2409 -52.2409 -52.2401 -52.2401 -52.2401
   -29.6233 -29.5907  -0.9576  -0.9576  -0.9576  -0.9398  -0.9398  -0.9398
     5.9878   6.0810   6.0810   7.2238   7.2238   7.2238   7.7569   7.7569
     7.7569   7.9562   8.1407   8.1407   8.2319   8.2319   8.2319   8.2352
     8.5110   8.5110   8.5110   8.7150   8.7150   8.7150   8.7430   8.7430
     8.7725   8.7725   8.7725   9.3987   9.3987   9.3987  17.9167  22.5384
    22.5384  26.6852  26.6852  26.6852  27.8635  27.8635  29.2313  29.8890
    29.8890  29.8890  31.5158  31.5158  31.5158  31.7660  31.7660  31.7660
    35.5832  35.5832  35.7610  35.7610  36.1023  36.1023  36.1023  39.8375
    40.0789  40.4005  40.4005  40.4005  41.5849  41.5849  41.5849  42.9199
    42.9199  42.9199  43.1699  44.1876  44.1876  44.1876  45.0174  45.0175
[...]
     2.8133   2.9597   2.9775   3.0033   3.0052   3.0404   3.0640   3.0944
     3.1247   3.1452   3.1817   3.2020   3.2249   3.2479   3.2533   3.2986
     3.3286   3.3707   3.4123   3.4405   3.7312   3.8535  14.9653  16.1024
    18.4549  19.5450  21.1743  22.0076  22.7645  23.5085  23.9925  24.7173
    26.0583  26.2266  26.3457  26.8313  27.9724  28.3809  28.5753  29.2929
    29.4934  29.6744  29.7559  30.4402  31.3691  31.7395  31.8875  31.9806
    32.7736  33.8766  34.3097  34.3703  34.3843  34.6757  34.9336  35.4310
    37.9433  38.0624  38.7544  38.9890  39.2229  39.2801  39.5711  40.2222
    40.5872  40.6391  40.9467  41.2206  41.3561  41.3952  41.4637  41.9282

          k = 0.3469 0.0000 0.2478 (  4087 PWs)   bands (ev):

  -102.1116-102.0713-102.0649-102.0593-102.0301-101.9791 -57.7961 -57.7610
   -57.7260 -57.6645 -57.6295 -57.5846 -57.5240 -57.5226 -57.5189 -57.5022
   -57.5010 -57.4988 -57.4973 -57.4925 -57.4906 -57.4893 -57.4831 -57.4744
   -34.6436 -34.6430  -5.8824  -5.8778  -5.8750  -5.8734  -5.8718  -5.8696
     1.5063   1.9138   2.2625   2.4376   2.4425   2.5636   2.6131   2.7629
     2.8276   2.9263   2.9652   2.9948   3.0106   3.0356   3.0634   3.0946
     3.1063   3.1603   3.1772   3.1937   3.2048   3.2230   3.2383   3.2504
     3.3260   3.3336   3.3755   3.4077   3.4301   3.8558  15.3301  16.4095
    17.7953  18.8294  20.7510  22.0108  22.7278  23.5475  24.9867  25.6137
    25.8253  26.2744  26.6020  26.8494  27.7677  27.9739  28.2624  29.1213
    29.6728  29.7704  30.1378  30.8545  31.2330  31.3510  31.8647  32.0091
    33.6012  34.0116  34.1787  34.1805  34.4738  35.5147  35.5803  35.6838
    36.7415  37.9781  38.2229  38.7235  38.8012  38.9942  39.7024  40.1185
    40.4748  40.5914  40.7572  41.1146  41.1290  41.4328  41.4921  41.5892

          k = 0.3469 0.0000 0.3717 (  4073 PWs)   bands (ev):

  -102.0896-102.0627-102.0510-102.0349-101.9919-101.9787 -57.7898 -57.7256
   -57.7087 -57.6673 -57.6601 -57.5902 -57.5212 -57.5165 -57.5157 -57.5007
   -57.5003 -57.4962 -57.4908 -57.4879 -57.4861 -57.4856 -57.4820 -57.4753
   -34.6427 -34.6418  -5.8780  -5.8740  -5.8730  -5.8718  -5.8699  -5.8698
     1.5071   2.2609   2.3604   2.4478   2.4507   2.6630   2.7211   2.7769
     2.8444   2.8639   2.9272   2.9508   2.9639   2.9647   2.9983   3.0632
     3.0834   3.1179   3.1330   3.1953   3.1982   3.1983   3.2015   3.2359
     3.2554   3.2660   3.3562   3.3749   3.4156   3.8592  15.9158  16.5448
    17.3548  17.9662  20.7894  22.0198  22.9259  23.5761  25.0855  25.3556
    26.1460  26.4646  26.6406  26.7198  28.0392  28.1349  28.2531  28.8026
    29.7087  30.4786  30.7712  30.9500  31.1495  31.2752  31.7758  31.9721
    33.2816  33.5597  33.7628  33.8875  35.1683  35.4264  36.3783  36.7317
    36.9336  37.5246  37.9662  38.4173  38.6375  38.9423  38.9945  39.4572
    40.3273  40.8469  40.9717  41.2415  41.3385  41.4286  41.4745  41.6519

          k = 0.3469 0.1445 0.0000 (  4081 PWs)   bands (ev):

  -102.0925-102.0910-102.0612-102.0505-102.0029-101.9803 -57.7968 -57.7785
   -57.7288 -57.6694 -57.5996 -57.5807 -57.5277 -57.5207 -57.5187 -57.5085
   -57.4987 -57.4946 -57.4936 -57.4892 -57.4885 -57.4864 -57.4778 -57.4743
   -34.6433 -34.6429  -5.8821  -5.8791  -5.8739  -5.8727  -5.8698  -5.8693
     1.5055   1.6493   2.2627   2.4168   2.4395   2.4841   2.5341   2.7906
     2.8147   2.9524   2.9755   3.0043   3.0050   3.0422   3.0589   3.0974
     3.1225   3.1490   3.1833   3.2022   3.2184   3.2471   3.2472   3.3034
     3.3158   3.3706   3.4019   3.4390   3.6886   3.8537  15.0051  16.1421
    18.3688  19.4551  21.0473  22.0070  22.7239  23.5141  24.1945  24.9345
    26.0511  26.2268  26.3380  26.8378  27.8825  28.3636  28.4574  29.2959
    29.4828  29.7090  29.7604  30.5276  31.3586  31.7094  31.8758  31.9823
    32.9125  33.9313  34.2730  34.3580  34.4998  34.6575  35.0187  35.4667
    37.7733  38.0491  38.7101  38.9245  39.1501  39.2243  39.5013  40.2970
    40.5749  40.6756  40.9290  41.2153  41.2948  41.3393  41.4097  41.8573

          k = 0.3469 0.1445 0.1239 (  4075 PWs)   bands (ev):

  -102.0845-102.0823-102.0403-102.0392-102.0165-101.9639 -57.7839 -57.7792
   -57.7236 -57.6667 -57.5987 -57.5937 -57.5269 -57.5212 -57.5177 -57.5043
   -57.4949 -57.4926 -57.4905 -57.4866 -57.4859 -57.4818 -57.4808 -57.4788
   -34.6426 -34.6425  -5.8806  -5.8764  -5.8729  -5.8723  -5.8701  -5.8680
     1.6119   1.6502   2.2631   2.4454   2.4750   2.4867   2.5477   2.7946
     2.8010   2.9379   2.9903   2.9973   3.0101   3.0155   3.0764   3.1016
     3.1318   3.1385   3.1879   3.2014   3.2113   3.2446   3.2678   3.2799
     3.3181   3.3313   3.3989   3.4085   3.6905   3.7334  15.1331  16.2491
    18.2736  19.3623  20.5969  21.0434  23.5887  24.1939  24.4571  25.1666
    25.7746  26.0618  26.6168  26.6874  27.8873  28.2577  28.3907  28.5995
    29.2502  29.8258  30.3222  30.6478  31.6752  31.8819  32.0122  32.1808
    32.8763  33.7198  33.9996  34.4241  34.7013  34.8493  35.0058  35.6220
    37.7352  37.9874  38.3116  38.5486  39.1454  39.3934  39.6132  39.9656
    40.1940  40.3433  40.5024  41.0830  41.1886  41.6632  41.7896  42.1132

          k = 0.3469 0.1445 0.2478 (  4082 PWs)   bands (ev):

  -102.0954-102.0801-102.0492-102.0392-102.0322-101.9766 -57.7814 -57.7551
   -57.7267 -57.6610 -57.6305 -57.5993 -57.5254 -57.5216 -57.5166 -57.5121
   -57.4983 -57.4953 -57.4909 -57.4885 -57.4863 -57.4846 -57.4817 -57.4802
   -34.6429 -34.6427  -5.8787  -5.8766  -5.8743  -5.8729  -5.8708  -5.8702
     1.6504   1.9137   2.2627   2.4877   2.4929   2.5694   2.6191   2.7660
     2.8077   2.9159   2.9750   2.9952   3.0058   3.0147   3.0813   3.0899
     3.1072   3.1469   3.1851   3.1981   3.2054   3.2230   3.2449   3.2571
     3.2915   3.3168   3.3382   3.3914   3.4129   3.6941  15.4977  16.5549
    17.8304  18.8776  20.0482  20.5542  24.1234  24.6280  25.0160  25.4260
    25.6441  26.1024  26.7133  26.8148  27.9654  28.0929  28.1964  28.5261
    29.0302  29.9154  30.3751  31.1249  31.6621  31.8722  32.1891  32.5847
    33.1612  33.7443  34.0803  34.2576  34.6049  35.0464  35.4352  36.0686
    36.6238  37.6278  38.1517  38.3709  38.9634  39.0288  39.3523  39.8420
    40.1953  40.2882  40.5605  40.9187  41.2457  41.5319  41.9015  42.0860

          k = 0.3469 0.1445 0.3717 (  4076 PWs)   bands (ev):

  -102.0889-102.0499-102.0435-102.0357-102.0261-101.9816 -57.7853 -57.7247
   -57.7140 -57.6683 -57.6582 -57.5957 -57.5204 -57.5168 -57.5141 -57.5096
   -57.5016 -57.4969 -57.4925 -57.4885 -57.4860 -57.4823 -57.4807 -57.4757
   -34.6426 -34.6422  -5.8768  -5.8743  -5.8739  -5.8716  -5.8705  -5.8700
     1.6511   2.2605   2.3597   2.5003   2.5024   2.6704   2.7243   2.7769
     2.8391   2.8509   2.9187   2.9483   2.9578   2.9769   3.0016   3.0310
     3.0956   3.1233   3.1402   3.1735   3.1881   3.2078   3.2176   3.2330
     3.2640   3.2767   3.3092   3.3195   3.3860   3.6962  16.0726  16.6915
    17.4663  18.0728  20.0193  20.4858  24.4628  24.6443  24.7140  25.1772
    26.1494  26.4069  26.6130  26.7391  28.1706  28.2683  28.3450  28.5669
    29.6066  29.9365  30.5759  31.0702  31.4961  31.7350  32.0080  32.8405
    32.9884  33.3027  34.3564  34.5247  34.8235  35.2159  35.5872  36.2343
    36.7829  37.3659  37.5572  38.2653  38.3567  38.9738  39.1571  39.9452
    40.2446  40.3808  40.6395  40.9696  41.2356  41.7801  42.0136  42.0497

          k = 0.3469 0.2891 0.0000 (  4079 PWs)   bands (ev):

  -102.1098-102.0723-102.0515-102.0453-102.0206-101.9570 -57.7942 -57.7437
   -57.7234 -57.6607 -57.6445 -57.5847 -57.5233 -57.5206 -57.5202 -57.5005
   -57.4996 -57.4943 -57.4934 -57.4912 -57.4889 -57.4869 -57.4814 -57.4730
   -34.6434 -34.6421  -5.8800  -5.8765  -5.8745  -5.8732  -5.8704  -5.8682
     1.5065   2.0495   2.2633   2.4431   2.4448   2.6011   2.6586   2.7531
     2.8357   2.9173   2.9617   2.9857   3.0035   3.0244   3.0752   3.0763
     3.1048   3.1482   3.1557   3.1959   3.2042   3.2168   3.2222   3.2367
     3.3005   3.3047   3.3392   3.3756   3.4250   3.8570  15.5069  16.5285
    17.5514  18.5368  20.7449  22.0161  22.7919  23.5597  25.0918  25.6810
    25.7621  26.3223  26.7248  26.8286  27.8669  27.9289  28.2390  29.0104
    29.7426  29.9195  30.3647  30.9601  31.1427  31.2415  31.8376  32.0142
    33.6917  33.9028  33.9692  34.0808  34.7472  35.5185  35.8518  36.0396
    36.6395  37.9320  37.9708  38.5359  38.7823  38.9366  39.6845  39.9383
    40.2779  40.6794  40.7721  41.1345  41.1942  41.4585  41.5459  41.5786

          k = 0.3469 0.2891 0.1239 (  4078 PWs)   bands (ev):

  -102.0966-102.0588-102.0516-102.0386-102.0245-101.9728 -57.7870 -57.7457
   -57.7235 -57.6600 -57.6361 -57.5962 -57.5222 -57.5175 -57.5144 -57.5111
   -57.4976 -57.4953 -57.4924 -57.4893 -57.4858 -57.4851 -57.4827 -57.4773
   -34.6426 -34.6425  -5.8775  -5.8748  -5.8741  -5.8728  -5.8709  -5.8700
     1.6133   2.0500   2.2631   2.4808   2.4829   2.6048   2.6608   2.7544
     2.8214   2.9122   2.9638   2.9893   3.0066   3.0087   3.0654   3.0854
     3.1007   3.1398   3.1716   3.1950   3.2023   3.2079   3.2342   3.2471
     3.2999   3.3082   3.3098   3.3358   3.3988   3.7366  15.6263  16.6375
    17.6103  18.5993  20.1579  20.7496  24.0272  24.4505  24.9651  25.5053
    25.6854  26.2293  26.6963  26.8275  28.0375  28.1143  28.1980  28.6488
    29.2149  29.9085  30.4985  31.1613  31.4547  31.6966  32.0063  32.5731
    33.2026  33.6571  34.2458  34.4417  34.5363  35.2508  35.6101  36.0649
    36.5406  37.7639  37.8920  38.3639  38.7693  38.9576  39.1918  39.9930
    40.2871  40.3450  40.6200  40.9464  41.2599  41.5226  41.9361  42.0401

          k = 0.3469 0.2891 0.2478 (  4075 PWs)   bands (ev):

  -102.0747-102.0596-102.0496-102.0268-102.0062-101.9989 -57.7560 -57.7450
   -57.7245 -57.6590 -57.6347 -57.6247 -57.5197 -57.5168 -57.5129 -57.5114
   -57.5008 -57.4952 -57.4910 -57.4862 -57.4853 -57.4840 -57.4819 -57.4771
   -34.6428 -34.6418  -5.8758  -5.8751  -5.8729  -5.8719  -5.8704  -5.8693
     1.9142   2.0506   2.2624   2.5822   2.5867   2.6211   2.6744   2.7605
     2.7851   2.9019   2.9558   2.9875   2.9887   3.0148   3.0539   3.0787
     3.0942   3.1288   3.1747   3.1867   3.1952   3.2160   3.2226   3.2389
     3.2424   3.2732   3.3005   3.3162   3.3428   3.4180  15.9747  16.9537
    17.6531  18.7094  19.2983  19.4813  24.3383  24.5243  25.3974  25.8186
    26.1963  26.4967  27.0523  27.1421  27.8231  28.0792  28.2115  28.4644
    28.6174  29.9354  30.1276  31.4177  31.9905  32.2226  32.6680  33.1475
    33.2721  33.5999  33.9790  34.3308  34.6174  34.8538  35.4166  35.8960
    36.2585  36.6248  38.1725  38.4751  38.6905  38.8801  39.1330  39.2700
    40.4104  40.5656  40.7080  40.9519  41.2722  41.5818  41.8195  42.1908

          k = 0.3469 0.2891 0.3717 (  4077 PWs)   bands (ev):

  -102.0668-102.0527-102.0435-102.0308-102.0226-102.0154 -57.7422 -57.7264
   -57.7177 -57.6669 -57.6557 -57.6375 -57.5195 -57.5176 -57.5055 -57.5045
   -57.5009 -57.4950 -57.4929 -57.4922 -57.4876 -57.4853 -57.4834 -57.4825
   -34.6429 -34.6420  -5.8755  -5.8749  -5.8740  -5.8715  -5.8710  -5.8696
     2.0503   2.2618   2.3590   2.6428   2.6462   2.6963   2.7331   2.7777
     2.8102   2.8335   2.9024   2.9356   2.9459   2.9670   2.9911   3.0187
     3.0961   3.0969   3.1349   3.1547   3.1627   3.1889   3.1933   3.2252
     3.2347   3.2459   3.2766   3.2888   3.3042   3.3222  16.5251  17.1257
    17.6216  18.3062  18.9339  19.0159  23.8676  23.9487  26.1353  26.3946
    26.6009  26.7084  27.1784  27.3516  27.9412  28.1542  28.2861  28.5151
    28.9306  29.8758  30.0438  31.1304  31.5318  32.2716  32.7207  32.8735
    33.4251  33.8200  34.2538  34.5471  34.8952  35.1224  35.3771  35.7579
    35.9384  36.6655  37.8136  38.0612  38.3147  38.8036  38.8786  38.9509
    40.7845  40.9056  40.9651  41.3525  41.3903  41.6461  42.0141  42.1578

          k = 0.3469-0.4336 0.0000 (  4078 PWs)   bands (ev):

  -102.1134-102.0671-102.0333-102.0286-102.0285-101.9765 -57.7879 -57.7209
   -57.6958 -57.6939 -57.6583 -57.5922 -57.5232 -57.5184 -57.5158 -57.5084
   -57.4995 -57.4984 -57.4910 -57.4905 -57.4873 -57.4841 -57.4825 -57.4728
   -34.6427 -34.6426  -5.8799  -5.8761  -5.8733  -5.8710  -5.8706  -5.8697
     1.5067   2.2616   2.4487   2.4493   2.6051   2.6071   2.6802   2.7342
     2.8587   2.8595   2.8916   2.9222   2.9321   2.9570   2.9933   3.0571
     3.0921   3.1016   3.1546   3.1800   3.1945   3.1993   3.2006   3.2366
     3.2516   3.2581   3.3608   3.3732   3.4124   3.8593  16.2372  16.2707
    17.5826  17.6039  20.8018  22.0213  22.9661  23.5801  25.1599  25.1644
    26.4063  26.4292  26.5948  26.5964  28.1383  28.1728  28.2743  28.7348
    29.6828  30.7132  30.8489  30.8986  31.1292  31.4850  31.7553  31.9382
    33.0650  33.3369  33.7558  33.8078  35.1320  35.6989  36.5656  36.8291
    36.8373  37.6674  37.9300  38.6420  38.7311  38.7596  38.8314  38.9800
    40.3514  40.9741  41.0879  41.2558  41.3666  41.3961  41.4661  41.6619

          k = 0.3469-0.4336 0.1239 (  4082 PWs)   bands (ev):

  -102.0889-102.0613-102.0505-102.0474-102.0242-101.9989 -57.7855 -57.7257
   -57.6935 -57.6926 -57.6600 -57.5965 -57.5201 -57.5173 -57.5165 -57.5104
   -57.5024 -57.5017 -57.4916 -57.4894 -57.4891 -57.4832 -57.4825 -57.4776
   -34.6427 -34.6427  -5.8778  -5.8750  -5.8746  -5.8726  -5.8710  -5.8709
     1.6125   2.2617   2.4871   2.4880   2.6056   2.6066   2.6858   2.7331
     2.8552   2.8612   2.8889   2.9119   2.9248   2.9662   2.9950   3.0313
     3.1030   3.1088   3.1533   3.1607   3.1893   3.2066   3.2170   3.2349
     3.2487   3.2720   3.3248   3.3321   3.3919   3.7386  16.3503  16.3769
    17.6679  17.6880  20.1992  20.7299  24.3449  24.4004  24.8372  25.0012
    26.3472  26.4946  26.5177  26.5624  28.2051  28.3210  28.3442  28.5826
    29.8237  30.2346  30.4593  31.0366  31.4445  31.6027  31.9213  32.7761
    32.9106  33.0733  34.1644  34.4951  35.0144  35.2708  35.8597  36.6266
    36.6279  37.4102  37.8387  38.1306  38.2145  38.8612  39.3476  39.4999
    40.3070  40.5290  40.7069  41.0826  41.1415  41.8013  41.9835  42.0357

          k = 0.3469-0.4336 0.2478 (  4078 PWs)   bands (ev):

  -102.0729-102.0565-102.0386-102.0367-102.0254-102.0094 -57.7534 -57.7253
   -57.6949 -57.6948 -57.6558 -57.6243 -57.5217 -57.5194 -57.5101 -57.5065
   -57.5036 -57.4985 -57.4917 -57.4892 -57.4886 -57.4826 -57.4818 -57.4767
   -34.6425 -34.6425  -5.8767  -5.8753  -5.8730  -5.8718  -5.8705  -5.8702
     1.9142   2.2620   2.5887   2.5909   2.6123   2.6161   2.7031   2.7307
     2.8476   2.8642   2.8825   2.8844   2.9115   2.9662   2.9993   3.0162
     3.1042   3.1075   3.1390   3.1467   3.1685   3.2142   3.2162   3.2297
     3.2386   3.2503   3.2580   3.2876   3.3415   3.4214  16.6884  16.6958
    17.8607  17.8844  19.2126  19.3741  24.0637  24.0725  25.9161  26.1691
    26.6379  26.6471  26.8149  26.8362  28.0758  28.2048  28.4389  28.4980
    29.5456  29.7652  30.2838  30.6579  31.5537  32.2354  32.5904  33.2861
    33.4191  33.5867  33.8578  34.5452  35.0785  35.1008  35.3789  35.8841
    36.3578  36.5244  37.7026  37.7833  38.2367  38.9473  39.2753  39.3966
    40.5616  40.6448  40.8404  41.1777  41.2389  41.7780  42.1398  42.1949

          k = 0.3469-0.4336 0.3717 (  4078 PWs)   bands (ev):

  -102.0525-102.0478-102.0401-102.0347-102.0290-102.0276 -57.7264 -57.7162
   -57.6926 -57.6925 -57.6655 -57.6536 -57.5182 -57.5180 -57.5014 -57.4998
   -57.4975 -57.4964 -57.4956 -57.4947 -57.4885 -57.4878 -57.4862 -57.4851
   -34.6424 -34.6424  -5.8751  -5.8748  -5.8721  -5.8720  -5.8708  -5.8707
     2.2620   2.3579   2.6033   2.6034   2.7242   2.7281   2.7514   2.7626
     2.8287   2.8379   2.8487   2.8753   2.8785   2.9045   2.9383   2.9427
     3.0524   3.0525   3.1314   3.1337   3.1532   3.1573   3.1613   3.1686
     3.2443   3.2446   3.2600   3.2606   3.2841   3.2957  17.1857  17.1863
    17.8902  17.8962  18.5115  18.5368  23.4929  23.4930  26.7190  26.7210
    26.8109  26.8161  27.6810  27.7622  28.0946  28.1194  28.4217  28.4420
    29.5372  29.5511  30.2661  30.3008  31.1357  31.5635  32.9699  33.0320
    33.6059  33.6060  34.1964  34.3792  35.5400  35.5402  35.7236  35.7357
    36.5334  36.5595  37.5105  37.5663  38.0968  38.3072  38.4298  38.4580
    41.1455  41.2770  41.5073  41.6453  41.6593  41.6842  42.2359  42.3039

     the Fermi energy is    34.9779 ev

!    total energy              =   -3121.21167284 Ry
     Harris-Foulkes estimate   =   -3121.21167306 Ry
     estimated scf accuracy    <       0.00000024 Ry

     The total energy is the sum of the following terms:

     one-electron contribution =    -842.10146940 Ry
     hartree contribution      =     523.03185293 Ry
     xc contribution           =    -247.04572702 Ry
     ewald contribution        =   -2554.77241995 Ry
     smearing contrib. (-TS)   =      -0.32390940 Ry

     convergence has been achieved in  10 iterations

     Forces acting on atoms (Ry/au):

     atom    1 type  1   force =     0.00000000    0.00000000    0.00000000
     atom    2 type  1   force =     0.00000000    0.00000000    0.00000000
     atom    3 type  1   force =     0.00000000    0.00000000    0.00000000
     atom    4 type  1   force =     0.00000000    0.00000000    0.00000000
     atom    5 type  1   force =     0.00000000    0.00000000    0.00000000
     atom    6 type  1   force =     0.00000000    0.00000000    0.00000000
     atom    7 type  2   force =     0.00000000    0.00000000    0.00000000
     atom    8 type  2   force =     0.00000000    0.00000000    0.00000000

     Total force =     0.000000     Total SCF correction =     0.000000


     entering subroutine stress ...

          total   stress  (Ry/bohr**3)                   (kbar)     P=  470.14
   0.00319592   0.00000000   0.00000000        470.14      0.00      0.00
   0.00000000   0.00319592   0.00000000          0.00    470.14      0.00
   0.00000000   0.00000000   0.00319592          0.00      0.00    470.14


     Writing output data file Prototype-La-cP8-Cr3Si.save
 
     init_run     :      8.66s CPU     10.85s WALL (       2 calls)
     electrons    :   2137.68s CPU   2400.81s WALL (       5 calls)
     update_pot   :      1.41s CPU      1.45s WALL (       3 calls)
     forces       :      7.16s CPU      7.81s WALL (       5 calls)
     stress       :     19.94s CPU     20.54s WALL (       5 calls)

     Called by init_run:
     wfcinit      :      8.05s CPU     10.20s WALL (       2 calls)
     potinit      :      0.22s CPU      0.22s WALL (       2 calls)

     Called by electrons:
     c_bands      :   2087.44s CPU   2323.68s WALL (      41 calls)
     sum_band     :     49.80s CPU     59.84s WALL (      41 calls)
     v_of_rho     :      0.05s CPU      0.06s WALL (      46 calls)
     mix_rho      :      0.06s CPU      0.08s WALL (      41 calls)

     Called by c_bands:
     init_us_2    :      2.91s CPU      3.61s WALL (    4512 calls)
     ccgdiagg     :   1924.69s CPU   2115.38s WALL (    2205 calls)
     wfcrot       :    167.22s CPU    210.72s WALL (    2253 calls)

     Called by *cgdiagg:
     h_psi        :   1337.59s CPU   1538.47s WALL ( 1296666 calls)
     cdiaghg      :     13.45s CPU     14.78s WALL (    2253 calls)

     Called by h_psi:
     add_vuspsi   :    176.40s CPU    201.46s WALL ( 1296666 calls)

     General routines
     calbec       :    540.10s CPU    568.76s WALL ( 2591559 calls)
     fft          :      0.09s CPU      0.10s WALL (     207 calls)
     fftw         :    773.06s CPU    881.20s WALL ( 3313914 calls)
     davcio       :      2.39s CPU      7.05s WALL (    6480 calls)
 
     Parallel routines
     fft_scatter  :    397.86s CPU    436.53s WALL ( 3314121 calls)
 
     PWSCF        : 36m15.64s CPU    40m46.20s WALL

 
   This run was terminated on:   0:43:56  22Mar2018            

=------------------------------------------------------------------------------=
   JOB DONE.
=------------------------------------------------------------------------------=
