
     Program PWSCF v.5.0.2 starts on 22Mar2018 at 22:48:56 

     This program is part of the open-source Quantum ESPRESSO suite
     for quantum simulation of materials; please cite
         "P. Giannozzi et al., J. Phys.:Condens. Matter 21 395502 (2009);
          URL http://www.quantum-espresso.org", 
     in publications or presentations arising from this work. More details at
     http://www.quantum-espresso.org/quote.php

     Parallel version (MPI), running on     4 processors
     R & G space division:  proc/nbgrp/npool/nimage =       4

     Current dimensions of program PWSCF are:
     Max number of different atomic species (ntypx) = 10
     Max number of k-points (npk) =  40000
     Max angular momentum in pseudopotentials (lmaxx) =  3
     Waiting for input...
     Reading input from standard input

     Subspace diagonalization in iterative solution of the eigenvalue problem:
     a serial algorithm will be used

 
     Parallelization info
     --------------------
     sticks:   dense  smooth     PW     G-vecs:    dense   smooth      PW
     Min         267     267     77                11587    11587    1762
     Max         268     268     79                11596    11596    1765
     Sum        1069    1069    313                46361    46361    7055
 


     bravais-lattice index     =            0
     lattice parameter (alat)  =       9.9235  a.u.
     unit-cell volume          =    1361.0366 (a.u.)^3
     number of atoms/cell      =           12
     number of atomic types    =            2
     number of electrons       =       176.00
     number of Kohn-Sham states=          106
     kinetic-energy cutoff     =      40.0000  Ry
     charge density cutoff     =     160.0000  Ry
     convergence threshold     =      1.0E-04
     mixing beta               =       0.7000
     number of iterations used =            8  plain     mixing
     Exchange-correlation      = SLA-PZ-NOGX-NOGC ( 1 1 0 0 0)
     EXX-fraction              =        0.00
     nstep                     =           50


     celldm(1)=   9.923489  celldm(2)=   0.000000  celldm(3)=   0.000000
     celldm(4)=   0.000000  celldm(5)=   0.000000  celldm(6)=   0.000000

     crystal axes: (cart. coord. in units of alat)
               a(1) = (   1.000000   0.000000   0.000000 )  
               a(2) = (  -0.500000   0.866025   0.000000 )  
               a(3) = (   0.000000   0.000000   1.608222 )  

     reciprocal axes: (cart. coord. in units 2 pi/alat)
               b(1) = (  1.000000  0.577350  0.000000 )  
               b(2) = (  0.000000  1.154701  0.000000 )  
               b(3) = (  0.000000  0.000000  0.621805 )  


     PseudoPot. # 1 for Gd read from file:
     /home/cwx6513/pp.La/Gd.UPF
     MD5 check sum: 09a8be538722f05520810cb6aac0efd2
     Pseudo is Norm-conserving, Zval = 18.0
     Generated in analytical, separable form
     Using radial grid of 1263 points,  6 beta functions with: 
                l(1) =   0
                l(2) =   0
                l(3) =   1
                l(4) =   1
                l(5) =   2
                l(6) =   3

     PseudoPot. # 2 for Pr read from file:
     /home/cwx6513/pp.La/Pr.UPF
     MD5 check sum: 70e2b4b153859e92c8c91247dfc63203
     Pseudo is Norm-conserving, Zval = 13.0
     Generated in analytical, separable form
     Using radial grid of 1255 points,  6 beta functions with: 
                l(1) =   0
                l(2) =   0
                l(3) =   1
                l(4) =   1
                l(5) =   2
                l(6) =   3

     atomic species   valence    mass     pseudopotential
        Mg            18.00    24.30500     Gd( 1.00)
        Zn            13.00    65.39000     Pr( 1.00)

     24 Sym. Ops., with inversion, found (12 have fractional translation)



   Cartesian axes

     site n.     atom                  positions (alat units)
         1           Mg  tau(   1) = (  -0.0000005   0.5773506   0.1003820  )
         2           Mg  tau(   2) = (   0.5000005   0.2886748   0.9044931  )
         3           Mg  tau(   3) = (   0.5000005   0.2886748   1.5078402  )
         4           Mg  tau(   4) = (  -0.0000005   0.5773506   0.7037291  )
         5           Zn  tau(   5) = (   0.0000000   0.0000000   0.0000000  )
         6           Zn  tau(   6) = (   0.0000000   0.0000000   0.8041111  )
         7           Zn  tau(   7) = (   0.0000000   0.2950739   1.2061667  )
         8           Zn  tau(   8) = (   0.7444585   0.1475370   0.4020556  )
         9           Zn  tau(   9) = (   0.2555415   0.1475370   0.4020556  )
        10           Zn  tau(  10) = (   0.2444585   0.7184884   1.2061667  )
        11           Zn  tau(  11) = (  -0.2444585   0.7184884   1.2061667  )
        12           Zn  tau(  12) = (   0.5000000   0.5709515   0.4020556  )

     number of k points=    12  gaussian smearing, width (Ry)=  0.1000
                       cart. coord. in units 2pi/alat
        k(    1) = (   0.0000000   0.0000000   0.0000000), wk =   0.0833333
        k(    2) = (   0.0000000   0.0000000   0.1554512), wk =   0.1666667
        k(    3) = (   0.0000000   0.0000000  -0.3109023), wk =   0.0833333
        k(    4) = (   0.0000000   0.3849002   0.0000000), wk =   0.1666667
        k(    5) = (   0.0000000   0.3849002   0.1554512), wk =   0.3333333
        k(    6) = (   0.0000000   0.3849002  -0.3109023), wk =   0.1666667
        k(    7) = (  -0.5000000  -0.2886751   0.0000000), wk =   0.0833333
        k(    8) = (  -0.5000000  -0.2886751   0.1554512), wk =   0.1666667
        k(    9) = (  -0.5000000  -0.2886751  -0.3109023), wk =   0.0833333
        k(   10) = (  -0.5000000   0.0962250   0.0000000), wk =   0.1666667
        k(   11) = (  -0.5000000   0.0962250   0.1554512), wk =   0.3333333
        k(   12) = (  -0.5000000   0.0962250  -0.3109023), wk =   0.1666667

     Dense  grid:    46361 G-vectors     FFT dimensions: (  40,  40,  72)

     Largest allocated arrays     est. size (Mb)     dimensions
        Kohn-Sham Wavefunctions         2.39 Mb     (   1478,  106)
        NL pseudopotentials             5.41 Mb     (   1478,  240)
        Each V/rho on FFT grid          0.44 Mb     (  28800)
        Each G-vector array             0.09 Mb     (  11589)
        G-vector shells                 0.09 Mb     (  11589)
     Largest temporary arrays     est. size (Mb)     dimensions
        Each subspace H/S matrix        0.17 Mb     ( 106, 106)
        Each <psi_i|beta_j> matrix      0.39 Mb     (    240,  106)
        Arrays for rho mixing           3.52 Mb     (  28800,   8)

     Initial potential from superposition of free atoms
     Check: negative starting charge=   -0.000695

     starting charge  103.92434, renormalised to  176.00000

     negative rho (up, down):  0.118E-02 0.000E+00
     Starting wfc are  160 randomized atomic wfcs

     total cpu time spent up to now is        5.6 secs

     Self-consistent Calculation

     iteration #  1     ecut=    40.00 Ry     beta=0.70
     CG style diagonalization
     ethr =  1.00E-02,  avg # of iterations = 21.6

     negative rho (up, down):  0.329E-03 0.000E+00

     total cpu time spent up to now is      101.9 secs

     total energy              =     190.14935011 Ry
     Harris-Foulkes estimate   =   -3229.25204091 Ry
     estimated scf accuracy    <    4028.45409634 Ry

     iteration #  2     ecut=    40.00 Ry     beta=0.70
     CG style diagonalization
     ethr =  1.00E-02,  avg # of iterations = 22.4

     negative rho (up, down):  0.133E-03 0.000E+00

     total cpu time spent up to now is      200.1 secs

     total energy              =   -1363.54520027 Ry
     Harris-Foulkes estimate   =   -2849.93974288 Ry
     estimated scf accuracy    <    2452.10282099 Ry

     iteration #  3     ecut=    40.00 Ry     beta=0.70
     CG style diagonalization
     c_bands:  1 eigenvalues not converged
     c_bands:  1 eigenvalues not converged
     ethr =  1.00E-02,  avg # of iterations = 11.6

     negative rho (up, down):  0.829E-04 0.000E+00

     total cpu time spent up to now is      254.3 secs

     total energy              =   -1563.16296636 Ry
     Harris-Foulkes estimate   =   -1644.74311414 Ry
     estimated scf accuracy    <     281.83610588 Ry

     iteration #  4     ecut=    40.00 Ry     beta=0.70
     CG style diagonalization
     ethr =  1.00E-02,  avg # of iterations =  4.5

     negative rho (up, down):  0.733E-04 0.000E+00

     total cpu time spent up to now is      274.2 secs

     total energy              =   -1568.28945388 Ry
     Harris-Foulkes estimate   =   -1579.29880951 Ry
     estimated scf accuracy    <      83.90503479 Ry

     iteration #  5     ecut=    40.00 Ry     beta=0.70
     CG style diagonalization
     ethr =  1.00E-02,  avg # of iterations =  3.0

     total cpu time spent up to now is      286.7 secs

     total energy              =   -1524.18561645 Ry
     Harris-Foulkes estimate   =   -1569.09387829 Ry
     estimated scf accuracy    <      65.01893218 Ry

     iteration #  6     ecut=    40.00 Ry     beta=0.70
     CG style diagonalization
     ethr =  1.00E-02,  avg # of iterations =  5.6

     total cpu time spent up to now is      311.8 secs

     total energy              =   -1545.86520848 Ry
     Harris-Foulkes estimate   =   -1553.97596100 Ry
     estimated scf accuracy    <      20.25233959 Ry

     iteration #  7     ecut=    40.00 Ry     beta=0.70
     CG style diagonalization
     ethr =  1.00E-02,  avg # of iterations =  3.3

     total cpu time spent up to now is      325.8 secs

     total energy              =   -1545.50466055 Ry
     Harris-Foulkes estimate   =   -1547.74951422 Ry
     estimated scf accuracy    <       2.89281457 Ry

     iteration #  8     ecut=    40.00 Ry     beta=0.70
     CG style diagonalization
     ethr =  1.64E-03,  avg # of iterations =  4.6

     total cpu time spent up to now is      347.1 secs

     total energy              =   -1545.03552405 Ry
     Harris-Foulkes estimate   =   -1548.95158024 Ry
     estimated scf accuracy    <      10.08083785 Ry

     iteration #  9     ecut=    40.00 Ry     beta=0.70
     CG style diagonalization
     ethr =  1.64E-03,  avg # of iterations =  3.9

     total cpu time spent up to now is      364.9 secs

     total energy              =   -1547.18973799 Ry
     Harris-Foulkes estimate   =   -1547.28932681 Ry
     estimated scf accuracy    <       0.25514844 Ry

     iteration # 10     ecut=    40.00 Ry     beta=0.70
     CG style diagonalization
     c_bands:  1 eigenvalues not converged
     c_bands:  2 eigenvalues not converged
     c_bands:  2 eigenvalues not converged
     c_bands:  1 eigenvalues not converged
     c_bands:  1 eigenvalues not converged
     ethr =  1.45E-04,  avg # of iterations =  4.3

     total cpu time spent up to now is      384.6 secs

     total energy              =   -1547.23108155 Ry
     Harris-Foulkes estimate   =   -1547.25262992 Ry
     estimated scf accuracy    <       0.03538612 Ry

     iteration # 11     ecut=    40.00 Ry     beta=0.70
     CG style diagonalization
     c_bands:  1 eigenvalues not converged
     ethr =  2.01E-05,  avg # of iterations =  4.3

     total cpu time spent up to now is      404.1 secs

     total energy              =   -1547.23657446 Ry
     Harris-Foulkes estimate   =   -1547.26093572 Ry
     estimated scf accuracy    <       0.06239013 Ry

     iteration # 12     ecut=    40.00 Ry     beta=0.70
     CG style diagonalization
     ethr =  2.01E-05,  avg # of iterations =  3.4

     total cpu time spent up to now is      418.3 secs

     total energy              =   -1547.24710793 Ry
     Harris-Foulkes estimate   =   -1547.24718284 Ry
     estimated scf accuracy    <       0.00022814 Ry

     iteration # 13     ecut=    40.00 Ry     beta=0.70
     CG style diagonalization
     c_bands:  1 eigenvalues not converged
     c_bands:  1 eigenvalues not converged
     c_bands:  1 eigenvalues not converged
     ethr =  1.30E-07,  avg # of iterations =  5.8

     total cpu time spent up to now is      443.6 secs

     total energy              =   -1547.24770300 Ry
     Harris-Foulkes estimate   =   -1547.24774256 Ry
     estimated scf accuracy    <       0.00015752 Ry

     iteration # 14     ecut=    40.00 Ry     beta=0.70
     CG style diagonalization
     c_bands:  1 eigenvalues not converged
     c_bands:  1 eigenvalues not converged
     ethr =  8.95E-08,  avg # of iterations =  3.0

     total cpu time spent up to now is      455.9 secs

     End of self-consistent calculation

          k = 0.0000 0.0000 0.0000 (  5769 PWs)   bands (ev):

   -40.4192 -40.4138 -40.3999 -40.3879 -16.4734 -16.0870 -14.8534 -14.4006
   -14.4005 -14.3886 -14.3886 -14.3054 -11.5239 -11.5239 -11.5224 -11.4966
   -11.4966 -11.4842 -11.3710 -11.3639 -11.3578 -11.3578 -11.3466 -11.3466
    -0.3500   0.5784   1.6531   2.8971   2.8971   3.1587   3.1587   3.4062
     3.4063   4.2309   5.1817   5.1817   5.3017   5.3018   5.7872   7.1525
     7.1969   7.2036   7.2802   7.2802   7.7037   7.7037   7.8965   7.8965
    19.8289  20.8043  21.1056  21.8275  21.8275  22.3127  22.4536  22.4537
    22.5433  22.6496  22.6496  22.7391  22.8009  22.8010  23.0096  23.0243
    23.0243  23.1065  23.1567  23.1567  23.7722  23.7723  24.1064  24.1065
    24.4945  24.4945  24.8991  25.0242  25.0242  25.1971  25.1971  25.5609
    26.4851  26.4851  26.6671  27.8410  27.8410  27.9127  27.9128  28.0978
    28.8793  28.8793  29.7757  30.7293  30.8365  30.8581  31.0202  31.0203
    31.7113  31.9903  32.4506  32.4507  32.5627  32.5628  32.6860  32.6861
    33.3866  33.3867

          k = 0.0000 0.0000 0.1555 (  5780 PWs)   bands (ev):

   -40.4185 -40.4168 -40.3960 -40.3910 -16.4288 -16.1612 -14.7564 -14.3990
   -14.3989 -14.3906 -14.3905 -14.3750 -11.5225 -11.5176 -11.5176 -11.5048
   -11.5048 -11.4898 -11.3714 -11.3594 -11.3569 -11.3569 -11.3490 -11.3490
    -0.2754   0.3080   2.0921   2.9160   2.9160   3.0696   3.0696   3.6023
     3.6024   3.7696   4.5735   4.5735   5.9404   5.9405   6.1317   7.0228
     7.0678   7.0679   7.1963   7.2015   7.7679   7.7679   7.8826   7.8827
    19.9106  20.2952  21.8713  21.8762  21.9124  21.9124  22.1218  22.3127
    22.3127  22.4131  22.4132  22.7783  22.7784  23.1166  23.1613  23.1613
    23.4098  23.4098  23.5040  23.6078  23.8422  23.8422  24.0305  24.0305
    24.4134  24.4134  24.6992  25.0726  25.0726  25.2680  25.3055  25.3055
    26.4414  26.7476  26.7476  27.0211  27.0533  27.0534  27.6791  27.6791
    29.6861  29.6861  30.2799  30.7191  30.8650  31.0086  31.0087  31.3856
    31.7340  32.1835  32.4101  32.4103  32.7212  32.7214  32.7820  32.7821
    33.3271  33.6561

          k = 0.0000 0.0000-0.3109 (  5780 PWs)   bands (ev):

   -40.4183 -40.4183 -40.3926 -40.3926 -16.3089 -16.3089 -14.5534 -14.5534
   -14.3945 -14.3945 -14.3945 -14.3945 -11.5130 -11.5130 -11.5107 -11.5107
   -11.5107 -11.5107 -11.3642 -11.3642 -11.3496 -11.3496 -11.3496 -11.3496
    -0.0498  -0.0498   2.9147   2.9147   2.9746   2.9746   2.9746   2.9746
     4.0152   4.0152   4.0152   4.0152   6.5801   6.5801   6.5801   6.5801
     6.6535   6.6535   7.2009   7.2009   7.8408   7.8408   7.8408   7.8408
    20.0608  20.0608  21.5585  21.5585  22.0785  22.0785  22.0785  22.0785
    22.4909  22.4909  22.4910  22.4910  23.3247  23.3247  23.5215  23.5215
    23.5215  23.5215  23.8110  23.8110  23.8110  23.8110  23.8456  23.8456
    24.4538  24.4539  24.7273  24.7273  24.7273  24.7273  26.0017  26.0017
    26.0017  26.0017  26.3595  26.3595  27.2839  27.2839  27.2839  27.2839
    30.3513  30.3513  30.5412  30.5412  30.5412  30.5412  31.2505  31.2506
    32.5179  32.5181  32.7141  32.7141  32.7141  32.7142  33.0249  33.0249
    33.0249  33.0250

          k = 0.0000 0.3849 0.0000 (  5787 PWs)   bands (ev):

   -40.4175 -40.4069 -40.4038 -40.3950 -16.2116 -15.7874 -15.0742 -14.8622
   -14.8015 -14.4188 -14.3959 -13.9957 -11.5294 -11.5162 -11.5141 -11.5082
   -11.4911 -11.4570 -11.4062 -11.3656 -11.3527 -11.3509 -11.3291 -11.3291
     0.6362   1.4697   1.7732   3.0303   3.1601   3.3650   3.4310   3.6534
     3.9856   4.5510   4.8405   4.8776   5.1348   5.1711   5.2978   6.0394
     6.0474   6.3169   6.9225   6.9949   7.2904   7.5684   7.6191   7.7367
    20.9153  21.2217  21.3675  21.6872  21.8873  21.9593  22.1295  22.1961
    22.4947  22.5461  22.6026  22.8350  22.8838  22.9951  23.1461  23.3538
    23.4153  23.4674  23.7444  23.9982  24.0093  24.0292  24.1897  24.4725
    25.0913  25.1992  25.4635  25.6560  25.8818  26.1703  26.3398  26.6879
    27.0720  27.0756  27.4660  27.4717  27.5611  27.6218  27.7403  28.2167
    28.2810  28.3662  28.5770  29.6030  29.8087  30.0226  30.4535  30.5306
    30.7107  31.0761  31.0931  31.8894  32.2493  32.5176  32.6533  32.6598
    33.0713  33.3804

          k = 0.0000 0.3849 0.1555 (  5804 PWs)   bands (ev):

   -40.4171 -40.4101 -40.4029 -40.3962 -16.1624 -15.8675 -15.0689 -14.9867
   -14.5730 -14.4157 -14.3994 -14.0756 -11.5363 -11.5228 -11.5185 -11.5153
   -11.4843 -11.4649 -11.3938 -11.3725 -11.3486 -11.3470 -11.3327 -11.3318
     0.6874   1.1430   2.2262   2.9520   3.2061   3.4841   3.5195   3.6404
     4.0302   4.1083   4.3328   4.6164   5.3115   5.4993   5.6776   6.0332
     6.1471   6.3935   6.7980   7.0874   7.0968   7.5375   7.6371   7.7292
    20.9707  21.2705  21.3735  21.5999  21.7853  22.1152  22.1560  22.2344
    22.4150  22.4660  22.5390  22.8606  22.9065  23.1440  23.2444  23.4328
    23.4473  23.5175  23.7843  23.9273  23.9745  23.9901  24.3422  24.4961
    24.8621  25.2425  25.6034  25.6433  25.7250  26.2065  26.3095  26.5831
    26.7110  26.8463  27.0960  27.2679  27.4692  27.5956  27.7667  27.9353
    28.6802  28.8160  29.1243  29.2417  30.2355  30.2361  30.5524  30.6299
    30.7077  31.0984  31.3531  31.8857  32.0786  32.2615  32.3755  32.6240
    32.8604  33.0108

          k = 0.0000 0.3849-0.3109 (  5816 PWs)   bands (ev):

   -40.4151 -40.4151 -40.3992 -40.3992 -16.0293 -16.0293 -15.0477 -15.0477
   -14.4077 -14.4077 -14.2907 -14.2907 -11.5370 -11.5370 -11.5165 -11.5165
   -11.4766 -11.4766 -11.3807 -11.3807 -11.3412 -11.3412 -11.3392 -11.3392
     0.8503   0.8503   2.7323   2.7323   3.4767   3.4767   3.5850   3.5850
     3.8736   3.8736   4.2199   4.2199   5.5370   5.5370   5.9589   5.9589
     6.4795   6.4795   6.6980   6.6980   7.3283   7.3283   7.7007   7.7007
    21.1928  21.1928  21.3698  21.3698  22.0157  22.0157  22.1997  22.1997
    22.4202  22.4202  22.6755  22.6755  23.0198  23.0198  23.4318  23.4318
    23.5932  23.5932  23.7631  23.7631  24.1617  24.1617  24.4063  24.4063
    25.1448  25.1448  25.3247  25.3248  26.0477  26.0477  26.1018  26.1018
    26.8511  26.8511  26.9104  26.9104  27.5927  27.5927  27.7272  27.7273
    28.9810  28.9810  29.6974  29.6974  29.9240  29.9240  30.6546  30.6546
    30.9510  30.9511  32.0121  32.0123  32.1442  32.1443  32.4608  32.4610
    32.5982  32.5985

          k =-0.5000-0.2887 0.0000 (  5800 PWs)   bands (ev):

   -40.4133 -40.4079 -40.4069 -40.3971 -16.0700 -15.6065 -15.2921 -15.0138
   -14.8652 -14.4247 -14.3988 -13.9569 -11.5247 -11.5189 -11.5184 -11.5162
   -11.4746 -11.4326 -11.4275 -11.3826 -11.3485 -11.3396 -11.3312 -11.3309
     1.0636   1.8189   1.8632   3.0607   3.1116   3.4393   3.9894   4.2095
     4.2419   4.4282   4.6681   4.6964   4.8063   5.0201   5.1652   5.1828
     5.5381   5.9926   6.7819   6.8703   7.2928   7.5590   7.7181   7.7438
    20.5921  21.6201  21.7703  21.8645  22.0187  22.1271  22.3739  22.4232
    22.4376  22.4617  22.5282  22.5697  22.5883  22.7344  22.9237  23.2637
    23.3382  23.5492  23.8828  24.0863  24.1252  24.4109  24.4852  24.6753
    25.2168  25.5086  25.5634  25.7351  26.0457  26.0852  26.6486  26.7175
    26.7508  27.6472  27.6610  27.8266  27.8551  27.8645  28.4308  28.6751
    28.7846  28.8284  29.3421  29.4316  29.5900  29.9215  30.0950  30.1102
    30.4433  30.5766  30.8135  31.1103  31.5091  31.6856  31.7956  31.9852
    32.4774  32.9466

          k =-0.5000-0.2887 0.1555 (  5822 PWs)   bands (ev):

   -40.4147 -40.4098 -40.4046 -40.4003 -16.0154 -15.6871 -15.2855 -15.1734
   -14.6011 -14.4213 -14.4029 -14.0434 -11.5390 -11.5306 -11.5215 -11.5198
   -11.4648 -11.4461 -11.4101 -11.3851 -11.3474 -11.3432 -11.3355 -11.3287
     1.1040   1.4735   2.3119   2.9906   3.2162   3.5253   4.0135   4.0575
     4.0960   4.1930   4.6911   4.7025   4.7668   4.9146   5.1734   5.1816
     5.8319   6.2191   6.6515   7.0515   7.0885   7.6262   7.6485   7.7105
    20.7211  21.5330  21.7895  21.8852  21.9516  22.0890  22.1144  22.2510
    22.4058  22.4867  22.6197  22.7825  22.9179  22.9510  23.1167  23.2530
    23.5508  23.6462  23.6699  23.8827  24.1132  24.2176  24.3361  24.7420
    24.8968  25.4949  25.6399  25.7311  25.9686  26.1575  26.5125  26.5919
    26.8717  27.0036  27.4347  27.6770  27.9568  28.3453  28.6662  28.6827
    28.9700  29.1726  29.2627  29.5681  29.7123  29.7321  30.1485  30.3604
    30.4709  30.7329  30.9519  31.1873  31.3733  31.5103  31.6880  31.7374
    32.1942  32.5707

          k =-0.5000-0.2887-0.3109 (  5804 PWs)   bands (ev):

   -40.4124 -40.4124 -40.4007 -40.4006 -15.8660 -15.8660 -15.2578 -15.2578
   -14.4119 -14.4119 -14.2792 -14.2792 -11.5418 -11.5418 -11.5197 -11.5197
   -11.4491 -11.4491 -11.3874 -11.3874 -11.3388 -11.3388 -11.3388 -11.3388
     1.2340   1.2340   2.7475   2.7475   3.5629   3.5629   3.7609   3.7609
     4.0911   4.0911   4.7257   4.7257   4.7711   4.7711   5.1808   5.1808
     6.2991   6.2991   6.6729   6.6729   7.3897   7.3897   7.6855   7.6855
    21.0760  21.0760  21.8833  21.8833  22.0685  22.0685  22.1517  22.1517
    22.3198  22.3198  22.9427  22.9427  23.0002  23.0002  23.2854  23.2854
    23.6246  23.6246  23.6949  23.6949  24.1243  24.1243  24.4547  24.4547
    25.1129  25.1129  25.5819  25.5819  26.0018  26.0018  26.2444  26.2444
    27.3320  27.3320  27.4145  27.4145  27.9331  27.9331  28.9280  28.9280
    29.0748  29.0748  29.6332  29.6332  29.6912  29.6912  30.3769  30.3769
    30.9914  30.9915  31.2047  31.2049  31.2981  31.2982  31.4838  31.4840
    32.0013  32.0014

          k =-0.5000 0.0962 0.0000 (  5827 PWs)   bands (ev):

   -40.4153 -40.4081 -40.4068 -40.3997 -16.0686 -15.6103 -15.2922 -15.0124
   -14.8656 -14.4196 -14.4045 -13.9560 -11.5319 -11.5190 -11.5158 -11.5140
   -11.4845 -11.4381 -11.4313 -11.3850 -11.3487 -11.3425 -11.3346 -11.3311
     1.1572   1.8196   1.9456   2.8973   3.1486   3.3450   3.3693   4.1420
     4.3936   4.4442   4.5801   4.9255   4.9327   5.0865   5.1321   5.3979
     5.9398   6.1606   6.9029   6.9105   7.2201   7.2824   7.3312   7.7277
    20.8307  21.6146  21.6317  21.7558  21.8853  21.9968  22.0645  22.2082
    22.2877  22.4203  22.7405  22.7573  22.7835  22.8826  23.0308  23.0332
    23.6327  23.9857  24.1611  24.1820  24.4997  24.6447  24.6614  24.6871
    25.3196  25.3367  25.4968  25.7405  25.9362  26.1231  26.3318  26.5000
    27.0803  27.1424  27.4129  27.5332  27.7671  27.7898  28.0626  28.3496
    28.4009  28.6754  29.1788  29.4697  29.5430  29.7574  29.8950  29.9535
    30.3608  30.5703  30.8634  31.2562  31.3885  31.6275  31.7764  32.3720
    32.6456  33.4429

          k =-0.5000 0.0962 0.1555 (  5825 PWs)   bands (ev):

   -40.4152 -40.4100 -40.4040 -40.4005 -16.0140 -15.6890 -15.2860 -15.1747
   -14.6000 -14.4172 -14.4066 -14.0422 -11.5404 -11.5320 -11.5157 -11.5138
   -11.4727 -11.4488 -11.4089 -11.3873 -11.3488 -11.3400 -11.3351 -11.3310
     1.1948   1.5351   2.3117   2.8217   3.2573   3.4194   3.4804   4.0153
     4.2272   4.3083   4.4530   4.5464   4.9434   5.0232   5.5304   5.6605
     6.0293   6.2425   6.7842   6.9374   7.1250   7.3353   7.3590   7.6451
    20.9444  21.5076  21.7288  21.8006  21.8589  21.9258  22.0868  22.2402
    22.2706  22.3974  22.5470  22.7161  22.8482  22.9473  23.2529  23.5424
    23.6594  23.6925  24.0090  24.1795  24.3704  24.5509  24.6038  24.7771
    25.0521  25.4761  25.5175  25.8022  26.0173  26.1548  26.3914  26.6050
    26.6681  26.9638  27.2894  27.3904  27.5719  27.8003  28.0954  28.2428
    28.5246  28.8127  29.1205  29.5028  29.6591  29.8871  30.1080  30.2991
    30.4914  30.6040  30.9806  31.2515  31.3751  31.5333  31.8193  32.2170
    32.5616  32.9796

          k =-0.5000 0.0962-0.3109 (  5824 PWs)   bands (ev):

   -40.4132 -40.4132 -40.4015 -40.4015 -15.8657 -15.8657 -15.2599 -15.2599
   -14.4119 -14.4119 -14.2776 -14.2776 -11.5449 -11.5449 -11.5158 -11.5158
   -11.4572 -11.4572 -11.3909 -11.3909 -11.3429 -11.3429 -11.3353 -11.3353
     1.3146   1.3146   2.6494   2.6494   3.5323   3.5323   3.6738   3.6738
     3.9880   3.9880   4.4571   4.4571   4.9707   4.9707   5.7657   5.7657
     6.3001   6.3001   6.6881   6.6881   7.2965   7.2965   7.4529   7.4529
    21.2465  21.2465  21.7019  21.7019  21.9413  21.9413  22.1888  22.1888
    22.2800  22.2801  22.7140  22.7140  23.0624  23.0624  23.3136  23.3136
    23.7069  23.7069  24.0534  24.0534  24.3523  24.3523  24.7880  24.7880
    25.3371  25.3371  25.4649  25.4649  25.9287  25.9287  26.5595  26.5595
    26.8678  26.8678  27.0308  27.0308  27.8680  27.8680  28.2315  28.2315
    28.4318  28.4318  29.3768  29.3768  29.9638  29.9638  30.4636  30.4636
    30.7464  30.7464  30.9586  30.9587  31.2092  31.2092  32.2803  32.2804
    32.8968  32.8966

     the Fermi energy is    28.5388 ev

!    total energy              =   -1547.24765459 Ry
     Harris-Foulkes estimate   =   -1547.24771096 Ry
     estimated scf accuracy    <       0.00006716 Ry

     The total energy is the sum of the following terms:

     one-electron contribution =      52.17146339 Ry
     hartree contribution      =     139.95774405 Ry
     xc contribution           =    -177.92567374 Ry
     ewald contribution        =   -1560.96253033 Ry
     smearing contrib. (-TS)   =      -0.48865795 Ry

     convergence has been achieved in  14 iterations

     Forces acting on atoms (Ry/au):

     atom    1 type  1   force =     0.00000000    0.00000000    0.01952324
     atom    2 type  1   force =     0.00000000    0.00000000    0.01952324
     atom    3 type  1   force =     0.00000000    0.00000000   -0.01952324
     atom    4 type  1   force =     0.00000000    0.00000000   -0.01952324
     atom    5 type  2   force =     0.00000000    0.00000000    0.00000000
     atom    6 type  2   force =     0.00000000    0.00000000    0.00000000
     atom    7 type  2   force =     0.00000000    0.04660038    0.00000000
     atom    8 type  2   force =    -0.04035711    0.02330019    0.00000000
     atom    9 type  2   force =     0.04035711    0.02330019    0.00000000
     atom   10 type  2   force =    -0.04035711   -0.02330019    0.00000000
     atom   11 type  2   force =     0.04035711   -0.02330019    0.00000000
     atom   12 type  2   force =     0.00000000   -0.04660038    0.00000000

     Total force =     0.120641     Total SCF correction =     0.013415
     SCF correction compared to forces is large: reduce conv_thr to get better values


     entering subroutine stress ...

          total   stress  (Ry/bohr**3)                   (kbar)     P=  926.78
   0.00630812   0.00000000   0.00000000        927.96      0.00      0.00
   0.00000000   0.00630812   0.00000000          0.00    927.96      0.00
   0.00000000   0.00000000   0.00628417          0.00      0.00    924.43


     BFGS Geometry Optimization

     number of scf cycles    =   1
     number of bfgs steps    =   0

     enthalpy new            =   -1547.2476545897 Ry

     new trust radius        =       0.5000000000 bohr
     new conv_thr            =       0.0001000000 Ry

     new unit-cell volume =   1656.50256 a.u.^3 (   245.46835 Ang^3 )

CELL_PARAMETERS (alat=  9.92348860)
   1.067764947   0.000000000   0.000000000
  -0.533882474   0.924711570   0.000000000
   0.000000000   0.000000000   1.716789441

ATOMIC_POSITIONS (crystal)
Mg       0.333333000   0.666667000   0.062943662
Mg       0.666667000   0.333333000   0.562943662
Mg       0.666667000   0.333333000   0.937056338
Mg       0.333333000   0.666667000   0.437056338
Zn       0.000000000   0.000000000   0.000000000
Zn       0.000000000   0.000000000   0.500000000
Zn       0.171526009   0.343052018   0.750000000
Zn       0.828473991   0.171526009   0.250000000
Zn       0.343052018   0.171526009   0.250000000
Zn       0.656947982   0.828473991   0.750000000
Zn       0.171526009   0.828473991   0.750000000
Zn       0.828473991   0.656947982   0.250000000



     Writing output data file Prototype-La-hP12-MgZn2.save
     Check: negative starting charge=   -0.000695
     NEW-OLD atomic charge density approx. for the potential
     NEW k-points:
        k(    1) = (   0.0000000   0.0000000   0.0000000), wk =   0.0833333
        k(    2) = (   0.0000000   0.0000000   0.1456207), wk =   0.1666667
        k(    3) = (   0.0000000   0.0000000  -0.2912413), wk =   0.0833333
        k(    4) = (   0.0000000   0.3604728   0.0000000), wk =   0.1666667
        k(    5) = (   0.0000000   0.3604728   0.1456207), wk =   0.3333333
        k(    6) = (   0.0000000   0.3604728  -0.2912413), wk =   0.1666667
        k(    7) = (  -0.4682679  -0.2703546   0.0000000), wk =   0.0833333
        k(    8) = (  -0.4682679  -0.2703546   0.1456207), wk =   0.1666667
        k(    9) = (  -0.4682679  -0.2703546  -0.2912413), wk =   0.0833333
        k(   10) = (  -0.4682679   0.0901182   0.0000000), wk =   0.1666667
        k(   11) = (  -0.4682679   0.0901182   0.1456207), wk =   0.3333333
        k(   12) = (  -0.4682679   0.0901182  -0.2912413), wk =   0.1666667
     Check: negative starting charge=   -0.007439

     negative rho (up, down):  0.651E-02 0.000E+00
     extrapolated charge  194.53671, renormalised to  176.00000

     total cpu time spent up to now is      463.1 secs

     Self-consistent Calculation

     iteration #  1     ecut=    40.00 Ry     beta=0.70
     CG style diagonalization
     c_bands:  4 eigenvalues not converged
     c_bands:  1 eigenvalues not converged
     c_bands:  4 eigenvalues not converged
     c_bands:  1 eigenvalues not converged
     c_bands:  3 eigenvalues not converged
     c_bands:  2 eigenvalues not converged
     c_bands:  4 eigenvalues not converged
     c_bands:  2 eigenvalues not converged
     c_bands:  4 eigenvalues not converged
     c_bands:  3 eigenvalues not converged
     c_bands:  3 eigenvalues not converged
     ethr =  1.00E-06,  avg # of iterations = 24.8

     negative rho (up, down):  0.164E-02 0.000E+00

     total cpu time spent up to now is      577.8 secs

     total energy              =   -1487.10957942 Ry
     Harris-Foulkes estimate   =   -1570.25456782 Ry
     estimated scf accuracy    <     108.14869960 Ry

     iteration #  2     ecut=    40.00 Ry     beta=0.70
     CG style diagonalization
     c_bands:  1 eigenvalues not converged
     c_bands:  2 eigenvalues not converged
     c_bands:  1 eigenvalues not converged
     c_bands:  2 eigenvalues not converged
     c_bands:  3 eigenvalues not converged
     c_bands:  5 eigenvalues not converged
     c_bands:  2 eigenvalues not converged
     c_bands:  1 eigenvalues not converged
     ethr =  1.00E-02,  avg # of iterations =  8.7

     negative rho (up, down):  0.120E-02 0.000E+00

     total cpu time spent up to now is      620.1 secs

     total energy              =   -1502.44586254 Ry
     Harris-Foulkes estimate   =   -1647.52488843 Ry
     estimated scf accuracy    <     351.75507814 Ry

     iteration #  3     ecut=    40.00 Ry     beta=0.70
     CG style diagonalization
     c_bands:  1 eigenvalues not converged
     c_bands:  1 eigenvalues not converged
     ethr =  1.00E-02,  avg # of iterations =  7.9

     negative rho (up, down):  0.728E-03 0.000E+00

     total cpu time spent up to now is      657.8 secs

     total energy              =   -1546.05262948 Ry
     Harris-Foulkes estimate   =   -1548.81864925 Ry
     estimated scf accuracy    <       7.08792273 Ry

     iteration #  4     ecut=    40.00 Ry     beta=0.70
     CG style diagonalization
     ethr =  4.03E-03,  avg # of iterations =  4.1

     negative rho (up, down):  0.333E-03 0.000E+00

     total cpu time spent up to now is      675.5 secs

     total energy              =   -1547.66089269 Ry
     Harris-Foulkes estimate   =   -1548.29981987 Ry
     estimated scf accuracy    <       1.69416199 Ry

     iteration #  5     ecut=    40.00 Ry     beta=0.70
     CG style diagonalization
     ethr =  9.63E-04,  avg # of iterations =  3.8

     negative rho (up, down):  0.165E-03 0.000E+00

     total cpu time spent up to now is      692.4 secs

     total energy              =   -1548.00524155 Ry
     Harris-Foulkes estimate   =   -1548.04914452 Ry
     estimated scf accuracy    <       0.09096134 Ry

     iteration #  6     ecut=    40.00 Ry     beta=0.70
     CG style diagonalization
     c_bands:  2 eigenvalues not converged
     c_bands:  1 eigenvalues not converged
     c_bands:  1 eigenvalues not converged
     c_bands:  1 eigenvalues not converged
     c_bands:  2 eigenvalues not converged
     c_bands:  2 eigenvalues not converged
     c_bands:  1 eigenvalues not converged
     c_bands:  1 eigenvalues not converged
     ethr =  5.17E-05,  avg # of iterations =  4.9

     negative rho (up, down):  0.341E-04 0.000E+00

     total cpu time spent up to now is      714.8 secs

     total energy              =   -1548.04797375 Ry
     Harris-Foulkes estimate   =   -1548.05459988 Ry
     estimated scf accuracy    <       0.01426401 Ry

     iteration #  7     ecut=    40.00 Ry     beta=0.70
     CG style diagonalization
     c_bands:  2 eigenvalues not converged
     c_bands:  1 eigenvalues not converged
     c_bands:  1 eigenvalues not converged
     c_bands:  2 eigenvalues not converged
     c_bands:  1 eigenvalues not converged
     ethr =  8.10E-06,  avg # of iterations =  4.4

     total cpu time spent up to now is      733.8 secs

     total energy              =   -1548.05178113 Ry
     Harris-Foulkes estimate   =   -1548.05490868 Ry
     estimated scf accuracy    <       0.00803532 Ry

     iteration #  8     ecut=    40.00 Ry     beta=0.70
     CG style diagonalization
     ethr =  4.57E-06,  avg # of iterations =  3.5

     total cpu time spent up to now is      748.1 secs

     total energy              =   -1548.05339576 Ry
     Harris-Foulkes estimate   =   -1548.05358597 Ry
     estimated scf accuracy    <       0.00041776 Ry

     iteration #  9     ecut=    40.00 Ry     beta=0.70
     CG style diagonalization
     ethr =  2.37E-07,  avg # of iterations =  4.3

     total cpu time spent up to now is      765.8 secs

     End of self-consistent calculation

          k = 0.0000 0.0000 0.0000 (  5769 PWs)   bands (ev):

   -45.4835 -45.4832 -45.4730 -45.4716 -21.3143 -21.1001 -20.3610 -20.1821
   -20.1820 -20.1788 -20.1787 -20.0990 -16.4101 -16.4101 -16.4081 -16.4075
   -16.3868 -16.3868 -16.3319 -16.3151 -16.3150 -16.3144 -16.3144 -16.3119
    -4.0008  -3.3945  -2.5119  -1.7479  -1.7479  -1.5834  -1.5833  -1.3616
    -1.3615  -0.8909  -0.2142  -0.2142  -0.1547  -0.1547   0.1245   1.0049
     1.0076   1.0692   1.0693   1.0875   1.3723   1.3723   1.5028   1.5028
    15.8595  16.7062  16.9274  17.3513  17.4077  17.4077  17.9323  17.9323
    18.0075  18.0432  18.0585  18.0716  18.0716  18.2040  18.3959  18.3960
    18.5071  18.5071  18.5200  18.5201  18.9094  18.9094  19.1040  19.1041
    19.2705  19.5284  19.5284  19.9820  19.9820  20.0198  20.0198  20.3366
    21.0360  21.0708  21.0707  21.7544  22.1753  22.1753  22.4121  22.4121
    22.9238  22.9238  23.5632  24.5921  24.6809  24.6809  24.9499  25.1453
    25.7748  25.8755  26.2140  26.2141  26.2218  26.2219  26.4351  26.4349
    26.7755  26.7758

          k = 0.0000 0.0000 0.1456 (  5780 PWs)   bands (ev):

   -45.4884 -45.4798 -45.4752 -45.4730 -21.2888 -21.1398 -20.3143 -20.1816
   -20.1816 -20.1793 -20.1793 -20.1316 -16.4109 -16.4022 -16.4022 -16.4013
   -16.3966 -16.3966 -16.3393 -16.3169 -16.3169 -16.3165 -16.3165 -16.3146
    -3.9466  -3.5516  -2.2563  -1.7370  -1.7370  -1.6370  -1.6370  -1.2376
    -1.2375  -1.1866  -0.6075  -0.6074   0.2460   0.2461   0.3623   0.9417
     0.9418   0.9965   1.0023   1.0032   1.4122   1.4122   1.4915   1.4915
    15.9370  16.3003  17.4698  17.4797  17.4797  17.5132  17.5552  17.6878
    17.8047  17.8047  18.0284  18.0285  18.2395  18.2396  18.4542  18.6120
    18.6120  18.6803  18.6804  18.7105  19.0553  19.0553  19.0662  19.0662
    19.1889  19.4036  19.4036  19.9187  19.9187  20.0679  20.2155  20.2155
    20.8958  21.2238  21.2409  21.2409  21.6331  21.6331  22.0079  22.0079
    23.7219  23.7219  24.3449  24.6319  24.7866  24.7866  24.8535  25.2328
    25.7442  26.1333  26.1966  26.1969  26.2803  26.2807  26.4844  26.4848
    26.7410  26.7418

          k = 0.0000 0.0000-0.2912 (  5780 PWs)   bands (ev):

   -45.4842 -45.4842 -45.4733 -45.4733 -21.2210 -21.2210 -20.2164 -20.2164
   -20.1804 -20.1804 -20.1804 -20.1804 -16.4093 -16.4093 -16.3981 -16.3981
   -16.3981 -16.3981 -16.3346 -16.3346 -16.3119 -16.3119 -16.3119 -16.3119
    -3.7862  -3.7862  -1.7465  -1.7465  -1.6973  -1.6973  -1.6973  -1.6973
    -0.9648  -0.9648  -0.9647  -0.9647   0.6415   0.6415   0.6415   0.6415
     0.7297   0.7297   1.0072   1.0072   1.4605   1.4605   1.4605   1.4605
    16.0867  16.0867  17.2398  17.2398  17.6389  17.6389  17.6389  17.6389
    18.0396  18.0396  18.0396  18.0397  18.0731  18.0731  18.6320  18.6320
    18.8602  18.8602  18.8602  18.8602  18.9377  18.9377  18.9378  18.9378
    19.4229  19.4229  19.6339  19.6339  19.6339  19.6339  20.7697  20.7697
    20.7697  20.7697  20.8686  20.8686  21.6561  21.6562  21.6562  21.6562
    24.4908  24.4908  24.5169  24.5169  24.5169  24.5169  25.4717  25.4718
    26.2117  26.2119  26.3152  26.3152  26.3154  26.3160  26.6090  26.6091
    26.6092  26.6094

          k = 0.0000 0.3605 0.0000 (  5787 PWs)   bands (ev):

   -45.4841 -45.4813 -45.4780 -45.4766 -21.1447 -20.9359 -20.5418 -20.3762
   -20.3625 -20.1859 -20.1809 -19.9404 -16.4160 -16.4113 -16.4063 -16.3968
   -16.3967 -16.3827 -16.3468 -16.3296 -16.3190 -16.3158 -16.3086 -16.3038
    -3.3344  -2.7860  -2.4222  -1.6655  -1.5287  -1.4595  -1.3538  -1.2355
    -1.0356  -0.6531  -0.5323  -0.4428  -0.2872  -0.2155  -0.1664   0.3368
     0.3453   0.5128   0.8702   1.0097   1.0753   1.2770   1.3358   1.3960
    16.8521  16.9738  17.0806  17.3548  17.6290  17.6410  17.6666  17.8798
    17.9611  18.0489  18.1460  18.1924  18.2208  18.2314  18.5355  18.5745
    18.6319  18.7074  18.7845  18.9571  19.0723  19.1357  19.3099  19.4780
    19.8429  19.9977  20.0667  20.4580  20.6153  20.8047  20.8266  21.0389
    21.2466  21.4789  21.7157  21.9093  21.9388  21.9413  22.1469  22.3614
    22.5210  22.6158  22.8033  23.6057  23.8641  24.1629  24.1648  24.1923
    24.4877  25.0198  25.0881  25.7523  25.8548  25.9720  26.1372  26.3589
    26.4420  26.7802

          k = 0.0000 0.3605 0.1456 (  5804 PWs)   bands (ev):

   -45.4864 -45.4830 -45.4814 -45.4789 -21.1186 -20.9719 -20.5365 -20.4678
   -20.2279 -20.1852 -20.1817 -19.9788 -16.4202 -16.4162 -16.4093 -16.3995
   -16.3966 -16.3871 -16.3460 -16.3394 -16.3160 -16.3158 -16.3140 -16.3052
    -3.2951  -2.9668  -2.1774  -1.7146  -1.5240  -1.3366  -1.3253  -1.2418
    -1.0029  -0.9708  -0.7928  -0.6006  -0.1833  -0.0254   0.0876   0.3356
     0.3936   0.5543   0.7932   0.9492   1.0564   1.2875   1.3209   1.3900
    16.8557  17.0119  17.0967  17.3723  17.4382  17.6885  17.7311  17.8848
    17.9300  18.0284  18.0751  18.1977  18.2764  18.4796  18.5029  18.5542
    18.6978  18.7037  18.8310  18.9354  19.0900  19.1530  19.3449  19.4796
    19.7689  19.8385  20.2937  20.4216  20.4450  20.6566  20.9182  20.9536
    21.2248  21.2576  21.5122  21.7772  21.7956  21.9575  22.0745  22.1571
    22.8533  23.0081  23.2306  23.3072  24.1779  24.2992  24.3582  24.4836
    24.6151  24.9453  24.9593  25.7449  25.7750  25.8633  25.9547  26.0930
    26.4377  26.5354

          k = 0.0000 0.3605-0.2912 (  5816 PWs)   bands (ev):

   -45.4853 -45.4853 -45.4833 -45.4833 -21.0502 -21.0502 -20.5167 -20.5167
   -20.1834 -20.1834 -20.0839 -20.0839 -16.4195 -16.4195 -16.4036 -16.4036
   -16.3972 -16.3972 -16.3455 -16.3455 -16.3151 -16.3151 -16.3136 -16.3136
    -3.1724  -3.1724  -1.8663  -1.8663  -1.3606  -1.3606  -1.2704  -1.2704
    -1.0943  -1.0942  -0.8670  -0.8670  -0.0096  -0.0096   0.2803   0.2803
     0.5951   0.5951   0.7198   0.7198   1.1727   1.1727   1.3676   1.3676
    16.9593  16.9593  17.1488  17.1488  17.6436  17.6436  17.8447  17.8447
    17.8923  17.8923  18.1254  18.1254  18.3793  18.3794  18.6597  18.6597
    18.7047  18.7047  18.9105  18.9105  19.2006  19.2006  19.3531  19.3531
    19.8505  19.8505  20.1291  20.1291  20.6601  20.6601  20.7329  20.7329
    21.2457  21.2457  21.4744  21.4744  21.9195  21.9195  22.0128  22.0128
    23.1148  23.1148  23.6793  23.6793  23.9922  23.9922  24.6370  24.6370
    24.7861  24.7861  25.5540  25.5542  25.7967  25.7969  25.8802  25.8807
    26.2115  26.2130

          k =-0.4683-0.2704 0.0000 (  5800 PWs)   bands (ev):

   -45.4862 -45.4845 -45.4788 -45.4774 -21.0472 -20.8459 -20.6718 -20.4768
   -20.3630 -20.1871 -20.1817 -19.9187 -16.4216 -16.4118 -16.4090 -16.3989
   -16.3916 -16.3654 -16.3652 -16.3433 -16.3165 -16.3128 -16.3122 -16.3058
    -3.0342  -2.5070  -2.3857  -1.6885  -1.5618  -1.3508  -1.1057  -0.9147
    -0.8493  -0.7218  -0.6268  -0.5337  -0.4881  -0.3739  -0.2216  -0.1296
    -0.0224   0.3251   0.7915   0.9395   1.0751   1.2671   1.3848   1.4032
    16.6149  17.2567  17.4229  17.5529  17.6525  17.8213  17.8305  17.8783
    17.9962  18.0756  18.0769  18.0789  18.1472  18.1792  18.3549  18.5199
    18.6019  18.6910  18.9026  19.1819  19.2127  19.2535  19.4784  19.5564
    20.0696  20.1560  20.3226  20.3252  20.7832  20.7996  21.2685  21.2732
    21.4628  21.5452  21.7465  22.1427  22.1895  22.2992  22.4065  22.7189
    22.8836  22.8938  23.1219  23.3616  23.4780  23.7695  23.9225  24.1457
    24.2405  24.5152  24.5200  24.8682  24.9760  25.4372  25.5117  25.7139
    26.2523  26.2847

          k =-0.4683-0.2704 0.1456 (  5822 PWs)   bands (ev):

   -45.4886 -45.4877 -45.4832 -45.4805 -21.0193 -20.8740 -20.6656 -20.5707
   -20.2340 -20.1864 -20.1825 -19.9598 -16.4216 -16.4215 -16.4133 -16.4053
   -16.3890 -16.3812 -16.3619 -16.3485 -16.3189 -16.3163 -16.3148 -16.3051
    -3.0009  -2.7139  -2.1339  -1.7283  -1.4979  -1.2941  -1.0881  -0.9664
    -0.9444  -0.9308  -0.6272  -0.5793  -0.4811  -0.4038  -0.1802  -0.1349
     0.1749   0.4425   0.7089   0.9501   1.0266   1.3106   1.3461   1.3769
    16.6878  17.2718  17.3802  17.5236  17.5573  17.6741  17.7971  17.9351
    18.0084  18.0207  18.0512  18.2643  18.2681  18.3454  18.4031  18.5736
    18.7071  18.8020  18.8284  19.0752  19.0966  19.1796  19.4211  19.6846
    19.7896  20.1869  20.2783  20.3900  20.6245  20.8795  21.0897  21.1484
    21.3281  21.5865  21.8283  21.8414  22.0364  22.5896  22.7458  22.8146
    23.0690  23.1080  23.1415  23.4586  23.4709  23.6769  23.7285  24.2578
    24.4713  24.5832  24.6012  24.9137  24.9431  25.0495  25.5148  25.5864
    25.9885  26.1802

          k =-0.4683-0.2704-0.2912 (  5804 PWs)   bands (ev):

   -45.4838 -45.4838 -45.4811 -45.4811 -20.9478 -20.9478 -20.6400 -20.6400
   -20.1844 -20.1844 -20.0739 -20.0739 -16.4205 -16.4205 -16.4075 -16.4075
   -16.3782 -16.3782 -16.3462 -16.3462 -16.3147 -16.3147 -16.3141 -16.3141
    -2.8958  -2.8958  -1.8713  -1.8713  -1.2786  -1.2786  -1.1383  -1.1383
    -1.0278  -1.0278  -0.6126  -0.6126  -0.4485  -0.4485  -0.1434  -0.1434
     0.4842   0.4842   0.7022   0.7022   1.2049   1.2049   1.3554   1.3554
    16.9197  16.9197  17.4980  17.4980  17.6466  17.6466  17.8404  17.8404
    17.8881  17.8881  18.3141  18.3141  18.3895  18.3895  18.5865  18.5865
    18.7814  18.7814  18.8209  18.8209  19.1508  19.1508  19.5176  19.5177
    19.8967  19.8967  20.3167  20.3167  20.6662  20.6662  20.9672  20.9672
    21.6229  21.6229  21.7538  21.7538  22.2280  22.2280  22.9794  22.9794
    23.0583  23.0583  23.5149  23.5149  23.5573  23.5573  24.0106  24.0106
    24.7436  24.7436  24.7882  24.7882  25.0532  25.0535  25.2734  25.2730
    25.8550  25.8539

          k =-0.4683 0.0901 0.0000 (  5827 PWs)   bands (ev):

   -45.4876 -45.4863 -45.4851 -45.4833 -21.0468 -20.8465 -20.6722 -20.4759
   -20.3630 -20.1863 -20.1830 -19.9185 -16.4246 -16.4190 -16.4130 -16.4078
   -16.3959 -16.3738 -16.3628 -16.3424 -16.3197 -16.3183 -16.3141 -16.3128
    -2.9733  -2.4671  -2.3852  -1.7919  -1.5413  -1.4590  -1.4006  -0.9217
    -0.8204  -0.7806  -0.6146  -0.4230  -0.3256  -0.3048  -0.2827  -0.1091
     0.2752   0.4154   0.8584   0.9426   1.0315   1.1358   1.1616   1.3929
    16.8013  17.2833  17.3886  17.4077  17.4945  17.6357  17.7528  17.7933
    17.8271  18.0897  18.1186  18.2004  18.2203  18.2607  18.2661  18.4551
    18.8119  19.1640  19.2382  19.2739  19.3560  19.4899  19.6268  19.6325
    20.0832  20.1265  20.2996  20.3038  20.4111  20.8197  20.9082  21.0616
    21.5575  21.5587  21.7259  21.8534  21.9718  22.0083  22.2113  22.4685
    22.6053  22.7939  23.2493  23.3255  23.5045  23.6261  23.7181  23.9657
    24.3759  24.5462  24.8899  24.9503  25.0304  25.2924  25.3507  25.8486
    26.3161  26.4881

          k =-0.4683 0.0901 0.1456 (  5825 PWs)   bands (ev):

   -45.4878 -45.4865 -45.4841 -45.4828 -21.0191 -20.8744 -20.6659 -20.5703
   -20.2337 -20.1858 -20.1835 -19.9596 -16.4229 -16.4213 -16.4110 -16.4094
   -16.3925 -16.3784 -16.3553 -16.3477 -16.3203 -16.3157 -16.3148 -16.3114
    -2.9408  -2.6704  -2.1523  -1.8368  -1.4796  -1.3891  -1.3363  -1.0109
    -0.8666  -0.8380  -0.7798  -0.6795  -0.3208  -0.3129  -0.0161   0.0789
     0.3142   0.4574   0.7795   0.8845   1.0415   1.1617   1.1787   1.3489
    16.8617  17.2691  17.4069  17.4216  17.4458  17.6276  17.7074  17.8144
    17.8590  17.9741  18.0743  18.1523  18.2293  18.3531  18.5293  18.7336
    18.7719  18.9153  19.1835  19.2792  19.3782  19.4440  19.5678  19.6337
    19.8977  20.0754  20.2413  20.5080  20.6350  20.7119  20.8985  21.2035
    21.3072  21.3766  21.4651  21.7952  21.8913  22.1060  22.3081  22.4003
    22.7497  22.9364  23.2061  23.4484  23.6204  23.6647  23.9011  24.0637
    24.4446  24.6207  24.8077  25.0147  25.0292  25.1625  25.5080  25.7012
    26.2005  26.3524

          k =-0.4683 0.0901-0.2912 (  5824 PWs)   bands (ev):

   -45.4855 -45.4855 -45.4849 -45.4849 -20.9478 -20.9478 -20.6401 -20.6401
   -20.1847 -20.1847 -20.0736 -20.0736 -16.4230 -16.4229 -16.4107 -16.4107
   -16.3838 -16.3838 -16.3487 -16.3487 -16.3185 -16.3185 -16.3149 -16.3149
    -2.8414  -2.8414  -1.9463  -1.9463  -1.2981  -1.2981  -1.2246  -1.2246
    -1.0146  -1.0146  -0.7776  -0.7776  -0.3131  -0.3131   0.1529   0.1529
     0.4782   0.4782   0.7116   0.7116   1.1359   1.1359   1.2442   1.2442
    17.0517  17.0517  17.3688  17.3688  17.5951  17.5951  17.7918  17.7918
    17.8649  17.8650  18.1761  18.1761  18.3781  18.3781  18.5876  18.5876
    18.8349  18.8350  19.2192  19.2193  19.3894  19.3894  19.5973  19.5973
    20.0617  20.0617  20.2228  20.2228  20.6229  20.6229  21.0732  21.0732
    21.3007  21.3007  21.4787  21.4787  22.1275  22.1275  22.4338  22.4338
    22.6620  22.6620  23.4841  23.4841  23.7400  23.7400  24.2137  24.2137
    24.5186  24.5186  24.8145  24.8145  24.9994  24.9995  25.7917  25.7919
    26.2645  26.2691

     the Fermi energy is    22.7143 ev

!    total energy              =   -1548.05355609 Ry
     Harris-Foulkes estimate   =   -1548.05356538 Ry
     estimated scf accuracy    <       0.00001558 Ry

     The total energy is the sum of the following terms:

     one-electron contribution =     -83.29360431 Ry
     hartree contribution      =     172.12570997 Ry
     xc contribution           =    -174.15385732 Ry
     ewald contribution        =   -1462.12531315 Ry
     smearing contrib. (-TS)   =      -0.60649128 Ry

     convergence has been achieved in   9 iterations

     Forces acting on atoms (Ry/au):

     atom    1 type  1   force =     0.00000000    0.00000000    0.01213894
     atom    2 type  1   force =     0.00000000    0.00000000    0.01213894
     atom    3 type  1   force =     0.00000000    0.00000000   -0.01213894
     atom    4 type  1   force =     0.00000000    0.00000000   -0.01213894
     atom    5 type  2   force =     0.00000000    0.00000000    0.00000000
     atom    6 type  2   force =     0.00000000    0.00000000    0.00000000
     atom    7 type  2   force =     0.00000000   -0.00003265    0.00000000
     atom    8 type  2   force =     0.00002827   -0.00001632    0.00000000
     atom    9 type  2   force =    -0.00002827   -0.00001632    0.00000000
     atom   10 type  2   force =     0.00002827    0.00001632    0.00000000
     atom   11 type  2   force =    -0.00002827    0.00001632    0.00000000
     atom   12 type  2   force =     0.00000000    0.00003265    0.00000000

     Total force =     0.024278     Total SCF correction =     0.014331
     SCF correction compared to forces is large: reduce conv_thr to get better values


     entering subroutine stress ...

          total   stress  (Ry/bohr**3)                   (kbar)     P=   -3.70
   0.00002288   0.00000000   0.00000000          3.37      0.00      0.00
   0.00000000   0.00002288   0.00000000          0.00      3.37      0.00
   0.00000000   0.00000000  -0.00012118          0.00      0.00    -17.83


     number of scf cycles    =   2
     number of bfgs steps    =   1

     enthalpy old            =   -1547.2476545897 Ry
     enthalpy new            =   -1548.0535560862 Ry

     CASE: enthalpy_new < enthalpy_old

     small trust_radius: resetting bfgs history

     new trust radius        =       0.0246606781 bohr
     new conv_thr            =       0.0000121389 Ry

     new unit-cell volume =   1653.37432 a.u.^3 (   245.00479 Ang^3 )

CELL_PARAMETERS (alat=  9.92348860)
   1.068375836   0.000000000   0.000000000
  -0.534187918   0.925240615   0.000000000
   0.000000000   0.000000000   1.711588332

ATOMIC_POSITIONS (crystal)
Mg       0.333333000   0.666667000   0.063656186
Mg       0.666667000   0.333333000   0.563656186
Mg       0.666667000   0.333333000   0.936343814
Mg       0.333333000   0.666667000   0.436343814
Zn       0.000000000   0.000000000   0.000000000
Zn       0.000000000   0.000000000   0.500000000
Zn       0.171524230   0.343048460   0.750000000
Zn       0.828475770   0.171524230   0.250000000
Zn       0.343048460   0.171524230   0.250000000
Zn       0.656951540   0.828475770   0.750000000
Zn       0.171524230   0.828475770   0.750000000
Zn       0.828475770   0.656951540   0.250000000



     Writing output data file Prototype-La-hP12-MgZn2.save
     Check: negative starting charge=   -0.007439
     NEW-OLD atomic charge density approx. for the potential
     NEW k-points:
        k(    1) = (   0.0000000   0.0000000   0.0000000), wk =   0.0833333
        k(    2) = (   0.0000000   0.0000000   0.1460632), wk =   0.1666667
        k(    3) = (   0.0000000   0.0000000  -0.2921263), wk =   0.0833333
        k(    4) = (   0.0000000   0.3602666   0.0000000), wk =   0.1666667
        k(    5) = (   0.0000000   0.3602666   0.1460632), wk =   0.3333333
        k(    6) = (   0.0000000   0.3602666  -0.2921263), wk =   0.1666667
        k(    7) = (  -0.4680001  -0.2702000   0.0000000), wk =   0.0833333
        k(    8) = (  -0.4680001  -0.2702000   0.1460632), wk =   0.1666667
        k(    9) = (  -0.4680001  -0.2702000  -0.2921263), wk =   0.0833333
        k(   10) = (  -0.4680001   0.0900667   0.0000000), wk =   0.1666667
        k(   11) = (  -0.4680001   0.0900667   0.1460632), wk =   0.3333333
        k(   12) = (  -0.4680001   0.0900667  -0.2921263), wk =   0.1666667
     Check: negative starting charge=   -0.007273
     extrapolated charge  175.80337, renormalised to  176.00000

     total cpu time spent up to now is      772.7 secs

     Self-consistent Calculation

     iteration #  1     ecut=    40.00 Ry     beta=0.70
     CG style diagonalization
     c_bands:  1 eigenvalues not converged
     c_bands:  1 eigenvalues not converged
     ethr =  1.00E-06,  avg # of iterations =  6.4

     total cpu time spent up to now is      802.8 secs

     total energy              =   -1547.95907469 Ry
     Harris-Foulkes estimate   =   -1548.23252662 Ry
     estimated scf accuracy    <       0.17631956 Ry

     iteration #  2     ecut=    40.00 Ry     beta=0.70
     CG style diagonalization
     ethr =  1.00E-04,  avg # of iterations =  4.1

     total cpu time spent up to now is      821.7 secs

     total energy              =   -1547.97011190 Ry
     Harris-Foulkes estimate   =   -1548.15115104 Ry
     estimated scf accuracy    <       0.41578809 Ry

     iteration #  3     ecut=    40.00 Ry     beta=0.70
     CG style diagonalization
     ethr =  1.00E-04,  avg # of iterations =  3.5

     total cpu time spent up to now is      837.8 secs

     total energy              =   -1548.04624591 Ry
     Harris-Foulkes estimate   =   -1548.05892340 Ry
     estimated scf accuracy    <       0.03191542 Ry

     iteration #  4     ecut=    40.00 Ry     beta=0.70
     CG style diagonalization
     ethr =  1.81E-05,  avg # of iterations =  3.6

     total cpu time spent up to now is      854.9 secs

     total energy              =   -1548.05395151 Ry
     Harris-Foulkes estimate   =   -1548.05440773 Ry
     estimated scf accuracy    <       0.00084654 Ry

     iteration #  5     ecut=    40.00 Ry     beta=0.70
     CG style diagonalization
     c_bands:  1 eigenvalues not converged
     ethr =  4.81E-07,  avg # of iterations =  4.4

     total cpu time spent up to now is      875.6 secs

     total energy              =   -1548.05435230 Ry
     Harris-Foulkes estimate   =   -1548.05453294 Ry
     estimated scf accuracy    <       0.00041420 Ry

     iteration #  6     ecut=    40.00 Ry     beta=0.70
     CG style diagonalization
     c_bands:  1 eigenvalues not converged
     ethr =  2.35E-07,  avg # of iterations =  3.6

     total cpu time spent up to now is      892.5 secs

     total energy              =   -1548.05442094 Ry
     Harris-Foulkes estimate   =   -1548.05448169 Ry
     estimated scf accuracy    <       0.00016214 Ry

     iteration #  7     ecut=    40.00 Ry     beta=0.70
     CG style diagonalization
     ethr =  9.21E-08,  avg # of iterations =  3.4

     total cpu time spent up to now is      907.6 secs

     End of self-consistent calculation

          k = 0.0000 0.0000 0.0000 (  5769 PWs)   bands (ev):

   -45.4450 -45.4431 -45.4333 -45.4329 -21.2670 -21.0464 -20.3097 -20.1326
   -20.1326 -20.1292 -20.1292 -20.0401 -16.3750 -16.3734 -16.3692 -16.3692
   -16.3447 -16.3447 -16.2939 -16.2750 -16.2750 -16.2744 -16.2744 -16.2733
    -3.9554  -3.3323  -2.4798  -1.7007  -1.7007  -1.5308  -1.5308  -1.3292
    -1.3291  -0.8401  -0.1710  -0.1710  -0.1027  -0.1027   0.1901   1.0481
     1.0507   1.1332   1.1333   1.1494   1.4151   1.4151   1.5506   1.5506
    15.8964  16.7465  16.9834  17.3893  17.4413  17.4413  17.9667  17.9667
    18.0558  18.1004  18.1022  18.1332  18.1332  18.2665  18.4303  18.4304
    18.5298  18.5298  18.5727  18.5727  18.9422  18.9422  19.1484  19.1484
    19.3004  19.5703  19.5703  20.0335  20.0336  20.0679  20.0679  20.3677
    21.0926  21.1065  21.1065  21.8374  22.2123  22.2123  22.4812  22.4812
    22.9638  22.9638  23.6230  24.6974  24.7199  24.7199  24.9864  25.1699
    25.8653  25.9117  26.2564  26.2565  26.2793  26.2793  26.4822  26.4823
    26.8269  26.8270

          k = 0.0000 0.0000 0.1461 (  5780 PWs)   bands (ev):

   -45.4486 -45.4399 -45.4362 -45.4346 -21.2409 -21.0876 -20.2615 -20.1322
   -20.1321 -20.1298 -20.1297 -20.0734 -16.3774 -16.3677 -16.3611 -16.3611
   -16.3544 -16.3543 -16.3008 -16.2772 -16.2772 -16.2765 -16.2764 -16.2763
    -3.9004  -3.4966  -2.2164  -1.6897  -1.6897  -1.5882  -1.5882  -1.2007
    -1.2006  -1.1361  -0.5640  -0.5640   0.2982   0.2982   0.4264   1.0018
     1.0019   1.0455   1.0463   1.0584   1.4579   1.4579   1.5392   1.5392
    15.9747  16.3418  17.5157  17.5157  17.5181  17.5550  17.5934  17.7492
    17.8433  17.8433  18.0811  18.0812  18.2754  18.2755  18.5055  18.6392
    18.6392  18.7258  18.7259  18.7752  19.0993  19.0993  19.1046  19.1046
    19.2306  19.4422  19.4422  19.9651  19.9651  20.1143  20.2664  20.2664
    20.9390  21.2778  21.2803  21.2803  21.6879  21.6879  22.0467  22.0467
    23.7759  23.7759  24.4362  24.7222  24.8352  24.8352  24.8953  25.2587
    25.7781  26.2090  26.2305  26.2305  26.3359  26.3359  26.5336  26.5337
    26.7936  26.7937

          k = 0.0000 0.0000-0.2921 (  5780 PWs)   bands (ev):

   -45.4452 -45.4452 -45.4335 -45.4335 -21.1713 -21.1713 -20.1606 -20.1606
   -20.1310 -20.1310 -20.1309 -20.1309 -16.3758 -16.3758 -16.3569 -16.3569
   -16.3569 -16.3569 -16.2959 -16.2959 -16.2716 -16.2716 -16.2716 -16.2716
    -3.7373  -3.7373  -1.6991  -1.6991  -1.6499  -1.6499  -1.6499  -1.6499
    -0.9246  -0.9246  -0.9245  -0.9245   0.6975   0.6975   0.6975   0.6975
     0.7925   0.7925   1.0503   1.0503   1.5079   1.5079   1.5080   1.5080
    16.1263  16.1263  17.2814  17.2814  17.6797  17.6797  17.6798  17.6798
    18.0786  18.0786  18.0786  18.0787  18.1205  18.1205  18.6963  18.6963
    18.9002  18.9002  18.9002  18.9002  18.9761  18.9761  18.9762  18.9762
    19.4796  19.4796  19.6753  19.6753  19.6754  19.6754  20.8211  20.8211
    20.8211  20.8211  20.9032  20.9032  21.6979  21.6979  21.6979  21.6979
    24.5646  24.5647  24.5741  24.5741  24.5742  24.5742  25.5011  25.5011
    26.2996  26.2996  26.3533  26.3533  26.3533  26.3534  26.6626  26.6626
    26.6627  26.6627

          k = 0.0000 0.3603 0.0000 (  5787 PWs)   bands (ev):

   -45.4453 -45.4417 -45.4389 -45.4372 -21.0982 -20.8828 -20.4916 -20.3258
   -20.3112 -20.1365 -20.1314 -19.8810 -16.3824 -16.3747 -16.3647 -16.3555
   -16.3545 -16.3444 -16.3074 -16.2899 -16.2798 -16.2767 -16.2696 -16.2637
    -3.2916  -2.7279  -2.3908  -1.6191  -1.4949  -1.4077  -1.3214  -1.1908
    -0.9848  -0.6053  -0.4840  -0.3962  -0.2391  -0.1723  -0.1151   0.3908
     0.3914   0.5627   0.9345   1.0762   1.1393   1.3199   1.3975   1.4446
    16.8932  17.0081  17.1119  17.3830  17.6589  17.6881  17.7055  17.9193
    18.0130  18.0882  18.1850  18.2181  18.2540  18.2827  18.5965  18.6084
    18.6565  18.7532  18.8262  18.9977  19.1164  19.1791  19.3580  19.5321
    19.8806  20.0450  20.1168  20.4965  20.6511  20.8679  20.8773  21.0748
    21.2913  21.5165  21.7812  21.9470  21.9777  21.9865  22.2125  22.4309
    22.5728  22.6448  22.8640  23.6647  23.9164  24.2187  24.2276  24.2368
    24.5461  25.1069  25.1373  25.8007  25.9072  26.0439  26.1879  26.3960
    26.5044  26.8388

          k = 0.0000 0.3603 0.1461 (  5804 PWs)   bands (ev):

   -45.4473 -45.4442 -45.4418 -45.4393 -21.0715 -20.9202 -20.4864 -20.4181
   -20.1744 -20.1358 -20.1321 -19.9202 -16.3855 -16.3815 -16.3679 -16.3574
   -16.3556 -16.3477 -16.3063 -16.2998 -16.2772 -16.2763 -16.2748 -16.2650
    -3.2519  -2.9178  -2.1370  -1.6708  -1.4800  -1.2912  -1.2909  -1.1982
    -0.9535  -0.9214  -0.7481  -0.5559  -0.1361   0.0236   0.1342   0.3812
     0.4511   0.6057   0.8567   1.0084   1.1224   1.3500   1.3679   1.4385
    16.8941  17.0467  17.1273  17.4090  17.4731  17.7258  17.7700  17.9213
    17.9648  18.0737  18.1174  18.2387  18.3206  18.5221  18.5442  18.5947
    18.7318  18.7496  18.8747  18.9745  19.1323  19.1970  19.3896  19.5273
    19.8145  19.8793  20.3511  20.4741  20.4851  20.7060  20.9657  20.9907
    21.2639  21.3064  21.5699  21.8324  21.8433  22.0027  22.1197  22.2079
    22.9034  23.0601  23.2890  23.3453  24.2490  24.3468  24.4090  24.5330
    24.6870  25.0122  25.0173  25.7978  25.8218  25.9401  25.9995  26.1493
    26.4799  26.5888

          k = 0.0000 0.3603-0.2921 (  5816 PWs)   bands (ev):

   -45.4461 -45.4461 -45.4439 -45.4439 -21.0011 -21.0011 -20.4669 -20.4669
   -20.1340 -20.1340 -20.0275 -20.0275 -16.3845 -16.3845 -16.3619 -16.3619
   -16.3575 -16.3575 -16.3055 -16.3054 -16.2762 -16.2762 -16.2736 -16.2736
    -3.1274  -3.1274  -1.8233  -1.8233  -1.3118  -1.3118  -1.2307  -1.2307
    -1.0510  -1.0510  -0.8211  -0.8210   0.0375   0.0375   0.3262   0.3262
     0.6565   0.6565   0.7751   0.7751   1.2370   1.2370   1.4160   1.4160
    16.9946  16.9946  17.1831  17.1831  17.6811  17.6812  17.8814  17.8814
    17.9295  17.9295  18.1723  18.1723  18.4202  18.4202  18.7056  18.7056
    18.7421  18.7421  18.9482  18.9482  19.2475  19.2475  19.3924  19.3924
    19.9003  19.9003  20.1841  20.1841  20.7105  20.7105  20.7724  20.7724
    21.2991  21.2991  21.5141  21.5141  21.9637  21.9637  22.0661  22.0661
    23.1652  23.1652  23.7417  23.7417  24.0318  24.0318  24.6926  24.6926
    24.8426  24.8426  25.6198  25.6198  25.8734  25.8735  25.9253  25.9254
    26.2555  26.2556

          k =-0.4680-0.2702 0.0000 (  5800 PWs)   bands (ev):

   -45.4467 -45.4454 -45.4393 -45.4384 -21.0016 -20.7931 -20.6211 -20.4261
   -20.3117 -20.1377 -20.1321 -19.8587 -16.3866 -16.3774 -16.3675 -16.3567
   -16.3504 -16.3258 -16.3248 -16.3039 -16.2781 -16.2740 -16.2721 -16.2665
    -2.9925  -2.4494  -2.3546  -1.6482  -1.5282  -1.3185  -1.0533  -0.8651
    -0.8086  -0.6746  -0.5771  -0.4858  -0.4387  -0.3263  -0.1783  -0.0827
     0.0362   0.3796   0.8563   1.0112   1.1391   1.3100   1.4332   1.4650
    16.6546  17.2876  17.4504  17.5867  17.6826  17.8504  17.8710  17.9202
    18.0405  18.1074  18.1085  18.1113  18.1970  18.2248  18.3849  18.5678
    18.6657  18.7223  18.9395  19.2256  19.2613  19.3022  19.5273  19.6020
    20.1175  20.1895  20.3646  20.3809  20.8181  20.8425  21.3117  21.3273
    21.5021  21.5946  21.8147  22.1954  22.2782  22.3256  22.4469  22.7449
    22.9155  22.9647  23.1630  23.4451  23.5234  23.8161  23.9654  24.2088
    24.2860  24.5855  24.5888  24.9173  25.0297  25.5068  25.5742  25.7561
    26.2992  26.3521

          k =-0.4680-0.2702 0.1461 (  5822 PWs)   bands (ev):

   -45.4494 -45.4484 -45.4439 -45.4411 -20.9730 -20.8224 -20.6151 -20.5214
   -20.1799 -20.1370 -20.1330 -19.9006 -16.3871 -16.3865 -16.3718 -16.3633
   -16.3483 -16.3411 -16.3220 -16.3088 -16.2803 -16.2776 -16.2754 -16.2649
    -2.9590  -2.6686  -2.0914  -1.6879  -1.4623  -1.2610  -1.0360  -0.9164
    -0.9063  -0.8849  -0.5775  -0.5304  -0.4317  -0.3553  -0.1351  -0.0880
     0.2343   0.4972   0.7729   1.0094   1.0960   1.3576   1.4089   1.4253
    16.7266  17.3062  17.4175  17.5504  17.5885  17.6989  17.8355  17.9681
    18.0376  18.0625  18.0969  18.3022  18.3142  18.3868  18.4485  18.6357
    18.7376  18.8388  18.8748  19.1172  19.1395  19.2257  19.4626  19.7298
    19.8326  20.2392  20.3179  20.4369  20.6716  20.9231  21.1543  21.1895
    21.3915  21.6206  21.8685  21.8939  22.0926  22.6587  22.7730  22.8719
    23.1056  23.1621  23.1846  23.5155  23.5254  23.7242  23.7708  24.3080
    24.5283  24.6527  24.6641  24.9628  25.0047  25.1085  25.5770  25.6374
    26.0311  26.2150

          k =-0.4680-0.2702-0.2921 (  5804 PWs)   bands (ev):

   -45.4445 -45.4445 -45.4419 -45.4419 -20.8991 -20.8991 -20.5902 -20.5902
   -20.1349 -20.1349 -20.0169 -20.0169 -16.3862 -16.3862 -16.3657 -16.3657
   -16.3380 -16.3380 -16.3065 -16.3065 -16.2749 -16.2749 -16.2749 -16.2749
    -2.8528  -2.8528  -1.8297  -1.8297  -1.2373  -1.2373  -1.1033  -1.1033
    -0.9769  -0.9769  -0.5632  -0.5632  -0.3992  -0.3992  -0.0970  -0.0970
     0.5460   0.5460   0.7585   0.7585   1.2704   1.2704   1.4037   1.4037
    16.9573  16.9573  17.5273  17.5273  17.6773  17.6773  17.8762  17.8762
    17.9244  17.9244  18.3634  18.3634  18.4335  18.4335  18.6268  18.6268
    18.8282  18.8282  18.8552  18.8553  19.1960  19.1960  19.5536  19.5536
    19.9471  19.9471  20.3704  20.3704  20.7153  20.7153  21.0115  21.0115
    21.6871  21.6871  21.7837  21.7837  22.2981  22.2981  23.0111  23.0111
    23.1005  23.1005  23.5603  23.5603  23.6085  23.6085  24.0650  24.0650
    24.8048  24.8048  24.8519  24.8519  25.0997  25.0998  25.3379  25.3379
    25.9000  25.9001

          k =-0.4680 0.0901 0.0000 (  5827 PWs)   bands (ev):

   -45.4479 -45.4474 -45.4453 -45.4446 -21.0013 -20.7937 -20.6216 -20.4252
   -20.3117 -20.1369 -20.1335 -19.8586 -16.3897 -16.3838 -16.3720 -16.3659
   -16.3546 -16.3345 -16.3226 -16.3030 -16.2805 -16.2788 -16.2750 -16.2735
    -2.9325  -2.4113  -2.3541  -1.7460  -1.5075  -1.4083  -1.3676  -0.8757
    -0.7721  -0.7317  -0.5683  -0.3755  -0.2770  -0.2567  -0.2385  -0.0551
     0.3238   0.4656   0.9227   1.0044   1.0954   1.1896   1.2124   1.4548
    16.8408  17.3182  17.4298  17.4351  17.5293  17.6663  17.7967  17.8317
    17.8586  18.1314  18.1446  18.2414  18.2498  18.3055  18.3081  18.5072
    18.8491  19.2095  19.2676  19.3239  19.3955  19.5347  19.6753  19.6785
    20.1241  20.1711  20.3460  20.3591  20.4494  20.8608  20.9567  21.1018
    21.5988  21.6132  21.7711  21.9111  22.0111  22.0720  22.2502  22.5290
    22.6739  22.8481  23.2972  23.3741  23.5653  23.6757  23.7685  24.0381
    24.4270  24.6025  24.9533  25.0024  25.0795  25.3506  25.4030  25.9111
    26.4016  26.5448

          k =-0.4680 0.0901 0.1461 (  5825 PWs)   bands (ev):

   -45.4485 -45.4473 -45.4447 -45.4436 -20.9727 -20.8228 -20.6155 -20.5210
   -20.1797 -20.1364 -20.1340 -19.9004 -16.3879 -16.3871 -16.3694 -16.3676
   -16.3518 -16.3387 -16.3154 -16.3078 -16.2814 -16.2761 -16.2755 -16.2716
    -2.8998  -2.6267  -2.1096  -1.7926  -1.4392  -1.3453  -1.3000  -0.9640
    -0.8218  -0.7924  -0.7298  -0.6319  -0.2736  -0.2648   0.0314   0.1309
     0.3645   0.5084   0.8426   0.9418   1.1064   1.2134   1.2346   1.4113
    16.9002  17.3055  17.4390  17.4558  17.4808  17.6666  17.7399  17.8534
    17.8950  18.0061  18.1147  18.1929  18.2604  18.3971  18.5792  18.7742
    18.8164  18.9538  19.2239  19.3149  19.4203  19.4875  19.6142  19.6765
    19.9400  20.1189  20.2892  20.5580  20.6817  20.7539  20.9471  21.2570
    21.3628  21.4194  21.5105  21.8531  21.9468  22.1515  22.3550  22.4507
    22.7964  22.9943  23.2606  23.4919  23.6720  23.7258  23.9569  24.1243
    24.4957  24.6735  24.8656  25.0713  25.0823  25.2181  25.5708  25.7584
    26.2755  26.4129

          k =-0.4680 0.0901-0.2921 (  5824 PWs)   bands (ev):

   -45.4464 -45.4464 -45.4455 -45.4455 -20.8991 -20.8991 -20.5904 -20.5904
   -20.1352 -20.1352 -20.0166 -20.0166 -16.3882 -16.3882 -16.3691 -16.3691
   -16.3437 -16.3437 -16.3087 -16.3087 -16.2795 -16.2795 -16.2752 -16.2752
    -2.7995  -2.7995  -1.9031  -1.9031  -1.2581  -1.2581  -1.1780  -1.1780
    -0.9732  -0.9731  -0.7275  -0.7275  -0.2651  -0.2651   0.2002   0.2002
     0.5332   0.5332   0.7699   0.7699   1.1917   1.1917   1.3058   1.3058
    17.0889  17.0889  17.4004  17.4004  17.6351  17.6351  17.8258  17.8258
    17.9014  17.9014  18.2102  18.2102  18.4267  18.4267  18.6248  18.6248
    18.8790  18.8790  19.2612  19.2612  19.4279  19.4279  19.6382  19.6382
    20.1059  20.1059  20.2724  20.2724  20.6700  20.6700  21.1237  21.1237
    21.3584  21.3584  21.5252  21.5252  22.1795  22.1795  22.4794  22.4794
    22.7130  22.7130  23.5380  23.5380  23.7890  23.7890  24.2623  24.2623
    24.5761  24.5761  24.8707  24.8707  25.0552  25.0552  25.8550  25.8550
    26.3416  26.3430

     the Fermi energy is    22.7651 ev

!    total energy              =   -1548.05444571 Ry
     Harris-Foulkes estimate   =   -1548.05444879 Ry
     estimated scf accuracy    <       0.00000360 Ry

     The total energy is the sum of the following terms:

     one-electron contribution =     -82.04382466 Ry
     hartree contribution      =     171.82613415 Ry
     xc contribution           =    -174.18813579 Ry
     ewald contribution        =   -1463.04364191 Ry
     smearing contrib. (-TS)   =      -0.60497750 Ry

     convergence has been achieved in   7 iterations

     Forces acting on atoms (Ry/au):

     atom    1 type  1   force =     0.00000000    0.00000000    0.01579392
     atom    2 type  1   force =     0.00000000    0.00000000    0.01579392
     atom    3 type  1   force =     0.00000000    0.00000000   -0.01579392
     atom    4 type  1   force =     0.00000000    0.00000000   -0.01579392
     atom    5 type  2   force =     0.00000000    0.00000000    0.00000000
     atom    6 type  2   force =     0.00000000    0.00000000    0.00000000
     atom    7 type  2   force =     0.00000000    0.00185590    0.00000000
     atom    8 type  2   force =    -0.00160726    0.00092795    0.00000000
     atom    9 type  2   force =     0.00160726    0.00092795    0.00000000
     atom   10 type  2   force =    -0.00160726   -0.00092795    0.00000000
     atom   11 type  2   force =     0.00160726   -0.00092795    0.00000000
     atom   12 type  2   force =     0.00000000   -0.00185590    0.00000000

     Total force =     0.031913     Total SCF correction =     0.001599


     entering subroutine stress ...

          total   stress  (Ry/bohr**3)                   (kbar)     P=    4.65
   0.00005745   0.00000000   0.00000000          8.45      0.00      0.00
   0.00000000   0.00005745   0.00000000          0.00      8.45      0.00
   0.00000000   0.00000000  -0.00001999          0.00      0.00     -2.94


     number of scf cycles    =   3
     number of bfgs steps    =   2

     enthalpy old            =   -1548.0535560862 Ry
     enthalpy new            =   -1548.0544457135 Ry

     CASE: enthalpy_new < enthalpy_old

     Message from routine bfgs:
     history already reset at previous step: stopping
     small trust_radius: resetting bfgs history

     new trust radius        =       0.0157939229 bohr
     new conv_thr            =       0.0000088963 Ry

     new unit-cell volume =   1657.29843 a.u.^3 (   245.58629 Ang^3 )

CELL_PARAMETERS (alat=  9.92348860)
   1.069910270   0.000000000   0.000000000
  -0.534955135   0.926569474   0.000000000
   0.000000000   0.000000000   1.710733068

ATOMIC_POSITIONS (crystal)
Mg       0.333333000   0.666667000   0.064586064
Mg       0.666667000   0.333333000   0.564586064
Mg       0.666667000   0.333333000   0.935413936
Mg       0.333333000   0.666667000   0.435413936
Zn       0.000000000   0.000000000   0.000000000
Zn       0.000000000   0.000000000   0.500000000
Zn       0.171625296   0.343250593   0.750000000
Zn       0.828374704   0.171625296   0.250000000
Zn       0.343250593   0.171625296   0.250000000
Zn       0.656749407   0.828374704   0.750000000
Zn       0.171625296   0.828374704   0.750000000
Zn       0.828374704   0.656749407   0.250000000



     Writing output data file Prototype-La-hP12-MgZn2.save
     Check: negative starting charge=   -0.007273
     NEW-OLD atomic charge density approx. for the potential
     NEW k-points:
        k(    1) = (   0.0000000   0.0000000   0.0000000), wk =   0.0833333
        k(    2) = (   0.0000000   0.0000000   0.1461362), wk =   0.1666667
        k(    3) = (   0.0000000   0.0000000  -0.2922724), wk =   0.0833333
        k(    4) = (   0.0000000   0.3597500   0.0000000), wk =   0.1666667
        k(    5) = (   0.0000000   0.3597500   0.1461362), wk =   0.3333333
        k(    6) = (   0.0000000   0.3597500  -0.2922724), wk =   0.1666667
        k(    7) = (  -0.4673289  -0.2698125   0.0000000), wk =   0.0833333
        k(    8) = (  -0.4673289  -0.2698125   0.1461362), wk =   0.1666667
        k(    9) = (  -0.4673289  -0.2698125  -0.2922724), wk =   0.0833333
        k(   10) = (  -0.4673289   0.0899375   0.0000000), wk =   0.1666667
        k(   11) = (  -0.4673289   0.0899375   0.1461362), wk =   0.3333333
        k(   12) = (  -0.4673289   0.0899375  -0.2922724), wk =   0.1666667
     Check: negative starting charge=   -0.007187

     negative rho (up, down):  0.844E-04 0.000E+00
     extrapolated charge  176.24607, renormalised to  176.00000

     total cpu time spent up to now is      916.4 secs

     Self-consistent Calculation

     iteration #  1     ecut=    40.00 Ry     beta=0.70
     CG style diagonalization
     c_bands:  1 eigenvalues not converged
     c_bands:  1 eigenvalues not converged
     c_bands:  1 eigenvalues not converged
     c_bands:  1 eigenvalues not converged
     ethr =  1.00E-06,  avg # of iterations =  7.2

     negative rho (up, down):  0.106E-05 0.000E+00

     total cpu time spent up to now is      952.2 secs

     total energy              =   -1547.89987915 Ry
     Harris-Foulkes estimate   =   -1547.97253899 Ry
     estimated scf accuracy    <       0.28711164 Ry

     iteration #  2     ecut=    40.00 Ry     beta=0.70
     CG style diagonalization
     ethr =  1.63E-04,  avg # of iterations =  4.1

     total cpu time spent up to now is      971.0 secs

     total energy              =   -1547.89513733 Ry
     Harris-Foulkes estimate   =   -1548.21383597 Ry
     estimated scf accuracy    <       0.75152999 Ry

     iteration #  3     ecut=    40.00 Ry     beta=0.70
     CG style diagonalization
     ethr =  1.63E-04,  avg # of iterations =  3.6

     total cpu time spent up to now is      987.6 secs

     total energy              =   -1548.03910375 Ry
     Harris-Foulkes estimate   =   -1548.07143933 Ry
     estimated scf accuracy    <       0.09043900 Ry

     iteration #  4     ecut=    40.00 Ry     beta=0.70
     CG style diagonalization
     ethr =  5.14E-05,  avg # of iterations =  3.4

     total cpu time spent up to now is     1003.1 secs

     total energy              =   -1548.05378222 Ry
     Harris-Foulkes estimate   =   -1548.05451541 Ry
     estimated scf accuracy    <       0.00164062 Ry

     iteration #  5     ecut=    40.00 Ry     beta=0.70
     CG style diagonalization
     ethr =  9.32E-07,  avg # of iterations =  4.5

     total cpu time spent up to now is     1024.5 secs

     total energy              =   -1548.05500676 Ry
     Harris-Foulkes estimate   =   -1548.05518057 Ry
     estimated scf accuracy    <       0.00041270 Ry

     iteration #  6     ecut=    40.00 Ry     beta=0.70
     CG style diagonalization
     ethr =  2.34E-07,  avg # of iterations =  3.6

     total cpu time spent up to now is     1040.6 secs

     total energy              =   -1548.05506211 Ry
     Harris-Foulkes estimate   =   -1548.05511201 Ry
     estimated scf accuracy    <       0.00014567 Ry

     iteration #  7     ecut=    40.00 Ry     beta=0.70
     CG style diagonalization
     ethr =  8.28E-08,  avg # of iterations =  3.3

     total cpu time spent up to now is     1055.1 secs

     total energy              =   -1548.05507593 Ry
     Harris-Foulkes estimate   =   -1548.05508705 Ry
     estimated scf accuracy    <       0.00002321 Ry

     iteration #  8     ecut=    40.00 Ry     beta=0.70
     CG style diagonalization
     ethr =  1.32E-08,  avg # of iterations =  3.9

     total cpu time spent up to now is     1072.8 secs

     End of self-consistent calculation

          k = 0.0000 0.0000 0.0000 (  5769 PWs)   bands (ev):

   -45.4990 -45.4952 -45.4862 -45.4858 -21.3214 -21.1019 -20.3668 -20.1992
   -20.1992 -20.1958 -20.1958 -20.0988 -16.4304 -16.4280 -16.4205 -16.4205
   -16.3947 -16.3946 -16.3458 -16.3290 -16.3290 -16.3270 -16.3270 -16.3241
    -3.9916  -3.3662  -2.5257  -1.7513  -1.7513  -1.5809  -1.5809  -1.3859
    -1.3858  -0.8955  -0.2341  -0.2340  -0.1593  -0.1592   0.1383   0.9744
     0.9770   1.0703   1.0703   1.0852   1.3387   1.3387   1.4761   1.4761
    15.8534  16.7020  16.9532  17.3263  17.3868  17.3868  17.9109  17.9110
    18.0092  18.0414  18.0709  18.1088  18.1088  18.2328  18.3826  18.3827
    18.4650  18.4650  18.5302  18.5303  18.8767  18.8768  19.0972  19.0972
    19.2232  19.5152  19.5152  19.9912  19.9912  20.0158  20.0158  20.2946
    21.0251  21.0408  21.0409  21.7884  22.1471  22.1471  22.4362  22.4362
    22.8816  22.8816  23.5578  24.6336  24.6336  24.6581  24.9063  25.0928
    25.8306  25.8323  26.1765  26.1766  26.2142  26.2142  26.4124  26.4125
    26.7557  26.7558

          k = 0.0000 0.0000 0.1461 (  5780 PWs)   bands (ev):

   -45.5012 -45.4922 -45.4897 -45.4882 -21.2955 -21.1429 -20.3188 -20.1987
   -20.1987 -20.1963 -20.1963 -20.1319 -16.4324 -16.4231 -16.4121 -16.4121
   -16.4041 -16.4041 -16.3519 -16.3315 -16.3315 -16.3294 -16.3294 -16.3275
    -3.9365  -3.5317  -2.2620  -1.7404  -1.7404  -1.6392  -1.6392  -1.2568
    -1.2567  -1.1879  -0.6224  -0.6223   0.2367   0.2368   0.3707   0.9380
     0.9380   0.9718   0.9726   0.9953   1.3829   1.3829   1.4648   1.4648
    15.9323  16.3023  17.4629  17.4629  17.4751  17.5087  17.5303  17.7154
    17.7936  17.7936  18.0484  18.0484  18.2242  18.2243  18.4494  18.5781
    18.5781  18.6778  18.6779  18.7376  19.0473  19.0473  19.0483  19.0483
    19.1691  19.3844  19.3844  19.9115  19.9115  20.0539  20.2211  20.2211
    20.8649  21.2138  21.2169  21.2169  21.6326  21.6326  21.9820  21.9820
    23.7056  23.7056  24.3940  24.6707  24.7581  24.7581  24.8201  25.1814
    25.6994  26.1502  26.1502  26.1570  26.2600  26.2600  26.4646  26.4646
    26.7238  26.7238

          k = 0.0000 0.0000-0.2923 (  5780 PWs)   bands (ev):

   -45.4985 -45.4985 -45.4861 -45.4861 -21.2262 -21.2262 -20.2186 -20.2185
   -20.1975 -20.1975 -20.1975 -20.1975 -16.4310 -16.4309 -16.4078 -16.4078
   -16.4077 -16.4077 -16.3471 -16.3471 -16.3247 -16.3247 -16.3247 -16.3247
    -3.7731  -3.7731  -1.7467  -1.7467  -1.7008  -1.7008  -1.7008  -1.7008
    -0.9814  -0.9814  -0.9814  -0.9814   0.6342   0.6342   0.6343   0.6343
     0.7322   0.7322   0.9766   0.9766   1.4335   1.4335   1.4336   1.4336
    16.0857  16.0857  17.2369  17.2369  17.6316  17.6316  17.6316  17.6316
    18.0324  18.0324  18.0325  18.0325  18.0579  18.0579  18.6574  18.6574
    18.8450  18.8450  18.8450  18.8450  18.9240  18.9240  18.9241  18.9241
    19.4332  19.4333  19.6181  19.6181  19.6181  19.6181  20.7710  20.7710
    20.7710  20.7710  20.8261  20.8261  21.6346  21.6346  21.6346  21.6346
    24.5056  24.5056  24.5056  24.5056  24.5107  24.5107  25.4232  25.4232
    26.2526  26.2527  26.2692  26.2692  26.2692  26.2693  26.5948  26.5948
    26.5948  26.5948

          k = 0.0000 0.3597 0.0000 (  5787 PWs)   bands (ev):

   -45.4988 -45.4945 -45.4920 -45.4900 -21.1540 -20.9409 -20.5539 -20.3890
   -20.3682 -20.2030 -20.1979 -19.9418 -16.4376 -16.4285 -16.4153 -16.4065
   -16.4040 -16.3969 -16.3594 -16.3430 -16.3342 -16.3285 -16.3212 -16.3171
    -3.3330  -2.7692  -2.4369  -1.6709  -1.5506  -1.4599  -1.3782  -1.2464
    -1.0409  -0.6637  -0.5445  -0.4560  -0.2989  -0.2351  -0.1723   0.3255
     0.3318   0.4989   0.8733   1.0204   1.0763   1.2443   1.3314   1.3715
    16.8539  16.9594  17.0566  17.3242  17.6022  17.6516  17.6573  17.8752
    17.9739  18.0379  18.1365  18.1517  18.1982  18.2444  18.5464  18.5695
    18.5902  18.7071  18.7695  18.9429  19.0608  19.1253  19.3092  19.4904
    19.8125  19.9892  20.0702  20.4389  20.5860  20.8199  20.8217  21.0038
    21.2233  21.4489  21.7227  21.8766  21.9121  21.9247  22.1631  22.3791
    22.5118  22.5618  22.8078  23.5983  23.8528  24.1578  24.1583  24.1595
    24.4827  25.0629  25.0734  25.7311  25.8329  25.9788  26.1137  26.3170
    26.4325  26.7595

          k = 0.0000 0.3597 0.1461 (  5804 PWs)   bands (ev):

   -45.5007 -45.4976 -45.4946 -45.4918 -21.1275 -20.9777 -20.5486 -20.4793
   -20.2342 -20.2022 -20.1987 -19.9808 -16.4402 -16.4356 -16.4186 -16.4074
   -16.4066 -16.3999 -16.3579 -16.3527 -16.3303 -16.3292 -16.3272 -16.3182
    -3.2933  -2.9594  -2.1842  -1.7231  -1.5328  -1.3477  -1.3456  -1.2539
    -1.0099  -0.9757  -0.8065  -0.6152  -0.1983  -0.0370   0.0705   0.3159
     0.3920   0.5420   0.7959   0.9438   1.0650   1.2852   1.2943   1.3655
    16.8509  16.9980  17.0720  17.3622  17.4237  17.6758  17.7220  17.8729
    17.9119  18.0303  18.0731  18.1849  18.2737  18.4674  18.4953  18.5405
    18.6786  18.7023  18.8202  18.9189  19.0787  19.1466  19.3339  19.4788
    19.7590  19.8175  20.2995  20.4210  20.4275  20.6484  20.9046  20.9254
    21.1980  21.2498  21.5175  21.7649  21.7917  21.9409  22.0559  22.1424
    22.8367  22.9938  23.2263  23.2691  24.1926  24.2734  24.3411  24.4622
    24.6332  24.9459  24.9543  25.7234  25.7533  25.8791  25.9233  26.0773
    26.3987  26.5018

[...]

     iteration # 10     ecut=    40.00 Ry     beta=0.70
     CG style diagonalization
     ethr =  1.28E-03,  avg # of iterations =  3.5

     total cpu time spent up to now is     1743.4 secs

     total energy              =   -1548.62664124 Ry
     Harris-Foulkes estimate   =   -1548.65505596 Ry
     estimated scf accuracy    <       0.09328906 Ry

     iteration # 11     ecut=    40.00 Ry     beta=0.70
     CG style diagonalization
     c_bands:  1 eigenvalues not converged
     c_bands:  1 eigenvalues not converged
     c_bands:  2 eigenvalues not converged
     c_bands:  4 eigenvalues not converged
     c_bands:  3 eigenvalues not converged
     c_bands:  4 eigenvalues not converged
     c_bands:  1 eigenvalues not converged
     c_bands:  2 eigenvalues not converged
     c_bands:  1 eigenvalues not converged
     c_bands:  1 eigenvalues not converged
     c_bands:  3 eigenvalues not converged
     ethr =  5.30E-05,  avg # of iterations =  5.1

     total cpu time spent up to now is     1766.6 secs

     total energy              =   -1548.65973089 Ry
     Harris-Foulkes estimate   =   -1548.66175467 Ry
     estimated scf accuracy    <       0.00764495 Ry

     iteration # 12     ecut=    40.00 Ry     beta=0.70
     CG style diagonalization
     c_bands:  2 eigenvalues not converged
     c_bands:  1 eigenvalues not converged
     c_bands:  5 eigenvalues not converged
     c_bands:  2 eigenvalues not converged
     c_bands:  1 eigenvalues not converged
     c_bands:  2 eigenvalues not converged
     c_bands:  1 eigenvalues not converged
     c_bands:  1 eigenvalues not converged
     ethr =  4.34E-06,  avg # of iterations =  4.7

     total cpu time spent up to now is     1787.4 secs

     total energy              =   -1548.66121397 Ry
     Harris-Foulkes estimate   =   -1548.66264138 Ry
     estimated scf accuracy    <       0.00494739 Ry

     iteration # 13     ecut=    40.00 Ry     beta=0.70
     CG style diagonalization
     c_bands:  1 eigenvalues not converged
     c_bands:  1 eigenvalues not converged
     ethr =  2.81E-06,  avg # of iterations =  3.2

     total cpu time spent up to now is     1800.6 secs

     total energy              =   -1548.66156551 Ry
     Harris-Foulkes estimate   =   -1548.66172341 Ry
     estimated scf accuracy    <       0.00051562 Ry

     iteration # 14     ecut=    40.00 Ry     beta=0.70
     CG style diagonalization
     ethr =  2.93E-07,  avg # of iterations =  4.2

     total cpu time spent up to now is     1818.5 secs

     total energy              =   -1548.66175631 Ry
     Harris-Foulkes estimate   =   -1548.66176534 Ry
     estimated scf accuracy    <       0.00003015 Ry

     iteration # 15     ecut=    40.00 Ry     beta=0.70
     CG style diagonalization
     ethr =  1.71E-08,  avg # of iterations =  4.7

     total cpu time spent up to now is     1838.8 secs

     total energy              =   -1548.66175514 Ry
     Harris-Foulkes estimate   =   -1548.66178013 Ry
     estimated scf accuracy    <       0.00007476 Ry

     iteration # 16     ecut=    40.00 Ry     beta=0.70
     CG style diagonalization
     ethr =  1.71E-08,  avg # of iterations =  3.5

     total cpu time spent up to now is     1853.9 secs

     End of self-consistent calculation

          k = 0.0000 0.0000 0.0000 (  7091 PWs)   bands (ev):

   -45.5577 -45.5514 -45.5426 -45.5404 -21.2863 -21.0662 -20.3328 -20.1602
   -20.1601 -20.1573 -20.1572 -20.0638 -16.5427 -16.5195 -16.5165 -16.5165
   -16.5116 -16.5115 -16.4699 -16.4699 -16.4590 -16.4586 -16.4586 -16.4563
    -4.0000  -3.3815  -2.5536  -1.7750  -1.7749  -1.6040  -1.6040  -1.4101
    -1.4100  -0.9224  -0.2570  -0.2569  -0.1981  -0.1981   0.1126   0.9337
     0.9360   1.0250   1.0250   1.0469   1.3027   1.3027   1.4298   1.4299
    15.8413  16.6937  16.9473  17.3217  17.3823  17.3823  17.9065  17.9065
    18.0014  18.0363  18.0551  18.1035  18.1036  18.2246  18.3733  18.3734
    18.4593  18.4594  18.5251  18.5251  18.8707  18.8707  19.0915  19.0916
    19.2144  19.5093  19.5093  19.9875  19.9875  20.0094  20.0095  20.2876
    21.0163  21.0321  21.0321  21.7778  22.1372  22.1372  22.4208  22.4208
    22.8775  22.8775  23.5427  24.6154  24.6154  24.6447  24.8788  25.0688
    25.7498  25.8248  26.1465  26.1466  26.1981  26.1982  26.4019  26.4019
    26.7512  26.7513

          k = 0.0000 0.0000 0.1461 (  7096 PWs)   bands (ev):

   -45.5572 -45.5539 -45.5421 -45.5407 -21.2603 -21.1071 -20.2845 -20.1600
   -20.1600 -20.1577 -20.1576 -20.0970 -16.5376 -16.5263 -16.5180 -16.5179
   -16.5144 -16.5144 -16.4689 -16.4689 -16.4609 -16.4609 -16.4548 -16.4545
    -3.9464  -3.5484  -2.2850  -1.7637  -1.7637  -1.6633  -1.6633  -1.2798
    -1.2798  -1.2170  -0.6483  -0.6483   0.2038   0.2038   0.3421   0.8949
     0.8949   0.9336   0.9351   0.9555   1.3455   1.3455   1.4215   1.4215
    15.9206  16.2947  17.4582  17.4582  17.4669  17.4953  17.5260  17.7096
    17.7896  17.7896  18.0436  18.0436  18.2159  18.2160  18.4410  18.5722
    18.5723  18.6734  18.6734  18.7287  19.0405  19.0405  19.0425  19.0425
    19.1583  19.3777  19.3777  19.9046  19.9047  20.0446  20.2170  20.2170
    20.8573  21.2034  21.2087  21.2087  21.6237  21.6237  21.9723  21.9723
    23.6943  23.6943  24.3643  24.6551  24.7424  24.7424  24.7856  25.1600
    25.6889  26.0928  26.1218  26.1219  26.2410  26.2412  26.4566  26.4567
    26.7185  26.7190

          k = 0.0000 0.0000-0.2923 (  7138 PWs)   bands (ev):

   -45.5579 -45.5579 -45.5429 -45.5429 -21.1910 -21.1910 -20.1840 -20.1840
   -20.1590 -20.1590 -20.1590 -20.1590 -16.5354 -16.5354 -16.5195 -16.5195
   -16.5195 -16.5195 -16.4682 -16.4682 -16.4682 -16.4682 -16.4600 -16.4600
    -3.7885  -3.7885  -1.7639  -1.7639  -1.7283  -1.7283  -1.7283  -1.7283
    -1.0094  -1.0094  -1.0094  -1.0094   0.5947   0.5947   0.5948   0.5948
     0.6987   0.6987   0.9329   0.9329   1.3933   1.3933   1.3934   1.3934
    16.0757  16.0757  17.2281  17.2281  17.6275  17.6275  17.6275  17.6275
    18.0262  18.0262  18.0262  18.0262  18.0510  18.0510  18.6480  18.6480
    18.8391  18.8391  18.8391  18.8391  18.9169  18.9169  18.9170  18.9170
    19.4258  19.4258  19.6093  19.6093  19.6093  19.6093  20.7652  20.7652
    20.7652  20.7652  20.8185  20.8185  21.6253  21.6253  21.6253  21.6253
    24.4814  24.4814  24.4896  24.4897  24.4897  24.4897  25.4023  25.4023
    26.2091  26.2092  26.2470  26.2471  26.2473  26.2479  26.5858  26.5858
    26.5862  26.8443

          k = 0.0000 0.3597 0.0000 (  7072 PWs)   bands (ev):

   -45.5528 -45.5470 -45.5455 -45.5435 -21.1190 -20.9043 -20.5168 -20.3510
   -20.3344 -20.1641 -20.1594 -19.9047 -16.5456 -16.5276 -16.5232 -16.5206
   -16.5063 -16.4988 -16.4707 -16.4604 -16.4590 -16.4551 -16.4464 -16.4433
    -3.3480  -2.7887  -2.4549  -1.6930  -1.5777  -1.4837  -1.4049  -1.2702
    -1.0680  -0.6915  -0.5782  -0.4840  -0.3321  -0.2606  -0.1979   0.2963
     0.3036   0.4669   0.8375   0.9909   1.0285   1.2069   1.2935   1.3356
    16.8453  16.9477  17.0448  17.3169  17.5955  17.6393  17.6522  17.8687
    17.9683  18.0309  18.1301  18.1421  18.1921  18.2373  18.5409  18.5637
    18.5849  18.6946  18.7624  18.9378  19.0535  19.1179  19.3022  19.4822
    19.8028  19.9789  20.0608  20.4293  20.5751  20.8040  20.8110  20.9947
    21.2092  21.4373  21.7093  21.8629  21.8991  21.9124  22.1536  22.3687
    22.4926  22.5531  22.7929  23.5804  23.8343  24.1394  24.1418  24.1439
    24.4677  25.0397  25.0590  25.7125  25.7989  25.9659  26.0999  26.2973
    26.4002  26.7239

          k = 0.0000 0.3597 0.1461 (  7074 PWs)   bands (ev):

   -45.5529 -45.5490 -45.5445 -45.5429 -21.0924 -20.9415 -20.5117 -20.4429
   -20.1981 -20.1636 -20.1601 -19.9438 -16.5441 -16.5349 -16.5200 -16.5196
   -16.5056 -16.4989 -16.4694 -16.4593 -16.4588 -16.4546 -16.4483 -16.4462
    -3.3063  -2.9753  -2.2050  -1.7464  -1.5564  -1.3703  -1.3701  -1.2787
    -1.0350  -1.0005  -0.8319  -0.6417  -0.2256  -0.0606   0.0396   0.2854
     0.3610   0.5069   0.7618   0.9044   1.0329   1.2479   1.2572   1.3291
    16.8425  16.9851  17.0614  17.3529  17.4173  17.6681  17.7166  17.8670
    17.9050  18.0231  18.0665  18.1769  18.2686  18.4577  18.4896  18.5339
    18.6733  18.6962  18.8108  18.9136  19.0698  19.1403  19.3270  19.4703
    19.7492  19.8068  20.2912  20.4088  20.4179  20.6374  20.8969  20.9146
    21.1865  21.2376  21.5048  21.7531  21.7833  21.9309  22.0443  22.1275
    22.8208  22.9758  23.2129  23.2535  24.1746  24.2556  24.3253  24.4457
    24.6102  24.9295  24.9330  25.6952  25.7365  25.8615  25.9079  26.0488
    26.3850  26.4819

          k = 0.0000 0.3597-0.2923 (  7072 PWs)   bands (ev):

   -45.5513 -45.5513 -45.5432 -45.5432 -21.0222 -21.0222 -20.4919 -20.4919
   -20.1617 -20.1617 -20.0512 -20.0512 -16.5418 -16.5418 -16.5179 -16.5179
   -16.5019 -16.5019 -16.4643 -16.4643 -16.4539 -16.4539 -16.4490 -16.4489
    -3.1818  -3.1818  -1.8961  -1.8961  -1.3860  -1.3860  -1.3109  -1.3109
    -1.1300  -1.1300  -0.9021  -0.9021  -0.0490  -0.0490   0.2312   0.2312
     0.5641   0.5641   0.6750   0.6750   1.1401   1.1401   1.3063   1.3063
    16.9355  16.9355  17.1255  17.1255  17.6267  17.6267  17.8264  17.8264
    17.8705  17.8705  18.1246  18.1246  18.3584  18.3584  18.6467  18.6467
    18.6824  18.6824  18.8894  18.8894  19.1849  19.1849  19.3271  19.3271
    19.8354  19.8354  20.1245  20.1245  20.6484  20.6484  20.6994  20.6994
    21.2355  21.2355  21.4386  21.4386  21.8921  21.8921  21.9914  21.9914
    23.0803  23.0803  23.6641  23.6641  23.9392  23.9392  24.6060  24.6060
    24.7572  24.7572  25.5314  25.5317  25.7866  25.7867  25.8368  25.8371
    26.1615  26.1632

          k =-0.4673-0.2698 0.0000 (  7076 PWs)   bands (ev):

   -45.5503 -45.5485 -45.5464 -45.5437 -21.0232 -20.8161 -20.6458 -20.4494
   -20.3351 -20.1657 -20.1599 -19.8820 -16.5419 -16.5355 -16.5215 -16.5196
   -16.5026 -16.4882 -16.4833 -16.4705 -16.4528 -16.4492 -16.4455 -16.4447
    -3.0518  -2.5121  -2.4174  -1.7197  -1.6107  -1.4019  -1.1421  -0.9524
    -0.8887  -0.7569  -0.6707  -0.5787  -0.5110  -0.4155  -0.2647  -0.1646
    -0.0503   0.2915   0.7609   0.9306   1.0303   1.1983   1.3231   1.3583
    16.6070  17.2269  17.3862  17.5192  17.6238  17.7665  17.8207  17.8702
    17.9860  18.0434  18.0450  18.0516  18.1556  18.1759  18.3205  18.5060
    18.6353  18.6599  18.8751  19.1594  19.2002  19.2477  19.4753  19.5377
    20.0541  20.1084  20.2810  20.3214  20.7398  20.7799  21.2443  21.2538
    21.4209  21.5135  21.7424  22.1255  22.2340  22.2390  22.3515  22.6565
    22.8178  22.9050  23.0708  23.3799  23.4300  23.7251  23.8658  24.1355
    24.1873  24.5131  24.5143  24.8438  24.9418  25.3995  25.4964  25.6445
    26.2053  26.2487

          k =-0.4673-0.2698 0.1461 (  7074 PWs)   bands (ev):

   -45.5526 -45.5479 -45.5443 -45.5441 -20.9947 -20.8450 -20.6396 -20.5454
   -20.2031 -20.1646 -20.1607 -19.9240 -16.5444 -16.5367 -16.5230 -16.5196
   -16.4969 -16.4937 -16.4769 -16.4655 -16.4557 -16.4526 -16.4446 -16.4445
    -3.0170  -2.7284  -2.1573  -1.7602  -1.5415  -1.3436  -1.1234  -0.9999
    -0.9847  -0.9672  -0.6669  -0.6234  -0.5019  -0.4380  -0.2160  -0.1668
     0.1490   0.4069   0.6796   0.9054   1.0079   1.2473   1.3078   1.3144
    16.6776  17.2453  17.3645  17.4805  17.5253  17.6272  17.7834  17.9090
    17.9742  18.0084  18.0495  18.2416  18.2621  18.3303  18.3875  18.6025
    18.6751  18.7757  18.8169  19.0598  19.0732  19.1644  19.4040  19.6653
    19.7638  20.1713  20.2362  20.3717  20.6038  20.8527  21.0973  21.1209
    21.3362  21.5349  21.7817  21.8278  22.0167  22.6000  22.6854  22.7908
    23.0081  23.0866  23.0958  23.4227  23.4483  23.6348  23.6798  24.2174
    24.4416  24.5722  24.5751  24.8821  24.9108  25.0234  25.4976  25.5334
    25.9351  26.1206

          k =-0.4673-0.2698-0.2923 (  7048 PWs)   bands (ev):

   -45.5483 -45.5483 -45.5440 -45.5440 -20.9209 -20.9209 -20.6146 -20.6146
   -20.1626 -20.1626 -20.0400 -20.0400 -16.5429 -16.5428 -16.5194 -16.5194
   -16.4917 -16.4917 -16.4677 -16.4677 -16.4468 -16.4468 -16.4457 -16.4457
    -2.9106  -2.9106  -1.8996  -1.8996  -1.3172  -1.3172  -1.1836  -1.1836
    -1.0670  -1.0670  -0.6548  -0.6548  -0.4741  -0.4741  -0.1779  -0.1779
     0.4562   0.4562   0.6610   0.6610   1.1710   1.1710   1.2947   1.2947
    16.9047  16.9047  17.4612  17.4613  17.6136  17.6137  17.8206  17.8206
    17.8658  17.8658  18.3176  18.3176  18.3788  18.3788  18.5700  18.5700
    18.7671  18.7671  18.7958  18.7958  19.1312  19.1312  19.4866  19.4866
    19.8794  19.8794  20.3096  20.3096  20.6500  20.6500  20.9424  20.9424
    21.6201  21.6201  21.6987  21.6987  22.2433  22.2433  22.9185  22.9185
    23.0123  23.0123  23.4690  23.4690  23.5135  23.5136  23.9790  23.9790
    24.7191  24.7191  24.7601  24.7601  25.0052  25.0054  25.2553  25.2556
    25.8140  25.8153

          k =-0.4673 0.0899 0.0000 (  7079 PWs)   bands (ev):

   -45.5516 -45.5476 -45.5470 -45.5433 -21.0228 -20.8167 -20.6464 -20.4485
   -20.3348 -20.1648 -20.1613 -19.8819 -16.5408 -16.5334 -16.5185 -16.5172
   -16.5041 -16.4928 -16.4831 -16.4684 -16.4557 -16.4521 -16.4485 -16.4443
    -2.9895  -2.4726  -2.4171  -1.8177  -1.5882  -1.4808  -1.4472  -0.9614
    -0.8600  -0.8189  -0.6512  -0.4622  -0.3586  -0.3412  -0.3235  -0.1423
     0.2347   0.3742   0.8286   0.9140   0.9936   1.0916   1.1125   1.3529
    16.7920  17.2621  17.3664  17.3778  17.4632  17.6025  17.7483  17.7709
    17.8017  18.0757  18.0779  18.1664  18.2067  18.2467  18.2599  18.4635
    18.7880  19.1511  19.1947  19.2710  19.3238  19.4743  19.6127  19.6177
    20.0501  20.1049  20.2690  20.3005  20.3746  20.7946  20.8901  21.0239
    21.5171  21.5436  21.6853  21.8356  21.9238  22.0158  22.1705  22.4590
    22.6091  22.7810  23.2078  23.2859  23.4918  23.5933  23.6821  23.9700
    24.3358  24.5251  24.8723  24.9123  24.9886  25.2733  25.3118  25.8102
    26.3321  26.4438

          k =-0.4673 0.0899 0.1461 (  7079 PWs)   bands (ev):

   -45.5511 -45.5488 -45.5455 -45.5442 -20.9943 -20.8453 -20.6403 -20.5450
   -20.2028 -20.1642 -20.1618 -19.9238 -16.5449 -16.5389 -16.5187 -16.5185
   -16.5009 -16.4935 -16.4761 -16.4693 -16.4542 -16.4510 -16.4485 -16.4444
    -2.9577  -2.6870  -2.1765  -1.8647  -1.5163  -1.4221  -1.3795  -1.0460
    -0.9064  -0.8749  -0.8186  -0.7163  -0.3560  -0.3418  -0.0598   0.0424
     0.2734   0.4157   0.7486   0.8410   1.0120   1.1129   1.1361   1.3098
    16.8496  17.2483  17.3747  17.3957  17.4189  17.6146  17.6780  17.7976
    17.8385  17.9467  18.0604  18.1383  18.1971  18.3440  18.5309  18.7146
    18.7566  18.8930  19.1620  19.2472  19.3585  19.4220  19.5506  19.6129
    19.8690  20.0429  20.2233  20.4893  20.6133  20.6850  20.8777  21.1911
    21.3032  21.3413  21.4297  21.7865  21.8796  22.0732  22.2739  22.3717
    22.7141  22.9249  23.1837  23.4007  23.5815  23.6461  23.8782  24.0428
    24.4076  24.5903  24.7796  24.9805  24.9963  25.1278  25.4947  25.6654
    26.1973  26.3192

          k =-0.4673 0.0899-0.2923 (  7084 PWs)   bands (ev):

   -45.5504 -45.5504 -45.5447 -45.5447 -20.9211 -20.9211 -20.6149 -20.6149
   -20.1630 -20.1630 -20.0399 -20.0399 -16.5453 -16.5453 -16.5195 -16.5195
   -16.4964 -16.4964 -16.4694 -16.4694 -16.4526 -16.4526 -16.4486 -16.4486
    -2.8585  -2.8585  -1.9751  -1.9751  -1.3374  -1.3374  -1.2543  -1.2543
    -1.0557  -1.0557  -0.8151  -0.8151  -0.3436  -0.3436   0.1088   0.1088
     0.4413   0.4413   0.6724   0.6724   1.0915   1.0915   1.2076   1.2076
    17.0343  17.0343  17.3355  17.3356  17.5848  17.5848  17.7634  17.7635
    17.8453  17.8453  18.1492  18.1492  18.3783  18.3783  18.5649  18.5649
    18.8191  18.8191  19.2008  19.2009  19.3624  19.3624  19.5672  19.5672
    20.0322  20.0322  20.2055  20.2056  20.6058  20.6058  21.0561  21.0561
    21.2959  21.2959  21.4539  21.4539  22.1018  22.1018  22.3999  22.3999
    22.6358  22.6358  23.4536  23.4536  23.6991  23.6991  24.1696  24.1696
    24.4898  24.4898  24.7914  24.7914  24.9631  24.9632  25.7730  25.7731
    26.2623  26.2638

     the Fermi energy is    22.6871 ev

!    total energy              =   -1548.66176643 Ry
     Harris-Foulkes estimate   =   -1548.66176696 Ry
     estimated scf accuracy    <       0.00000070 Ry

     The total energy is the sum of the following terms:

     one-electron contribution =     -84.48253654 Ry
     hartree contribution      =     172.52130819 Ry
     xc contribution           =    -174.20777504 Ry
     ewald contribution        =   -1461.88413101 Ry
     smearing contrib. (-TS)   =      -0.60863204 Ry

     convergence has been achieved in  16 iterations

     Forces acting on atoms (Ry/au):

     atom    1 type  1   force =     0.00000000    0.00000000    0.00802607
     atom    2 type  1   force =     0.00000000    0.00000000    0.00802607
     atom    3 type  1   force =     0.00000000    0.00000000   -0.00802607
     atom    4 type  1   force =     0.00000000    0.00000000   -0.00802607
     atom    5 type  2   force =     0.00000000    0.00000000    0.00000000
     atom    6 type  2   force =     0.00000000    0.00000000    0.00000000
     atom    7 type  2   force =     0.00000000    0.00263755    0.00000000
     atom    8 type  2   force =    -0.00228418    0.00131877    0.00000000
     atom    9 type  2   force =     0.00228418    0.00131877    0.00000000
     atom   10 type  2   force =    -0.00228418   -0.00131877    0.00000000
     atom   11 type  2   force =     0.00228418   -0.00131877    0.00000000
     atom   12 type  2   force =     0.00000000   -0.00263755    0.00000000

     Total force =     0.017304     Total SCF correction =     0.001089


     entering subroutine stress ...

          total   stress  (Ry/bohr**3)                   (kbar)     P=  164.17
   0.00115615   0.00000000   0.00000000        170.08      0.00      0.00
   0.00000000   0.00115615   0.00000000          0.00    170.08      0.00
   0.00000000   0.00000000   0.00103563          0.00      0.00    152.35


     Writing output data file Prototype-La-hP12-MgZn2.save
 
     init_run     :      7.94s CPU     10.52s WALL (       2 calls)
     electrons    :   1576.18s CPU   1813.46s WALL (       5 calls)
     update_pot   :      3.04s CPU      3.09s WALL (       3 calls)
     forces       :      5.87s CPU      6.17s WALL (       5 calls)
     stress       :     22.88s CPU     23.62s WALL (       5 calls)

     Called by init_run:
     wfcinit      :      6.65s CPU      8.49s WALL (       2 calls)
     potinit      :      0.53s CPU      0.55s WALL (       2 calls)

     Called by electrons:
     c_bands      :   1544.76s CPU   1755.99s WALL (      54 calls)
     sum_band     :     30.66s CPU     42.03s WALL (      54 calls)
     v_of_rho     :      0.14s CPU      0.18s WALL (      59 calls)
     mix_rho      :      0.16s CPU      0.20s WALL (      54 calls)

     Called by c_bands:
     init_us_2    :      2.64s CPU      3.11s WALL (    1440 calls)
     ccgdiagg     :   1439.32s CPU   1620.66s WALL (     729 calls)
     wfcrot       :    109.57s CPU    139.44s WALL (     741 calls)

     Called by *cgdiagg:
     h_psi        :   1021.03s CPU   1226.56s WALL (  394467 calls)
     cdiaghg      :      3.93s CPU      4.31s WALL (     741 calls)

     Called by h_psi:
     add_vuspsi   :    268.72s CPU    274.71s WALL (  394467 calls)

     General routines
     calbec       :    538.68s CPU    579.99s WALL (  788313 calls)
     fft          :      0.21s CPU      0.26s WALL (     259 calls)
     fftw         :    440.15s CPU    582.70s WALL ( 1015824 calls)
     davcio       :      1.35s CPU      3.54s WALL (    2088 calls)
 
     Parallel routines
     fft_scatter  :    179.18s CPU    247.90s WALL ( 1016083 calls)
 
     PWSCF        : 26m56.44s CPU    30m59.61s WALL

 
   This run was terminated on:  23:19:56  22Mar2018            

=------------------------------------------------------------------------------=
   JOB DONE.
=------------------------------------------------------------------------------=
