
     Program PWSCF v.5.0.2 starts on 22Mar2018 at 17:30:50 

     This program is part of the open-source Quantum ESPRESSO suite
     for quantum simulation of materials; please cite
         "P. Giannozzi et al., J. Phys.:Condens. Matter 21 395502 (2009);
          URL http://www.quantum-espresso.org", 
     in publications or presentations arising from this work. More details at
     http://www.quantum-espresso.org/quote.php

     Parallel version (MPI), running on     4 processors
     R & G space division:  proc/nbgrp/npool/nimage =       4

     Current dimensions of program PWSCF are:
     Max number of different atomic species (ntypx) = 10
     Max number of k-points (npk) =  40000
     Max angular momentum in pseudopotentials (lmaxx) =  3
     Waiting for input...
     Reading input from standard input

     Subspace diagonalization in iterative solution of the eigenvalue problem:
     a serial algorithm will be used

 
     Parallelization info
     --------------------
     sticks:   dense  smooth     PW     G-vecs:    dense   smooth      PW
     Min         267     267     77                11587    11587    1762
     Max         268     268     79                11596    11596    1765
     Sum        1069    1069    313                46361    46361    7055
 


     bravais-lattice index     =            0
     lattice parameter (alat)  =       9.9235  a.u.
     unit-cell volume          =    1361.0366 (a.u.)^3
     number of atoms/cell      =           12
     number of atomic types    =            2
     number of electrons       =       152.00
     number of Kohn-Sham states=           91
     kinetic-energy cutoff     =      40.0000  Ry
     charge density cutoff     =     160.0000  Ry
     convergence threshold     =      1.0E-04
     mixing beta               =       0.7000
     number of iterations used =            8  plain     mixing
     Exchange-correlation      = SLA-PZ-NOGX-NOGC ( 1 1 0 0 0)
     EXX-fraction              =        0.00
     nstep                     =           50


     celldm(1)=   9.923489  celldm(2)=   0.000000  celldm(3)=   0.000000
     celldm(4)=   0.000000  celldm(5)=   0.000000  celldm(6)=   0.000000

     crystal axes: (cart. coord. in units of alat)
               a(1) = (   1.000000   0.000000   0.000000 )  
               a(2) = (  -0.500000   0.866025   0.000000 )  
               a(3) = (   0.000000   0.000000   1.608222 )  

     reciprocal axes: (cart. coord. in units 2 pi/alat)
               b(1) = (  1.000000  0.577350  0.000000 )  
               b(2) = (  0.000000  1.154701  0.000000 )  
               b(3) = (  0.000000  0.000000  0.621805 )  


     PseudoPot. # 1 for Nd read from file:
     /home/cwx6513/pp.La/Nd.UPF
     MD5 check sum: c66c5b6abe7b5840ced9b1e244e3bed6
     Pseudo is Norm-conserving, Zval = 14.0
     Generated in analytical, separable form
     Using radial grid of 1257 points,  6 beta functions with: 
                l(1) =   0
                l(2) =   0
                l(3) =   1
                l(4) =   1
                l(5) =   2
                l(6) =   3

     PseudoPot. # 2 for Ce read from file:
     /home/cwx6513/pp.La/Ce.UPF
     MD5 check sum: 44451aa79a44a00cf2bc029dc19922f6
     Pseudo is Norm-conserving, Zval = 12.0
     Generated in analytical, separable form
     Using radial grid of 1255 points,  6 beta functions with: 
                l(1) =   0
                l(2) =   0
                l(3) =   1
                l(4) =   1
                l(5) =   2
                l(6) =   3

     atomic species   valence    mass     pseudopotential
        Mg            14.00    24.30500     Nd( 1.00)
        Zn            12.00    65.39000     Ce( 1.00)

     24 Sym. Ops., with inversion, found (12 have fractional translation)



   Cartesian axes

     site n.     atom                  positions (alat units)
         1           Mg  tau(   1) = (  -0.0000005   0.5773506   0.1003820  )
         2           Mg  tau(   2) = (   0.5000005   0.2886748   0.9044931  )
         3           Mg  tau(   3) = (   0.5000005   0.2886748   1.5078402  )
         4           Mg  tau(   4) = (  -0.0000005   0.5773506   0.7037291  )
         5           Zn  tau(   5) = (   0.0000000   0.0000000   0.0000000  )
         6           Zn  tau(   6) = (   0.0000000   0.0000000   0.8041111  )
         7           Zn  tau(   7) = (   0.0000000   0.2950739   1.2061667  )
         8           Zn  tau(   8) = (   0.7444585   0.1475370   0.4020556  )
         9           Zn  tau(   9) = (   0.2555415   0.1475370   0.4020556  )
        10           Zn  tau(  10) = (   0.2444585   0.7184884   1.2061667  )
        11           Zn  tau(  11) = (  -0.2444585   0.7184884   1.2061667  )
        12           Zn  tau(  12) = (   0.5000000   0.5709515   0.4020556  )

     number of k points=    12  gaussian smearing, width (Ry)=  0.1000
                       cart. coord. in units 2pi/alat
        k(    1) = (   0.0000000   0.0000000   0.0000000), wk =   0.0833333
        k(    2) = (   0.0000000   0.0000000   0.1554512), wk =   0.1666667
        k(    3) = (   0.0000000   0.0000000  -0.3109023), wk =   0.0833333
        k(    4) = (   0.0000000   0.3849002   0.0000000), wk =   0.1666667
        k(    5) = (   0.0000000   0.3849002   0.1554512), wk =   0.3333333
        k(    6) = (   0.0000000   0.3849002  -0.3109023), wk =   0.1666667
        k(    7) = (  -0.5000000  -0.2886751   0.0000000), wk =   0.0833333
        k(    8) = (  -0.5000000  -0.2886751   0.1554512), wk =   0.1666667
        k(    9) = (  -0.5000000  -0.2886751  -0.3109023), wk =   0.0833333
        k(   10) = (  -0.5000000   0.0962250   0.0000000), wk =   0.1666667
        k(   11) = (  -0.5000000   0.0962250   0.1554512), wk =   0.3333333
        k(   12) = (  -0.5000000   0.0962250  -0.3109023), wk =   0.1666667

     Dense  grid:    46361 G-vectors     FFT dimensions: (  40,  40,  72)

     Largest allocated arrays     est. size (Mb)     dimensions
        Kohn-Sham Wavefunctions         2.05 Mb     (   1478,   91)
        NL pseudopotentials             5.41 Mb     (   1478,  240)
        Each V/rho on FFT grid          0.44 Mb     (  28800)
        Each G-vector array             0.09 Mb     (  11589)
        G-vector shells                 0.09 Mb     (  11589)
     Largest temporary arrays     est. size (Mb)     dimensions
        Each subspace H/S matrix        0.13 Mb     (  91,  91)
        Each <psi_i|beta_j> matrix      0.33 Mb     (    240,   91)
        Arrays for rho mixing           3.52 Mb     (  28800,   8)

     Initial potential from superposition of free atoms

     Starting from uniform charge
     Starting wfc are    0 randomized atomic wfcs

     total cpu time spent up to now is        3.1 secs

     Self-consistent Calculation

     iteration #  1     ecut=    40.00 Ry     beta=0.70
     CG style diagonalization
     c_bands:  1 eigenvalues not converged
     ethr =  1.00E-02,  avg # of iterations = 10.8

     total cpu time spent up to now is       33.0 secs

     total energy              =   -1014.12428567 Ry
     Harris-Foulkes estimate   =   -1131.75745464 Ry
     estimated scf accuracy    <     165.54812934 Ry

     iteration #  2     ecut=    40.00 Ry     beta=0.70
     CG style diagonalization
     ethr =  1.00E-02,  avg # of iterations =  6.2

     total cpu time spent up to now is       49.0 secs

     total energy              =   -1041.53579345 Ry
     Harris-Foulkes estimate   =   -1069.36414300 Ry
     estimated scf accuracy    <      40.19721164 Ry

     iteration #  3     ecut=    40.00 Ry     beta=0.70
     CG style diagonalization
     ethr =  1.00E-02,  avg # of iterations =  5.6

     total cpu time spent up to now is       63.9 secs

     total energy              =   -1049.12547617 Ry
     Harris-Foulkes estimate   =   -1065.89688989 Ry
     estimated scf accuracy    <      39.78474597 Ry

     iteration #  4     ecut=    40.00 Ry     beta=0.70
     CG style diagonalization
     ethr =  1.00E-02,  avg # of iterations =  4.0

     total cpu time spent up to now is       73.8 secs

     total energy              =   -1056.48269729 Ry
     Harris-Foulkes estimate   =   -1057.60624545 Ry
     estimated scf accuracy    <       2.60603304 Ry

     iteration #  5     ecut=    40.00 Ry     beta=0.70
     CG style diagonalization
     ethr =  1.71E-03,  avg # of iterations =  4.1

     total cpu time spent up to now is       84.6 secs

     total energy              =   -1057.16057528 Ry
     Harris-Foulkes estimate   =   -1057.32084537 Ry
     estimated scf accuracy    <       0.34280468 Ry

     iteration #  6     ecut=    40.00 Ry     beta=0.70
     CG style diagonalization
     ethr =  2.26E-04,  avg # of iterations =  4.4

     total cpu time spent up to now is       95.9 secs

     total energy              =   -1057.25737542 Ry
     Harris-Foulkes estimate   =   -1057.27150664 Ry
     estimated scf accuracy    <       0.03377021 Ry

     iteration #  7     ecut=    40.00 Ry     beta=0.70
     CG style diagonalization
     c_bands:  2 eigenvalues not converged
     c_bands:  1 eigenvalues not converged
     c_bands:  1 eigenvalues not converged
     c_bands:  1 eigenvalues not converged
     c_bands:  1 eigenvalues not converged
     ethr =  2.22E-05,  avg # of iterations =  4.8

     total cpu time spent up to now is      108.2 secs

     total energy              =   -1057.26967946 Ry
     Harris-Foulkes estimate   =   -1057.27122927 Ry
     estimated scf accuracy    <       0.00331842 Ry

     iteration #  8     ecut=    40.00 Ry     beta=0.70
     CG style diagonalization
     c_bands:  2 eigenvalues not converged
     c_bands:  2 eigenvalues not converged
     c_bands:  3 eigenvalues not converged
     c_bands:  1 eigenvalues not converged
     c_bands:  1 eigenvalues not converged
     ethr =  2.18E-06,  avg # of iterations =  5.1

     total cpu time spent up to now is      121.5 secs

     total energy              =   -1057.27118228 Ry
     Harris-Foulkes estimate   =   -1057.27148850 Ry
     estimated scf accuracy    <       0.00077851 Ry

     iteration #  9     ecut=    40.00 Ry     beta=0.70
     CG style diagonalization
     c_bands:  1 eigenvalues not converged
     ethr =  5.12E-07,  avg # of iterations =  4.0

     total cpu time spent up to now is      130.9 secs

     End of self-consistent calculation

          k = 0.0000 0.0000 0.0000 (  5769 PWs)   bands (ev):

   -20.0252 -19.9554 -19.8563 -19.7955 -12.5125 -11.9970 -10.6377  -9.8200
    -9.7469  -9.7468  -9.7203  -9.7203   0.9113   1.0051   1.0051   1.0476
     1.2634   1.2635   1.4079   1.5312   1.5313   1.7242   1.7242   1.7361
     1.7749   2.6421   3.7635   5.2968   5.2968   5.6248   5.6249   5.6255
     5.6255   6.7275   7.6785   7.6786   7.7194   7.7194   8.4053  10.0527
    10.2488  10.2488  10.2783  10.2958  10.8893  10.8893  11.1609  11.1609
    20.4857  21.6671  21.7793  23.1209  23.1209  23.5301  23.6319  23.6319
    23.7349  23.7349  24.0640  24.0640  24.1507  24.3232  24.3233  24.4539
    24.6356  25.0835  25.1544  25.1545  25.6535  25.6535  27.0425  27.0425
    27.3105  27.4265  27.4265  27.6069  27.6069  27.6669  27.8831  27.8831
    28.1409  28.1409  28.9443  28.9443  29.5234  29.5234  29.8210  30.6472
    31.1965  31.6894  32.1213

          k = 0.0000 0.0000 0.1555 (  5780 PWs)   bands (ev):

   -20.0173 -19.9696 -19.8434 -19.8022 -12.4562 -12.1029 -10.4892  -9.9231
    -9.7432  -9.7432  -9.7245  -9.7244   1.0188   1.0261   1.0261   1.0395
     1.1917   1.1917   1.4038   1.5250   1.5943   1.5943   1.7166   1.7166
     2.0170   2.2815   4.2891   5.3351   5.3351   5.5354   5.5354   5.8099
     5.8100   6.1668   6.8751   6.8751   8.5840   8.5840   8.8328   9.8874
     9.9992   9.9993  10.2802  10.2928  10.9635  10.9635  11.1364  11.1364
    20.5573  20.9520  22.8107  23.0781  23.0781  23.2762  23.3224  23.3539
    23.3539  23.7597  23.7597  24.2548  24.2548  24.3024  24.3025  25.0946
    25.2108  25.2701  25.2701  25.4034  25.7419  25.7419  26.8140  26.8140
    27.2895  27.3589  27.3589  27.5872  27.8538  27.8538  28.0784  28.0784
    28.2233  28.2233  29.0569  29.0569  29.2353  29.2353  29.4232  29.8551
    30.8191  31.2292  31.9510

          k = 0.0000 0.0000-0.3109 (  5780 PWs)   bands (ev):

   -19.9961 -19.9961 -19.8202 -19.8202 -12.3017 -12.3017 -10.1866 -10.1866
    -9.7334  -9.7334  -9.7334  -9.7334   1.0899   1.0899   1.0899   1.0900
     1.1160   1.1161   1.3773   1.3773   1.6791   1.6791   1.6791   1.6791
     2.0810   2.0810   5.2035   5.2035   5.4308   5.4308   5.4308   5.4308
     6.2245   6.2245   6.2245   6.2245   9.3958   9.3958   9.3958   9.3958
     9.4463   9.4463  10.2875  10.2875  11.0668  11.0668  11.0669  11.0669
    20.6899  20.6899  22.7401  22.7401  23.0922  23.0923  23.0923  23.0923
    23.9621  23.9621  23.9621  23.9621  24.5715  24.5715  24.8597  24.8597
    24.8598  24.8598  25.8360  25.8360  26.2860  26.2860  26.2860  26.2860
    27.2917  27.2917  27.5924  27.5924  27.5924  27.5924  28.5380  28.5380
    28.5380  28.5380  28.9462  28.9462  28.9928  28.9928  28.9928  28.9928
    31.3305  31.3320  31.4866

          k = 0.0000 0.3849 0.0000 (  5787 PWs)   bands (ev):

   -19.9862 -19.9204 -19.8896 -19.8287 -12.2341 -11.6175 -10.7021 -10.6532
   -10.3284  -9.7720  -9.7375  -9.3259   1.0052   1.0373   1.0524   1.1349
     1.1606   1.2850   1.5253   1.6897   1.7203   1.7580   1.9054   1.9486
     2.6247   3.5686   3.6851   5.2622   5.3804   5.6912   5.7768   6.0096
     6.4496   7.1737   7.4931   7.4985   7.6330   7.6722   7.8642   8.8007
     8.8054   9.0730   9.7328   9.8187  10.2573  10.5998  10.7222  10.9219
    21.7036  22.1629  22.3407  22.7163  23.0078  23.3176  23.3734  23.6591
    23.7567  23.8822  24.0383  24.2650  24.4710  24.8523  24.8543  25.0317
    25.1170  25.4306  25.6672  25.7909  25.9910  26.4160  26.7050  26.9082
    27.2553  27.4409  27.5302  27.5946  27.7568  28.0633  28.1953  28.4347
    28.5569  28.6793  29.0550  29.1551  29.4640  29.7782  29.8474  30.0115
    30.5347  30.9615  30.9922

          k = 0.0000 0.3849 0.1555 (  5804 PWs)   bands (ev):

   -19.9798 -19.9380 -19.8727 -19.8344 -12.1685 -11.7482 -10.7012 -10.6804
   -10.1238  -9.7673  -9.7429  -9.4438   0.9634   1.0356   1.0480   1.0883
     1.1905   1.2907   1.5720   1.7177   1.7522   1.7663   1.8825   1.9077
     2.7006   3.1139   4.3184   5.1310   5.4397   5.8203   5.9004   6.0107
     6.4706   6.6465   6.8445   7.0481   7.9646   8.1370   8.3022   8.7818
     8.9092   9.1552   9.5879   9.9764  10.0141  10.5167  10.7925  10.9097
    21.7836  22.2002  22.3618  22.6317  23.1484  23.3387  23.5600  23.6947
    23.7306  23.8320  23.9451  24.1230  24.4640  24.7175  24.8535  24.9967
    25.3474  25.4260  25.8116  25.8555  26.2373  26.3809  26.7985  26.8770
    26.9298  27.0444  27.4058  27.5142  27.7445  27.9513  28.3281  28.3315
    28.7351  28.7389  28.9262  29.3711  29.4132  29.5604  29.8357  30.0415
    30.7848  31.1745  31.2382

          k = 0.0000 0.3849-0.3109 (  5816 PWs)   bands (ev):

   -19.9622 -19.9622 -19.8503 -19.8503 -11.9863 -11.9863 -10.6972 -10.6971
    -9.7553  -9.7553  -9.7519  -9.7519   0.9859   0.9859   1.0395   1.0395
     1.2522   1.2522   1.6766   1.6766   1.8209   1.8209   1.8302   1.8302
     2.8499   2.8499   4.8779   4.8779   5.8272   5.8272   5.9338   5.9338
     6.3165   6.3165   6.6427   6.6427   8.1919   8.1919   8.6815   8.6815
     9.2403   9.2403   9.5204   9.5204  10.2833  10.2833  10.8693  10.8693
    22.0791  22.0791  22.4063  22.4063  23.3720  23.3720  23.4862  23.4862
    23.7932  23.7932  24.4357  24.4357  24.4708  24.4708  24.9543  24.9543
    24.9965  24.9965  26.1014  26.1014  26.3256  26.3256  26.7849  26.7849
    26.9197  26.9197  27.5463  27.5463  27.7671  27.7671  28.1373  28.1374
    28.6238  28.6238  29.0447  29.0447  29.6748  29.6748  30.0267  30.0268
    30.7431  30.7431  31.9234

          k =-0.5000-0.2887 0.0000 (  5800 PWs)   bands (ev):

   -19.9644 -19.9095 -19.9004 -19.8481 -12.0918 -11.3770 -10.9613 -10.6584
   -10.6297  -9.7808  -9.7434  -9.2778   1.0012   1.0248   1.0469   1.1391
     1.2419   1.3519   1.4959   1.6660   1.7734   1.7847   1.9437   1.9560
     3.1553   3.6601   3.9095   5.2679   5.3661   5.8310   6.4832   6.4837
     6.7676   7.0488   7.2031   7.2233   7.5327   7.6136   7.7273   7.7508
     8.1335   8.6109   9.5322   9.6325  10.2597  10.7116  10.7519  10.8818
    21.3023  22.8543  23.0175  23.0787  23.1942  23.2583  23.2725  23.4294
    23.7077  23.8697  23.8989  23.9905  24.1560  24.4939  24.6198  24.9967
    25.0117  25.4425  25.9843  26.0638  26.1761  26.4040  26.7084  27.1105
    27.1428  27.1653  27.7740  27.8732  28.0179  28.0468  28.4504  28.5427
    28.6083  29.5451  29.9540  30.2086  30.2664  30.7487  30.7768  30.7997
    30.8803  30.9315  31.1434

          k =-0.5000-0.2887 0.1555 (  5822 PWs)   bands (ev):

   -19.9594 -19.9268 -19.8835 -19.8527 -12.0185 -11.5312 -10.9562 -10.8719
   -10.2154  -9.7758  -9.7493  -9.4080   0.9748   1.0063   1.0212   1.0387
     1.3015   1.4321   1.5392   1.6717   1.7828   1.8083   1.9124   1.9240
     3.1872   3.4161   4.3456   5.1895   5.5020   5.8902   6.3339   6.4955
     6.6058   6.7197   7.2452   7.2467   7.4642   7.5271   7.6410   7.7327
     8.4720   8.8953   9.3766   9.9122  10.0093  10.6511  10.7783  10.8731
    21.4966  22.6704  22.9945  23.0682  23.1699  23.1769  23.3223  23.6282
    23.6665  23.6812  24.1879  24.2059  24.3115  24.5708  24.9733  25.1501
    25.1675  25.3037  25.5801  25.5812  26.1295  26.4001  26.5666  26.7120
    27.1659  27.2219  27.4159  27.4662  27.5874  28.1409  28.7068  28.9356
    29.2142  29.7036  30.0919  30.1584  30.1935  30.1950  30.6770  30.8467
    30.9007  30.9280  31.1110

          k =-0.5000-0.2887-0.3109 (  5804 PWs)   bands (ev):

   -19.9458 -19.9458 -19.8654 -19.8654 -11.8108 -11.8108 -10.9357 -10.9357
    -9.7624  -9.7624  -9.7558  -9.7558   0.9451   0.9451   1.0223   1.0223
     1.3887   1.3887   1.6599   1.6599   1.8245   1.8245   1.8672   1.8673
     3.2631   3.2632   4.8853   4.8853   5.9528   5.9529   6.0715   6.0715
     6.5491   6.5491   7.3380   7.3380   7.3492   7.3492   7.6889   7.6889
     8.9778   8.9778   9.4731   9.4731  10.3552  10.3552  10.8437  10.8437
    22.0261  22.0261  22.9839  22.9839  23.3260  23.3260  23.4914  23.4914
    23.5976  23.5976  24.5407  24.5407  24.7321  24.7321  24.8573  24.8573
    25.3330  25.3330  25.5221  25.5221  26.1329  26.1329  26.3783  26.3783
    26.6329  26.6329  27.3828  27.3828  28.0910  28.0910  28.8085  28.8085
    29.6760  29.6760  30.0785  30.0786  30.1191  30.1193  30.7854  30.7856
    31.3925  31.3957  31.4165

          k =-0.5000 0.0962 0.0000 (  5827 PWs)   bands (ev):

   -19.9647 -19.9092 -19.9006 -19.8479 -12.0894 -11.3828 -10.9594 -10.6589
   -10.6300  -9.7742  -9.7512  -9.2764   1.0412   1.0595   1.0919   1.1328
     1.1722   1.3918   1.3939   1.6630   1.7607   1.8311   1.9193   1.9429
     3.1927   3.6739   4.0780   5.0912   5.4324   5.6149   5.7613   6.6216
     6.9596   6.9958   7.1410   7.4164   7.4881   7.7135   7.7470   7.9907
     8.6247   8.8994   9.7096   9.7153  10.1548  10.2939  10.3821  10.7268
    21.5953  22.5444  22.8476  22.9315  23.0949  23.2370  23.4140  23.5690
    23.6052  23.8097  23.9426  24.2479  24.5552  24.6168  24.6759  24.9472
    25.3896  25.6834  25.7129  26.0626  26.3434  26.4202  26.9769  27.1283
    27.2676  27.3789  27.5060  27.5228  27.7855  28.2721  28.3926  28.6010
    28.7586  28.9135  29.3669  29.5727  29.7232  30.2308  30.4042  30.5381
    30.6148  30.9006  30.9555

          k =-0.5000 0.0962 0.1555 (  5825 PWs)   bands (ev):

   -19.9597 -19.9268 -19.8834 -19.8525 -12.0161 -11.5331 -10.9556 -10.8767
   -10.2135  -9.7706  -9.7545  -9.4063   0.9488   1.0192   1.0795   1.0899
     1.2588   1.3742   1.5242   1.6732   1.7709   1.8442   1.8963   1.9230
     3.2388   3.4964   4.4174   4.9942   5.5357   5.7342   5.8477   6.4744
     6.7279   6.8004   6.9996   7.0575   7.5014   7.5708   8.1834   8.2779
     8.7728   8.9739   9.5739   9.8210  10.0158  10.3658  10.3809  10.6414
    21.7708  22.5616  22.8093  22.9218  23.1816  23.2347  23.4428  23.5529
    23.6351  23.7605  24.0318  24.2392  24.3131  24.5150  25.0944  25.2151
    25.4969  25.6998  25.8015  25.9421  26.1072  26.2316  26.5049  26.8140
    27.0749  27.3084  27.3776  27.9128  28.0374  28.2425  28.5584  28.7591
    28.8463  29.0100  29.1974  29.5210  29.5578  30.0713  30.2797  30.5184
    30.6806  30.8590  31.1117

          k =-0.5000 0.0962-0.3109 (  5824 PWs)   bands (ev):

   -19.9460 -19.9460 -19.8653 -19.8653 -11.8098 -11.8098 -10.9395 -10.9395
    -9.7634  -9.7634  -9.7526  -9.7526   0.9301   0.9301   1.0721   1.0721
     1.3413   1.3413   1.6583   1.6583   1.8094   1.8094   1.8900   1.8900
     3.3417   3.3417   4.8090   4.8090   5.8419   5.8420   6.0580   6.0580
     6.4046   6.4046   7.0039   7.0039   7.5123   7.5123   8.4403   8.4403
     9.0357   9.0357   9.5036   9.5036  10.2867  10.2867  10.4529  10.4529
    22.2513  22.2513  22.7626  22.7626  23.2316  23.2316  23.5921  23.5921
    23.6104  23.6104  24.2322  24.2322  24.8457  24.8457  25.0872  25.0872
    25.3657  25.3657  25.7726  25.7726  25.9975  25.9975  26.5176  26.5176
    27.3063  27.3063  27.5816  27.5816  28.1227  28.1227  28.5089  28.5089
    29.0082  29.0082  29.4000  29.4000  29.9458  29.9458  30.4121  30.4125
    30.7732  30.7744  30.9833

     the Fermi energy is    27.7533 ev

!    total energy              =   -1057.27138492 Ry
     Harris-Foulkes estimate   =   -1057.27141869 Ry
     estimated scf accuracy    <       0.00003849 Ry

     The total energy is the sum of the following terms:

     one-electron contribution =     169.76760988 Ry
     hartree contribution      =      60.09825519 Ry
     xc contribution           =    -139.81749860 Ry
     ewald contribution        =   -1146.68654693 Ry
     smearing contrib. (-TS)   =      -0.63320445 Ry

     convergence has been achieved in   9 iterations

     Forces acting on atoms (Ry/au):

     atom    1 type  1   force =     0.00000000    0.00000000    0.00863893
     atom    2 type  1   force =     0.00000000    0.00000000    0.00863893
     atom    3 type  1   force =     0.00000000    0.00000000   -0.00863893
     atom    4 type  1   force =     0.00000000    0.00000000   -0.00863893
     atom    5 type  2   force =     0.00000000    0.00000000    0.00000000
     atom    6 type  2   force =     0.00000000    0.00000000    0.00000000
     atom    7 type  2   force =     0.00000000    0.08643731    0.00000000
     atom    8 type  2   force =    -0.07485691    0.04321866    0.00000000
     atom    9 type  2   force =     0.07485691    0.04321866    0.00000000
     atom   10 type  2   force =    -0.07485691   -0.04321866    0.00000000
     atom   11 type  2   force =     0.07485691   -0.04321866    0.00000000
     atom   12 type  2   force =     0.00000000   -0.08643731    0.00000000

     Total force =     0.212431     Total SCF correction =     0.000000


     entering subroutine stress ...

          total   stress  (Ry/bohr**3)                   (kbar)     P= 1097.54
   0.00741224   0.00000000   0.00000000       1090.38      0.00      0.00
   0.00000000   0.00741224   0.00000000          0.00   1090.38      0.00
   0.00000000   0.00000000   0.00755826          0.00      0.00   1111.86


     BFGS Geometry Optimization

     number of scf cycles    =   1
     number of bfgs steps    =   0

     enthalpy new            =   -1057.2713849236 Ry

     new trust radius        =       0.5000000000 bohr
     new conv_thr            =       0.0001000000 Ry

     new unit-cell volume =   1652.84151 a.u.^3 (   244.92584 Ang^3 )

CELL_PARAMETERS (alat=  9.92348860)
   1.066455817   0.000000000   0.000000000
  -0.533227909   0.923577830   0.000000000
   0.000000000   0.000000000   1.717203317

ATOMIC_POSITIONS (crystal)
Mg       0.333333000   0.666667000   0.062612130
Mg       0.666667000   0.333333000   0.562612130
Mg       0.666667000   0.333333000   0.937387870
Mg       0.333333000   0.666667000   0.437387870
Zn       0.000000000   0.000000000   0.000000000
Zn       0.000000000   0.000000000   0.500000000
Zn       0.172164515   0.344329030   0.750000000
Zn       0.827835485   0.172164515   0.250000000
Zn       0.344329030   0.172164515   0.250000000
Zn       0.655670970   0.827835485   0.750000000
Zn       0.172164515   0.827835485   0.750000000
Zn       0.827835485   0.655670970   0.250000000



     Writing output data file Prototype-La-hP12-MgZn2.save
     NEW-OLD atomic charge density approx. for the potential
     NEW k-points:
        k(    1) = (   0.0000000   0.0000000   0.0000000), wk =   0.0833333
        k(    2) = (   0.0000000   0.0000000   0.1455856), wk =   0.1666667
        k(    3) = (   0.0000000   0.0000000  -0.2911711), wk =   0.0833333
        k(    4) = (   0.0000000   0.3609153   0.0000000), wk =   0.1666667
        k(    5) = (   0.0000000   0.3609153   0.1455856), wk =   0.3333333
        k(    6) = (   0.0000000   0.3609153  -0.2911711), wk =   0.1666667
        k(    7) = (  -0.4688427  -0.2706864   0.0000000), wk =   0.0833333
        k(    8) = (  -0.4688427  -0.2706864   0.1455856), wk =   0.1666667
        k(    9) = (  -0.4688427  -0.2706864  -0.2911711), wk =   0.0833333
        k(   10) = (  -0.4688427   0.0902288   0.0000000), wk =   0.1666667
        k(   11) = (  -0.4688427   0.0902288   0.1455856), wk =   0.3333333
        k(   12) = (  -0.4688427   0.0902288  -0.2911711), wk =   0.1666667

     total cpu time spent up to now is      136.6 secs

     Self-consistent Calculation

     iteration #  1     ecut=    40.00 Ry     beta=0.70
     CG style diagonalization
     c_bands:  2 eigenvalues not converged
     c_bands:  1 eigenvalues not converged
     c_bands:  1 eigenvalues not converged
     c_bands:  1 eigenvalues not converged
     c_bands:  1 eigenvalues not converged
     c_bands:  1 eigenvalues not converged
     ethr =  1.00E-06,  avg # of iterations = 20.3

     total cpu time spent up to now is      189.7 secs

     total energy              =   -1055.20888804 Ry
     Harris-Foulkes estimate   =   -1061.83861986 Ry
     estimated scf accuracy    <       8.77882534 Ry

     iteration #  2     ecut=    40.00 Ry     beta=0.70
     CG style diagonalization
     ethr =  5.78E-03,  avg # of iterations =  4.5

     total cpu time spent up to now is      200.6 secs

     total energy              =   -1053.15908822 Ry
     Harris-Foulkes estimate   =   -1062.98734838 Ry
     estimated scf accuracy    <      25.03502575 Ry

     iteration #  3     ecut=    40.00 Ry     beta=0.70
     CG style diagonalization
     ethr =  5.78E-03,  avg # of iterations =  4.3

     total cpu time spent up to now is      211.2 secs

     total energy              =   -1058.10036301 Ry
     Harris-Foulkes estimate   =   -1058.97050893 Ry
     estimated scf accuracy    <       2.53115743 Ry

     iteration #  4     ecut=    40.00 Ry     beta=0.70
     CG style diagonalization
     ethr =  1.67E-03,  avg # of iterations =  3.6

     total cpu time spent up to now is      221.0 secs

     total energy              =   -1058.50283697 Ry
     Harris-Foulkes estimate   =   -1058.52748529 Ry
     estimated scf accuracy    <       0.06576630 Ry

     iteration #  5     ecut=    40.00 Ry     beta=0.70
     CG style diagonalization
     c_bands:  1 eigenvalues not converged
     c_bands:  2 eigenvalues not converged
     c_bands:  1 eigenvalues not converged
     ethr =  4.33E-05,  avg # of iterations =  5.3

     total cpu time spent up to now is      235.0 secs

     total energy              =   -1058.55907465 Ry
     Harris-Foulkes estimate   =   -1058.56687369 Ry
     estimated scf accuracy    <       0.02507462 Ry

     iteration #  6     ecut=    40.00 Ry     beta=0.70
     CG style diagonalization
     c_bands:  1 eigenvalues not converged
     ethr =  1.65E-05,  avg # of iterations =  3.7

     total cpu time spent up to now is      245.2 secs

     total energy              =   -1058.56128678 Ry
     Harris-Foulkes estimate   =   -1058.56421778 Ry
     estimated scf accuracy    <       0.00924216 Ry

     iteration #  7     ecut=    40.00 Ry     beta=0.70
     CG style diagonalization
     ethr =  6.08E-06,  avg # of iterations =  3.6

     total cpu time spent up to now is      254.9 secs

     total energy              =   -1058.56270459 Ry
     Harris-Foulkes estimate   =   -1058.56294528 Ry
     estimated scf accuracy    <       0.00046228 Ry

     iteration #  8     ecut=    40.00 Ry     beta=0.70
     CG style diagonalization
     c_bands:  1 eigenvalues not converged
     c_bands:  1 eigenvalues not converged
     ethr =  3.04E-07,  avg # of iterations =  5.3

     total cpu time spent up to now is      268.8 secs

     total energy              =   -1058.56298128 Ry
     Harris-Foulkes estimate   =   -1058.56318931 Ry
     estimated scf accuracy    <       0.00101693 Ry

     iteration #  9     ecut=    40.00 Ry     beta=0.70
     CG style diagonalization
     ethr =  3.04E-07,  avg # of iterations =  3.3

     total cpu time spent up to now is      277.6 secs

     total energy              =   -1058.56299267 Ry
     Harris-Foulkes estimate   =   -1058.56304376 Ry
     estimated scf accuracy    <       0.00015620 Ry

     iteration # 10     ecut=    40.00 Ry     beta=0.70
     CG style diagonalization
     ethr =  1.03E-07,  avg # of iterations =  3.9

     total cpu time spent up to now is      288.4 secs

     End of self-consistent calculation

          k = 0.0000 0.0000 0.0000 (  5769 PWs)   bands (ev):

   -25.2841 -25.2567 -25.2157 -25.1898 -16.5829 -16.2601 -15.4420 -15.0186
   -14.9323 -14.9322 -14.9243 -14.9243  -3.7447  -3.7447  -3.7171  -3.6726
    -3.6467  -3.6467  -3.4566  -3.4292  -3.4292  -3.3846  -3.3617  -3.3617
    -1.7884  -1.0048  -0.0146   1.0176   1.0176   1.2552   1.2552   1.3820
     1.3820   2.0400   2.8187   2.8187   2.8761   2.8761   3.1512   4.3705
     4.4763   4.4764   4.5364   4.5408   4.9490   4.9490   5.1120   5.1120
    16.5217  17.5562  17.6641  18.6373  18.6373  18.9259  19.1196  19.2244
    19.2244  19.4691  19.4692  19.5124  19.5990  19.6089  19.6397  19.6398
    19.7195  19.7195  20.3625  20.3625  20.7902  20.7902  21.3875  21.7545
    21.7545  22.4030  22.4030  22.4115  22.4809  22.4809  22.5328  22.5328
    22.9073  22.9073  23.5305  23.5305  23.8600  23.8600  23.9861  24.6753
    25.6651  25.8763  26.1681

          k = 0.0000 0.0000 0.1456 (  5780 PWs)   bands (ev):

   -25.2810 -25.2625 -25.2102 -25.1927 -16.5469 -16.3248 -15.3628 -15.0699
   -14.9312 -14.9312 -14.9256 -14.9256  -3.7316  -3.7316  -3.7225  -3.6792
    -3.6694  -3.6693  -3.4305  -3.4155  -3.4155  -3.3961  -3.3684  -3.3684
    -1.7209  -1.2251   0.3246   1.0398   1.0398   1.1816   1.1816   1.5329
     1.5329   1.6532   2.3025   2.3026   3.4154   3.4155   3.4628   4.2526
     4.3183   4.3184   4.5351   4.5385   4.9934   4.9934   5.0972   5.0972
    16.5955  17.0051  18.4758  18.6878  18.6878  18.7595  18.7964  19.0161
    19.0161  19.1688  19.4388  19.4388  19.6625  19.6625  19.8573  19.8573
    19.9655  20.1194  20.4054  20.4054  20.8508  20.8508  21.4888  21.5731
    21.5731  22.3098  22.3098  22.3841  22.5542  22.5542  22.7198  22.7198
    23.0842  23.0842  23.5917  23.5917  23.6103  23.6103  23.6634  23.8429
    25.6228  25.7924  26.0833

          k = 0.0000 0.0000-0.2912 (  5780 PWs)   bands (ev):

   -25.2729 -25.2728 -25.2003 -25.2003 -16.4487 -16.4487 -15.2040 -15.2040
   -14.9283 -14.9282 -14.9282 -14.9282  -3.7111  -3.7110  -3.7042  -3.7042
    -3.7042  -3.7042  -3.4061  -3.4060  -3.3844  -3.3844  -3.3844  -3.3844
    -1.5269  -1.5269   0.9687   0.9687   1.1003   1.1003   1.1003   1.1003
     1.8533   1.8533   1.8533   1.8533   3.9222   3.9222   3.9329   3.9329
     3.9329   3.9329   4.5393   4.5393   5.0555   5.0555   5.0555   5.0555
    16.7485  16.7486  18.3788  18.3788  18.8063  18.8063  18.8063  18.8063
    19.5008  19.5008  19.5009  19.5009  19.7066  19.7066  19.7268  19.7268
    20.2064  20.2064  20.2064  20.2064  21.1724  21.1724  21.1724  21.1724
    22.0304  22.0304  22.4353  22.4353  22.4353  22.4353  23.0964  23.0964
    23.0964  23.0964  23.3411  23.3411  23.5215  23.5215  23.5215  23.5215
    25.8448  25.8500  25.9375

          k = 0.0000 0.3609 0.0000 (  5787 PWs)   bands (ev):

   -25.2692 -25.2421 -25.2297 -25.2038 -16.3708 -16.0328 -15.5163 -15.4456
   -15.2289 -14.9397 -14.9298 -14.7152  -3.7531  -3.7519  -3.7198  -3.7194
    -3.6785  -3.6084  -3.4900  -3.3877  -3.3859  -3.3732  -3.3008  -3.2917
    -0.9710  -0.2866   0.0452   1.0564   1.1839   1.3340   1.4424   1.5953
     1.8905   2.3855   2.4800   2.6207   2.7296   2.8587   2.8732   3.5446
     3.6240   3.8155   4.1637   4.3377   4.4822   4.7342   4.8367   4.9700
    17.6734  17.8826  18.1242  18.6185  18.6388  19.0630  19.1140  19.1904
    19.2565  19.5407  19.5488  19.6375  19.7663  19.8578  20.1505  20.2681
    20.3105  20.4679  20.7333  20.8446  21.0250  21.2992  21.6195  21.7973
    21.9160  21.9616  22.2153  22.2817  22.5404  22.7133  22.7988  23.0346
    23.0353  23.0784  23.1539  23.7023  23.8924  24.0409  24.1186  24.3664
    24.5795  24.8947  25.3892

          k = 0.0000 0.3609 0.1456 (  5804 PWs)   bands (ev):

   -25.2667 -25.2496 -25.2225 -25.2062 -16.3323 -16.0984 -15.5137 -15.4779
   -15.1160 -14.9384 -14.9313 -14.7718  -3.7738  -3.7505  -3.7462  -3.7265
    -3.6568  -3.6188  -3.4604  -3.3988  -3.3678  -3.3603  -3.3097  -3.3043
    -0.9247  -0.5382   0.3870   0.9719   1.2231   1.4793   1.4818   1.5910
     1.9189   1.9736   2.1510   2.3631   2.9288   3.0837   3.2403   3.5977
     3.6074   3.8593   4.0669   4.3354   4.4015   4.6817   4.8807   4.9619
    17.7086  17.9087  18.1442  18.4750  18.7619  19.0488  19.1326  19.2855
    19.3492  19.3746  19.5597  19.6660  19.7781  20.0125  20.0571  20.1949
    20.2033  20.5641  20.7427  20.8381  21.2746  21.3224  21.5992  21.6322
    21.7995  21.8079  22.0593  22.3225  22.5197  22.6605  22.7724  22.8561
    23.0444  23.2710  23.3917  23.6750  23.8390  23.9407  24.0333  24.1538
    24.9338  25.1876  25.7023

          k = 0.0000 0.3609-0.2912 (  5816 PWs)   bands (ev):

   -25.2597 -25.2597 -25.2130 -25.2129 -16.2277 -16.2277 -15.5040 -15.5040
   -14.9349 -14.9349 -14.9238 -14.9238  -3.7774  -3.7774  -3.7393  -3.7393
    -3.6360  -3.6360  -3.4198  -3.4198  -3.3353  -3.3353  -3.3338  -3.3338
    -0.7838  -0.7838   0.7775   0.7775   1.4643   1.4643   1.5530   1.5530
     1.7772   1.7772   2.0586   2.0586   3.1287   3.1287   3.5213   3.5213
     3.8235   3.8235   4.0496   4.0496   4.5485   4.5485   4.9339   4.9339
    17.8558  17.8558  18.2090  18.2090  19.0004  19.0004  19.2883  19.2883
    19.2962  19.2962  19.7913  19.7913  19.8384  19.8384  19.9743  19.9743
    20.3526  20.3526  20.9192  20.9192  21.2913  21.2913  21.3952  21.3952
    21.9519  21.9519  22.2896  22.2896  22.4731  22.4731  22.6673  22.6673
    23.2686  23.2686  23.2891  23.2891  23.9624  23.9624  24.2171  24.2171
    24.9381  24.9385  25.9331

          k =-0.4688-0.2707 0.0000 (  5800 PWs)   bands (ev):

   -25.2605 -25.2380 -25.2341 -25.2119 -16.2534 -15.9047 -15.6849 -15.4468
   -15.3807 -14.9423 -14.9317 -14.6878  -3.7556  -3.7482  -3.7416  -3.7393
    -3.6515  -3.5495  -3.5332  -3.4194  -3.3631  -3.3480  -3.2914  -3.2897
    -0.5959   0.0259   0.0690   0.9973   1.1549   1.4631   1.7889   1.9904
     2.0280   2.2940   2.3617   2.5620   2.5649   2.7528   2.8498   3.0052
     3.0108   3.5244   4.0377   4.2154   4.4828   4.8276   4.8297   4.9508
    17.3889  18.4672  18.7633  18.7688  18.9200  19.1073  19.1190  19.1823
    19.3035  19.4034  19.4288  19.4602  19.5767  19.8000  19.9968  20.0428
    20.4126  20.6565  20.6885  20.8386  21.1081  21.2699  21.7236  21.7652
    22.0558  22.2016  22.4370  22.4692  22.7894  22.8590  23.0490  23.0645
    23.0768  23.3067  23.8458  24.1101  24.1252  24.8132  24.8223  24.8532
    25.1457  25.1486  25.2695

          k =-0.4688-0.2707 0.1456 (  5822 PWs)   bands (ev):

   -25.2587 -25.2453 -25.2269 -25.2139 -16.2114 -15.9630 -15.6801 -15.5907
   -15.1633 -14.9409 -14.9333 -14.7506  -3.7794  -3.7696  -3.7569  -3.7452
    -3.6219  -3.5689  -3.4881  -3.4203  -3.3583  -3.3430  -3.3048  -3.2953
    -0.5616  -0.2578   0.4299   0.9484   1.2447   1.5210   1.8037   1.8861
     1.9537   2.0096   2.3763   2.4974   2.5763   2.6984   2.9100   2.9948
     3.2708   3.6764   3.9324   4.3333   4.3432   4.7634   4.8699   4.9429
    17.5137  18.3745  18.6605  18.7195  18.9029  18.9685  19.1603  19.2485
    19.3475  19.3663  19.5522  19.6820  19.7448  19.9829  20.0589  20.2328
    20.4515  20.4701  20.5197  20.8364  21.1102  21.2386  21.3932  21.6540
    21.7275  21.8115  22.2052  22.3152  22.4853  22.8889  23.0987  23.4696
    23.5150  23.8706  24.0842  24.1673  24.2800  24.3817  24.8184  24.8750
    24.9181  25.1449  25.4120

          k =-0.4688-0.2707-0.2912 (  5804 PWs)   bands (ev):

   -25.2532 -25.2532 -25.2191 -25.2191 -16.0973 -16.0973 -15.6589 -15.6589
   -14.9370 -14.9370 -14.9233 -14.9233  -3.7943  -3.7943  -3.7508  -3.7508
    -3.5843  -3.5842  -3.4337  -3.4337  -3.3314  -3.3314  -3.3208  -3.3208
    -0.4549  -0.4549   0.7680   0.7680   1.5436   1.5436   1.6814   1.6814
     1.8640   1.8640   2.4238   2.4238   2.6250   2.6250   2.9679   2.9679
     3.6509   3.6509   4.0127   4.0127   4.5833   4.5833   4.9187   4.9187
    17.8784  17.8784  18.6717  18.6717  19.0533  19.0533  19.1380  19.1380
    19.3537  19.3537  19.8906  19.8906  20.0953  20.0953  20.1557  20.1558
    20.2747  20.2747  20.6147  20.6147  21.1369  21.1369  21.2538  21.2538
    21.5335  21.5335  22.2321  22.2321  22.6673  22.6673  23.4774  23.4774
    23.7188  23.7188  24.0895  24.0895  24.4444  24.4444  24.9545  24.9547
    25.1904  25.1910  25.3905

          k =-0.4688 0.0902 0.0000 (  5827 PWs)   bands (ev):

   -25.2607 -25.2380 -25.2341 -25.2120 -16.2527 -15.9063 -15.6853 -15.4470
   -15.3793 -14.9409 -14.9343 -14.6874  -3.7578  -3.7442  -3.7322  -3.7244
    -3.6681  -3.5625  -3.5481  -3.4292  -3.3618  -3.3393  -3.3025  -3.2893
    -0.5336   0.0698   0.0934   0.8833   1.1932   1.3127   1.4054   2.0162
     2.1334   2.1986   2.3999   2.6795   2.6857   2.7914   2.8007   2.9218
     3.5103   3.6829   4.1514   4.2621   4.4199   4.5990   4.6417   4.8156
    17.6286  18.4014  18.5389  18.5830  18.6874  19.1045  19.1783  19.2011
    19.3031  19.3229  19.5006  19.5979  19.8606  19.9514  20.0960  20.2122
    20.4910  20.7068  20.8485  20.9838  21.2848  21.5134  21.6866  21.8704
    21.9131  22.1241  22.2176  22.4779  22.4890  22.5006  22.7477  23.2024
    23.3713  23.4650  23.5583  23.5605  23.6851  24.2774  24.5410  24.6046
    24.7190  25.0146  25.3168

          k =-0.4688 0.0902 0.1456 (  5825 PWs)   bands (ev):

   -25.2588 -25.2453 -25.2268 -25.2139 -16.2107 -15.9639 -15.6804 -15.5909
   -15.1625 -14.9399 -14.9352 -14.7501  -3.7845  -3.7701  -3.7338  -3.7264
    -3.6368  -3.5862  -3.4920  -3.4273  -3.3609  -3.3314  -3.3111  -3.2949
    -0.4978  -0.2015   0.4216   0.8219   1.2814   1.3915   1.4759   1.9094
     2.0675   2.0980   2.1954   2.2947   2.7782   2.7835   3.1040   3.1860
     3.5565   3.7273   4.0569   4.2443   4.3913   4.6333   4.6425   4.7662
    17.7420  18.3758  18.5283  18.5404  18.7980  18.9719  19.1539  19.2402
    19.2887  19.3647  19.5300  19.6614  19.8041  19.8865  20.3669  20.4534
    20.6212  20.6885  20.8575  20.9753  21.0703  21.1540  21.4559  21.7060
    21.7210  21.9213  22.1759  22.4671  22.6175  22.7992  22.9637  23.1533
    23.2200  23.4283  23.6182  23.7252  23.8724  24.2263  24.3498  24.7204
    24.9234  25.0017  25.1037

          k =-0.4688 0.0902-0.2912 (  5824 PWs)   bands (ev):

   -25.2533 -25.2533 -25.2191 -25.2191 -16.0972 -16.0972 -15.6597 -15.6597
   -14.9376 -14.9376 -14.9225 -14.9225  -3.7980  -3.7980  -3.7321  -3.7321
    -3.6038  -3.6038  -3.4393  -3.4393  -3.3415  -3.3414  -3.3116  -3.3116
    -0.3902  -0.3902   0.6849   0.6849   1.4966   1.4966   1.6321   1.6321
     1.8605   1.8605   2.1979   2.1979   2.7819   2.7819   3.3265   3.3265
     3.7123   3.7123   4.0209   4.0209   4.5522   4.5522   4.6842   4.6842
    18.0675  18.0675  18.4760  18.4760  18.9470  18.9470  19.2128  19.2128
    19.3381  19.3381  19.6576  19.6576  20.1405  20.1405  20.2482  20.2482
    20.5463  20.5463  20.8050  20.8050  21.0792  21.0792  21.4594  21.4594
    21.9100  21.9100  22.2052  22.2052  22.6497  22.6497  23.0655  23.0655
    23.3926  23.3926  23.6657  23.6657  24.1670  24.1670  24.6554  24.6561
    24.8669  24.8671  25.1261

     the Fermi energy is    22.4176 ev

!    total energy              =   -1058.56301885 Ry
     Harris-Foulkes estimate   =   -1058.56303995 Ry
     estimated scf accuracy    <       0.00002298 Ry

     The total energy is the sum of the following terms:

     one-electron contribution =      75.76419454 Ry
     hartree contribution      =      77.56051465 Ry
     xc contribution           =    -136.07674821 Ry
     ewald contribution        =   -1075.04247355 Ry
     smearing contrib. (-TS)   =      -0.76850628 Ry

     convergence has been achieved in  10 iterations

     Forces acting on atoms (Ry/au):

     atom    1 type  1   force =     0.00000000    0.00000000    0.00081104
     atom    2 type  1   force =     0.00000000    0.00000000    0.00081104
     atom    3 type  1   force =     0.00000000    0.00000000   -0.00081104
     atom    4 type  1   force =     0.00000000    0.00000000   -0.00081104
     atom    5 type  2   force =     0.00000000    0.00000000    0.00000000
     atom    6 type  2   force =     0.00000000    0.00000000    0.00000000
     atom    7 type  2   force =     0.00000000    0.02806137    0.00000000
     atom    8 type  2   force =    -0.02430186    0.01403069    0.00000000
     atom    9 type  2   force =     0.02430186    0.01403069    0.00000000
     atom   10 type  2   force =    -0.02430186   -0.01403069    0.00000000
     atom   11 type  2   force =     0.02430186   -0.01403069    0.00000000
     atom   12 type  2   force =     0.00000000   -0.02806137    0.00000000

     Total force =     0.068755     Total SCF correction =     0.000000


     entering subroutine stress ...

          total   stress  (Ry/bohr**3)                   (kbar)     P=  289.08
   0.00200591   0.00000000   0.00000000        295.08      0.00      0.00
   0.00000000   0.00200591   0.00000000          0.00    295.08      0.00
   0.00000000   0.00000000   0.00188362          0.00      0.00    277.09


     number of scf cycles    =   2
     number of bfgs steps    =   1

     enthalpy old            =   -1057.2713849236 Ry
     enthalpy new            =   -1058.5630188547 Ry

     CASE: enthalpy_new < enthalpy_old

     small trust_radius: resetting bfgs history

     new trust radius        =       0.4077530987 bohr
     new conv_thr            =       0.0000280614 Ry

     new unit-cell volume =   1908.60582 a.u.^3 (   282.82620 Ang^3 )

CELL_PARAMETERS (alat=  9.92348860)
   1.119936204   0.000000000   0.000000000
  -0.559968102   0.969893204   0.000000000
   0.000000000   0.000000000   1.798067202

ATOMIC_POSITIONS (crystal)
Mg       0.333333000   0.666667000   0.062659724
Mg       0.666667000   0.333333000   0.562659724
Mg       0.666667000   0.333333000   0.937340276
Mg       0.333333000   0.666667000   0.437340276
Zn       0.000000000   0.000000000   0.000000000
Zn       0.000000000   0.000000000   0.500000000
Zn       0.173695395   0.347390789   0.750000000
Zn       0.826304605   0.173695395   0.250000000
Zn       0.347390789   0.173695395   0.250000000
Zn       0.652609211   0.826304605   0.750000000
Zn       0.173695395   0.826304605   0.750000000
Zn       0.826304605   0.652609211   0.250000000



     Writing output data file Prototype-La-hP12-MgZn2.save
     NEW-OLD atomic charge density approx. for the potential
     NEW k-points:
        k(    1) = (   0.0000000   0.0000000   0.0000000), wk =   0.0833333
        k(    2) = (   0.0000000   0.0000000   0.1390382), wk =   0.1666667
        k(    3) = (   0.0000000   0.0000000  -0.2780764), wk =   0.0833333
        k(    4) = (   0.0000000   0.3436805   0.0000000), wk =   0.1666667
        k(    5) = (   0.0000000   0.3436805   0.1390382), wk =   0.3333333
        k(    6) = (   0.0000000   0.3436805  -0.2780764), wk =   0.1666667
        k(    7) = (  -0.4464540  -0.2577603   0.0000000), wk =   0.0833333
        k(    8) = (  -0.4464540  -0.2577603   0.1390382), wk =   0.1666667
        k(    9) = (  -0.4464540  -0.2577603  -0.2780764), wk =   0.0833333
        k(   10) = (  -0.4464540   0.0859201   0.0000000), wk =   0.1666667
        k(   11) = (  -0.4464540   0.0859201   0.1390382), wk =   0.3333333
        k(   12) = (  -0.4464540   0.0859201  -0.2780764), wk =   0.1666667

     total cpu time spent up to now is      294.3 secs

     Self-consistent Calculation

     iteration #  1     ecut=    40.00 Ry     beta=0.70
     CG style diagonalization
     c_bands:  1 eigenvalues not converged
     c_bands:  2 eigenvalues not converged
     ethr =  1.00E-06,  avg # of iterations = 18.9

     total cpu time spent up to now is      342.7 secs

     total energy              =   -1056.02457465 Ry
     Harris-Foulkes estimate   =   -1060.71311646 Ry
     estimated scf accuracy    <       6.05419243 Ry

     iteration #  2     ecut=    40.00 Ry     beta=0.70
     CG style diagonalization
     ethr =  3.98E-03,  avg # of iterations =  5.1

     total cpu time spent up to now is      356.8 secs

     total energy              =   -1053.77270702 Ry
     Harris-Foulkes estimate   =   -1063.42877917 Ry
     estimated scf accuracy    <      29.44436755 Ry

     iteration #  3     ecut=    40.00 Ry     beta=0.70
     CG style diagonalization
     ethr =  3.98E-03,  avg # of iterations =  4.7

     total cpu time spent up to now is      368.8 secs

     total energy              =   -1058.41724926 Ry
     Harris-Foulkes estimate   =   -1058.85120798 Ry
     estimated scf accuracy    <       1.21848030 Ry

     iteration #  4     ecut=    40.00 Ry     beta=0.70
     CG style diagonalization
     ethr =  8.02E-04,  avg # of iterations =  3.8

     total cpu time spent up to now is      379.3 secs

     total energy              =   -1058.67752486 Ry
     Harris-Foulkes estimate   =   -1058.69833695 Ry
     estimated scf accuracy    <       0.04748749 Ry

     iteration #  5     ecut=    40.00 Ry     beta=0.70
     CG style diagonalization
     c_bands:  1 eigenvalues not converged
     c_bands:  3 eigenvalues not converged
     c_bands:  3 eigenvalues not converged
     c_bands:  1 eigenvalues not converged
     ethr =  3.12E-05,  avg # of iterations =  5.3

     total cpu time spent up to now is      394.0 secs

     total energy              =   -1058.71016286 Ry
     Harris-Foulkes estimate   =   -1058.71630169 Ry
     estimated scf accuracy    <       0.01565029 Ry

     iteration #  6     ecut=    40.00 Ry     beta=0.70
     CG style diagonalization
     c_bands:  1 eigenvalues not converged
     c_bands:  2 eigenvalues not converged
     ethr =  1.03E-05,  avg # of iterations =  4.0

     total cpu time spent up to now is      405.9 secs

     total energy              =   -1058.71289954 Ry
     Harris-Foulkes estimate   =   -1058.71446563 Ry
     estimated scf accuracy    <       0.00400998 Ry

     iteration #  7     ecut=    40.00 Ry     beta=0.70
     CG style diagonalization
     c_bands:  1 eigenvalues not converged
     c_bands:  2 eigenvalues not converged
     ethr =  2.64E-06,  avg # of iterations =  4.0

     total cpu time spent up to now is      417.5 secs

     total energy              =   -1058.71363013 Ry
     Harris-Foulkes estimate   =   -1058.71398795 Ry
     estimated scf accuracy    <       0.00088759 Ry

     iteration #  8     ecut=    40.00 Ry     beta=0.70
     CG style diagonalization
     ethr =  5.84E-07,  avg # of iterations =  4.0

     total cpu time spent up to now is      428.1 secs

     total energy              =   -1058.71385368 Ry
     Harris-Foulkes estimate   =   -1058.71390858 Ry
     estimated scf accuracy    <       0.00024774 Ry

     iteration #  9     ecut=    40.00 Ry     beta=0.70
     CG style diagonalization
     ethr =  1.63E-07,  avg # of iterations =  3.4

     total cpu time spent up to now is      437.3 secs

     total energy              =   -1058.71386616 Ry
     Harris-Foulkes estimate   =   -1058.71388053 Ry
     estimated scf accuracy    <       0.00004141 Ry

     iteration # 10     ecut=    40.00 Ry     beta=0.70
     CG style diagonalization
     ethr =  2.72E-08,  avg # of iterations =  4.3

     total cpu time spent up to now is      448.5 secs

     End of self-consistent calculation

          k = 0.0000 0.0000 0.0000 (  5769 PWs)   bands (ev):

   -28.7584 -28.7462 -28.7270 -28.7124 -19.4651 -19.2563 -18.7071 -18.4579
   -18.3873 -18.3873 -18.3842 -18.3842  -6.9339  -6.9339  -6.9286  -6.9152
    -6.8784  -6.8784  -6.7376  -6.7268  -6.7234  -6.7234  -6.6959  -6.6958
    -3.9227  -3.3512  -2.4819  -1.7754  -1.7754  -1.6032  -1.6032  -1.4464
    -1.4464  -0.9976  -0.4037  -0.4037  -0.3329  -0.3329  -0.2100   0.7122
     0.7771   0.7772   0.8296   0.8314   1.1361   1.1361   1.2563   1.2563
    14.0118  14.9610  15.0855  15.2995  15.8109  15.8109  16.2383  16.4424
    16.4529  16.4530  16.5517  16.5695  16.6250  16.6250  16.7307  16.7307
    16.9281  16.9281  17.3596  17.3596  17.6965  17.6965  17.7171  18.4055
    18.4056  19.0562  19.1156  19.1156  19.1181  19.1182  19.1672  19.1672
    19.5706  19.5706  20.0604  20.0604  20.2661  20.3474  20.3474  20.6699
    21.9412  22.1026  22.3071

          k = 0.0000 0.0000 0.1390 (  5780 PWs)   bands (ev):

   -28.7570 -28.7496 -28.7233 -28.7147 -19.4413 -19.2971 -18.6604 -18.4877
   -18.3869 -18.3869 -18.3847 -18.3847  -6.9323  -6.9229  -6.9229  -6.9150
    -6.8933  -6.8933  -6.7342  -6.7314  -6.7201  -6.7201  -6.7000  -6.7000
    -3.8701  -3.4967  -2.2527  -1.7611  -1.7611  -1.6570  -1.6570  -1.3334
    -1.3334  -1.2800  -0.7605  -0.7605   0.0250   0.0310   0.0310   0.6256
     0.6669   0.6670   0.8266   0.8276   1.1678   1.1679   1.2445   1.2445
    14.0937  14.5101  15.4537  15.7323  15.8789  15.8789  15.9513  15.9668
    16.2475  16.2475  16.4495  16.6732  16.6732  16.7142  16.7142  17.0292
    17.0366  17.0366  17.3692  17.3692  17.7565  17.7565  18.0374  18.2565
    18.2565  19.0003  19.0003  19.0457  19.1351  19.1352  19.3476  19.3476
    19.7505  19.7505  19.9993  20.1027  20.1027  20.1210  20.1210  20.1425
    21.9463  22.3040  22.3800

          k = 0.0000 0.0000-0.2781 (  5780 PWs)   bands (ev):

   -28.7539 -28.7539 -28.7181 -28.7181 -19.3768 -19.3768 -18.5665 -18.5665
   -18.3858 -18.3858 -18.3858 -18.3858  -6.9313  -6.9313  -6.9086  -6.9085
    -6.9085  -6.9085  -6.7344  -6.7344  -6.7040  -6.7040  -6.7040  -6.7040
    -3.7178  -3.7178  -1.7919  -1.7919  -1.7175  -1.7175  -1.7175  -1.7175
    -1.0878  -1.0878  -1.0878  -1.0878   0.3739   0.3739   0.3949   0.3949
     0.3949   0.3950   0.8313   0.8313   1.2131   1.2131   1.2131   1.2131
    14.2638  14.2638  15.5741  15.5741  16.0238  16.0238  16.0395  16.0395
    16.0395  16.0395  16.6504  16.6504  16.6504  16.6504  16.7193  16.7193
    17.2849  17.2849  17.2849  17.2849  17.9475  17.9475  17.9476  17.9476
    18.7058  18.7058  19.0583  19.0583  19.0583  19.0583  19.6859  19.6859
    19.6859  19.6859  19.7881  19.7882  20.0517  20.0517  20.0517  20.0517
    22.1527  22.1546  22.2275

          k = 0.0000 0.3437 0.0000 (  5787 PWs)   bands (ev):

   -28.7527 -28.7383 -28.7334 -28.7202 -19.3112 -19.1159 -18.7787 -18.7082
   -18.5561 -18.3901 -18.3864 -18.2492  -6.9512  -6.9402  -6.9396  -6.9138
    -6.8956  -6.8593  -6.7804  -6.7244  -6.7128  -6.7050  -6.6685  -6.6642
    -3.3034  -2.8163  -2.4114  -1.7395  -1.6056  -1.5473  -1.4188  -1.3321
    -1.1327  -0.7428  -0.7366  -0.5465  -0.4997  -0.3769  -0.3404   0.1576
     0.2256   0.3650   0.5598   0.7732   0.7827   0.9700   1.0550   1.1569
    15.1138  15.1297  15.4386  15.8421  15.9601  16.1883  16.3197  16.3467
    16.4153  16.4457  16.6189  16.6553  16.8548  16.9048  17.1479  17.1919
    17.3708  17.3726  17.6193  17.6933  17.8047  18.0487  18.1479  18.4770
    18.6301  18.6423  18.8437  18.9249  19.1127  19.1716  19.2977  19.5851
    19.6168  19.6482  19.7150  20.1713  20.3471  20.4542  20.4609  20.6793
    20.8998  21.2058  21.7188

          k = 0.0000 0.3437 0.1390 (  5804 PWs)   bands (ev):

   -28.7516 -28.7425 -28.7302 -28.7216 -19.2874 -19.1508 -18.7756 -18.7371
   -18.4863 -18.3895 -18.3869 -18.2821  -6.9609  -6.9533  -6.9400  -6.9193
    -6.8889  -6.8669  -6.7683  -6.7361  -6.7057  -6.6973  -6.6760  -6.6690
    -3.2664  -2.9673  -2.2092  -1.7990  -1.5901  -1.4248  -1.3963  -1.3342
    -1.1048  -1.0656  -0.9198  -0.7471  -0.3425  -0.2098  -0.0862   0.1784
     0.2114   0.3900   0.4909   0.6797   0.8009   0.9399   1.0867   1.1504
    15.1099  15.1686  15.4619  15.7816  15.9502  16.1687  16.3506  16.3730
    16.4539  16.5456  16.6645  16.7789  16.8147  16.8868  17.0533  17.0838
    17.2402  17.4573  17.4981  17.6892  17.9858  18.1231  18.2318  18.3656
    18.4241  18.5704  18.7006  18.9975  19.0746  19.3456  19.3582  19.4251
    19.4624  19.7967  19.9268  20.1684  20.2700  20.3597  20.4304  20.4786
    21.2504  21.4017  21.9574

          k = 0.0000 0.3437-0.2781 (  5816 PWs)   bands (ev):

   -28.7483 -28.7483 -28.7252 -28.7252 -19.2245 -19.2245 -18.7641 -18.7641
   -18.3882 -18.3882 -18.3711 -18.3711  -6.9644  -6.9644  -6.9295  -6.9295
    -6.8816  -6.8816  -6.7504  -6.7504  -6.6897  -6.6897  -6.6853  -6.6853
    -3.1529  -3.1529  -1.9445  -1.9445  -1.4181  -1.4181  -1.3537  -1.3537
    -1.2004  -1.2004  -0.9840  -0.9840  -0.1740  -0.1740   0.1347   0.1347
     0.3196   0.3196   0.4966   0.4966   0.8704   0.8704   1.1278   1.1279
    15.1700  15.1700  15.5236  15.5236  16.1898  16.1898  16.3789  16.3789
    16.5484  16.5484  16.7465  16.7465  16.8464  16.8464  16.9199  16.9199
    17.3691  17.3691  17.5934  17.5934  18.0302  18.0302  18.0994  18.0994
    18.7191  18.7191  18.9576  18.9576  19.1167  19.1168  19.2350  19.2350
    19.7937  19.7937  19.8145  19.8145  20.3696  20.3696  20.5287  20.5287
    21.2769  21.2771  22.0473

          k =-0.4465-0.2578 0.0000 (  5800 PWs)   bands (ev):

   -28.7479 -28.7380 -28.7356 -28.7238 -19.2214 -19.0445 -18.8967 -18.7086
   -18.6376 -18.3910 -18.3871 -18.2307  -6.9572  -6.9474  -6.9444  -6.9231
    -6.8847  -6.8185  -6.8154  -6.7455  -6.7049  -6.6864  -6.6691  -6.6659
    -3.0166  -2.5680  -2.3825  -1.8260  -1.6323  -1.4093  -1.2704  -1.0469
    -1.0275  -0.8306  -0.8154  -0.6531  -0.4872  -0.4565  -0.3475  -0.2915
    -0.1552   0.1757   0.4711   0.6950   0.7821   1.0358   1.0471   1.1450
    14.8887  15.6747  15.9215  15.9882  16.1566  16.1802  16.3526  16.4327
    16.4989  16.5281  16.5515  16.6701  16.8314  16.8472  16.8646  17.1135
    17.3365  17.4510  17.5927  17.6377  17.8352  17.9036  18.2748  18.7327
    18.8144  18.9689  19.0545  19.0735  19.1008  19.4946  19.5582  19.5670
    19.6213  19.8972  19.9405  20.1300  20.4369  20.9434  21.0480  21.0799
    21.1387  21.4301  21.4955

          k =-0.4465-0.2578 0.1390 (  5822 PWs)   bands (ev):

   -28.7479 -28.7411 -28.7323 -28.7260 -19.1966 -19.0686 -18.8912 -18.8037
   -18.5122 -18.3904 -18.3877 -18.2672  -6.9659  -6.9651  -6.9467  -6.9312
    -6.8726  -6.8441  -6.7888  -6.7501  -6.7038  -6.6900  -6.6792  -6.6630
    -2.9857  -2.7300  -2.1861  -1.8555  -1.5695  -1.3634  -1.2530  -1.1029
    -1.0933  -1.0312  -0.8249  -0.7261  -0.4863  -0.4625  -0.2699  -0.1663
    -0.0957   0.2571   0.3947   0.6785   0.7585   0.9940   1.0775   1.1378
    14.9717  15.6073  15.8612  15.8838  16.1186  16.2437  16.2663  16.5499
    16.5819  16.5830  16.6104  16.7715  16.8060  16.9722  17.0465  17.1462
    17.2678  17.4219  17.4461  17.7911  17.8339  17.9189  18.2631  18.2765
    18.3222  18.5362  18.9086  19.0535  19.2123  19.3318  19.6679  19.8983
    19.9853  20.2287  20.2580  20.2780  20.4868  20.6375  20.9915  21.0902
    21.1464  21.3979  21.5492

          k =-0.4465-0.2578-0.2781 (  5804 PWs)   bands (ev):

   -28.7450 -28.7450 -28.7279 -28.7279 -19.1333 -19.1333 -18.8679 -18.8679
   -18.3890 -18.3890 -18.3686 -18.3686  -6.9720  -6.9720  -6.9377  -6.9377
    -6.8503  -6.8503  -6.7558  -6.7558  -6.6883  -6.6883  -6.6803  -6.6803
    -2.8915  -2.8915  -1.9676  -1.9676  -1.3540  -1.3540  -1.2405  -1.2405
    -1.1907  -1.1907  -0.7916  -0.7915  -0.4724  -0.4724  -0.1936  -0.1936
     0.1903   0.1903   0.4649   0.4649   0.8909   0.8909   1.1167   1.1167
    15.2327  15.2327  15.8553  15.8553  16.2688  16.2688  16.3192  16.3192
    16.6552  16.6552  16.8750  16.8750  17.0717  17.0717  17.1172  17.1172
    17.1772  17.1772  17.4919  17.4919  17.9281  17.9281  17.9735  17.9735
    18.3776  18.3776  18.9534  18.9534  19.2421  19.2421  19.9542  19.9542
    20.0436  20.0436  20.3040  20.3040  20.7443  20.7443  21.2148  21.2148
    21.2718  21.2743  21.3939

          k =-0.4465 0.0859 0.0000 (  5827 PWs)   bands (ev):

   -28.7488 -28.7381 -28.7355 -28.7250 -19.2211 -19.0448 -18.8970 -18.7086
   -18.6369 -18.3905 -18.3881 -18.2306  -6.9612  -6.9542  -6.9392  -6.9259
    -6.8898  -6.8327  -6.8149  -6.7504  -6.7034  -6.6920  -6.6759  -6.6669
    -2.9637  -2.5418  -2.3824  -1.9078  -1.6089  -1.5411  -1.4575  -1.0263
    -0.9984  -0.9284  -0.7210  -0.5350  -0.5106  -0.4026  -0.3627  -0.3309
     0.1501   0.2706   0.5489   0.7146   0.7363   0.9138   0.9375   1.0246
    15.0905  15.7076  15.7309  15.7749  15.8823  16.2693  16.4192  16.4346
    16.4543  16.5730  16.6611  16.7294  16.8205  16.9111  16.9759  17.3301
    17.4508  17.5318  17.7513  17.7887  18.0678  18.2238  18.2343  18.3736
    18.6256  18.8520  18.8733  18.9909  19.0684  19.1871  19.3109  19.7280
    19.7335  19.8296  19.9378  19.9947  20.0472  20.5233  20.7988  20.9103
    21.0489  21.2473  21.3049

          k =-0.4465 0.0859 0.1390 (  5825 PWs)   bands (ev):

   -28.7481 -28.7412 -28.7320 -28.7260 -19.1964 -19.0689 -18.8914 -18.8036
   -18.5118 -18.3901 -18.3884 -18.2670  -6.9673  -6.9657  -6.9362  -6.9287
    -6.8778  -6.8478  -6.7872  -6.7534  -6.7049  -6.6870  -6.6790  -6.6679
    -2.9334  -2.6916  -2.2134  -1.9483  -1.5425  -1.4769  -1.4049  -1.0992
    -1.0274  -0.9522  -0.9426  -0.8192  -0.3998  -0.3420  -0.1994  -0.1462
     0.1648   0.2930   0.4834   0.6271   0.7784   0.9277   0.9407   1.0026
    15.1633  15.6476  15.7054  15.7665  15.9787  16.2089  16.3457  16.4332
    16.4939  16.5882  16.6643  16.7757  16.8705  16.9417  17.2034  17.4057
    17.4269  17.5008  17.7829  17.8083  17.9068  17.9869  18.2194  18.2608
    18.3853  18.6045  18.7882  19.0585  19.2055  19.2776  19.4692  19.5505
    19.7346  19.8668  20.0869  20.1462  20.2707  20.4785  20.6763  21.0058
    21.1974  21.2618  21.3369

          k =-0.4465 0.0859-0.2781 (  5824 PWs)   bands (ev):

   -28.7454 -28.7454 -28.7283 -28.7283 -19.1332 -19.1332 -18.8680 -18.8680
   -18.3893 -18.3893 -18.3683 -18.3683  -6.9743  -6.9743  -6.9337  -6.9337
    -6.8600  -6.8600  -6.7603  -6.7603  -6.6946  -6.6946  -6.6774  -6.6774
    -2.8428  -2.8428  -2.0430  -2.0430  -1.3811  -1.3811  -1.2961  -1.2961
    -1.1326  -1.1326  -0.9390  -0.9390  -0.3590  -0.3590  -0.0225  -0.0225
     0.2498   0.2498   0.4680   0.4680   0.8685   0.8685   0.9681   0.9681
    15.3873  15.3873  15.6942  15.6942  16.1839  16.1839  16.3834  16.3835
    16.5882  16.5882  16.7228  16.7228  17.1023  17.1023  17.2433  17.2433
    17.3515  17.3515  17.6713  17.6713  17.8982  17.8982  18.2168  18.2168
    18.5399  18.5399  18.8305  18.8305  19.1915  19.1915  19.5488  19.5488
    19.9148  19.9148  20.0363  20.0363  20.4921  20.4921  20.9875  20.9875
    21.1381  21.1381  21.3588

     the Fermi energy is    19.0338 ev

!    total energy              =   -1058.71387530 Ry
     Harris-Foulkes estimate   =   -1058.71388240 Ry
     estimated scf accuracy    <       0.00000790 Ry

     The total energy is the sum of the following terms:

     one-electron contribution =       8.83999188 Ry
     hartree contribution      =      91.84043818 Ry
     xc contribution           =    -133.72569434 Ry
     ewald contribution        =   -1024.77879923 Ry
     smearing contrib. (-TS)   =      -0.88981179 Ry

     convergence has been achieved in  10 iterations

     Forces acting on atoms (Ry/au):

     atom    1 type  1   force =     0.00000000    0.00000000   -0.00033615
     atom    2 type  1   force =     0.00000000    0.00000000   -0.00033615
     atom    3 type  1   force =     0.00000000    0.00000000    0.00033615
     atom    4 type  1   force =     0.00000000    0.00000000    0.00033615
     atom    5 type  2   force =     0.00000000    0.00000000    0.00000000
     atom    6 type  2   force =     0.00000000    0.00000000    0.00000000
     atom    7 type  2   force =     0.00000000    0.00456544    0.00000000
     atom    8 type  2   force =    -0.00395379    0.00228272    0.00000000
     atom    9 type  2   force =     0.00395379    0.00228272    0.00000000
     atom   10 type  2   force =    -0.00395379   -0.00228272    0.00000000
     atom   11 type  2   force =     0.00395379   -0.00228272    0.00000000
     atom   12 type  2   force =     0.00000000   -0.00456544    0.00000000

     Total force =     0.011203     Total SCF correction =     0.000000


     entering subroutine stress ...

          total   stress  (Ry/bohr**3)                   (kbar)     P=  -89.62
  -0.00057445   0.00000000   0.00000000        -84.50      0.00      0.00
   0.00000000  -0.00057445   0.00000000          0.00    -84.50      0.00
   0.00000000   0.00000000  -0.00067875          0.00      0.00    -99.85


     number of scf cycles    =   3
     number of bfgs steps    =   2

     enthalpy old            =   -1058.5630188546 Ry
     enthalpy new            =   -1058.7138752981 Ry

     CASE: enthalpy_new < enthalpy_old

     Message from routine bfgs:
     history already reset at previous step: stopping
     small trust_radius: resetting bfgs history

     new trust radius        =       0.1482636939 bohr
     new conv_thr            =       0.0000045654 Ry

     new unit-cell volume =   1822.71650 a.u.^3 (   270.09871 Ang^3 )

CELL_PARAMETERS (alat=  9.92348860)
   1.103852473   0.000000000   0.000000000
  -0.551926237   0.955964284   0.000000000
   0.000000000   0.000000000   1.767556470

ATOMIC_POSITIONS (crystal)
Mg       0.333333000   0.666667000   0.062640885
Mg       0.666667000   0.333333000   0.562640885
Mg       0.666667000   0.333333000   0.937359115
Mg       0.333333000   0.666667000   0.437359115
Zn       0.000000000   0.000000000   0.000000000
Zn       0.000000000   0.000000000   0.500000000
Zn       0.173932567   0.347865135   0.750000000
Zn       0.826067433   0.173932567   0.250000000
Zn       0.347865135   0.173932567   0.250000000
Zn       0.652134865   0.826067433   0.750000000
Zn       0.173932567   0.826067433   0.750000000
Zn       0.826067433   0.652134865   0.250000000



     Writing output data file Prototype-La-hP12-MgZn2.save
     NEW-OLD atomic charge density approx. for the potential
     NEW k-points:
        k(    1) = (   0.0000000   0.0000000   0.0000000), wk =   0.0833333
        k(    2) = (   0.0000000   0.0000000   0.1414382), wk =   0.1666667
        k(    3) = (   0.0000000   0.0000000  -0.2828764), wk =   0.0833333
        k(    4) = (   0.0000000   0.3486881   0.0000000), wk =   0.1666667
        k(    5) = (   0.0000000   0.3486881   0.1414382), wk =   0.3333333
        k(    6) = (   0.0000000   0.3486881  -0.2828764), wk =   0.1666667
        k(    7) = (  -0.4529591  -0.2615160   0.0000000), wk =   0.0833333
        k(    8) = (  -0.4529591  -0.2615160   0.1414382), wk =   0.1666667
        k(    9) = (  -0.4529591  -0.2615160  -0.2828764), wk =   0.0833333
        k(   10) = (  -0.4529591   0.0871720   0.0000000), wk =   0.1666667
        k(   11) = (  -0.4529591   0.0871720   0.1414382), wk =   0.3333333
        k(   12) = (  -0.4529591   0.0871720  -0.2828764), wk =   0.1666667

     total cpu time spent up to now is      454.2 secs

     Self-consistent Calculation

     iteration #  1     ecut=    40.00 Ry     beta=0.70
     CG style diagonalization
     c_bands:  1 eigenvalues not converged
     c_bands:  2 eigenvalues not converged
     c_bands:  2 eigenvalues not converged
     c_bands:  3 eigenvalues not converged
     c_bands:  2 eigenvalues not converged
     ethr =  1.00E-06,  avg # of iterations =  8.8

     total cpu time spent up to now is      477.7 secs

     total energy              =   -1058.62750794 Ry
     Harris-Foulkes estimate   =   -1058.92003236 Ry
     estimated scf accuracy    <       0.39634694 Ry

     iteration #  2     ecut=    40.00 Ry     beta=0.70
     CG style diagonalization
     ethr =  2.61E-04,  avg # of iterations =  3.9

     total cpu time spent up to now is      488.2 secs

     total energy              =   -1058.66775868 Ry
     Harris-Foulkes estimate   =   -1058.77437155 Ry
     estimated scf accuracy    <       0.17055691 Ry

     iteration #  3     ecut=    40.00 Ry     beta=0.70
     CG style diagonalization
     ethr =  1.12E-04,  avg # of iterations =  3.9

     total cpu time spent up to now is      499.5 secs

     total energy              =   -1058.69636749 Ry
     Harris-Foulkes estimate   =   -1058.77382526 Ry
     estimated scf accuracy    <       0.22406447 Ry

     iteration #  4     ecut=    40.00 Ry     beta=0.70
     CG style diagonalization
     ethr =  1.12E-04,  avg # of iterations =  3.4

     total cpu time spent up to now is      508.0 secs

     total energy              =   -1058.72976497 Ry
     Harris-Foulkes estimate   =   -1058.73852454 Ry
     estimated scf accuracy    <       0.02336171 Ry

     iteration #  5     ecut=    40.00 Ry     beta=0.70
     CG style diagonalization
     ethr =  1.54E-05,  avg # of iterations =  3.7

     total cpu time spent up to now is      517.9 secs

     total energy              =   -1058.73520066 Ry
     Harris-Foulkes estimate   =   -1058.73586691 Ry
     estimated scf accuracy    <       0.00145591 Ry

     iteration #  6     ecut=    40.00 Ry     beta=0.70
     CG style diagonalization
     c_bands:  1 eigenvalues not converged
     ethr =  9.58E-07,  avg # of iterations =  4.5

     total cpu time spent up to now is      529.7 secs

     total energy              =   -1058.73569323 Ry
     Harris-Foulkes estimate   =   -1058.73587486 Ry
     estimated scf accuracy    <       0.00053693 Ry

     iteration #  7     ecut=    40.00 Ry     beta=0.70
     CG style diagonalization
     ethr =  3.53E-07,  avg # of iterations =  3.6

     total cpu time spent up to now is      540.2 secs

     total energy              =   -1058.73575879 Ry
     Harris-Foulkes estimate   =   -1058.73578034 Ry
     estimated scf accuracy    <       0.00006206 Ry

     iteration #  8     ecut=    40.00 Ry     beta=0.70
     CG style diagonalization
     ethr =  4.08E-08,  avg # of iterations =  4.0

     total cpu time spent up to now is      549.8 secs

     End of self-consistent calculation

          k = 0.0000 0.0000 0.0000 (  5769 PWs)   bands (ev):

   -27.6912 -27.6742 -27.6504 -27.6325 -18.5560 -18.3184 -17.6863 -17.3952
   -17.3166 -17.3166 -17.3124 -17.3124  -5.9507  -5.9507  -5.9474  -5.9248
    -5.8852  -5.8852  -5.7325  -5.7123  -5.7122  -5.7069  -5.6745  -5.6745
    -3.2544  -2.6172  -1.6892  -0.9134  -0.9134  -0.7184  -0.7184  -0.5655
    -0.5655  -0.0600   0.5935   0.5935   0.6631   0.6631   0.8300   1.8148
     1.9099   1.9100   1.9657   1.9660   2.2985   2.2985   2.4334   2.4334
    14.7735  15.7703  15.9143  16.3817  16.6670  16.6670  17.1273  17.3059
    17.3059  17.3935  17.4764  17.4849  17.5558  17.5558  17.5813  17.5814
    17.7849  17.7850  18.2511  18.2512  18.6503  18.6504  18.8242  19.4284
    19.4285  20.0452  20.1284  20.1284  20.1638  20.1639  20.1658  20.1658
    20.6020  20.6020  21.0940  21.0940  21.4118  21.4579  21.4579  21.8997
    23.1434  23.3327  23.3352

          k = 0.0000 0.0000 0.1414 (  5780 PWs)   bands (ev):

   -27.6893 -27.6783 -27.6461 -27.6349 -18.5290 -18.3650 -17.6320 -17.4302
   -17.3161 -17.3160 -17.3131 -17.3130  -5.9518  -5.9394  -5.9394  -5.9281
    -5.9016  -5.9016  -5.7211  -5.7134  -5.7065  -5.7065  -5.6793  -5.6793
    -3.1965  -2.7828  -1.4312  -0.8965  -0.8965  -0.7791  -0.7791  -0.4402
    -0.4402  -0.3656   0.1924   0.1924   1.0753   1.0753   1.0791   1.7208
     1.7857   1.7858   1.9629   1.9632   2.3347   2.3347   2.4208   2.4208
    14.8552  15.2915  16.5422  16.5842  16.7362  16.7362  16.8287  16.8422
    17.1073  17.1073  17.5244  17.5244  17.5283  17.6110  17.6111  17.9013
    17.9013  17.9886  18.2744  18.2744  18.7191  18.7192  19.0750  19.2687
    19.2687  20.0108  20.0108  20.0415  20.1564  20.1564  20.3841  20.3841
    20.7912  20.7912  21.1276  21.1489  21.1489  21.2157  21.2157  21.2702
    23.1330  23.4416  23.4465

          k = 0.0000 0.0000-0.2829 (  5780 PWs)   bands (ev):

   -27.6846 -27.6846 -27.6395 -27.6395 -18.4558 -18.4558 -17.5224 -17.5224
   -17.3145 -17.3145 -17.3145 -17.3145  -5.9490  -5.9490  -5.9218  -5.9218
    -5.9218  -5.9217  -5.7155  -5.7155  -5.6867  -5.6867  -5.6866  -5.6866
    -3.0293  -3.0293  -0.9204  -0.9204  -0.8474  -0.8474  -0.8474  -0.8474
    -0.1711  -0.1711  -0.1711  -0.1711   1.4519   1.4519   1.4818   1.4818
     1.4818   1.4818   1.9666   1.9666   2.3861   2.3861   2.3861   2.3861
    15.0301  15.0301  16.4339  16.4339  16.8966  16.8966  16.8966  16.8966
    17.1269  17.1269  17.5139  17.5139  17.5140  17.5140  17.6598  17.6598
    18.1743  18.1743  18.1743  18.1743  18.9384  18.9384  18.9385  18.9385
    19.7213  19.7213  20.0750  20.0750  20.0750  20.0750  20.7480  20.7480
    20.7480  20.7480  20.8719  20.8719  21.1113  21.1113  21.1113  21.1113
    23.2985  23.2999  23.3518

          k = 0.0000 0.3487 0.0000 (  5787 PWs)   bands (ev):

   -27.6830 -27.6649 -27.6588 -27.6417 -18.3826 -18.1588 -17.7719 -17.6879
   -17.5133 -17.3204 -17.3152 -17.1507  -5.9721  -5.9574  -5.9553  -5.9290
    -5.9051  -5.8626  -5.7725  -5.7051  -5.6966  -5.6853  -5.6386  -5.6365
    -2.5782  -2.0416  -1.6161  -0.8769  -0.7418  -0.6646  -0.5301  -0.4345
    -0.2104   0.2187   0.2355   0.4369   0.4886   0.6314   0.6523   1.2168
     1.2875   1.4458   1.6611   1.9066   1.9159   2.1122   2.2096   2.3247
    15.9109  15.9636  16.2647  16.6949  16.8065  17.0958  17.2024  17.2280
    17.2496  17.4396  17.4942  17.5373  17.7495  17.7607  18.0557  18.1271
    18.2738  18.2974  18.5757  18.6504  18.7979  19.0360  19.2046  19.5040
    19.6198  19.6506  19.8878  19.9547  20.1936  20.2046  20.3716  20.6111
    20.6548  20.6840  20.7643  21.2449  21.4424  21.5655  21.5924  21.8288
    22.0196  22.3534  22.8418

          k = 0.0000 0.3487 0.1414 (  5804 PWs)   bands (ev):

   -27.6815 -27.6702 -27.6541 -27.6433 -18.3554 -18.1989 -17.7683 -17.7227
   -17.4306 -17.3197 -17.3160 -17.1896  -5.9844  -5.9725  -5.9571  -5.9349
    -5.8950  -5.8703  -5.7556  -5.7161  -5.6864  -5.6763  -5.6472  -5.6423
    -2.5376  -2.2111  -1.3893  -0.9451  -0.7160  -0.5329  -0.5050  -0.4363
    -0.1802  -0.1230   0.0212   0.2112   0.6637   0.8090   0.9394   1.2409
     1.2711   1.4741   1.5852   1.8014   1.9365   2.0817   2.2461   2.3174
    15.9158  15.9979  16.2873  16.6144  16.8100  17.0511  17.2325  17.2561
    17.3586  17.4093  17.6150  17.6650  17.7020  17.7898  17.9681  18.0197
    18.1343  18.4236  18.4626  18.6484  18.9943  19.1078  19.2626  19.3473
    19.4416  19.5516  19.7111  20.0301  20.1121  20.3790  20.4176  20.4718
    20.5155  20.8649  20.9924  21.2709  21.3518  21.4580  21.5398  21.6088
    22.3849  22.5493  22.8005

          k = 0.0000 0.3487-0.2829 (  5816 PWs)   bands (ev):

   -27.6771 -27.6771 -27.6478 -27.6478 -18.2834 -18.2834 -17.7547 -17.7547
   -17.3178 -17.3178 -17.2947 -17.2947  -5.9887  -5.9886  -5.9462  -5.9462
    -5.8848  -5.8848  -5.7317  -5.7317  -5.6652  -5.6652  -5.6609  -5.6609
    -2.4141  -2.4141  -1.1013  -1.1013  -0.5172  -0.5172  -0.4579  -0.4579
    -0.2861  -0.2861  -0.0486  -0.0486   0.8466   0.8466   1.1854   1.1854
     1.3966   1.3966   1.5955   1.5955   2.0100   2.0100   2.2923   2.2923
    15.9914  15.9914  16.3474  16.3474  17.0413  17.0413  17.2837  17.2837
    17.3972  17.3972  17.7355  17.7355  17.7482  17.7482  17.8263  17.8263
    18.2742  18.2742  18.5923  18.5923  19.0428  19.0428  19.0688  19.0688
    19.7067  19.7067  19.9662  19.9662  20.1560  20.1560  20.2920  20.2920
    20.8694  20.8694  20.8772  20.8772  21.4604  21.4604  21.6577  21.6577
    22.3971  22.3976  23.2340

          k =-0.4530-0.2615 0.0000 (  5800 PWs)   bands (ev):

   -27.6773 -27.6642 -27.6606 -27.6465 -18.2811 -18.0773 -17.9084 -17.6884
   -17.6080 -17.3217 -17.3162 -17.1285  -5.9736  -5.9684  -5.9620  -5.9407
    -5.8910  -5.8135  -5.8123  -5.7285  -5.6849  -5.6657  -5.6387  -5.6352
    -2.2648  -1.7756  -1.5866  -0.9705  -0.7703  -0.5179  -0.3603  -0.1124
    -0.1066   0.1146   0.1352   0.3248   0.5082   0.5453   0.6450   0.7280
     0.8665   1.2386   1.5592   1.8246   1.9158   2.1878   2.2014   2.3106
    15.6651  16.5175  16.7943  16.8433  16.9920  17.1251  17.2081  17.2640
    17.3791  17.4004  17.4133  17.5069  17.6802  17.7479  17.8100  18.0013
    18.3409  18.3565  18.5617  18.5684  18.8693  18.8865  19.3522  19.6909
    19.8168  19.9442  20.0893  20.0964  20.2243  20.5350  20.6188  20.6233
    20.6316  20.9823  21.1188  21.3329  21.5476  22.1227  22.2541  22.2646
    22.3523  22.5563  22.6151

          k =-0.4530-0.2615 0.1414 (  5822 PWs)   bands (ev):

   -27.6767 -27.6682 -27.6565 -27.6484 -18.2526 -18.1051 -17.9020 -17.8002
   -17.4602 -17.3209 -17.3170 -17.1717  -5.9900  -5.9867  -5.9637  -5.9483
    -5.8747  -5.8405  -5.7778  -5.7317  -5.6825  -5.6668  -5.6499  -5.6343
    -2.2318  -1.9567  -1.3643  -1.0021  -0.6986  -0.4688  -0.3419  -0.1780
    -0.1778  -0.0962   0.1236   0.2415   0.5107   0.5380   0.7343   0.8542
     0.9388   1.3296   1.4749   1.7999   1.8928   2.1442   2.2365   2.3031
    15.7574  16.4428  16.7185  16.7546  16.9697  17.0750  17.1495  17.4360
    17.4382  17.4413  17.4744  17.6684  17.6863  17.9064  17.9343  18.0980
    18.2494  18.3676  18.3695  18.7263  18.8760  18.8838  19.2172  19.2998
    19.3918  19.4983  19.8976  20.0621  20.2144  20.4382  20.7252  20.9979
    21.0611  21.3425  21.4102  21.4462  21.6774  21.7777  22.1728  22.2575
    22.2768  22.5304  22.7291

          k =-0.4530-0.2615-0.2829 (  5804 PWs)   bands (ev):

   -27.6732 -27.6731 -27.6513 -27.6513 -18.1796 -18.1796 -17.8749 -17.8749
   -17.3189 -17.3189 -17.2914 -17.2914  -5.9986  -5.9986  -5.9551  -5.9551
    -5.8491  -5.8491  -5.7393  -5.7393  -5.6638  -5.6638  -5.6536  -5.6536
    -2.1312  -2.1312  -1.1236  -1.1236  -0.4577  -0.4577  -0.3366  -0.3366
    -0.2746  -0.2746   0.1642   0.1642   0.5262   0.5262   0.8210   0.8210
     1.2496   1.2496   1.5610   1.5610   2.0338   2.0338   2.2801   2.2801
    16.0417  16.0417  16.7165  16.7165  17.1261  17.1261  17.1648  17.1648
    17.4886  17.4886  17.8205  17.8205  18.0308  18.0308  18.0433  18.0433
    18.0910  18.0910  18.4428  18.4428  18.9282  18.9282  18.9563  18.9564
    19.3375  19.3375  19.9491  19.9492  20.2882  20.2882  21.1108  21.1108
    21.1211  21.1211  21.4482  21.4482  21.8892  21.8892  22.3429  22.3430
    22.4316  22.4318  22.5925

          k =-0.4530 0.0872 0.0000 (  5827 PWs)   bands (ev):

   -27.6779 -27.6642 -27.6606 -27.6472 -18.2806 -18.0779 -17.9088 -17.6885
   -17.6071 -17.3210 -17.3175 -17.1283  -5.9804  -5.9714  -5.9530  -5.9393
    -5.8980  -5.8308  -5.8122  -5.7350  -5.6832  -5.6677  -5.6469  -5.6353
    -2.2075  -1.7455  -1.5864  -1.0600  -0.7425  -0.6587  -0.5705  -0.0887
    -0.0674   0.0152   0.2366   0.4506   0.4813   0.5895   0.6472   0.6772
     1.2070   1.3421   1.6501   1.8395   1.8645   2.0563   2.0800   2.1757
    15.8786  16.5643  16.5752  16.6279  16.7370  17.1433  17.2725  17.2983
    17.3306  17.4064  17.5311  17.5805  17.7544  17.8342  17.9061  18.2118
    18.3742  18.4979  18.6936  18.7508  19.0472  19.2516  19.2900  19.4298
    19.6401  19.8710  19.8850  20.0292  20.1091  20.2349  20.3624  20.7939
    20.8822  20.9311  20.9883  21.1053  21.1225  21.6795  21.9685  22.0373
    22.1889  22.4069  22.5035

          k =-0.4530 0.0872 0.1414 (  5825 PWs)   bands (ev):

   -27.6768 -27.6683 -27.6563 -27.6484 -18.2523 -18.1055 -17.9022 -17.8001
   -17.4598 -17.3205 -17.3180 -17.1715  -5.9920  -5.9871  -5.9503  -5.9422
    -5.8817  -5.8475  -5.7777  -5.7361  -5.6838  -5.6618  -5.6514  -5.6376
    -2.1749  -1.9139  -1.3946  -1.1051  -0.6650  -0.5910  -0.5132  -0.1680
    -0.0971  -0.0134  -0.0027   0.1343   0.6030   0.6658   0.8144   0.8784
     1.2234   1.3668   1.5782   1.7414   1.9108   2.0692   2.0860   2.1524
    15.9605  16.4873  16.5622  16.6186  16.8371  17.0598  17.2085  17.3023
    17.3459  17.4432  17.5302  17.6594  17.7672  17.8409  18.1807  18.3382
    18.3807  18.4675  18.7354  18.7749  18.8644  18.9592  19.2193  19.3023
    19.3952  19.6182  19.8411  20.0720  20.2629  20.3389  20.5428  20.6588
    20.7968  20.9441  21.1901  21.2390  21.3751  21.6286  21.7951  22.1489
    22.3478  22.4106  22.4734

          k =-0.4530 0.0872-0.2829 (  5824 PWs)   bands (ev):

   -27.6734 -27.6734 -27.6515 -27.6515 -18.1796 -18.1796 -17.8751 -17.8751
   -17.3193 -17.3193 -17.2910 -17.2910  -6.0009  -6.0009  -5.9477  -5.9477
    -5.8607  -5.8606  -5.7442  -5.7442  -5.6707  -5.6707  -5.6493  -5.6493
    -2.0776  -2.0776  -1.2081  -1.2081  -0.4883  -0.4883  -0.3860  -0.3860
    -0.2136  -0.2136   0.0014   0.0014   0.6471   0.6471   1.0100   1.0100
     1.3178   1.3178   1.5648   1.5648   2.0071   2.0071   2.1159   2.1159
    16.2070  16.2070  16.5457  16.5457  17.0299  17.0299  17.2482  17.2482
    17.4319  17.4319  17.6183  17.6183  18.0427  18.0427  18.1570  18.1570
    18.3377  18.3377  18.6251  18.6251  18.8782  18.8782  19.2035  19.2035
    19.5499  19.5499  19.8647  19.8647  20.2524  20.2524  20.6261  20.6261
    20.9902  20.9902  21.1377  21.1377  21.6166  21.6166  22.1044  22.1044
    22.2731  22.2731  22.5096

     the Fermi energy is    20.0662 ev

!    total energy              =   -1058.73577425 Ry
     Harris-Foulkes estimate   =   -1058.73577480 Ry
     estimated scf accuracy    <       0.00000064 Ry

     The total energy is the sum of the following terms:

     one-electron contribution =      30.03827518 Ry
     hartree contribution      =      87.14707428 Ry
     xc contribution           =    -134.44545289 Ry
     ewald contribution        =   -1040.62946173 Ry
     smearing contrib. (-TS)   =      -0.84620909 Ry

     convergence has been achieved in   8 iterations

     Forces acting on atoms (Ry/au):

     atom    1 type  1   force =     0.00000000    0.00000000    0.00219351
     atom    2 type  1   force =     0.00000000    0.00000000    0.00219351
     atom    3 type  1   force =     0.00000000    0.00000000   -0.00219351
     atom    4 type  1   force =     0.00000000    0.00000000   -0.00219351
     atom    5 type  2   force =     0.00000000    0.00000000    0.00000000
     atom    6 type  2   force =     0.00000000    0.00000000    0.00000000
     atom    7 type  2   force =     0.00000000   -0.00027155    0.00000000
     atom    8 type  2   force =     0.00023517   -0.00013578    0.00000000
     atom    9 type  2   force =    -0.00023517   -0.00013578    0.00000000
     atom   10 type  2   force =     0.00023517    0.00013578    0.00000000
     atom   11 type  2   force =    -0.00023517    0.00013578    0.00000000
     atom   12 type  2   force =     0.00000000    0.00027155    0.00000000

     Total force =     0.004437     Total SCF correction =     0.000000


     entering subroutine stress ...

          total   stress  (Ry/bohr**3)                   (kbar)     P=   17.95
   0.00015181   0.00000000   0.00000000         22.33      0.00      0.00
[...]
     c_bands:  1 eigenvalues not converged
     c_bands:  2 eigenvalues not converged
     c_bands:  1 eigenvalues not converged
     c_bands:  1 eigenvalues not converged
     c_bands:  3 eigenvalues not converged
     c_bands:  1 eigenvalues not converged
     ethr =  1.00E-06,  avg # of iterations = 37.4

     total cpu time spent up to now is      688.5 secs

     total energy              =    -976.60305596 Ry
     Harris-Foulkes estimate   =   -1179.39024730 Ry
     estimated scf accuracy    <     276.38599930 Ry

     iteration #  2     ecut=    40.00 Ry     beta=0.70
     CG style diagonalization
     ethr =  1.00E-02,  avg # of iterations =  7.4

     total cpu time spent up to now is      715.1 secs

     total energy              =    -978.78706780 Ry
     Harris-Foulkes estimate   =   -1118.24021450 Ry
     estimated scf accuracy    <     248.79129397 Ry

     iteration #  3     ecut=    40.00 Ry     beta=0.70
     CG style diagonalization
     c_bands:  1 eigenvalues not converged
     c_bands:  1 eigenvalues not converged
     c_bands:  1 eigenvalues not converged
     ethr =  1.00E-02,  avg # of iterations =  8.3

     total cpu time spent up to now is      744.1 secs

     total energy              =   -1047.59523700 Ry
     Harris-Foulkes estimate   =   -1078.78002791 Ry
     estimated scf accuracy    <      75.86744140 Ry

     iteration #  4     ecut=    40.00 Ry     beta=0.70
     CG style diagonalization
     ethr =  1.00E-02,  avg # of iterations =  5.0

     total cpu time spent up to now is      761.7 secs

     total energy              =   -1058.28654036 Ry
     Harris-Foulkes estimate   =   -1059.12326421 Ry
     estimated scf accuracy    <       1.80941923 Ry

     iteration #  5     ecut=    40.00 Ry     beta=0.70
     CG style diagonalization
     c_bands:  1 eigenvalues not converged
     c_bands:  1 eigenvalues not converged
     c_bands:  1 eigenvalues not converged
     ethr =  1.19E-03,  avg # of iterations =  5.2

     total cpu time spent up to now is      782.7 secs

     total energy              =   -1058.97416078 Ry
     Harris-Foulkes estimate   =   -1059.38913775 Ry
     estimated scf accuracy    <       1.07208332 Ry

     iteration #  6     ecut=    40.00 Ry     beta=0.70
     CG style diagonalization
     c_bands:  2 eigenvalues not converged
     ethr =  7.05E-04,  avg # of iterations =  3.9

     total cpu time spent up to now is      797.9 secs

     total energy              =   -1059.20059854 Ry
     Harris-Foulkes estimate   =   -1059.21001334 Ry
     estimated scf accuracy    <       0.02350405 Ry

     iteration #  7     ecut=    40.00 Ry     beta=0.70
     CG style diagonalization
     c_bands:  1 eigenvalues not converged
     c_bands:  1 eigenvalues not converged
     c_bands:  1 eigenvalues not converged
     c_bands:  4 eigenvalues not converged
     c_bands:  3 eigenvalues not converged
     c_bands:  3 eigenvalues not converged
     c_bands:  4 eigenvalues not converged
     c_bands:  5 eigenvalues not converged
     c_bands:  2 eigenvalues not converged
     ethr =  1.55E-05,  avg # of iterations =  6.7

     total cpu time spent up to now is      823.4 secs

     total energy              =   -1059.22689574 Ry
     Harris-Foulkes estimate   =   -1059.23039383 Ry
     estimated scf accuracy    <       0.00916874 Ry

     iteration #  8     ecut=    40.00 Ry     beta=0.70
     CG style diagonalization
     c_bands:  1 eigenvalues not converged
     c_bands:  1 eigenvalues not converged
     c_bands:  2 eigenvalues not converged
     c_bands:  1 eigenvalues not converged
     ethr =  6.03E-06,  avg # of iterations =  4.0

     total cpu time spent up to now is      839.9 secs

     total energy              =   -1059.22860680 Ry
     Harris-Foulkes estimate   =   -1059.22918898 Ry
     estimated scf accuracy    <       0.00122449 Ry

     iteration #  9     ecut=    40.00 Ry     beta=0.70
     CG style diagonalization
     c_bands:  1 eigenvalues not converged
     c_bands:  1 eigenvalues not converged
     c_bands:  1 eigenvalues not converged
     ethr =  8.06E-07,  avg # of iterations =  4.7

     total cpu time spent up to now is      857.3 secs

     total energy              =   -1059.22903662 Ry
     Harris-Foulkes estimate   =   -1059.22925481 Ry
     estimated scf accuracy    <       0.00070648 Ry

     iteration # 10     ecut=    40.00 Ry     beta=0.70
     CG style diagonalization
     ethr =  4.65E-07,  avg # of iterations =  3.4

     total cpu time spent up to now is      870.5 secs

     total energy              =   -1059.22909487 Ry
     Harris-Foulkes estimate   =   -1059.22912586 Ry
     estimated scf accuracy    <       0.00008949 Ry

     iteration # 11     ecut=    40.00 Ry     beta=0.70
     CG style diagonalization
     c_bands:  1 eigenvalues not converged
     ethr =  5.89E-08,  avg # of iterations =  4.6

     total cpu time spent up to now is      886.3 secs

     End of self-consistent calculation

          k = 0.0000 0.0000 0.0000 (  7715 PWs)   bands (ev):

   -27.6332 -27.6151 -27.5906 -27.5732 -18.5241 -18.2860 -17.6476 -17.3562
   -17.2819 -17.2818 -17.2770 -17.2770  -6.0291  -6.0256  -6.0256  -5.9992
    -5.9741  -5.9741  -5.8327  -5.8087  -5.8087  -5.7971  -5.7683  -5.7683
    -3.2618  -2.6342  -1.7085  -0.9357  -0.9357  -0.7414  -0.7414  -0.5818
    -0.5818  -0.0791   0.5695   0.5696   0.6403   0.6403   0.8101   1.7817
     1.8756   1.8757   1.9316   1.9364   2.2707   2.2707   2.3964   2.3964
    14.7680  15.7611  15.9097  16.3827  16.6590  16.6590  17.1174  17.2936
    17.2936  17.3802  17.4609  17.4716  17.5471  17.5471  17.5687  17.5687
    17.7748  17.7748  18.2378  18.2379  18.6332  18.6332  18.8087  19.4116
    19.4116  20.0319  20.1120  20.1120  20.1477  20.1477  20.1484  20.1484
    20.5802  20.5802  21.0846  21.0846  21.3952  21.4431  21.4431  21.8709
    23.1171  23.6888  23.6890

          k = 0.0000 0.0000 0.1414 (  7757 PWs)   bands (ev):

   -27.6312 -27.6190 -27.5869 -27.5751 -18.4970 -18.3327 -17.5938 -17.3909
   -17.2818 -17.2817 -17.2782 -17.2782  -6.0325  -6.0230  -6.0230  -6.0106
    -5.9849  -5.9849  -5.8186  -5.8018  -5.8018  -5.7965  -5.7723  -5.7723
    -3.2066  -2.7986  -1.4473  -0.9190  -0.9190  -0.8010  -0.8010  -0.4578
    -0.4577  -0.3902   0.1722   0.1723   1.0521   1.0521   1.0585   1.6876
     1.7527   1.7528   1.9316   1.9342   2.3048   2.3048   2.3861   2.3861
    14.8495  15.2855  16.5414  16.5765  16.7286  16.7286  16.8178  16.8267
    17.0983  17.0983  17.5108  17.5108  17.5204  17.5981  17.5982  17.8903
    17.8903  17.9710  18.2606  18.2606  18.7044  18.7044  19.0561  19.2524
    19.2524  19.9927  19.9927  20.0252  20.1396  20.1396  20.3682  20.3682
    20.7729  20.7729  21.1114  21.1381  21.1381  21.1994  21.1994  21.2499
    23.1010  23.4181  23.4240

          k = 0.0000 0.0000-0.2829 (  7740 PWs)   bands (ev):

   -27.6259 -27.6259 -27.5802 -27.5802 -18.4237 -18.4237 -17.4838 -17.4838
   -17.2796 -17.2796 -17.2796 -17.2796  -6.0277  -6.0277  -6.0059  -6.0059
    -6.0059  -6.0059  -5.7981  -5.7981  -5.7847  -5.7847  -5.7847  -5.7847
    -3.0426  -3.0426  -0.9340  -0.9340  -0.8709  -0.8709  -0.8709  -0.8709
    -0.1916  -0.1916  -0.1916  -0.1916   1.4262   1.4262   1.4537   1.4537
     1.4537   1.4537   1.9336   1.9336   2.3544   2.3544   2.3545   2.3545
    15.0247  15.0247  16.4251  16.4251  16.8891  16.8891  16.8891  16.8891
    17.1223  17.1223  17.4994  17.4994  17.4994  17.4994  17.6447  17.6447
    18.1611  18.1611  18.1611  18.1611  18.9229  18.9229  18.9229  18.9229
    19.7023  19.7023  20.0569  20.0569  20.0569  20.0569  20.7312  20.7312
    20.7312  20.7312  20.8610  20.8610  21.0977  21.0977  21.0977  21.0977
    23.2619  23.3305  23.3306

          k = 0.0000 0.3487 0.0000 (  7813 PWs)   bands (ev):

   -27.6240 -27.6061 -27.5995 -27.5820 -18.3502 -18.1266 -17.7376 -17.6502
   -17.4794 -17.2865 -17.2807 -17.1135  -6.0499  -6.0405  -6.0370  -6.0155
    -5.9843  -5.9418  -5.8660  -5.7999  -5.7927  -5.7792  -5.7388  -5.7329
    -2.5910  -2.0595  -1.6287  -0.8962  -0.7613  -0.6870  -0.5486  -0.4554
    -0.2354   0.1946   0.2093   0.4124   0.4636   0.6108   0.6281   1.1940
     1.2611   1.4185   1.6338   1.8792   1.8799   2.0789   2.1785   2.2943
    15.9024  15.9529  16.2544  16.6844  16.7945  17.0856  17.1924  17.2160
    17.2351  17.4301  17.4814  17.5242  17.7341  17.7485  18.0426  18.1123
    18.2578  18.2809  18.5571  18.6330  18.7830  19.0237  19.1879  19.4885
    19.6023  19.6310  19.8674  19.9322  20.1770  20.1824  20.3491  20.5896
    20.6325  20.6607  20.7396  21.2190  21.4191  21.5440  21.5701  21.8082
    21.9953  22.3320  22.8251

          k = 0.0000 0.3487 0.1414 (  7783 PWs)   bands (ev):

   -27.6224 -27.6114 -27.5943 -27.5835 -18.3227 -18.1662 -17.7335 -17.6863
   -17.3950 -17.2855 -17.2814 -17.1523  -6.0612  -6.0491  -6.0360  -6.0180
    -5.9721  -5.9499  -5.8436  -5.8025  -5.7818  -5.7711  -5.7436  -5.7387
    -2.5496  -2.2257  -1.4041  -0.9641  -0.7357  -0.5533  -0.5219  -0.4570
    -0.2033  -0.1445   0.0007   0.1885   0.6412   0.7889   0.9147   1.2172
     1.2446   1.4461   1.5588   1.7714   1.9092   2.0504   2.2159   2.2874
    15.9076  15.9877  16.2761  16.6028  16.7997  17.0405  17.2208  17.2447
    17.3473  17.3968  17.6023  17.6506  17.6924  17.7777  17.9543  18.0064
    18.1198  18.4101  18.4477  18.6320  18.9789  19.0944  19.2446  19.3309
    19.4234  19.5326  19.6915  20.0131  20.0934  20.3576  20.3945  20.4555
    20.4942  20.8426  20.9694  21.2503  21.3298  21.4359  21.5203  21.5873
    22.3580  22.5219  22.7767

          k = 0.0000 0.3487-0.2829 (  7774 PWs)   bands (ev):

   -27.6179 -27.6178 -27.5879 -27.5879 -18.2504 -18.2504 -17.7194 -17.7194
   -17.2836 -17.2836 -17.2580 -17.2580  -6.0656  -6.0656  -6.0273  -6.0273
    -5.9592  -5.9592  -5.8154  -5.8154  -5.7580  -5.7580  -5.7560  -5.7559
    -2.4259  -2.4259  -1.1178  -1.1178  -0.5373  -0.5373  -0.4774  -0.4774
    -0.3036  -0.3036  -0.0696  -0.0696   0.8269   0.8269   1.1602   1.1602
     1.3713   1.3713   1.5676   1.5676   1.9802   1.9802   2.2623   2.2623
    15.9824  15.9824  16.3367  16.3367  17.0294  17.0294  17.2726  17.2726
    17.3841  17.3841  17.7249  17.7249  17.7353  17.7353  17.8145  17.8145
    18.2604  18.2605  18.5784  18.5784  19.0271  19.0271  19.0543  19.0543
    19.6855  19.6855  19.9462  19.9462  20.1388  20.1388  20.2724  20.2724
    20.8487  20.8487  20.8575  20.8575  21.4407  21.4407  21.6345  21.6345
    22.3683  22.3684  23.2075

          k =-0.4530-0.2615 0.0000 (  7800 PWs)   bands (ev):

   -27.6187 -27.6046 -27.6010 -27.5871 -18.2480 -18.0447 -17.8749 -17.6505
   -17.5742 -17.2876 -17.2816 -17.0909  -6.0499  -6.0482  -6.0423  -6.0253
    -5.9696  -5.9020  -5.8950  -5.8140  -5.7781  -5.7688  -5.7311  -5.7302
    -2.2781  -1.7946  -1.5986  -0.9832  -0.7898  -0.5364  -0.3862  -0.1362
    -0.1219   0.0896   0.1141   0.2946   0.4900   0.5198   0.6240   0.7053
     0.8423   1.2145   1.5321   1.7994   1.8813   2.1546   2.1711   2.2796
    15.6568  16.5086  16.7847  16.8325  16.9808  17.1107  17.1936  17.2530
    17.3651  17.3874  17.4038  17.4912  17.6644  17.7352  17.7942  17.9853
    18.3241  18.3424  18.5441  18.5535  18.8560  18.8733  19.3373  19.6702
    19.7979  19.9231  20.0614  20.0811  20.2106  20.5157  20.5970  20.5979
    20.6080  20.9617  21.0957  21.3019  21.5155  22.1048  22.2251  22.2313
    22.3286  22.5263  22.6018

          k =-0.4530-0.2615 0.1414 (  7796 PWs)   bands (ev):

   -27.6175 -27.6090 -27.5966 -27.5883 -18.2192 -18.0723 -17.8682 -17.7647
   -17.4243 -17.2868 -17.2828 -17.1344  -6.0639  -6.0624  -6.0400  -6.0284
    -5.9538  -5.9202  -5.8601  -5.8142  -5.7738  -5.7620  -5.7379  -5.7354
    -2.2450  -1.9720  -1.3772  -1.0156  -0.7160  -0.4873  -0.3675  -0.1989
    -0.1934  -0.1172   0.1012   0.2140   0.4949   0.5154   0.7133   0.8328
     0.9166   1.3058   1.4502   1.7699   1.8656   2.1136   2.2070   2.2730
    15.7494  16.4332  16.7097  16.7440  16.9573  17.0622  17.1357  17.4233
    17.4238  17.4286  17.4625  17.6540  17.6731  17.8915  17.9187  18.0843
    18.2362  18.3524  18.3566  18.7087  18.8623  18.8706  19.2016  19.2798
    19.3749  19.4780  19.8811  20.0429  20.1940  20.4208  20.7077  20.9729
    21.0403  21.3189  21.3840  21.4209  21.6570  21.7452  22.1409  22.2353
    22.2454  22.5020  22.7054

          k =-0.4530-0.2615-0.2829 (  7792 PWs)   bands (ev):

   -27.6140 -27.6140 -27.5917 -27.5917 -18.1463 -18.1463 -17.8405 -17.8405
   -17.2848 -17.2848 -17.2546 -17.2546  -6.0757  -6.0757  -6.0351  -6.0351
    -5.9334  -5.9333  -5.8259  -5.8259  -5.7572  -5.7572  -5.7477  -5.7477
    -2.1442  -2.1442  -1.1372  -1.1372  -0.4778  -0.4778  -0.3530  -0.3530
    -0.3006  -0.3006   0.1384   0.1384   0.5067   0.5067   0.7973   0.7973
     1.2245   1.2245   1.5345   1.5345   2.0009   2.0009   2.2501   2.2501
    16.0332  16.0332  16.7056  16.7056  17.1135  17.1135  17.1519  17.1519
    17.4741  17.4741  17.8081  17.8081  18.0155  18.0155  18.0288  18.0288
    18.0791  18.0791  18.4274  18.4274  18.9148  18.9148  18.9421  18.9421
    19.3152  19.3152  19.9306  19.9306  20.2677  20.2677  21.0888  21.0888
    21.1027  21.1028  21.4231  21.4231  21.8569  21.8569  22.3131  22.3137
    22.4020  22.4025  22.5675

          k =-0.4530 0.0872 0.0000 (  7792 PWs)   bands (ev):

   -27.6188 -27.6046 -27.6010 -27.5871 -18.2473 -18.0454 -17.8749 -17.6505
   -17.5733 -17.2869 -17.2832 -17.0908  -6.0524  -6.0476  -6.0285  -6.0175
    -5.9733  -5.9110  -5.8981  -5.8244  -5.7764  -5.7601  -5.7382  -5.7256
    -2.2189  -1.7610  -1.5981  -1.0758  -0.7605  -0.6770  -0.5871  -0.1127
    -0.0896  -0.0077   0.2169   0.4289   0.4581   0.5675   0.6246   0.6588
     1.1845   1.3180   1.6248   1.8136   1.8344   2.0297   2.0541   2.1466
    15.8697  16.5532  16.5633  16.6183  16.7268  17.1329  17.2598  17.2859
    17.3185  17.3930  17.5173  17.5665  17.7413  17.8207  17.8924  18.1973
    18.3604  18.4848  18.6739  18.7345  19.0296  19.2357  19.2736  19.4122
    19.6247  19.8526  19.8676  20.0099  20.0866  20.2155  20.3393  20.7728
    20.8571  20.9083  20.9654  21.0783  21.1019  21.6600  21.9440  22.0158
    22.1665  22.3751  22.4800

          k =-0.4530 0.0872 0.1414 (  7795 PWs)   bands (ev):

   -27.6175 -27.6090 -27.5966 -27.5883 -18.2189 -18.0727 -17.8683 -17.7647
   -17.4237 -17.2864 -17.2838 -17.1341  -6.0669  -6.0608  -6.0285  -6.0204
    -5.9586  -5.9282  -5.8633  -5.8214  -5.7749  -5.7556  -5.7442  -5.7303
    -2.1869  -1.9274  -1.4077  -1.1201  -0.6829  -0.6097  -0.5310  -0.1896
    -0.1187  -0.0333  -0.0264   0.1136   0.5812   0.6462   0.7909   0.8557
     1.1998   1.3421   1.5526   1.7126   1.8830   2.0429   2.0584   2.1216
    15.9515  16.4768  16.5507  16.6072  16.8277  17.0470  17.1962  17.2913
    17.3326  17.4310  17.5171  17.6448  17.7541  17.8276  18.1678  18.3239
    18.3661  18.4528  18.7202  18.7583  18.8477  18.9437  19.2033  19.2852
    19.3773  19.5997  19.8219  20.0524  20.2424  20.3167  20.5209  20.6366
    20.7753  20.9208  21.1698  21.2160  21.3532  21.6041  21.7675  22.1244
    22.3236  22.3851  22.4480

          k =-0.4530 0.0872-0.2829 (  7786 PWs)   bands (ev):

   -27.6140 -27.6140 -27.5917 -27.5917 -18.1463 -18.1463 -17.8406 -17.8406
   -17.2851 -17.2851 -17.2541 -17.2541  -6.0757  -6.0757  -6.0248  -6.0248
    -5.9410  -5.9410  -5.8292  -5.8292  -5.7622  -5.7622  -5.7417  -5.7417
    -2.0898  -2.0898  -1.2229  -1.2229  -0.5066  -0.5066  -0.4051  -0.4051
    -0.2335  -0.2335  -0.0214  -0.0214   0.6262   0.6262   0.9863   0.9863
     1.2943   1.2943   1.5375   1.5375   1.9790   1.9790   2.0882   2.0882
    16.1974  16.1974  16.5346  16.5346  17.0177  17.0177  17.2356  17.2356
    17.4184  17.4184  17.6051  17.6051  18.0308  18.0308  18.1443  18.1443
    18.3238  18.3238  18.6103  18.6103  18.8629  18.8629  19.1862  19.1862
    19.5290  19.5290  19.8454  19.8454  20.2312  20.2312  20.6057  20.6057
    20.9687  20.9687  21.1148  21.1148  21.5929  21.5929  22.0777  22.0777
    22.2472  22.2472  22.4817

     the Fermi energy is    20.0474 ev

!    total energy              =   -1059.22912962 Ry
     Harris-Foulkes estimate   =   -1059.22913307 Ry
     estimated scf accuracy    <       0.00000388 Ry

     The total energy is the sum of the following terms:

     one-electron contribution =      29.30035710 Ry
     hartree contribution      =      87.44430708 Ry
     xc contribution           =    -134.49615458 Ry
     ewald contribution        =   -1040.62946133 Ry
     smearing contrib. (-TS)   =      -0.84817789 Ry

     convergence has been achieved in  11 iterations

     Forces acting on atoms (Ry/au):

     atom    1 type  1   force =     0.00000000    0.00000000    0.00522062
     atom    2 type  1   force =     0.00000000    0.00000000    0.00522062
     atom    3 type  1   force =     0.00000000    0.00000000   -0.00522062
     atom    4 type  1   force =     0.00000000    0.00000000   -0.00522062
     atom    5 type  2   force =     0.00000000    0.00000000    0.00000000
     atom    6 type  2   force =     0.00000000    0.00000000    0.00000000
     atom    7 type  2   force =     0.00000000    0.00268057    0.00000000
     atom    8 type  2   force =    -0.00232144    0.00134029    0.00000000
     atom    9 type  2   force =     0.00232144    0.00134029    0.00000000
     atom   10 type  2   force =    -0.00232144   -0.00134029    0.00000000
     atom   11 type  2   force =     0.00232144   -0.00134029    0.00000000
     atom   12 type  2   force =     0.00000000   -0.00268057    0.00000000

     Total force =     0.012334     Total SCF correction =     0.000000


     entering subroutine stress ...

          total   stress  (Ry/bohr**3)                   (kbar)     P=  174.79
   0.00122784   0.00000000   0.00000000        180.62      0.00      0.00
   0.00000000   0.00122784   0.00000000          0.00    180.62      0.00
   0.00000000   0.00000000   0.00110884          0.00      0.00    163.12


     Writing output data file Prototype-La-hP12-MgZn2.save
 
     init_run     :      4.70s CPU      6.69s WALL (       2 calls)
     electrons    :    724.22s CPU    857.20s WALL (       5 calls)
     update_pot   :      2.97s CPU      3.02s WALL (       3 calls)
     forces       :      5.17s CPU      5.35s WALL (       5 calls)
     stress       :     13.02s CPU     13.36s WALL (       5 calls)

     Called by init_run:
     wfcinit      :      3.48s CPU      4.37s WALL (       2 calls)
     potinit      :      0.51s CPU      0.52s WALL (       2 calls)

     Called by electrons:
     c_bands      :    700.45s CPU    797.67s WALL (      48 calls)
     sum_band     :     23.14s CPU     30.06s WALL (      48 calls)
     v_of_rho     :      0.12s CPU      0.15s WALL (      53 calls)
     mix_rho      :      0.13s CPU      0.17s WALL (      48 calls)

     Called by c_bands:
     init_us_2    :      1.90s CPU      2.33s WALL (    1296 calls)
     ccgdiagg     :    627.61s CPU    707.72s WALL (     623 calls)
     wfcrot       :     74.70s CPU     91.67s WALL (     635 calls)

     Called by *cgdiagg:
     h_psi        :    468.99s CPU    559.79s WALL (  260838 calls)
     cdiaghg      :      2.21s CPU      2.41s WALL (     635 calls)

     Called by h_psi:
     add_vuspsi   :     78.49s CPU     85.83s WALL (  260838 calls)

     General routines
     calbec       :    189.80s CPU    199.71s WALL (  521161 calls)
     fft          :      0.30s CPU      0.34s WALL (     235 calls)
     fftw         :    288.10s CPU    350.74s WALL (  688392 calls)
     davcio       :      0.73s CPU      1.89s WALL (    1872 calls)
 
     Parallel routines
     fft_scatter  :    127.03s CPU    156.03s WALL (  688627 calls)
 
     PWSCF        : 12m30.56s CPU    14m51.25s WALL

 
   This run was terminated on:  17:45:41  22Mar2018            

=------------------------------------------------------------------------------=
   JOB DONE.
=------------------------------------------------------------------------------=
