
     Program PWSCF v.5.0.2 starts on 22Mar2018 at 17:30:51 

     This program is part of the open-source Quantum ESPRESSO suite
     for quantum simulation of materials; please cite
         "P. Giannozzi et al., J. Phys.:Condens. Matter 21 395502 (2009);
          URL http://www.quantum-espresso.org", 
     in publications or presentations arising from this work. More details at
     http://www.quantum-espresso.org/quote.php

     Parallel version (MPI), running on     4 processors
     R & G space division:  proc/nbgrp/npool/nimage =       4

     Current dimensions of program PWSCF are:
     Max number of different atomic species (ntypx) = 10
     Max number of k-points (npk) =  40000
     Max angular momentum in pseudopotentials (lmaxx) =  3
     Waiting for input...
     Reading input from standard input

     Subspace diagonalization in iterative solution of the eigenvalue problem:
     a serial algorithm will be used

 
     Parallelization info
     --------------------
     sticks:   dense  smooth     PW     G-vecs:    dense   smooth      PW
     Min         396     396    112                10116    10116    1566
     Max         397     397    113                10119    10119    1567
     Sum        1585    1585    451                40467    40467    6267
 


     bravais-lattice index     =            0
     lattice parameter (alat)  =      12.0168  a.u.
     unit-cell volume          =    1187.3413 (a.u.)^3
     number of atoms/cell      =            8
     number of atomic types    =            2
     number of electrons       =       108.00
     number of Kohn-Sham states=           65
     kinetic-energy cutoff     =      40.0000  Ry
     charge density cutoff     =     160.0000  Ry
     convergence threshold     =      1.0E-04
     mixing beta               =       0.7000
     number of iterations used =            8  plain     mixing
     Exchange-correlation      = SLA-PZ-NOGX-NOGC ( 1 1 0 0 0)
     EXX-fraction              =        0.00
     nstep                     =           50


     celldm(1)=  12.016801  celldm(2)=   0.000000  celldm(3)=   0.000000
     celldm(4)=   0.000000  celldm(5)=   0.000000  celldm(6)=   0.000000

     crystal axes: (cart. coord. in units of alat)
               a(1) = (   1.000000   0.000000   0.000000 )  
               a(2) = (  -0.500000   0.866025   0.000000 )  
               a(3) = (   0.000000   0.000000   0.790093 )  

     reciprocal axes: (cart. coord. in units 2 pi/alat)
               b(1) = (  1.000000  0.577350  0.000000 )  
               b(2) = (  0.000000  1.154701  0.000000 )  
               b(3) = (  0.000000  0.000000  1.265674 )  


     PseudoPot. # 1 for Nd read from file:
     /home/cwx6513/pp.La/Nd.UPF
     MD5 check sum: c66c5b6abe7b5840ced9b1e244e3bed6
     Pseudo is Norm-conserving, Zval = 14.0
     Generated in analytical, separable form
     Using radial grid of 1257 points,  6 beta functions with: 
                l(1) =   0
                l(2) =   0
                l(3) =   1
                l(4) =   1
                l(5) =   2
                l(6) =   3

     PseudoPot. # 2 for Ce read from file:
     /home/cwx6513/pp.La/Ce.UPF
     MD5 check sum: 44451aa79a44a00cf2bc029dc19922f6
     Pseudo is Norm-conserving, Zval = 12.0
     Generated in analytical, separable form
     Using radial grid of 1255 points,  6 beta functions with: 
                l(1) =   0
                l(2) =   0
                l(3) =   1
                l(4) =   1
                l(5) =   2
                l(6) =   3

     atomic species   valence    mass     pseudopotential
        Mg            14.00    24.30500     Nd( 1.00)
        Cd            12.00   112.41100     Ce( 1.00)

     24 Sym. Ops., with inversion, found (12 have fractional translation)



   Cartesian axes

     site n.     atom                  positions (alat units)
         1           Mg  tau(   1) = (   0.2478935   0.7204716   0.1975233  )
         2           Mg  tau(   2) = (   0.7478935   0.1455538   0.5925699  )
         3           Mg  tau(   3) = (   0.2521065   0.1455538   0.5925699  )
         4           Mg  tau(   4) = (  -0.2478935   0.7204716   0.1975233  )
         5           Mg  tau(   5) = (   0.0000000   0.2911075   0.1975233  )
         6           Mg  tau(   6) = (   0.5000000   0.5749179   0.5925699  )
         7           Cd  tau(   7) = (   0.5000005   0.2886748   0.1975233  )
         8           Cd  tau(   8) = (  -0.0000005   0.5773506   0.5925699  )

     number of k points=    64  gaussian smearing, width (Ry)=  0.1000
                       cart. coord. in units 2pi/alat
        k(    1) = (   0.0000000   0.0000000   0.0000000), wk =   0.0095238
        k(    2) = (   0.0000000   0.0000000   0.1808105), wk =   0.0190476
        k(    3) = (   0.0000000   0.0000000   0.3616210), wk =   0.0190476
        k(    4) = (   0.0000000   0.0000000   0.5424315), wk =   0.0190476
        k(    5) = (   0.0000000   0.1924501   0.0000000), wk =   0.0190476
        k(    6) = (   0.0000000   0.1924501   0.1808105), wk =   0.0380952
        k(    7) = (   0.0000000   0.1924501   0.3616210), wk =   0.0380952
        k(    8) = (   0.0000000   0.1924501   0.5424315), wk =   0.0380952
        k(    9) = (   0.0000000   0.3849002   0.0000000), wk =   0.0190476
        k(   10) = (   0.0000000   0.3849002   0.1808105), wk =   0.0380952
        k(   11) = (   0.0000000   0.3849002   0.3616210), wk =   0.0380952
        k(   12) = (   0.0000000   0.3849002   0.5424315), wk =   0.0380952
        k(   13) = (   0.0000000  -0.5773503   0.0000000), wk =   0.0095238
        k(   14) = (   0.0000000  -0.5773503   0.1808105), wk =   0.0190476
        k(   15) = (   0.0000000  -0.5773503   0.3616210), wk =   0.0190476
        k(   16) = (   0.0000000  -0.5773503   0.5424315), wk =   0.0190476
        k(   17) = (   0.2000000   0.1154701   0.0000000), wk =   0.0190476
        k(   18) = (   0.2000000   0.1154701   0.1808105), wk =   0.0380952
        k(   19) = (   0.2000000   0.1154701   0.3616210), wk =   0.0380952
        k(   20) = (   0.2000000   0.1154701   0.5424315), wk =   0.0380952
        k(   21) = (   0.2000000   0.3079201   0.0000000), wk =   0.0190476
        k(   22) = (   0.2000000   0.3079201   0.1808105), wk =   0.0380952
        k(   23) = (   0.2000000   0.3079201   0.3616210), wk =   0.0380952
        k(   24) = (   0.2000000   0.3079201   0.5424315), wk =   0.0380952
        k(   25) = (   0.2000000   0.5003702   0.0000000), wk =   0.0190476
        k(   26) = (   0.2000000   0.5003702   0.1808105), wk =   0.0380952
        k(   27) = (   0.2000000   0.5003702   0.3616210), wk =   0.0380952
        k(   28) = (   0.2000000   0.5003702   0.5424315), wk =   0.0380952
        k(   29) = (   0.2000000  -0.4618802   0.0000000), wk =   0.0190476
        k(   30) = (   0.2000000  -0.4618802   0.1808105), wk =   0.0380952
        k(   31) = (   0.2000000  -0.4618802   0.3616210), wk =   0.0380952
        k(   32) = (   0.2000000  -0.4618802   0.5424315), wk =   0.0380952
        k(   33) = (   0.2000000  -0.2694301   0.0000000), wk =   0.0190476
        k(   34) = (   0.2000000  -0.2694301   0.1808105), wk =   0.0380952
        k(   35) = (   0.2000000  -0.2694301   0.3616210), wk =   0.0380952
        k(   36) = (   0.2000000  -0.2694301   0.5424315), wk =   0.0380952
        k(   37) = (   0.2000000  -0.0769800   0.0000000), wk =   0.0190476
        k(   38) = (   0.2000000  -0.0769800   0.1808105), wk =   0.0380952
        k(   39) = (   0.2000000  -0.0769800   0.3616210), wk =   0.0380952
        k(   40) = (   0.2000000  -0.0769800   0.5424315), wk =   0.0380952
        k(   41) = (   0.4000000   0.2309401   0.0000000), wk =   0.0190476
        k(   42) = (   0.4000000   0.2309401   0.1808105), wk =   0.0380952
        k(   43) = (   0.4000000   0.2309401   0.3616210), wk =   0.0380952
        k(   44) = (   0.4000000   0.2309401   0.5424315), wk =   0.0380952
        k(   45) = (   0.4000000   0.4233902   0.0000000), wk =   0.0190476
        k(   46) = (   0.4000000   0.4233902   0.1808105), wk =   0.0380952
        k(   47) = (   0.4000000   0.4233902   0.3616210), wk =   0.0380952
        k(   48) = (   0.4000000   0.4233902   0.5424315), wk =   0.0380952
        k(   49) = (   0.4000000   0.6158403   0.0000000), wk =   0.0190476
        k(   50) = (   0.4000000   0.6158403   0.1808105), wk =   0.0380952
        k(   51) = (   0.4000000   0.6158403   0.3616210), wk =   0.0380952
        k(   52) = (   0.4000000   0.6158403   0.5424315), wk =   0.0380952
        k(   53) = (   0.4000000  -0.3464102   0.0000000), wk =   0.0190476
        k(   54) = (   0.4000000  -0.3464102   0.1808105), wk =   0.0380952
        k(   55) = (   0.4000000  -0.3464102   0.3616210), wk =   0.0380952
        k(   56) = (   0.4000000  -0.3464102   0.5424315), wk =   0.0380952
        k(   57) = (   0.4000000  -0.1539601   0.0000000), wk =   0.0190476
        k(   58) = (   0.4000000  -0.1539601   0.1808105), wk =   0.0380952
        k(   59) = (   0.4000000  -0.1539601   0.3616210), wk =   0.0380952
        k(   60) = (   0.4000000  -0.1539601   0.5424315), wk =   0.0380952
        k(   61) = (   0.4000000   0.0384900   0.0000000), wk =   0.0190476
        k(   62) = (   0.4000000   0.0384900   0.1808105), wk =   0.0380952
        k(   63) = (   0.4000000   0.0384900   0.3616210), wk =   0.0380952
        k(   64) = (   0.4000000   0.0384900   0.5424315), wk =   0.0380952

     Dense  grid:    40467 G-vectors     FFT dimensions: (  50,  50,  40)

     Largest allocated arrays     est. size (Mb)     dimensions
        Kohn-Sham Wavefunctions         1.29 Mb     (   1298,   65)
        NL pseudopotentials             3.17 Mb     (   1298,  160)
        Each V/rho on FFT grid          0.38 Mb     (  25000)
        Each G-vector array             0.08 Mb     (  10119)
        G-vector shells                 0.08 Mb     (  10119)
     Largest temporary arrays     est. size (Mb)     dimensions
        Each subspace H/S matrix        0.06 Mb     (  65,  65)
        Each <psi_i|beta_j> matrix      0.16 Mb     (    160,   65)
        Arrays for rho mixing           3.05 Mb     (  25000,   8)

     Initial potential from superposition of free atoms

     Starting from uniform charge
     Starting wfc are    0 randomized atomic wfcs

     total cpu time spent up to now is        7.7 secs

     Self-consistent Calculation

     iteration #  1     ecut=    40.00 Ry     beta=0.70
     CG style diagonalization
     ethr =  1.00E-02,  avg # of iterations =  9.0

     total cpu time spent up to now is       70.8 secs

     total energy              =    -760.43521807 Ry
     Harris-Foulkes estimate   =    -916.41036521 Ry
     estimated scf accuracy    <     212.88121856 Ry

     iteration #  2     ecut=    40.00 Ry     beta=0.70
     CG style diagonalization
     ethr =  1.00E-02,  avg # of iterations =  8.4

     total cpu time spent up to now is      128.5 secs

     total energy              =    -779.15143429 Ry
     Harris-Foulkes estimate   =    -839.93528127 Ry
     estimated scf accuracy    <      94.68651407 Ry

     iteration #  3     ecut=    40.00 Ry     beta=0.70
     CG style diagonalization
     c_bands:  1 eigenvalues not converged
     c_bands:  1 eigenvalues not converged
     ethr =  1.00E-02,  avg # of iterations =  8.5

     total cpu time spent up to now is      187.1 secs

     total energy              =    -804.44771543 Ry
     Harris-Foulkes estimate   =    -834.17844712 Ry
     estimated scf accuracy    <      76.36944757 Ry

     iteration #  4     ecut=    40.00 Ry     beta=0.70
     CG style diagonalization
     ethr =  1.00E-02,  avg # of iterations =  4.9

     total cpu time spent up to now is      220.7 secs

     total energy              =    -815.93429159 Ry
     Harris-Foulkes estimate   =    -818.41596000 Ry
     estimated scf accuracy    <       6.12710307 Ry

     iteration #  5     ecut=    40.00 Ry     beta=0.70
     CG style diagonalization
     ethr =  5.67E-03,  avg # of iterations =  3.6

     total cpu time spent up to now is      244.4 secs

     total energy              =    -816.69739312 Ry
     Harris-Foulkes estimate   =    -817.08038201 Ry
     estimated scf accuracy    <       0.92014971 Ry

     iteration #  6     ecut=    40.00 Ry     beta=0.70
     CG style diagonalization
     ethr =  8.52E-04,  avg # of iterations =  4.6

     total cpu time spent up to now is      275.2 secs

     total energy              =    -816.98160735 Ry
     Harris-Foulkes estimate   =    -816.99127189 Ry
     estimated scf accuracy    <       0.02293935 Ry

     iteration #  7     ecut=    40.00 Ry     beta=0.70
     CG style diagonalization
     c_bands:  1 eigenvalues not converged
     c_bands:  1 eigenvalues not converged
     c_bands:  1 eigenvalues not converged
     c_bands:  2 eigenvalues not converged
     c_bands:  1 eigenvalues not converged
     c_bands:  3 eigenvalues not converged
     c_bands:  1 eigenvalues not converged
     c_bands:  3 eigenvalues not converged
     c_bands:  1 eigenvalues not converged
     c_bands:  3 eigenvalues not converged
     c_bands:  1 eigenvalues not converged
     c_bands:  2 eigenvalues not converged
     c_bands:  1 eigenvalues not converged
     c_bands:  1 eigenvalues not converged
     c_bands:  1 eigenvalues not converged
     c_bands:  1 eigenvalues not converged
     c_bands:  4 eigenvalues not converged
     c_bands:  1 eigenvalues not converged
     c_bands:  1 eigenvalues not converged
     c_bands:  1 eigenvalues not converged
     c_bands:  1 eigenvalues not converged
     c_bands:  1 eigenvalues not converged
     c_bands:  2 eigenvalues not converged
     c_bands:  1 eigenvalues not converged
     c_bands:  2 eigenvalues not converged
     c_bands:  1 eigenvalues not converged
     c_bands:  1 eigenvalues not converged
     c_bands:  1 eigenvalues not converged
     ethr =  2.12E-05,  avg # of iterations =  6.4

     total cpu time spent up to now is      319.0 secs

     total energy              =    -816.99764160 Ry
     Harris-Foulkes estimate   =    -817.01824747 Ry
     estimated scf accuracy    <       0.04910257 Ry

     iteration #  8     ecut=    40.00 Ry     beta=0.70
     CG style diagonalization
     c_bands:  1 eigenvalues not converged
     c_bands:  2 eigenvalues not converged
     c_bands:  1 eigenvalues not converged
     c_bands:  1 eigenvalues not converged
     c_bands:  1 eigenvalues not converged
     ethr =  2.12E-05,  avg # of iterations =  4.1

     total cpu time spent up to now is      347.2 secs

     total energy              =    -817.00552810 Ry
     Harris-Foulkes estimate   =    -817.00590435 Ry
     estimated scf accuracy    <       0.00064144 Ry

     iteration #  9     ecut=    40.00 Ry     beta=0.70
     CG style diagonalization
     c_bands:  1 eigenvalues not converged
     c_bands:  1 eigenvalues not converged
     c_bands:  1 eigenvalues not converged
     c_bands:  1 eigenvalues not converged
     c_bands:  1 eigenvalues not converged
     c_bands:  1 eigenvalues not converged
     c_bands:  1 eigenvalues not converged
     ethr =  5.94E-07,  avg # of iterations =  6.2

     total cpu time spent up to now is      389.9 secs

     total energy              =    -817.00609388 Ry
     Harris-Foulkes estimate   =    -817.00673014 Ry
     estimated scf accuracy    <       0.00145512 Ry

     iteration # 10     ecut=    40.00 Ry     beta=0.70
     CG style diagonalization
     c_bands:  1 eigenvalues not converged
     c_bands:  1 eigenvalues not converged
     ethr =  5.94E-07,  avg # of iterations =  4.0

     total cpu time spent up to now is      416.9 secs

     End of self-consistent calculation

          k = 0.0000 0.0000 0.0000 (  5047 PWs)   bands (ev):

   -26.9964 -26.7694 -26.7693 -26.7339 -26.6433 -26.6432 -16.5831 -16.5786
    -6.0482  -6.0456  -5.6815  -5.6159  -5.6158  -5.4374  -5.4374  -5.4255
    -5.4255  -5.0314  -4.7414  -4.7414  -4.5804  -4.5328  -4.5328  -4.5297
    -4.5297  -4.4725   1.4390   1.4707   1.5440   1.5440   1.5646   1.5646
    15.8009  15.9920  15.9921  16.0572  16.2425  16.8965  16.8966  16.9935
    17.2655  17.2655  17.4842  19.1235  19.5117  19.5117  19.9368  19.9368
    20.1487  20.8505  20.8505  21.1058  21.2556  21.2557  21.4186  21.4187
    21.5249  21.5249  21.7283  21.7283  21.9218  22.3251  24.3818  24.9932
    25.0602

          k = 0.0000 0.0000 0.1808 (  5065 PWs)   bands (ev):

   -26.9836 -26.7632 -26.7631 -26.7471 -26.6495 -26.6494 -16.5850 -16.5803
    -6.0619  -5.9918  -5.7529  -5.7529  -5.6810  -5.5011  -5.5011  -5.2533
    -5.2532  -5.0033  -4.7239  -4.7239  -4.6180  -4.5327  -4.5326  -4.5158
    -4.5158  -4.5031   1.4466   1.4505   1.5527   1.5527   1.5663   1.5663
    15.9787  16.1042  16.1042  16.2302  16.2805  16.3453  16.3454  16.5679
    17.9461  17.9462  18.0435  19.3216  19.3909  19.3909  19.6932  19.8606
    19.8606  20.1458  20.1458  20.1800  20.6896  20.6896  21.2490  21.2490
    21.9009  21.9009  22.2164  23.1694  23.2004  23.2004  23.8111  24.7651
    25.2021

          k = 0.0000 0.0000 0.3616 (  5047 PWs)   bands (ev):

   -26.9476 -26.7837 -26.7456 -26.7456 -26.6670 -26.6669 -16.5876 -16.5846
    -6.0724  -5.9458  -5.8666  -5.8666  -5.6611  -5.6611  -5.5679  -4.9988
    -4.9988  -4.9305  -4.7459  -4.6976  -4.6975  -4.5839  -4.5344  -4.5344
    -4.4972  -4.4972   1.4199   1.4552   1.5704   1.5704   1.5738   1.5738
    16.0192  16.0192  16.1144  16.3253  16.3992  16.3992  16.6758  16.7600
    18.2381  18.2382  18.3058  18.3059  18.3309  18.3936  19.7692  19.7692
    19.8809  19.9038  20.2544  20.2544  20.5833  20.5833  21.5031  21.5031
    22.3490  22.6123  22.6123  22.6286  23.4723  24.4782  24.6275  24.6287
    24.7848

          k = 0.0000 0.0000 0.5424 (  5041 PWs)   bands (ev):

   -26.8951 -26.8367 -26.7203 -26.7203 -26.6923 -26.6922 -16.5895 -16.5885
    -6.0517  -5.9988  -5.8852  -5.8852  -5.8078  -5.8078  -5.2868  -4.9773
    -4.8222  -4.7974  -4.7974  -4.7011  -4.7011  -4.6976  -4.5373  -4.5372
    -4.5141  -4.5141   1.4187   1.4422   1.5816   1.5816   1.5826   1.5826
    16.1386  16.1386  16.2225  16.5184  16.5285  16.5285  17.0148  17.2066
    17.5738  17.5739  17.6298  17.9485  17.9485  17.9725  19.7477  19.7477
    19.9370  19.9370  20.0732  20.8351  21.0787  21.4884  21.4884  22.0581
    22.5798  22.5798  22.7288  22.7288  23.5401  24.2853  24.2855  24.2863
    24.2865

          k = 0.0000 0.1925 0.0000 (  5083 PWs)   bands (ev):

   -26.9837 -26.7838 -26.7699 -26.7317 -26.6445 -26.6429 -16.5847 -16.5807
    -6.0152  -5.9844  -5.6347  -5.5849  -5.5836  -5.4706  -5.4423  -5.4005
    -5.3663  -5.0566  -4.7960  -4.7389  -4.6448  -4.5845  -4.5834  -4.5383
    -4.5291  -4.4944   1.4420   1.4694   1.4895   1.5160   1.5284   1.5472
    16.0353  16.1697  16.2923  16.3406  16.4797  16.8810  16.9487  17.1452
    17.3716  17.5140  17.6892  19.1810  19.4168  19.4792  19.6140  20.1539
    20.5068  20.6747  21.0451  21.0732  21.1203  21.1350  21.2004  21.3459
    21.3511  21.3769  21.3801  21.3803  21.5727  22.1260  23.1507  24.5785
    24.9401

          k = 0.0000 0.1925 0.1808 (  5077 PWs)   bands (ev):

   -26.9711 -26.7777 -26.7636 -26.7430 -26.6520 -26.6491 -16.5861 -16.5825
    -5.9940  -5.9631  -5.7341  -5.7185  -5.6320  -5.4763  -5.4462  -5.2737
    -5.2723  -5.0151  -4.7776  -4.7275  -4.6401  -4.5862  -4.5785  -4.5592
    -4.5258  -4.5051   1.4487   1.4498   1.5016   1.5188   1.5372   1.5504
    16.1582  16.3091  16.3921  16.4567  16.4946  16.5056  16.5565  16.7351
    18.0626  18.0705  18.1853  19.2515  19.2543  19.4438  19.4768  19.7127
    19.9960  20.0683  20.1282  20.2938  20.4398  20.8962  21.1729  21.2721
    21.7415  21.7644  22.1153  22.5896  22.6675  22.7377  23.1326  24.4963
    24.6855

          k = 0.0000 0.1925 0.3616 (  5061 PWs)   bands (ev):

   -26.9358 -26.7804 -26.7558 -26.7460 -26.6724 -26.6667 -16.5892 -16.5865
    -6.0064  -5.9075  -5.8395  -5.8272  -5.6383  -5.6109  -5.5343  -5.0832
    -5.0244  -4.8853  -4.7892  -4.7366  -4.6807  -4.6311  -4.5998  -4.5529
    -4.5378  -4.4858   1.4223   1.4550   1.5228   1.5268   1.5556   1.5586
    16.1328  16.1966  16.2746  16.5563  16.6624  16.7126  16.9133  17.0030
    18.1996  18.2429  18.3178  18.5529  18.5590  18.5616  19.5509  19.5756
    19.7713  19.8707  19.9592  20.1521  20.3646  20.5898  21.4876  21.7218
    22.0857  22.5065  22.5686  22.6511  23.1359  23.4333  23.5728  24.0467
    24.1906

          k = 0.0000 0.1925 0.5424 (  5050 PWs)   bands (ev):

   -26.8849 -26.8288 -26.7306 -26.7205 -26.7006 -26.6922 -16.5913 -16.5903
    -5.9936  -5.9460  -5.8545  -5.8433  -5.7763  -5.7627  -5.2795  -4.9876
    -4.9406  -4.8266  -4.8183  -4.7328  -4.7213  -4.6295  -4.6060  -4.5545
    -4.5521  -4.5073   1.4210   1.4422   1.5360   1.5370   1.5675   1.5682
    16.2613  16.3314  16.3987  16.6573  16.7795  16.7881  17.2771  17.4613
    17.6759  17.6809  17.7300  18.1116  18.1641  18.1901  19.2832  19.4445
    19.9265  20.1305  20.1687  20.4761  20.9846  21.1254  21.3622  21.7317
    22.2260  22.4181  22.5775  22.8164  23.2152  23.6017  23.7677  23.9777
    23.9827

          k = 0.0000 0.3849 0.0000 (  5079 PWs)   bands (ev):

   -26.9497 -26.8232 -26.7709 -26.7225 -26.6493 -26.6420 -16.5869 -16.5843
    -5.9410  -5.8218  -5.5706  -5.5516  -5.4908  -5.4876  -5.4467  -5.2742
    -5.2269  -5.1198  -4.8842  -4.8556  -4.7704  -4.7297  -4.7118  -4.6023
    -4.4913  -4.4624   1.3828   1.4193   1.4505   1.4672   1.4995   1.5128
    16.4374  16.7979  16.8529  16.9488  16.9780  17.1169  17.1226  17.5703
    17.7411  18.1074  18.1968  18.9194  19.3056  19.3963  19.8824  20.0503
    20.0507  20.2705  20.3460  20.4640  20.7042  20.7826  20.8468  20.9817
    21.1456  21.3474  21.4045  21.4788  21.7078  21.7294  22.3469  23.3258
    24.0539

          k = 0.0000 0.3849 0.1808 (  5090 PWs)   bands (ev):

   -26.9377 -26.8169 -26.7645 -26.7305 -26.6599 -26.6484 -16.5887 -16.5863
    -5.8961  -5.8393  -5.6857  -5.6278  -5.5797  -5.3542  -5.3330  -5.3017
    -5.2834  -5.0438  -4.8925  -4.8573  -4.7809  -4.7093  -4.6653  -4.5647
    -4.5154  -4.5018   1.3949   1.4208   1.4540   1.4572   1.5080   1.5169
    16.4875  16.7667  16.8184  16.9145  17.0082  17.1625  17.2340  17.2937
    18.2539  18.3115  18.4777  18.8689  19.1022  19.1452  19.4584  19.7338
    19.7895  20.0326  20.0417  20.3058  20.5589  20.6576  20.9483  21.2369
    21.2516  21.6208  21.6538  21.7863  21.8615  22.2654  22.5303  23.2911
    23.9163

          k = 0.0000 0.3849 0.3616 (  5078 PWs)   bands (ev):

   -26.9043 -26.8018 -26.7517 -26.7466 -26.6877 -26.6663 -16.5922 -16.5904
    -5.8773  -5.8310  -5.7494  -5.7280  -5.6003  -5.4869  -5.4027  -5.2156
    -5.0928  -4.8991  -4.8977  -4.8539  -4.8086  -4.6590  -4.6269  -4.6200
    -4.5450  -4.4949   1.4145   1.4286   1.4457   1.4559   1.5264   1.5281
    16.4593  16.6707  16.7215  17.0495  17.1961  17.5034  17.5538  17.6108
    18.0695  18.1182  18.3716  18.7926  18.9134  18.9551  19.3221  19.3454
    19.4345  19.5233  19.7360  20.4282  20.4830  20.8928  21.0486  21.2125
    21.3778  21.7178  22.0351  22.2809  22.3981  22.7296  22.7510  22.8921
    23.1567

          k = 0.0000 0.3849 0.5424 (  5051 PWs)   bands (ev):

   -26.8575 -26.8115 -26.7540 -26.7230 -26.7208 -26.6921 -16.5945 -16.5938
    -5.8881  -5.8585  -5.7358  -5.7240  -5.6523  -5.6483  -5.2769  -5.0961
    -5.0794  -4.9743  -4.8890  -4.8507  -4.7059  -4.6638  -4.6264  -4.5841
    -4.5787  -4.5099   1.4219   1.4348   1.4507   1.4525   1.5390   1.5399
    16.6039  16.8126  16.8457  17.0195  17.2700  17.3041  17.6486  17.9519
    18.0175  18.0916  18.1020  18.4724  18.6139  18.7148  18.9296  18.9976
    19.8028  19.9961  20.2465  20.4600  20.6686  20.8275  20.9885  21.2328
    21.2934  21.6818  21.7329  22.0710  22.1657  22.4392  22.6647  22.8085
    23.4938

          k = 0.0000-0.5774 0.0000 (  5068 PWs)   bands (ev):

   -26.9201 -26.8556 -26.7713 -26.7162 -26.6533 -26.6415 -16.5880 -16.5859
    -5.8898  -5.6984  -5.6117  -5.6009  -5.4498  -5.4062  -5.3436  -5.2284
    -5.0891  -5.0881  -5.0511  -4.9692  -4.8777  -4.8466  -4.7277  -4.6216
    -4.4908  -4.4361   1.3313   1.3706   1.4559   1.4646   1.4861   1.4950
    16.8003  16.8399  16.9464  16.9585  17.4562  17.5194  17.9587  18.0361
    18.2712  18.3515  18.4469  19.0686  19.1626  19.2150  19.3743  19.3972
    19.4654  19.6343  20.1144  20.3107  20.3498  20.6091  20.8095  20.9140
    21.1890  21.2284  21.5569  21.5952  22.0877  22.1535  22.2958  22.8309
    23.1169

          k = 0.0000-0.5774 0.1808 (  5072 PWs)   bands (ev):

   -26.9079 -26.8494 -26.7649 -26.7222 -26.6661 -26.6480 -16.5898 -16.5878
    -5.8534  -5.7596  -5.6363  -5.5921  -5.5541  -5.3830  -5.2588  -5.1750
    -5.1212  -5.0882  -5.0860  -5.0315  -4.8595  -4.7638  -4.6780  -4.5788
    -4.5016  -4.4954   1.3464   1.3737   1.4567   1.4568   1.4944   1.4998
    16.8112  16.9382  16.9554  17.0692  17.3613  17.5344  17.9614  18.0752
    18.3961  18.4447  18.4935  18.6214  18.8190  19.0470  19.1607  19.3904
    19.9027  19.9399  20.1033  20.1159  20.5585  20.6403  20.7930  20.8569
    20.9213  21.1144  21.5556  21.8185  22.1843  22.2326  22.4982  22.7736
    23.2198

          k = 0.0000-0.5774 0.3616 (  5090 PWs)   bands (ev):

   -26.8742 -26.8326 -26.7470 -26.7385 -26.7008 -26.6661 -16.5937 -16.5923
    -5.8241  -5.8045  -5.6553  -5.6511  -5.5724  -5.4074  -5.2867  -5.2216
    -5.1958  -5.0219  -4.9880  -4.9858  -4.8039  -4.6587  -4.6433  -4.6386
    -4.5294  -4.5105   1.3771   1.3830   1.4416   1.4529   1.5124   1.5126
    16.8494  16.9835  17.1300  17.1835  17.5277  17.6761  17.6821  17.8372
    18.3586  18.4411  18.4655  18.6177  18.7259  18.9387  19.2551  19.4652
    19.8129  19.8337  19.9818  20.1176  20.4345  20.5182  20.9578  20.9591
    20.9624  21.1329  21.4719  21.8329  22.1402  22.1536  22.4050  22.6739
    22.8007

          k = 0.0000-0.5774 0.5424 (  5080 PWs)   bands (ev):

   -26.8297 -26.8137 -26.7577 -26.7454 -26.7209 -26.6921 -16.5963 -16.5960
    -5.8479  -5.8341  -5.6619  -5.5693  -5.5595  -5.5447  -5.2844  -5.2439
    -5.1888  -5.0719  -4.9691  -4.8783  -4.7424  -4.6555  -4.6322  -4.6025
    -4.5620  -4.5200   1.3955   1.3970   1.4352   1.4424   1.5248   1.5259
    17.0518  17.1232  17.2414  17.3142  17.3425  17.3606  17.4867  17.7544
    18.3485  18.5561  18.6857  18.7347  18.9035  18.9108  19.0982  19.3188
    19.8417  19.9062  20.3012  20.3936  20.5057  20.5977  20.7741  20.8334
    20.8831  21.1228  21.1822  21.2179  21.5397  21.9025  22.0443  22.0675
    23.3214

          k = 0.2000 0.1155 0.0000 (  5087 PWs)   bands (ev):

   -26.9783 -26.7901 -26.7701 -26.7303 -26.6451 -26.6427 -16.5852 -16.5815
    -6.0032  -5.9570  -5.6162  -5.5726  -5.5703  -5.4836  -5.4429  -5.3856
    -5.3424  -5.0665  -4.8099  -4.7374  -4.6881  -4.6125  -4.6013  -4.5529
    -4.5139  -4.4940   1.4434   1.4684   1.4692   1.4975   1.5227   1.5408
    16.1138  16.2609  16.4207  16.4629  16.5750  16.8752  16.9503  17.2327
    17.4081  17.6164  17.7790  19.2037  19.2904  19.4653  19.6572  20.2448
    20.5308  20.6280  20.9069  21.0696  21.0983  21.1191  21.1201  21.2280
    21.2400  21.2831  21.3666  21.3863  21.4700  22.0397  22.9345  24.3497
    24.7978

          k = 0.2000 0.1155 0.1808 (  5078 PWs)   bands (ev):

   -26.9658 -26.7841 -26.7638 -26.7410 -26.6532 -26.6490 -16.5867 -16.5832
    -5.9665  -5.9518  -5.7263  -5.7033  -5.6162  -5.4612  -5.4231  -5.2814
    -5.2789  -5.0190  -4.7935  -4.7306  -4.6803  -4.6045  -4.5953  -4.5552
    -4.5342  -4.5042   1.4487   1.4495   1.4831   1.5007   1.5315   1.5441
    16.2139  16.4127  16.4943  16.5339  16.5744  16.5957  16.6590  16.8073
    18.1102  18.1167  18.2410  19.1842  19.2248  19.3605  19.5147  19.6754
    20.0016  20.0467  20.1942  20.3052  20.3495  20.9830  21.1158  21.2505
    21.6582  21.7147  22.0710  22.3838  22.4769  22.6003  22.9814  24.2915
    24.5233

          k = 0.2000 0.1155 0.3616 (  5067 PWs)   bands (ev):

   -26.9309 -26.7808 -26.7582 -26.7461 -26.6748 -26.6666 -16.5899 -16.5873
    -5.9813  -5.8924  -5.8283  -5.8111  -5.6304  -5.5906  -5.5173  -5.1092
    -5.0349  -4.8768  -4.8048  -4.7544  -4.6900  -4.6542  -4.6061  -4.5554
    -4.5535  -4.4860   1.4231   1.4546   1.5050   1.5092   1.5500   1.5528
    16.1823  16.2718  16.3448  16.6370  16.7853  16.8455  17.0042  17.1016
    18.1992  18.2438  18.3133  18.6097  18.6487  18.6586  19.4258  19.5233
    19.7087  19.7549  20.0234  20.0381  20.3916  20.6561  21.4279  21.7196
    21.9626  22.4636  22.5063  22.6678  22.9542  23.1488  23.3738  23.8364
    23.9556

          k = 0.2000 0.1155 0.5424 (  5053 PWs)   bands (ev):

   -26.8805 -26.8255 -26.7349 -26.7205 -26.7041 -26.6922 -16.5919 -16.5910
    -5.9706  -5.9266  -5.8387  -5.8253  -5.7607  -5.7436  -5.2776  -4.9948
    -4.9714  -4.8488  -4.8383  -4.7507  -4.7087  -4.6284  -4.6191  -4.5699
    -4.5576  -4.5057   1.4217   1.4420   1.5190   1.5197   1.5619   1.5629
    16.3130  16.4110  16.4733  16.7133  16.8810  16.8913  17.3805  17.5552
    17.7222  17.7309  17.7800  18.1762  18.2563  18.2822  19.1698  19.2904
    19.9907  20.1480  20.2029  20.3653  20.8313  21.0901  21.3413  21.6003
    22.0786  22.3474  22.4654  22.7572  23.0215  23.3546  23.5683  23.7888
    23.8416

          k = 0.2000 0.3079 0.0000 (  5075 PWs)   bands (ev):

   -26.9532 -26.8096 -26.7869 -26.7155 -26.6469 -26.6453 -16.5867 -16.5840
    -5.9485  -5.8352  -5.5331  -5.5298  -5.5184  -5.5078  -5.4642  -5.3435
    -5.1984  -5.1261  -4.8417  -4.8393  -4.7845  -4.7415  -4.6169  -4.5910
    -4.5527  -4.4639   1.4045   1.4343   1.4499   1.4677   1.4935   1.5012
    16.5566  16.6595  16.6664  16.8283  16.9885  17.1923  17.3637  17.4580
    17.6681  17.8358  18.2789  18.8186  19.2665  19.4952  19.7386  20.0761
    20.3237  20.3267  20.3983  20.5305  20.6342  20.7370  20.8790  20.8872
    21.1447  21.2118  21.3225  21.5581  21.7882  21.8387  22.5398  23.5938
    24.0218

          k = 0.2000 0.3079 0.1808 (  5088 PWs)   bands (ev):

   -26.9412 -26.8028 -26.7828 -26.7225 -26.6558 -26.6527 -16.5886 -16.5859
    -5.9013  -5.8472  -5.6947  -5.6469  -5.5431  -5.4313  -5.3248  -5.2956
    -5.2799  -5.0487  -4.8628  -4.8590  -4.7323  -4.7219  -4.5898  -4.5755
    -4.5615  -4.5142   1.4142   1.4371   1.4540   1.4575   1.5009   1.5063
    16.6004  16.6464  16.7210  16.9379  16.9869  17.0359  17.1592  17.3143
    18.2723  18.2916  18.4462  18.8979  18.9845  19.2923  19.4148  19.4876
    19.8078  19.9570  20.2382  20.3353  20.6148  20.7846  20.8770  21.0106
    21.2911  21.6221  21.7788  21.8658  22.0336  22.2677  22.5477  23.4574
    23.8018

          k = 0.2000 0.3079 0.3616 (  5068 PWs)   bands (ev):

   -26.9076 -26.7851 -26.7792 -26.7343 -26.6820 -26.6701 -16.5919 -16.5900
    -5.8691  -5.8279  -5.7858  -5.7356  -5.5685  -5.5469  -5.4035  -5.2182
    -5.0567  -4.9091  -4.9068  -4.8491  -4.7133  -4.6828  -4.6523  -4.6019
    -4.5408  -4.5135   1.4218   1.4450   1.4537   1.4594   1.5176   1.5191
    16.4910  16.5847  16.6662  17.1149  17.1632  17.3728  17.4231  17.6151
    18.1604  18.2697  18.2934  18.7260  18.7609  18.9295  19.2532  19.2790
    19.3910  19.5625  20.0404  20.1612  20.4486  20.9947  21.0858  21.1635
    21.3627  21.9068  22.2558  22.3249  22.4484  22.6641  22.8586  22.8839
    23.2436

          k = 0.2000 0.3079 0.5424 (  5058 PWs)   bands (ev):

   -26.8602 -26.8116 -26.7537 -26.7276 -26.7113 -26.6944 -16.5944 -16.5936
    -5.8740  -5.8419  -5.7894  -5.7493  -5.6803  -5.6385  -5.2752  -5.1221
    -5.0149  -4.9843  -4.8746  -4.7871  -4.7107  -4.6942  -4.6528  -4.5907
    -4.5388  -4.5277   1.4240   1.4388   1.4649   1.4653   1.5307   1.5308
    16.6088  16.7073  16.8391  17.0451  17.1390  17.3578  17.8181  17.8772
    17.9425  17.9895  18.0929  18.4728  18.5694  18.6682  18.8050  18.9357
    19.7208  19.8871  20.4158  20.6114  20.7130  20.8855  20.9447  21.0237
    21.4028  21.4827  22.0387  22.2233  22.4353  22.5120  22.7728  22.8067
    23.6388

          k = 0.2000 0.5004 0.0000 (  5072 PWs)   bands (ev):

   -26.9182 -26.8401 -26.8029 -26.6947 -26.6562 -26.6461 -16.5880 -16.5866
    -5.8832  -5.6775  -5.5797  -5.5181  -5.4960  -5.4193  -5.3857  -5.2688
    -5.2093  -5.0784  -4.9889  -4.9142  -4.8426  -4.7576  -4.7321  -4.6701
    -4.5793  -4.4288   1.3594   1.3907   1.4502   1.4569   1.4603   1.4646
    16.5241  17.0749  17.3605  17.4617  17.5626  17.6076  17.8241  18.0844
    18.1480  18.2495  18.5174  18.7078  18.9319  19.0559  19.2080  19.3486
    19.7157  19.7515  19.7552  20.2061  20.3501  20.4437  20.5096  20.6291
    21.4189  21.5155  21.7073  21.7481  21.9566  22.3477  22.3681  22.6879
    23.2789

          k = 0.2000 0.5004 0.1808 (  5079 PWs)   bands (ev):

   -26.9062 -26.8338 -26.7979 -26.6999 -26.6646 -26.6562 -16.5897 -16.5886
    -5.8457  -5.7103  -5.6372  -5.5954  -5.5241  -5.4065  -5.2989  -5.2397
    -5.1249  -5.0936  -5.0782  -4.9932  -4.7710  -4.7326  -4.6789  -4.6210
    -4.5842  -4.4873   1.3727   1.3946   1.4538   1.4554   1.4622   1.4674
    16.6950  17.0768  17.3217  17.4259  17.5254  17.6131  17.7515  18.1801
    18.2872  18.3882  18.4637  18.5829  18.7285  18.8103  19.1381  19.2403
    19.7341  19.8617  19.9560  20.1671  20.3707  20.5103  20.6176  20.9246
    21.1564  21.2846  21.4300  21.8028  22.2769  22.3120  22.4012  22.7438
    23.2110

          k = 0.2000 0.5004 0.3616 (  5085 PWs)   bands (ev):

   -26.8729 -26.8169 -26.7865 -26.7132 -26.6944 -26.6753 -16.5937 -16.5928
    -5.7680  -5.7642  -5.6947  -5.6554  -5.5578  -5.4669  -5.2986  -5.2372
    -5.0978  -5.0786  -5.0223  -4.9265  -4.7820  -4.6735  -4.6467  -4.6294
    -4.5646  -4.5337   1.3992   1.4057   1.4430   1.4512   1.4793   1.4805
    16.9848  17.0892  17.1886  17.3996  17.7271  17.7990  17.8465  17.9399
    18.0706  18.2259  18.2816  18.4715  18.7771  19.0467  19.2391  19.4292
    19.6507  19.7205  19.9691  20.0310  20.3707  20.5281  20.7536  20.8562
    20.9129  21.1645  21.3177  21.7478  22.0352  22.3038  22.5329  22.9631
    23.0960

          k = 0.2000 0.5004 0.5424 (  5080 PWs)   bands (ev):

   -26.8284 -26.8016 -26.7761 -26.7445 -26.7119 -26.6972 -16.5966 -16.5963
    -5.7863  -5.7663  -5.6953  -5.6550  -5.5622  -5.5450  -5.2840  -5.2633
    -5.1132  -5.1078  -4.9037  -4.8622  -4.7623  -4.7505  -4.6211  -4.6015
    -4.5572  -4.5314   1.4149   1.4180   1.4386   1.4429   1.4929   1.4936
    17.0700  17.2068  17.3223  17.3578  17.5143  17.5579  17.6220  17.8688
    18.4386  18.4750  18.5512  18.5975  18.7587  19.0811  19.1999  19.3224
    19.6618  19.8419  19.9934  20.0528  20.2976  20.3965  20.4396  20.6591
    20.8458  21.2667  21.3592  21.5688  21.6880  21.8981  22.1340  22.2460
    23.6868

          k = 0.2000-0.4619 0.0000 (  5078 PWs)   bands (ev):

   -26.9244 -26.8341 -26.8013 -26.6980 -26.6542 -26.6461 -16.5879 -16.5863
    -5.8941  -5.7040  -5.5724  -5.5105  -5.4919  -5.4384  -5.4140  -5.2726
    -5.2059  -5.0476  -5.0172  -4.8941  -4.8434  -4.7545  -4.7037  -4.6572
    -4.5795  -4.4334   1.3648   1.3954   1.4557   1.4572   1.4652   1.4652
    16.5409  16.9885  17.2695  17.3288  17.4408  17.5882  17.7876  17.9748
    18.0315  18.1011  18.5115  18.6813  19.1242  19.1851  19.4058  19.4279
    19.7482  19.7619  19.8670  20.2119  20.3688  20.5376  20.5749  20.6743
    21.3783  21.4291  21.6258  21.6959  21.9056  22.3596  22.3883  22.8014
    23.3345

          k = 0.2000-0.4619 0.1808 (  5075 PWs)   bands (ev):

   -26.9125 -26.8276 -26.7966 -26.7035 -26.6623 -26.6561 -16.5896 -16.5881
    -5.8537  -5.7255  -5.6578  -5.6007  -5.5075  -5.4166  -5.3079  -5.2643
    -5.1290  -5.1022  -5.0415  -4.9667  -4.7620  -4.7353  -4.6601  -4.6139
    -4.5844  -4.4905   1.3778   1.3997   1.4552   1.4558   1.4671   1.4719
    16.6906  16.9954  17.2187  17.3688  17.4328  17.5097  17.6091  18.0702
    18.2875  18.3719  18.4695  18.6380  18.8066  18.8820  19.2275  19.3149
    19.8032  19.8561  19.9141  20.1928  20.4362  20.5477  20.6317  21.0120
    21.1830  21.2904  21.4878  21.7119  22.2671  22.3490  22.4070  22.7947
    23.1699

          k = 0.2000-0.4619 0.3616 (  5078 PWs)   bands (ev):

   -26.8795 -26.8100 -26.7861 -26.7174 -26.6912 -26.6747 -16.5934 -16.5924
    -5.7758  -5.7725  -5.7195  -5.6699  -5.5467  -5.4807  -5.2990  -5.2650
    -5.0801  -5.0525  -5.0099  -4.9094  -4.7699  -4.6798  -4.6421  -4.6274
    -4.5609  -4.5316   1.4029   1.4112   1.4429   1.4523   1.4848   1.4856
    16.8836  17.0016  17.0671  17.4454  17.6194  17.7613  17.8382  17.9484
    18.0313  18.2155  18.2855  18.5898  18.6193  18.9745  19.3084  19.4185
    19.6116  19.8618  19.8838  19.9604  20.4181  20.5550  20.7773  20.9285
    21.0290  21.3713  21.4760  21.6727  22.0943  22.3741  22.5808  22.9216
    23.0549

          k = 0.2000-0.4619 0.5424 (  5069 PWs)   bands (ev):

   -26.8350 -26.8006 -26.7737 -26.7415 -26.7118 -26.6968 -16.5962 -16.5958
    -5.7944  -5.7754  -5.7136  -5.6814  -5.5637  -5.5620  -5.2838  -5.2467
    -5.0924  -5.0898  -4.9014  -4.8428  -4.7596  -4.7439  -4.6264  -4.5971
    -4.5538  -4.5315   1.4177   1.4223   1.4402   1.4443   1.4982   1.4988
    16.9718  17.1063  17.2376  17.3238  17.4488  17.5627  17.7104  17.9426
    18.3520  18.3868  18.5142  18.5774  18.6372  18.9651  19.1278  19.2165
    19.6359  19.8868  20.0683  20.2683  20.3408  20.4629  20.5528  20.7570
    20.9309  21.2617  21.4407  21.6484  21.7647  21.9350  22.2295  22.3137
    23.6468

          k = 0.2000-0.2694 0.0000 (  5077 PWs)   bands (ev):

   -26.9597 -26.8052 -26.7818 -26.7198 -26.6464 -26.6444 -16.5865 -16.5833
    -5.9619  -5.8662  -5.5546  -5.5328  -5.5228  -5.5199  -5.4571  -5.3552
    -5.2363  -5.1087  -4.8352  -4.8004  -4.7518  -4.7388  -4.6007  -4.5904
    -4.5330  -4.4738   1.4176   1.4471   1.4484   1.4683   1.5014   1.5121
    16.4298  16.5715  16.7065  16.7092  16.8846  17.0116  17.2441  17.4162
    17.5986  17.7890  18.1561  18.9271  19.2586  19.4775  19.7313  20.2761
    20.3879  20.4818  20.5380  20.6707  20.7105  20.7520  20.9299  20.9531
    21.1854  21.1982  21.3070  21.5133  21.6379  21.8584  22.5948  23.8028
    24.1686

          k = 0.2000-0.2694 0.1808 (  5087 PWs)   bands (ev):

   -26.9476 -26.7985 -26.7775 -26.7274 -26.6554 -26.6512 -16.5881 -16.5854
    -5.9139  -5.8773  -5.7016  -5.6601  -5.5621  -5.4379  -5.3230  -5.3143
    -5.2893  -5.0394  -4.8399  -4.8208  -4.7275  -4.7048  -4.5904  -4.5640
    -4.5431  -4.5216   1.4255   1.4468   1.4558   1.4589   1.5092   1.5166
    16.4899  16.6231  16.6498  16.8252  16.8842  16.9248  17.0667  17.1376
    18.2407  18.2537  18.4047  18.9696  19.0523  19.3372  19.4081  19.5232
    19.9029  19.9676  20.2416  20.3272  20.5369  20.8780  20.9889  21.1312
    21.2357  21.7307  21.8744  21.9374  22.0274  22.3148  22.6229  23.6739
    23.9992

          k = 0.2000-0.2694 0.3616 (  5068 PWs)   bands (ev):

   -26.9137 -26.7840 -26.7731 -26.7380 -26.6804 -26.6689 -16.5914 -16.5894
    -5.8974  -5.8436  -5.7957  -5.7537  -5.5879  -5.5528  -5.4358  -5.1921
    -5.0530  -4.8918  -4.8690  -4.8365  -4.7116  -4.6635  -4.6554  -4.5972
    -4.5376  -4.5065   1.4235   1.4507   1.4626   1.4662   1.5263   1.5281
    16.4044  16.5023  16.5844  16.9799  17.0696  17.2696  17.3350  17.4575
    18.1719  18.2650  18.3027  18.7381  18.8480  18.8662  19.1561  19.3588
    19.4130  19.5862  20.0040  20.2331  20.3568  20.9289  21.1882  21.3346
    21.4988  22.1255  22.3807  22.4189  22.5500  22.6912  22.9440  23.0559
    23.3981

          k = 0.2000-0.2694 0.5424 (  5058 PWs)   bands (ev):

   -26.8655 -26.8150 -26.7489 -26.7248 -26.7106 -26.6936 -16.5938 -16.5931
    -5.8973  -5.8625  -5.8015  -5.7636  -5.7064  -5.6648  -5.2747  -5.0878
    -5.0052  -4.9510  -4.8662  -4.7823  -4.6985  -4.6702  -4.6578  -4.5920
    -4.5413  -4.5220   1.4237   1.4400   1.4756   1.4760   1.5390   1.5393
    16.5294  16.6291  16.7472  16.9626  17.0656  17.2682  17.7132  17.8172
    17.8799  17.9305  17.9949  18.3942  18.5054  18.6035  18.8743  18.9518
    19.8097  19.9629  20.3511  20.5318  20.7275  20.9291  21.0533  21.1419
    21.6310  21.7318  22.1087  22.3165  22.6477  22.7237  22.9509  22.9772
    23.6690

          k = 0.2000-0.0770 0.0000 (  5083 PWs)   bands (ev):

   -26.9807 -26.7869 -26.7705 -26.7308 -26.6447 -26.6428 -16.5849 -16.5811
    -6.0085  -5.9690  -5.6242  -5.5780  -5.5757  -5.4775  -5.4429  -5.3940
    -5.3521  -5.0622  -4.8035  -4.7379  -4.6668  -4.6138  -4.5779  -4.5464
    -4.5204  -4.4972   1.4429   1.4693   1.4781   1.5055   1.5253   1.5432
    16.0834  16.2189  16.3446  16.4220  16.5327  16.8591  16.9772  17.1844
    17.3969  17.5615  17.7427  19.1934  19.3428  19.4738  19.6351  20.2051
    20.5304  20.6433  20.9835  21.0898  21.1151  21.1209  21.1457  21.2670
    21.2954  21.3005  21.3668  21.3919  21.5156  22.0798  23.0287  24.4729
    24.8325

          k = 0.2000-0.0770 0.1808 (  5080 PWs)   bands (ev):

   -26.9682 -26.7808 -26.7645 -26.7415 -26.6526 -26.6491 -16.5865 -16.5829
    -5.9791  -5.9568  -5.7300  -5.7105  -5.6222  -5.4701  -5.4322  -5.2784
    -5.2762  -5.0176  -4.7864  -4.7301  -4.6601  -4.6065  -4.5764  -4.5570
    -4.5312  -4.5068   1.4490   1.4495   1.4916   1.5087   1.5339   1.5464
    16.1947  16.3569  16.4506  16.5008  16.5377  16.5560  16.6133  16.7749
    18.0887  18.0965  18.2165  19.2076  19.2543  19.3884  19.4923  19.6899
    19.9986  20.0507  20.1739  20.3022  20.3910  20.9435  21.1455  21.2570
    21.6705  21.7618  22.0927  22.4744  22.5612  22.6570  23.0437  24.4069
    24.5857

          k = 0.2000-0.0770 0.3616 (  5063 PWs)   bands (ev):

   -26.9331 -26.7802 -26.7579 -26.7456 -26.6736 -26.6668 -16.5895 -16.5870
    -5.9919  -5.8991  -5.8335  -5.8182  -5.6331  -5.6008  -5.5249  -5.0983
    -5.0293  -4.8806  -4.7972  -4.7485  -4.6808  -4.6446  -4.6038  -4.5648
    -4.5367  -4.4869   1.4227   1.4548   1.5132   1.5172   1.5523   1.5550
    16.1622  16.2357  16.3130  16.6055  16.7173  16.7934  16.9651  17.0570
    18.1998  18.2438  18.3171  18.5839  18.6003  18.6236  19.4695  19.5447
    19.7413  19.7997  20.0077  20.0997  20.3667  20.6173  21.4696  21.7155
    22.0123  22.4949  22.5463  22.6533  23.0333  23.2766  23.4554  23.8688
    24.1178

          k = 0.2000-0.0770 0.5424 (  5055 PWs)   bands (ev):

   -26.8825 -26.8270 -26.7330 -26.7206 -26.7024 -26.6922 -16.5917 -16.5907
    -5.9808  -5.9350  -5.8473  -5.8329  -5.7691  -5.7513  -5.2784  -4.9920
    -4.9569  -4.8376  -4.8317  -4.7429  -4.7126  -4.6277  -4.6146  -4.5722
    -4.5463  -4.5079   1.4215   1.4419   1.5267   1.5277   1.5641   1.5648
    16.2918  16.3717  16.4415  16.6927  16.8124  16.8645  17.3353  17.5144
    17.7004  17.7086  17.7567  18.1481  18.2105  18.2437  19.2166  19.3552
    19.9643  20.1463  20.1856  20.4016  20.9217  21.1080  21.3311  21.6543
    22.1600  22.3704  22.5201  22.7729  23.1302  23.4726  23.6569  23.8119
    23.9498

          k = 0.4000 0.2309 0.0000 (  5085 PWs)   bands (ev):

   -26.9339 -26.8408 -26.7712 -26.7188 -26.6517 -26.6417 -16.5877 -16.5855
    -5.9121  -5.7549  -5.5871  -5.5805  -5.4492  -5.4467  -5.4164  -5.2070
    -5.1935  -5.1073  -4.9890  -4.8697  -4.8655  -4.7815  -4.7285  -4.6153
    -4.4905  -4.4458   1.3505   1.3891   1.4535   1.4659   1.4911   1.5018
    16.6136  16.8447  16.9473  16.9738  17.1990  17.4532  17.5302  17.6761
    18.0680  18.3083  18.3380  18.9185  19.3456  19.3474  19.6042  19.6372
    19.8169  20.0062  20.0290  20.2679  20.5820  20.7247  20.8622  20.8695
    21.1697  21.3421  21.4335  21.5251  21.8485  22.0437  22.1844  22.9533
    23.5706

          k = 0.4000 0.2309 0.1808 (  5088 PWs)   bands (ev):

   -26.9220 -26.8343 -26.7648 -26.7256 -26.6635 -26.6481 -16.5894 -16.5874
    -5.8708  -5.7875  -5.6641  -5.5874  -5.5787  -5.3592  -5.3047  -5.2366
    -5.2305  -5.0614  -4.9872  -4.9343  -4.8243  -4.7470  -4.6754  -4.5742
    -4.5032  -4.5017   1.3646   1.3917   1.4553   1.4568   1.4994   1.5064
    16.6466  16.8698  16.9265  17.0399  17.2098  17.3820  17.6321  17.6639
    18.2717  18.3351  18.6275  18.7805  18.9737  19.0446  19.3231  19.5796
    19.9036  19.9125  20.0861  20.3125  20.3883  20.6344  20.7561  21.0598
    21.1710  21.3763  21.6110  21.7334  21.9238  22.2358  22.4496  22.9499
    23.5379

          k = 0.4000 0.2309 0.3616 (  5084 PWs)   bands (ev):

   -26.8890 -26.8175 -26.7468 -26.7446 -26.6949 -26.6661 -16.5932 -16.5915
    -5.8443  -5.8130  -5.6936  -5.6861  -5.5864  -5.4392  -5.3251  -5.2609
    -5.1299  -4.9575  -4.9455  -4.9396  -4.8068  -4.6583  -4.6353  -4.6333
    -4.5373  -4.5029   1.3931   1.4008   1.4412   1.4539   1.5176   1.5188
    16.6336  16.9012  16.9306  17.1776  17.2868  17.7485  17.8472  17.9061
    17.9532  18.0567  18.4472  18.6938  18.8382  19.0375  19.2645  19.4611
    19.5260  19.6285  19.9069  20.4821  20.4950  20.6243  20.6977  21.0700
    21.3864  21.4247  21.6277  21.8541  22.3260  22.4564  22.4950  22.7842
    22.8797

          k = 0.4000 0.2309 0.5424 (  5068 PWs)   bands (ev):

   -26.8440 -26.8087 -26.7597 -26.7340 -26.7209 -26.6921 -16.5957 -16.5951
    -5.8627  -5.8421  -5.6930  -5.6435  -5.6023  -5.5866  -5.2871  -5.1549
    -5.1511  -5.0322  -4.9329  -4.8732  -4.7289  -4.6467  -4.6438  -4.5899
    -4.5713  -4.5150   1.4097   1.4139   1.4369   1.4442   1.5304   1.5312
    16.7923  17.0265  17.0349  17.1990  17.3515  17.3945  17.5431  17.9547
    18.2187  18.3851  18.3876  18.4857  18.7700  18.8733  19.0513  19.1490
    19.7879  19.9952  20.0562  20.5483  20.7035  20.7559  20.8773  20.9159
    21.0988  21.2030  21.3633  21.6506  21.7535  22.2295  22.2664  22.3199
    23.3888

          k = 0.4000 0.4234 0.0000 (  5078 PWs)   bands (ev):

   -26.9148 -26.8485 -26.7964 -26.6973 -26.6561 -26.6453 -16.5881 -16.5867
    -5.8789  -5.6668  -5.5934  -5.5498  -5.4859  -5.4019  -5.3504  -5.2686
    -5.1887  -5.1017  -4.9692  -4.9450  -4.8521  -4.7844  -4.7512  -4.6635
    -4.5539  -4.4286   1.3482   1.3823   1.4556   1.4573   1.4640   1.4671
    16.5496  17.0574  17.2383  17.4804  17.6082  17.6549  17.8475  18.0761
    18.3595  18.3890  18.6157  18.7228  18.8872  18.9164  19.1035  19.3029
    19.6229  19.6905  19.8377  20.2422  20.3528  20.4042  20.5285  20.6556
    21.3962  21.5113  21.6890  21.9023  22.0226  22.1786  22.3006  22.6594
    23.1786

          k = 0.4000 0.4234 0.1808 (  5071 PWs)   bands (ev):

   -26.9026 -26.8424 -26.7912 -26.7021 -26.6662 -26.6540 -16.5897 -16.5885
    -5.8418  -5.7187  -5.6010  -5.5921  -5.5650  -5.3785  -5.2964  -5.1937
    -5.1504  -5.0955  -5.0615  -5.0315  -4.7996  -4.7368  -4.6919  -4.6140
    -4.5609  -4.4872   1.3627   1.3860   1.4559   1.4564   1.4659   1.4729
    16.7239  17.0574  17.2533  17.4125  17.5367  17.6703  17.9080  18.2101
    18.3066  18.3521  18.5185  18.6317  18.7750  18.8003  18.9791  19.2405
    19.6909  19.8236  20.0986  20.1702  20.3802  20.4561  20.7475  20.8217
    21.0709  21.3012  21.3408  21.9493  22.2370  22.2800  22.3581  22.7085
    23.3325

          k = 0.4000 0.4234 0.3616 (  5075 PWs)   bands (ev):

   -26.8687 -26.8262 -26.7792 -26.7129 -26.6994 -26.6729 -16.5937 -16.5927
    -5.7797  -5.7684  -5.6681  -5.6367  -5.5797  -5.4336  -5.3076  -5.2119
    -5.1237  -5.0946  -5.0142  -4.9437  -4.7971  -4.6614  -4.6512  -4.6298
    -4.5604  -4.5283   1.3912   1.3961   1.4431   1.4514   1.4852   1.4864
    17.0420  17.1269  17.2031  17.3432  17.6408  17.7597  17.8122  17.9407
    18.2460  18.3122  18.3543  18.3875  18.8352  19.0440  19.3267  19.4424
    19.5673  19.6709  19.9349  20.2786  20.3758  20.4489  20.6866  20.9201
    20.9655  21.0377  21.1653  21.7361  22.1061  22.1943  22.5164  22.9157
    23.0480

          k = 0.4000 0.4234 0.5424 (  5077 PWs)   bands (ev):

   -26.8235 -26.8079 -26.7718 -26.7466 -26.7139 -26.6960 -16.5968 -16.5962
    -5.8005  -5.7808  -5.6734  -5.6104  -5.5701  -5.5289  -5.2831  -5.2743
    -5.1405  -5.1104  -4.9147  -4.8819  -4.7581  -4.7317  -4.6119  -4.6058
    -4.5622  -4.5280   1.4078   1.4099   1.4372   1.4420   1.4988   1.4995
    17.1661  17.2346  17.3292  17.3899  17.4324  17.5077  17.6141  17.7589
    18.4969  18.5049  18.5619  18.7303  18.8348  19.0841  19.2082  19.4574
    19.6723  19.8456  19.9780  20.0488  20.3390  20.4367  20.4738  20.5868
    20.6769  21.2042  21.3911  21.5128  21.5395  21.9456  22.0194  22.1704
    23.6384

          k = 0.4000 0.6158 0.0000 (  5071 PWs)   bands (ev):

   -26.9094 -26.8383 -26.8181 -26.6828 -26.6628 -26.6471 -16.5880 -16.5873
    -5.8696  -5.6324  -5.5703  -5.5250  -5.4789  -5.4176  -5.3637  -5.3023
    -5.2093  -5.1369  -4.9296  -4.9110  -4.8237  -4.7792  -4.7276  -4.6909
    -4.6367  -4.4222   1.3702   1.3974   1.4243   1.4372   1.4589   1.4631
    16.4648  17.4114  17.5873  17.6719  17.7403  17.9121  17.9230  18.0437
    18.2450  18.2806  18.5257  18.6272  18.7268  18.7488  18.8330  19.3856
    19.4651  19.6012  19.9078  20.1714  20.2452  20.3181  20.3667  20.4816
    21.5535  21.6924  21.7203  21.8670  22.0410  22.2468  22.4240  22.6546
    23.1988

          k = 0.4000 0.6158 0.1808 (  5066 PWs)   bands (ev):

   -26.8970 -26.8324 -26.8130 -26.6879 -26.6688 -26.6596 -16.5897 -16.5891
    -5.8334  -5.6627  -5.6225  -5.5910  -5.5104  -5.4419  -5.2598  -5.2195
    -5.1657  -5.1352  -5.0430  -5.0149  -4.7468  -4.7151  -4.6846  -4.6495
    -4.6361  -4.4804   1.3839   1.4019   1.4314   1.4411   1.4587   1.4595
    16.6677  17.3850  17.5099  17.6782  17.7368  17.7775  17.9145  18.1627
    18.2317  18.2891  18.4518  18.5004  18.5510  18.6461  18.9075  19.2472
    19.7345  19.8448  19.9954  20.1029  20.2420  20.3394  20.5399  20.7309
    21.2249  21.3118  21.4758  21.9054  22.1585  22.2847  22.3242  22.9142
    23.4108

          k = 0.4000 0.6158 0.3616 (  5090 PWs)   bands (ev):

   -26.8626 -26.8168 -26.8004 -26.7024 -26.6949 -26.6823 -16.5940 -16.5935
    -5.7412  -5.7274  -5.6901  -5.6220  -5.5640  -5.5124  -5.2524  -5.2071
    -5.1332  -5.1186  -5.0198  -4.9535  -4.7779  -4.6754  -4.6611  -4.6280
    -4.5695  -4.5491   1.4091   1.4134   1.4427   1.4462   1.4584   1.4596
    17.2060  17.2520  17.4078  17.5026  17.7053  17.7611  17.9369  17.9799
    18.0410  18.1783  18.2675  18.4924  18.8579  19.0871  19.1178  19.2448
    19.6876  19.8545  20.0239  20.1095  20.3085  20.4022  20.5890  20.6760
    20.8093  20.9719  21.0186  21.9130  22.0413  22.2095  22.4049  23.1024
    23.3855

          k = 0.4000 0.6158 0.5424 (  5076 PWs)   bands (ev):

   -26.8161 -26.7991 -26.7877 -26.7482 -26.7081 -26.7006 -16.5969 -16.5968
    -5.7410  -5.7204  -5.6849  -5.6486  -5.5854  -5.5436  -5.2746  -5.2686
    -5.1327  -5.1311  -4.8914  -4.8636  -4.7975  -4.7684  -4.6160  -4.6100
    -4.5510  -4.5379   1.4220   1.4241   1.4419   1.4435   1.4703   1.4712
    17.2589  17.3954  17.3989  17.5245  17.5533  17.5809  17.6315  17.7138
    18.2592  18.6494  18.7550  18.8440  18.9172  19.2030  19.3489  19.4350
    19.4707  19.5861  19.7012  20.0424  20.0965  20.1886  20.3274  20.3820
    20.7850  21.2586  21.3081  21.4660  21.7449  21.9196  22.0482  22.2079
    23.9139

          k = 0.4000-0.3464 0.0000 (  5079 PWs)   bands (ev):

   -26.9218 -26.8490 -26.7820 -26.7086 -26.6536 -26.6432 -16.5880 -16.5862
    -5.8898  -5.7035  -5.5984  -5.5770  -5.4638  -5.4159  -5.3658  -5.2399
    -5.1666  -5.0672  -5.0221  -4.9394  -4.8664  -4.7976  -4.7371  -4.6362
    -4.5138  -4.4349   1.3419   1.3789   1.4557   1.4649   1.4760   1.4858
    16.6581  16.8327  17.0829  17.2176  17.4241  17.5740  17.7453  18.0426
    18.2143  18.2955  18.5241  18.8732  19.1567  19.2088  19.2979  19.4528
    19.5629  19.7382  19.9788  20.2536  20.4311  20.5367  20.7063  20.8057
    21.2720  21.3461  21.6172  21.7154  21.9259  22.2055  22.2879  22.7897
    23.1845

          k = 0.4000-0.3464 0.1808 (  5074 PWs)   bands (ev):

   -26.9098 -26.8427 -26.7766 -26.7139 -26.6653 -26.6503 -16.5897 -16.5880
    -5.8527  -5.7499  -5.6345  -5.5919  -5.5570  -5.3722  -5.2951  -5.2149
    -5.1336  -5.0934  -5.0520  -5.0068  -4.8240  -4.7501  -4.6821  -4.5905
    -4.5238  -4.4935   1.3563   1.3820   1.4563   1.4571   1.4846   1.4913
    16.7876  16.8512  17.1011  17.2071  17.3842  17.5479  17.8080  18.0648
    18.2751  18.4100  18.5587  18.7378  18.8901  18.9040  19.0829  19.4009
    19.7907  19.9163  20.0405  20.2429  20.4001  20.6020  20.7587  20.9385
    21.0265  21.2494  21.4214  21.9011  22.1280  22.2792  22.4165  22.7815
    23.2021

          k = 0.4000-0.3464 0.3616 (  5081 PWs)   bands (ev):

   -26.8765 -26.8257 -26.7646 -26.7253 -26.6985 -26.6685 -16.5936 -16.5923
    -5.8119  -5.7920  -5.6690  -5.6581  -5.5743  -5.4179  -5.3116  -5.2439
    -5.1385  -5.0444  -4.9918  -4.9425  -4.8014  -4.6558  -4.6508  -4.6298
    -4.5439  -4.5156   1.3857   1.3919   1.4419   1.4527   1.5034   1.5042
    16.8389  17.0517  17.1044  17.2094  17.5332  17.7276  17.7976  17.8896
    18.1419  18.3942  18.4437  18.5490  18.6613  19.0785  19.2725  19.4582
    19.5810  19.8434  20.0075  20.1301  20.3782  20.5375  20.7830  20.9698
    21.1235  21.1975  21.4662  21.6716  22.1241  22.2964  22.5347  22.7214
    22.9112

          k = 0.4000-0.3464 0.5424 (  5079 PWs)   bands (ev):

   -26.8322 -26.8088 -26.7642 -26.7431 -26.7177 -26.6935 -16.5964 -16.5959
    -5.8341  -5.8164  -5.6748  -5.6130  -5.5635  -5.5460  -5.2886  -5.2448
    -5.1466  -5.0822  -4.9355  -4.8774  -4.7465  -4.6901  -4.6217  -4.5979
    -4.5659  -4.5220   1.4034   1.4057   1.4362   1.4426   1.5161   1.5169
    16.9947  17.1555  17.2281  17.2954  17.4236  17.4567  17.4915  17.8539
    18.3587  18.5030  18.5901  18.6861  18.7543  18.9430  19.1175  19.3280
    19.9013  19.9138  19.9888  20.3360  20.4545  20.5607  20.6773  20.7885
    20.8634  21.1637  21.4017  21.4064  21.5721  21.9439  22.0987  22.1813
    23.4572

          k = 0.4000-0.1540 0.0000 (  5078 PWs)   bands (ev):

   -26.9405 -26.8314 -26.7757 -26.7171 -26.6506 -26.6425 -16.5874 -16.5850
    -5.9226  -5.7816  -5.5690  -5.5656  -5.4672  -5.4535  -5.4504  -5.2578
    -5.1860  -5.1234  -4.9391  -4.8599  -4.8337  -4.7325  -4.7267  -4.6155
    -4.5019  -4.4503   1.3665   1.4031   1.4524   1.4667   1.4904   1.5022
    16.5685  16.7423  16.9499  17.0915  17.1007  17.2287  17.4315  17.6488
    17.8908  18.1493  18.3661  18.8482  19.3057  19.4080  19.7612  19.8145
    19.9226  20.0233  20.1966  20.2897  20.6778  20.7182  20.8213  20.8659
    21.1914  21.2612  21.5155  21.5381  21.7002  21.9772  22.2923  23.1259
    23.6829

          k = 0.4000-0.1540 0.1808 (  5082 PWs)   bands (ev):

   -26.9285 -26.8250 -26.7700 -26.7238 -26.6616 -26.6492 -16.5891 -16.5869
    -5.8805  -5.8028  -5.6734  -5.6123  -5.5641  -5.3509  -5.3373  -5.2767
    -5.2389  -5.0563  -4.9419  -4.9067  -4.7915  -4.7289  -4.6690  -4.5748
    -4.5130  -4.5057   1.3796   1.4056   1.4548   1.4570   1.4989   1.5069
    16.6073  16.7686  16.9465  17.0310  17.1400  17.2875  17.3933  17.5700
    18.2678  18.3418  18.5461  18.7887  19.0353  19.1246  19.3185  19.6468
    19.8073  19.9224  20.1195  20.3137  20.4740  20.6442  20.8142  21.0985
    21.2216  21.4588  21.6421  21.7327  21.9360  22.2449  22.4620  23.0867
    23.5939

          k = 0.4000-0.1540 0.3616 (  5080 PWs)   bands (ev):

   -26.8955 -26.8087 -26.7594 -26.7371 -26.6910 -26.6671 -16.5928 -16.5911
    -5.8499  -5.8155  -5.7257  -5.7014  -5.5867  -5.4674  -5.3564  -5.2478
    -5.1031  -4.9469  -4.9342  -4.8879  -4.7979  -4.6576  -4.6455  -4.6192
    -4.5451  -4.5032   1.4048   1.4145   1.4421   1.4547   1.5172   1.5185
    16.5747  16.7984  16.8425  17.2033  17.2370  17.6448  17.7134  17.8445
    17.9847  18.0980  18.3934  18.7304  18.7957  19.0205  19.3044  19.4358
    19.4922  19.5093  19.8320  20.4222  20.5466  20.6998  20.8427  21.2016
    21.3136  21.4764  21.8293  22.0182  22.4013  22.5171  22.6639  22.7719
    23.0063

          k = 0.4000-0.1540 0.5424 (  5062 PWs)   bands (ev):

   -26.8497 -26.8083 -26.7591 -26.7308 -26.7184 -26.6927 -16.5953 -16.5946
    -5.8662  -5.8409  -5.7191  -5.6855  -5.6240  -5.6066  -5.2815  -5.1548
    -5.0907  -5.0183  -4.9025  -4.8611  -4.7246  -4.6635  -4.6408  -4.5837
    -4.5724  -4.5155   1.4179   1.4256   1.4413   1.4464   1.5301   1.5308
    16.7194  16.9174  16.9781  17.1355  17.3120  17.4018  17.6378  17.9962
    18.1505  18.2051  18.2912  18.4550  18.6980  18.7984  18.9957  19.0527
    19.7402  19.9359  20.1916  20.5289  20.7003  20.8065  20.8738  21.0014
    21.1580  21.2567  21.6705  21.8595  21.9282  22.2716  22.4462  22.5091
    23.4727

          k = 0.4000 0.0385 0.0000 (  5079 PWs)   bands (ev):

   -26.9459 -26.8167 -26.7898 -26.7115 -26.6486 -26.6453 -16.5870 -16.5848
    -5.9327  -5.8003  -5.5435  -5.5249  -5.4939  -5.4883  -5.4698  -5.3227
    -5.1628  -5.1436  -4.8914  -4.8437  -4.8171  -4.7436  -4.6375  -4.6135
    -4.5536  -4.4551   1.3898   1.4207   1.4515   1.4669   1.4850   1.4922
    16.6347  16.6505  16.8138  16.9719  17.0974  17.3842  17.3940  17.5997
    17.7178  17.9212  18.3971  18.7252  19.2708  19.5022  19.7579  19.8400
    20.1104  20.1436  20.3051  20.3625  20.5619  20.7705  20.8076  20.8290
    21.1462  21.2427  21.3798  21.5968  21.8161  21.9566  22.4762  23.3541
    23.8262

          k = 0.4000 0.0385 0.1808 (  5082 PWs)   bands (ev):

   -26.9339 -26.8099 -26.7855 -26.7180 -26.6574 -26.6533 -16.5889 -16.5865
    -5.8879  -5.8143  -5.6858  -5.6321  -5.5297  -5.4179  -5.3310  -5.2913
    -5.2434  -5.0592  -4.9086  -4.8852  -4.7464  -4.7266  -4.6135  -4.5840
    -4.5618  -4.5070   1.4013   1.4242   1.4543   1.4571   1.4927   1.4975
    16.6656  16.6891  16.8518  17.0520  17.0977  17.1659  17.2616  17.5072
    18.2931  18.3282  18.4796  18.8061  18.9569  19.1993  19.3675  19.5430
    19.7234  19.9340  20.1925  20.3213  20.6311  20.6647  20.7902  20.9976
    21.3015  21.5082  21.6686  21.7710  22.1026  22.2453  22.4823  23.2362
    23.5941

          k = 0.4000 0.0385 0.3616 (  5063 PWs)   bands (ev):

   -26.9006 -26.7925 -26.7792 -26.7308 -26.6845 -26.6709 -16.5923 -16.5906
    -5.8417  -5.8120  -5.7708  -5.7160  -5.5597  -5.5261  -5.3692  -5.2436
    -5.0637  -4.9466  -4.9300  -4.8631  -4.7344  -4.6823  -4.6487  -4.6076
    -4.5467  -4.5168   1.4177   1.4343   1.4470   1.4563   1.5096   1.5109
    16.5790  16.6912  16.7608  17.2220  17.3156  17.4346  17.5460  17.7886
    18.1207  18.2666  18.2867  18.6137  18.7696  18.9728  19.2048  19.3862
    19.4338  19.5518  19.9763  20.1812  20.5268  20.8366  20.9782  21.1917
    21.2442  21.6533  22.0687  22.1369  22.3894  22.5985  22.7536  22.8250
    23.1227

          k = 0.4000 0.0385 0.5424 (  5064 PWs)   bands (ev):

   -26.8541 -26.8081 -26.7590 -26.7308 -26.7122 -26.6948 -16.5950 -16.5943
    -5.8516  -5.8239  -5.7694  -5.7323  -5.6486  -5.6126  -5.2773  -5.1562
    -5.0326  -5.0159  -4.8841  -4.8034  -4.7291  -4.7054  -4.6462  -4.5904
    -4.5456  -4.5277   1.4234   1.4360   1.4542   1.4547   1.5226   1.5229
    16.6928  16.8069  16.9389  17.1206  17.2332  17.4318  17.8345  17.9637
    18.0352  18.0639  18.2184  18.5175  18.6101  18.6960  18.8574  18.9635
    19.6826  19.8152  20.4532  20.5620  20.6812  20.8390  20.8815  20.9640
    21.1630  21.2548  21.9437  22.1047  22.1809  22.2753  22.6095  22.6433
    23.6063

     the Fermi energy is    20.8126 ev

!    total energy              =    -817.00633910 Ry
     Harris-Foulkes estimate   =    -817.00634333 Ry
     estimated scf accuracy    <       0.00000536 Ry

     The total energy is the sum of the following terms:

     one-electron contribution =       9.98635058 Ry
     hartree contribution      =      69.40903811 Ry
     xc contribution           =     -98.85257354 Ry
     ewald contribution        =    -796.90476870 Ry
     smearing contrib. (-TS)   =      -0.64438555 Ry

     convergence has been achieved in  10 iterations

     Forces acting on atoms (Ry/au):

     atom    1 type  1   force =     0.02891209    0.01669240    0.00000000
     atom    2 type  1   force =     0.02891209   -0.01669240    0.00000000
     atom    3 type  1   force =    -0.02891209   -0.01669240    0.00000000
     atom    4 type  1   force =    -0.02891209    0.01669240    0.00000000
     atom    5 type  1   force =     0.00000000   -0.03338480    0.00000000
     atom    6 type  1   force =     0.00000000    0.03338480    0.00000000
     atom    7 type  2   force =     0.00000000    0.00000000    0.00000000
     atom    8 type  2   force =     0.00000000    0.00000000    0.00000000

     Total force =     0.081776     Total SCF correction =     0.000000


     entering subroutine stress ...

          total   stress  (Ry/bohr**3)                   (kbar)     P=   62.91
   0.00037236   0.00000000   0.00000000         54.78      0.00      0.00
   0.00000000   0.00037236   0.00000000          0.00     54.78      0.00
   0.00000000   0.00000000   0.00053817          0.00      0.00     79.17


     BFGS Geometry Optimization

     number of scf cycles    =   1
     number of bfgs steps    =   0

     enthalpy new            =    -817.0063391039 Ry

     new trust radius        =       0.0927204425 bohr
     new conv_thr            =       0.0001000000 Ry

     new unit-cell volume =   1225.82390 a.u.^3 (   181.64836 Ang^3 )

CELL_PARAMETERS (alat= 12.01680127)
   1.009309101   0.000000000   0.000000000
  -0.504654550   0.874087322   0.000000000
   0.000000000   0.000000000   0.800723244

ATOMIC_POSITIONS (crystal)
Mg       0.667065963   0.833532981   0.250000000
Mg       0.833532981   0.166467019   0.750000000
Mg       0.332934037   0.166467019   0.750000000
Mg       0.166467019   0.833532981   0.250000000
Mg       0.166467019   0.332934037   0.250000000
Mg       0.833532981   0.667065963   0.750000000
Cd       0.666667000   0.333333000   0.250000000
Cd       0.333333000   0.666667000   0.750000000



     Writing output data file Prototype-La-hP8-Mg3Cd.save
     NEW-OLD atomic charge density approx. for the potential
     NEW k-points:
        k(    1) = (   0.0000000   0.0000000   0.0000000), wk =   0.0095238
        k(    2) = (   0.0000000   0.0000000   0.1784101), wk =   0.0190476
        k(    3) = (   0.0000000   0.0000000   0.3568203), wk =   0.0190476
        k(    4) = (   0.0000000   0.0000000   0.5352304), wk =   0.0190476
        k(    5) = (   0.0000000   0.1906751   0.0000000), wk =   0.0190476
        k(    6) = (   0.0000000   0.1906751   0.1784101), wk =   0.0380952
        k(    7) = (   0.0000000   0.1906751   0.3568203), wk =   0.0380952
        k(    8) = (   0.0000000   0.1906751   0.5352304), wk =   0.0380952
        k(    9) = (   0.0000000   0.3813502   0.0000000), wk =   0.0190476
        k(   10) = (   0.0000000   0.3813502   0.1784101), wk =   0.0380952
        k(   11) = (   0.0000000   0.3813502   0.3568203), wk =   0.0380952
        k(   12) = (   0.0000000   0.3813502   0.5352304), wk =   0.0380952
        k(   13) = (   0.0000000  -0.5720252   0.0000000), wk =   0.0095238
        k(   14) = (   0.0000000  -0.5720252   0.1784101), wk =   0.0190476
        k(   15) = (   0.0000000  -0.5720252   0.3568203), wk =   0.0190476
        k(   16) = (   0.0000000  -0.5720252   0.5352304), wk =   0.0190476
        k(   17) = (   0.1981554   0.1144050   0.0000000), wk =   0.0190476
        k(   18) = (   0.1981554   0.1144050   0.1784101), wk =   0.0380952
        k(   19) = (   0.1981554   0.1144050   0.3568203), wk =   0.0380952
        k(   20) = (   0.1981554   0.1144050   0.5352304), wk =   0.0380952
        k(   21) = (   0.1981554   0.3050801   0.0000000), wk =   0.0190476
        k(   22) = (   0.1981554   0.3050801   0.1784101), wk =   0.0380952
        k(   23) = (   0.1981554   0.3050801   0.3568203), wk =   0.0380952
        k(   24) = (   0.1981554   0.3050801   0.5352304), wk =   0.0380952
        k(   25) = (   0.1981554   0.4957552   0.0000000), wk =   0.0190476
        k(   26) = (   0.1981554   0.4957552   0.1784101), wk =   0.0380952
        k(   27) = (   0.1981554   0.4957552   0.3568203), wk =   0.0380952
        k(   28) = (   0.1981554   0.4957552   0.5352304), wk =   0.0380952
        k(   29) = (   0.1981554  -0.4576202   0.0000000), wk =   0.0190476
        k(   30) = (   0.1981554  -0.4576202   0.1784101), wk =   0.0380952
        k(   31) = (   0.1981554  -0.4576202   0.3568203), wk =   0.0380952
        k(   32) = (   0.1981554  -0.4576202   0.5352304), wk =   0.0380952
        k(   33) = (   0.1981554  -0.2669451   0.0000000), wk =   0.0190476
        k(   34) = (   0.1981554  -0.2669451   0.1784101), wk =   0.0380952
        k(   35) = (   0.1981554  -0.2669451   0.3568203), wk =   0.0380952
        k(   36) = (   0.1981554  -0.2669451   0.5352304), wk =   0.0380952
        k(   37) = (   0.1981554  -0.0762700   0.0000000), wk =   0.0190476
        k(   38) = (   0.1981554  -0.0762700   0.1784101), wk =   0.0380952
        k(   39) = (   0.1981554  -0.0762700   0.3568203), wk =   0.0380952
        k(   40) = (   0.1981554  -0.0762700   0.5352304), wk =   0.0380952
        k(   41) = (   0.3963107   0.2288101   0.0000000), wk =   0.0190476
        k(   42) = (   0.3963107   0.2288101   0.1784101), wk =   0.0380952
        k(   43) = (   0.3963107   0.2288101   0.3568203), wk =   0.0380952
        k(   44) = (   0.3963107   0.2288101   0.5352304), wk =   0.0380952
        k(   45) = (   0.3963107   0.4194852   0.0000000), wk =   0.0190476
        k(   46) = (   0.3963107   0.4194852   0.1784101), wk =   0.0380952
        k(   47) = (   0.3963107   0.4194852   0.3568203), wk =   0.0380952
        k(   48) = (   0.3963107   0.4194852   0.5352304), wk =   0.0380952
        k(   49) = (   0.3963107   0.6101602   0.0000000), wk =   0.0190476
        k(   50) = (   0.3963107   0.6101602   0.1784101), wk =   0.0380952
        k(   51) = (   0.3963107   0.6101602   0.3568203), wk =   0.0380952
        k(   52) = (   0.3963107   0.6101602   0.5352304), wk =   0.0380952
        k(   53) = (   0.3963107  -0.3432151   0.0000000), wk =   0.0190476
        k(   54) = (   0.3963107  -0.3432151   0.1784101), wk =   0.0380952
        k(   55) = (   0.3963107  -0.3432151   0.3568203), wk =   0.0380952
        k(   56) = (   0.3963107  -0.3432151   0.5352304), wk =   0.0380952
        k(   57) = (   0.3963107  -0.1525401   0.0000000), wk =   0.0190476
        k(   58) = (   0.3963107  -0.1525401   0.1784101), wk =   0.0380952
        k(   59) = (   0.3963107  -0.1525401   0.3568203), wk =   0.0380952
        k(   60) = (   0.3963107  -0.1525401   0.5352304), wk =   0.0380952
        k(   61) = (   0.3963107   0.0381350   0.0000000), wk =   0.0190476
        k(   62) = (   0.3963107   0.0381350   0.1784101), wk =   0.0380952
        k(   63) = (   0.3963107   0.0381350   0.3568203), wk =   0.0380952
        k(   64) = (   0.3963107   0.0381350   0.5352304), wk =   0.0380952

     total cpu time spent up to now is      426.4 secs

     Self-consistent Calculation

     iteration #  1     ecut=    40.00 Ry     beta=0.70
     CG style diagonalization
     c_bands:  1 eigenvalues not converged
     c_bands:  3 eigenvalues not converged
     c_bands:  5 eigenvalues not converged
     c_bands:  2 eigenvalues not converged
     c_bands:  5 eigenvalues not converged
     c_bands:  5 eigenvalues not converged
     c_bands:  1 eigenvalues not converged
     c_bands:  1 eigenvalues not converged
     c_bands:  1 eigenvalues not converged
     c_bands:  1 eigenvalues not converged
     ethr =  1.00E-06,  avg # of iterations = 18.2

     total cpu time spent up to now is      546.8 secs

     total energy              =    -814.72101916 Ry
     Harris-Foulkes estimate   =    -817.67376080 Ry
     estimated scf accuracy    <       3.50494810 Ry

     iteration #  2     ecut=    40.00 Ry     beta=0.70
     CG style diagonalization
     c_bands:  1 eigenvalues not converged
     ethr =  3.25E-03,  avg # of iterations =  5.2

     total cpu time spent up to now is      583.4 secs

     total energy              =    -813.48302955 Ry
     Harris-Foulkes estimate   =    -821.58178160 Ry
     estimated scf accuracy    <      25.82560029 Ry

     iteration #  3     ecut=    40.00 Ry     beta=0.70
     CG style diagonalization
     ethr =  3.25E-03,  avg # of iterations =  4.7

     total cpu time spent up to now is      616.3 secs

     total energy              =    -816.89568874 Ry
     Harris-Foulkes estimate   =    -817.00768931 Ry
     estimated scf accuracy    <       0.22402141 Ry

     iteration #  4     ecut=    40.00 Ry     beta=0.70
     CG style diagonalization
     c_bands:  1 eigenvalues not converged
     ethr =  2.07E-04,  avg # of iterations =  4.5

     total cpu time spent up to now is      647.7 secs

     total energy              =    -817.01250475 Ry
     Harris-Foulkes estimate   =    -817.01440293 Ry
     estimated scf accuracy    <       0.00410532 Ry

     iteration #  5     ecut=    40.00 Ry     beta=0.70
     CG style diagonalization
     c_bands:  1 eigenvalues not converged
     c_bands:  1 eigenvalues not converged
     c_bands:  1 eigenvalues not converged
     c_bands:  1 eigenvalues not converged
     c_bands:  1 eigenvalues not converged
     c_bands:  1 eigenvalues not converged
     c_bands:  1 eigenvalues not converged
     ethr =  3.80E-06,  avg # of iterations =  6.1

     total cpu time spent up to now is      690.0 secs

     total energy              =    -817.01924456 Ry
     Harris-Foulkes estimate   =    -817.01944753 Ry
     estimated scf accuracy    <       0.00045241 Ry

     iteration #  6     ecut=    40.00 Ry     beta=0.70
     CG style diagonalization
     c_bands:  1 eigenvalues not converged
     c_bands:  1 eigenvalues not converged
     ethr =  4.19E-07,  avg # of iterations =  4.3

     total cpu time spent up to now is      719.0 secs

     End of self-consistent calculation

          k = 0.0000 0.0000 0.0000 (  5047 PWs)   bands (ev):

   -27.7412 -27.5396 -27.5395 -27.5051 -27.4256 -27.4256 -17.3642 -17.3620
    -6.7105  -6.7089  -6.3751  -6.3019  -6.3018  -6.1542  -6.1541  -6.1372
    -6.1372  -5.7739  -5.4992  -5.4991  -5.3315  -5.3191  -5.3191  -5.3169
    -5.3169  -5.2661   0.6877   0.7153   0.7769   0.7770   0.7878   0.7878
    15.1021  15.4455  15.4455  15.4801  15.6492  16.3174  16.3174  16.3239
    16.6079  16.6079  16.7896  18.4677  18.8697  18.8697  19.2475  19.2475
    19.3892  20.1204  20.1204  20.2888  20.4141  20.4141  20.5935  20.5936
    20.8056  20.8056  20.8761  20.8761  21.0732  21.4979  23.4020  24.0951
    24.2367

          k = 0.0000 0.0000 0.1784 (  5065 PWs)   bands (ev):

   -27.7296 -27.5340 -27.5339 -27.5169 -27.4313 -27.4312 -17.3657 -17.3633
    -6.7221  -6.6631  -6.4331  -6.4331  -6.3694  -6.2052  -6.2052  -5.9804
    -5.9804  -5.7478  -5.4850  -5.4850  -5.3732  -5.3198  -5.3198  -5.3034
    -5.3033  -5.2940   0.6931   0.6993   0.7835   0.7835   0.7893   0.7893
    15.3085  15.5520  15.5520  15.6083  15.6874  15.7644  15.7645  15.9229
    17.2868  17.2868  17.3328  18.6580  18.6792  18.6792  18.8993  19.1757
    19.1757  19.4381  19.4381  19.4808  19.9709  19.9709  20.4550  20.4551
    21.1493  21.1493  21.4015  22.2529  22.2843  22.2843  22.8465  23.9033
    24.3074

          k = 0.0000 0.0000 0.3568 (  5047 PWs)   bands (ev):

   -27.6972 -27.5500 -27.5181 -27.5181 -27.4471 -27.4470 -17.3676 -17.3662
    -6.7281  -6.6226  -6.5373  -6.5373  -6.3500  -6.3500  -6.2595  -5.7453
    -5.7453  -5.6816  -5.5038  -5.4642  -5.4641  -5.3673  -5.3204  -5.3204
    -5.2864  -5.2864   0.6751   0.6995   0.7964   0.7965   0.7965   0.7965
    15.4482  15.4483  15.5202  15.7203  15.8297  15.8297  16.0373  16.0390
    17.5449  17.5449  17.6379  17.6379  17.6550  17.6946  19.0942  19.0942
    19.1696  19.2175  19.5543  19.5543  19.9065  19.9065  20.7174  20.7174
    21.4474  21.7604  21.8180  21.8181  22.6536  23.5156  23.6802  23.6803
    23.8994

          k = 0.0000 0.0000 0.5352 (  5041 PWs)   bands (ev):

   -27.6501 -27.5976 -27.4953 -27.4953 -27.4699 -27.4699 -17.3691 -17.3687
    -6.7075  -6.6640  -6.5544  -6.5544  -6.4835  -6.4835  -6.0063  -5.7226
    -5.5833  -5.5599  -5.5598  -5.4702  -5.4695  -5.4695  -5.3236  -5.3235
    -5.3020  -5.3020   0.6726   0.6897   0.8036   0.8036   0.8053   0.8053
    15.5576  15.5576  15.6241  15.9047  15.9342  15.9342  16.3364  16.4708
    16.9349  16.9350  17.0312  17.3004  17.3004  17.3614  19.0821  19.0821
    19.2612  19.2613  19.2978  20.1134  20.2085  20.7617  20.7618  21.2912
    21.7901  21.7901  21.9037  21.9037  22.6292  23.4145  23.4146  23.4213
    23.4215

          k = 0.0000 0.1907 0.0000 (  5083 PWs)   bands (ev):

   -27.7304 -27.5515 -27.5400 -27.5020 -27.4280 -27.4253 -17.3657 -17.3637
    -6.6824  -6.6526  -6.3296  -6.2747  -6.2723  -6.1822  -6.1588  -6.1163
    -6.0844  -5.7990  -5.5412  -5.4976  -5.4204  -5.3685  -5.3653  -5.3257
    -5.2942  -5.2863   0.6898   0.7137   0.7283   0.7469   0.7617   0.7739
    15.3532  15.5845  15.7317  15.7545  15.8784  16.3167  16.3232  16.5219
    16.7024  16.8416  16.9874  18.5089  18.7420  18.8317  18.9616  19.4565
    19.7263  19.9496  20.2872  20.2934  20.3240  20.3246  20.3792  20.5263
    20.5547  20.5695  20.5861  20.6345  20.7538  21.2951  22.2765  23.6998
    24.0317

          k = 0.0000 0.1907 0.1784 (  5077 PWs)   bands (ev):

   -27.7190 -27.5460 -27.5343 -27.5126 -27.4346 -27.4310 -17.3667 -17.3650
    -6.6593  -6.6379  -6.4159  -6.4018  -6.3238  -6.1845  -6.1565  -5.9952
    -5.9947  -5.7628  -5.5293  -5.4883  -5.4159  -5.3671  -5.3542  -5.3351
    -5.3136  -5.2962   0.6948   0.6979   0.7378   0.7495   0.7683   0.7770
    15.5327  15.6872  15.8263  15.8391  15.9055  15.9158  15.9557  16.0881
    17.4032  17.4102  17.4681  18.5586  18.5680  18.7298  18.7558  18.9682
    19.2962  19.3429  19.4390  19.5992  19.7259  20.1700  20.3942  20.4997
    20.9717  21.0147  21.2896  21.7085  21.7751  21.8481  22.2286  23.6521
    23.8072

          k = 0.0000 0.1907 0.3568 (  5061 PWs)   bands (ev):

   -27.6872 -27.5461 -27.5269 -27.5184 -27.4526 -27.4469 -17.3690 -17.3677
    -6.6669  -6.5881  -6.5141  -6.5022  -6.3309  -6.3058  -6.2279  -5.8141
    -5.7656  -5.6463  -5.5436  -5.4971  -5.4492  -5.4102  -5.3830  -5.3371
    -5.3241  -5.2781   0.6762   0.6994   0.7538   0.7569   0.7816   0.7850
    15.5623  15.6208  15.6733  15.9508  16.0556  16.1291  16.2675  16.2854
    17.5249  17.5512  17.6484  17.8411  17.8669  17.8795  18.8698  18.9012
    19.0746  19.1766  19.2781  19.4841  19.6616  19.9065  20.7056  20.9415
    21.2003  21.7145  21.7180  21.8352  22.2924  22.5454  22.7144  23.1017
    23.3314

          k = 0.0000 0.1907 0.5352 (  5050 PWs)   bands (ev):

   -27.6411 -27.5903 -27.5044 -27.4954 -27.4775 -27.4699 -17.3706 -17.3701
    -6.6549  -6.6159  -6.5284  -6.5176  -6.4571  -6.4440  -5.9968  -5.7289
    -5.6832  -5.5837  -5.5710  -5.4980  -5.4957  -5.4108  -5.3890  -5.3410
    -5.3372  -5.2982   0.6742   0.6896   0.7641   0.7654   0.7911   0.7927
    15.6788  15.7429  15.7935  16.0529  16.1565  16.1806  16.5931  16.7133
    17.0331  17.0390  17.1323  17.4511  17.5053  17.5629  18.6230  18.7683
    19.2582  19.4127  19.4459  19.7645  20.2451  20.2976  20.6415  20.9715
    21.4421  21.6429  21.7475  21.9839  22.3296  22.7254  22.8845  23.0557
    23.1298

          k = 0.0000 0.3814 0.0000 (  5079 PWs)   bands (ev):

   -27.7022 -27.5836 -27.5407 -27.4917 -27.4353 -27.4247 -17.3677 -17.3665
    -6.6201  -6.5050  -6.2657  -6.2477  -6.1864  -6.1795  -6.1617  -6.0037
    -5.9574  -5.8677  -5.6378  -5.5899  -5.5451  -5.4895  -5.4784  -5.3820
    -5.2841  -5.2405   0.6339   0.6650   0.6971   0.7116   0.7334   0.7467
    15.8572  16.0693  16.3177  16.3280  16.3606  16.5150  16.5180  16.8609
    17.1081  17.3989  17.4889  18.2565  18.5952  18.7359  19.2044  19.2598
    19.3616  19.4867  19.5910  19.7071  19.9995  20.0118  20.0767  20.2505
    20.3538  20.5781  20.5907  20.6425  20.8800  20.9663  21.5028  22.4777
    23.1450

          k = 0.0000 0.3814 0.1784 (  5090 PWs)   bands (ev):

   -27.6913 -27.5779 -27.5350 -27.4995 -27.4445 -27.4304 -17.3691 -17.3679
    -6.5806  -6.5188  -6.3714  -6.3221  -6.2736  -6.0691  -6.0381  -6.0265
    -6.0012  -5.7963  -5.6450  -5.6122  -5.5347  -5.4755  -5.4413  -5.3475
    -5.2942  -5.2920   0.6434   0.6657   0.6997   0.7037   0.7401   0.7500
    15.9100  16.1945  16.2062  16.2075  16.3734  16.5203  16.6292  16.6570
    17.5734  17.6523  17.7617  18.2032  18.3833  18.4521  18.7103  18.9874
    19.0652  19.3088  19.3597  19.6001  19.8635  19.9085  20.2119  20.4500
    20.4882  20.7816  20.8879  20.9546  21.0629  21.4008  21.6649  22.4465
    23.1302

          k = 0.0000 0.3814 0.3568 (  5078 PWs)   bands (ev):

   -27.6606 -27.5640 -27.5208 -27.5189 -27.4683 -27.4465 -17.3716 -17.3707
    -6.5510  -6.5191  -6.4318  -6.4165  -6.3009  -6.1963  -6.1024  -5.9248
    -5.8172  -5.6540  -5.6426  -5.6144  -5.5754  -5.4327  -5.4088  -5.3956
    -5.3320  -5.2878   0.6611   0.6705   0.6935   0.7013   0.7547   0.7592
    15.8776  16.0850  16.1031  16.4172  16.5256  16.8328  16.9345  16.9487
    17.4045  17.4349  17.7068  18.1093  18.2303  18.2465  18.6027  18.6287
    18.7209  18.8548  19.0658  19.7241  19.7904  20.1230  20.3094  20.4814
    20.5563  20.8981  21.2154  21.4275  21.6059  21.9143  21.9797  21.9889
    22.3218

          k = 0.0000 0.3814 0.5352 (  5051 PWs)   bands (ev):

   -27.6173 -27.5735 -27.5251 -27.4983 -27.4956 -27.4698 -17.3733 -17.3729
    -6.5599  -6.5345  -6.4240  -6.4130  -6.3522  -6.3439  -5.9810  -5.8150
    -5.7994  -5.7040  -5.6466  -5.6073  -5.4879  -5.4452  -5.4067  -5.3740
    -5.3611  -5.3034   0.6694   0.6766   0.6948   0.6976   0.7663   0.7673
    16.0117  16.2057  16.2243  16.4092  16.6219  16.6674  16.9735  17.2490
    17.3297  17.4400  17.4708  17.8070  17.9411  18.0304  18.2440  18.3380
    19.1200  19.2522  19.5481  19.7521  19.9642  20.0197  20.2245  20.5295
    20.5348  20.8555  20.9913  21.2331  21.3766  21.6401  21.8217  21.9456
    22.6699

          k = 0.0000-0.5720 0.0000 (  5068 PWs)   bands (ev):

   -27.6799 -27.6079 -27.5411 -27.4842 -27.4412 -27.4243 -17.3688 -17.3676
    -6.5805  -6.4003  -6.2953  -6.2813  -6.1645  -6.0866  -6.0548  -5.9692
    -5.8244  -5.8228  -5.8200  -5.7415  -5.6083  -5.5899  -5.4882  -5.3991
    -5.2842  -5.2188   0.5887   0.6237   0.7014   0.7091   0.7194   0.7336
    16.1835  16.3189  16.3312  16.3986  16.7114  16.7791  17.3135  17.3491
    17.6188  17.6569  17.7910  18.4030  18.4522  18.4958  18.6393  18.6872
    18.7366  18.8676  19.4106  19.5153  19.6309  19.9555  20.0001  20.2339
    20.4090  20.4146  20.7105  20.8407  21.2492  21.3055  21.5280  21.9366
    22.2470

          k = 0.0000-0.5720 0.1784 (  5072 PWs)   bands (ev):

   -27.6689 -27.6023 -27.5353 -27.4897 -27.4526 -27.4301 -17.3700 -17.3690
    -6.5470  -6.4494  -6.3132  -6.2920  -6.2625  -6.0654  -5.9620  -5.9254
    -5.8310  -5.8296  -5.8281  -5.8152  -5.6053  -5.5161  -5.4521  -5.3591
    -5.2940  -5.2749   0.6004   0.6260   0.7021   0.7032   0.7264   0.7369
    16.1909  16.3774  16.4046  16.4327  16.6710  16.8237  17.2925  17.3996
    17.7499  17.7510  17.8178  17.9301  18.1205  18.3779  18.4329  18.6708
    19.1768  19.2066  19.3775  19.3830  19.8016  19.8569  20.0612  20.0891
    20.2195  20.2982  20.7292  21.0627  21.3811  21.4152  21.6431  21.9050
    22.4842

          k = 0.0000-0.5720 0.3568 (  5090 PWs)   bands (ev):

   -27.6380 -27.5873 -27.5191 -27.5049 -27.4840 -27.4464 -17.3730 -17.3722
    -6.5080  -6.4920  -6.3568  -6.3398  -6.2805  -6.1244  -5.9873  -5.9237
    -5.8923  -5.7936  -5.7406  -5.7096  -5.5798  -5.4278  -5.4191  -5.4180
    -5.3202  -5.3010   0.6244   0.6322   0.6913   0.6990   0.7416   0.7463
    16.2325  16.3886  16.5099  16.5590  16.8848  16.9905  17.0465  17.1542
    17.6511  17.7994  17.8326  17.9425  18.0402  18.2485  18.5585  18.7605
    19.0542  19.1017  19.1936  19.3891  19.7245  19.8339  20.1540  20.1707
    20.2266  20.3280  20.6694  21.0849  21.2972  21.4318  21.6785  21.8381
    21.9595

          k = 0.0000-0.5720 0.5352 (  5080 PWs)   bands (ev):

   -27.5955 -27.5718 -27.5246 -27.5227 -27.4957 -27.4698 -17.3748 -17.3747
    -6.5267  -6.5100  -6.3625  -6.2780  -6.2766  -6.2618  -5.9664  -5.9330
[...]
    21.4402  21.6822  21.7629  22.0127  22.3031  22.6753  22.8486  22.9773
    23.1435

          k = 0.3973 0.2294 0.0000 (  5237 PWs)   bands (ev):

   -27.6487 -27.5411 -27.4892 -27.4287 -27.3905 -27.3689 -17.3259 -17.3250
    -6.5875  -6.4264  -6.2379  -6.2292  -6.1314  -6.0915  -6.0861  -5.9092
    -5.9011  -5.8497  -5.6737  -5.5908  -5.5362  -5.4804  -5.4305  -5.3390
    -5.2340  -5.1659   0.6450   0.6780   0.7476   0.7581   0.7669   0.7812
    16.0618  16.3175  16.3709  16.4019  16.5551  16.8807  16.9584  16.9701
    17.4548  17.6255  17.6956  18.2981  18.6102  18.7447  18.9077  18.9884
    19.1140  19.3203  19.3731  19.5624  19.8566  20.0155  20.1919  20.2555
    20.4573  20.5103  20.6685  20.7260  21.0100  21.3276  21.3567  22.0983
    22.6653

          k = 0.3973 0.2294 0.1779 (  5229 PWs)   bands (ev):

   -27.6372 -27.5352 -27.4833 -27.4362 -27.4006 -27.3749 -17.3270 -17.3260
    -6.5495  -6.4501  -6.3120  -6.2652  -6.2393  -5.9939  -5.9656  -5.9534
    -5.9249  -5.7881  -5.6762  -5.6399  -5.5125  -5.4480  -5.3973  -5.3026
    -5.2436  -5.2226   0.6553   0.6796   0.7486   0.7516   0.7733   0.7849
    16.0945  16.3119  16.3975  16.4189  16.5894  16.7295  17.0486  17.0567
    17.6005  17.7277  17.9548  18.1620  18.2814  18.4089  18.6399  18.8872
    19.1736  19.2158  19.4667  19.6219  19.7090  19.9751  20.1063  20.3494
    20.4661  20.5388  20.8214  21.0202  21.2286  21.3733  21.6069  22.1022
    22.7717

          k = 0.3973 0.2294 0.3558 (  5227 PWs)   bands (ev):

   -27.6053 -27.5200 -27.4666 -27.4587 -27.4261 -27.3916 -17.3293 -17.3287
    -6.4969  -6.4813  -6.3604  -6.3474  -6.2658  -6.1339  -5.9769  -5.9002
    -5.7741  -5.6743  -5.6487  -5.6189  -5.5470  -5.3839  -5.3650  -5.3609
    -5.2757  -5.2470   0.6768   0.6853   0.7396   0.7482   0.7871   0.7924
    16.0824  16.3128  16.3626  16.5282  16.7230  17.0757  17.1923  17.2940
    17.3294  17.4596  17.8099  18.1085  18.1941  18.2788  18.6468  18.7970
    18.8548  18.9065  19.2547  19.7936  19.8410  19.9774  20.0471  20.3137
    20.6046  20.7611  20.8977  21.0769  21.6138  21.6271  21.9041  21.9630
    22.0782

          k = 0.3973 0.2294 0.5337 (  5233 PWs)   bands (ev):

   -27.5599 -27.5170 -27.4780 -27.4558 -27.4425 -27.4157 -17.3313 -17.3310
    -6.5103  -6.4889  -6.3674  -6.3220  -6.2854  -6.2850  -5.9117  -5.7972
    -5.7858  -5.6877  -5.6584  -5.5843  -5.4764  -5.3951  -5.3785  -5.3311
    -5.3079  -5.2674   0.6917   0.6927   0.7353   0.7409   0.7978   0.7993
    16.2289  16.4187  16.4379  16.6310  16.7133  16.7665  16.9410  17.3081
    17.5327  17.7584  17.7610  17.8859  18.0672  18.2082  18.4156  18.5206
    19.1238  19.3117  19.4139  19.8338  19.9578  20.0969  20.1822  20.2426
    20.4355  20.5682  20.7094  20.8519  21.0776  21.4650  21.5248  21.5495
    22.6296

          k = 0.3973 0.4205 0.0000 (  5210 PWs)   bands (ev):

   -27.6368 -27.5443 -27.5056 -27.4116 -27.3938 -27.3751 -17.3261 -17.3257
    -6.5652  -6.3523  -6.2420  -6.1800  -6.1583  -6.0557  -5.9911  -5.9770
    -5.9104  -5.8473  -5.6697  -5.6487  -5.5242  -5.4850  -5.4473  -5.3833
    -5.2901  -5.1521   0.6416   0.6734   0.7358   0.7508   0.7511   0.7561
    16.0436  16.4677  16.7405  16.9013  16.9079  16.9820  17.1952  17.4529
    17.6968  17.7707  17.9676  18.1073  18.2279  18.3213  18.4297  18.6666
    18.9337  18.9832  19.2078  19.4071  19.7112  19.7169  19.7814  19.9996
    20.6757  20.7909  20.8977  21.1150  21.2659  21.3941  21.4648  21.7252
    22.3886

          k = 0.3973 0.4205 0.1779 (  5218 PWs)   bands (ev):

   -27.6252 -27.5386 -27.5004 -27.4169 -27.4054 -27.3812 -17.3274 -17.3269
    -6.5281  -6.3863  -6.2732  -6.2584  -6.2116  -6.0053  -5.9650  -5.9074
    -5.8568  -5.8426  -5.7272  -5.7082  -5.5029  -5.4414  -5.4140  -5.3391
    -5.2973  -5.2115   0.6520   0.6752   0.7411   0.7487   0.7515   0.7571
    16.2016  16.4690  16.7123  16.8191  16.9071  16.9887  17.2614  17.5220
    17.6701  17.7376  17.8745  18.0385  18.1434  18.1755  18.3585  18.5785
    19.0207  19.1513  19.3675  19.4432  19.6223  19.7348  20.0808  20.1420
    20.3569  20.5574  20.6058  21.2214  21.3902  21.4707  21.6201  21.8158
    22.6076

          k = 0.3973 0.4205 0.3558 (  5219 PWs)   bands (ev):

   -27.5928 -27.5234 -27.4874 -27.4388 -27.4287 -27.3974 -17.3300 -17.3296
    -6.4484  -6.4423  -6.3459  -6.2848  -6.2651  -6.1308  -5.9245  -5.8738
    -5.7950  -5.7698  -5.7102  -5.6337  -5.5305  -5.3887  -5.3764  -5.3624
    -5.2997  -5.2723   0.6739   0.6817   0.7404   0.7449   0.7594   0.7641
    16.4631  16.5492  16.6147  16.7351  16.9898  17.1675  17.1956  17.2808
    17.5532  17.7003  17.7459  17.8090  18.2136  18.3869  18.6546  18.7909
    18.9139  18.9458  19.2062  19.5568  19.7084  19.8031  19.9679  20.1980
    20.2323  20.3440  20.4559  21.0139  21.3621  21.5625  21.7490  22.1693
    22.2207

          k = 0.3973 0.4205 0.5337 (  5238 PWs)   bands (ev):

   -27.5467 -27.5099 -27.4811 -27.4770 -27.4354 -27.4191 -17.3321 -17.3320
    -6.4568  -6.4338  -6.3519  -6.2897  -6.2733  -6.2498  -5.8783  -5.8718
    -5.7897  -5.7873  -5.6288  -5.5768  -5.5063  -5.4503  -5.3674  -5.3480
    -5.3052  -5.2834   0.6888   0.6892   0.7352   0.7388   0.7704   0.7711
    16.5753  16.6349  16.7192  16.7683  16.7965  16.9016  17.0408  17.1461
    17.7997  17.8889  17.9262  18.1008  18.2095  18.3852  18.5737  18.7714
    18.9930  19.0997  19.2981  19.3956  19.6546  19.7075  19.8013  19.8540
    20.0894  20.5786  20.7083  20.8051  20.8799  21.2084  21.2693  21.4220
    22.8527

          k = 0.3973 0.6116 0.0000 (  5216 PWs)   bands (ev):

   -27.6332 -27.5366 -27.5209 -27.4018 -27.3909 -27.3840 -17.3263 -17.3261
    -6.5587  -6.3185  -6.2235  -6.1879  -6.1050  -6.0682  -6.0233  -6.0016
    -5.9220  -5.8861  -5.6370  -5.6142  -5.5028  -5.4686  -5.4416  -5.4102
    -5.3682  -5.1460   0.6592   0.6870   0.7094   0.7228   0.7525   0.7557
    15.9653  16.8284  17.0222  17.0788  17.1006  17.2129  17.2790  17.3679
    17.6346  17.6790  17.8445  18.0009  18.1177  18.1496  18.1550  18.7625
    18.8140  18.9805  19.1650  19.3202  19.4745  19.6261  19.7469  19.8434
    20.8171  20.9576  20.9779  21.0351  21.2910  21.3898  21.5831  21.7928
    22.3889

          k = 0.3973 0.6116 0.1779 (  5230 PWs)   bands (ev):

   -27.6216 -27.5310 -27.5157 -27.4085 -27.4010 -27.3900 -17.3277 -17.3274
    -6.5215  -6.3342  -6.2968  -6.2668  -6.1440  -6.0765  -5.9334  -5.9092
    -5.8887  -5.8707  -5.7088  -5.6872  -5.4623  -5.4252  -5.4094  -5.3729
    -5.3694  -5.2079   0.6700   0.6897   0.7141   0.7256   0.7511   0.7523
    16.1522  16.8055  16.9526  16.9928  17.0898  17.1749  17.2537  17.4801
    17.5945  17.6873  17.8020  17.8548  17.9505  18.0699  18.3102  18.6028
    19.0495  19.1605  19.2844  19.3978  19.4324  19.6090  19.8928  20.0283
    20.5028  20.5760  20.7529  21.1428  21.3693  21.4785  21.4944  22.0872
    22.6530

          k = 0.3973 0.6116 0.3558 (  5207 PWs)   bands (ev):

   -27.5890 -27.5161 -27.5026 -27.4378 -27.4180 -27.4050 -17.3300 -17.3298
    -6.4311  -6.3928  -6.3626  -6.2824  -6.2327  -6.1807  -5.8897  -5.8803
    -5.8181  -5.7824  -5.6908  -5.6414  -5.5065  -5.4029  -5.3926  -5.3600
    -5.3086  -5.2903   0.6911   0.6976   0.7267   0.7320   0.7478   0.7494
    16.6259  16.6708  16.8209  16.8499  17.0722  17.1460  17.3163  17.3545
    17.4185  17.5741  17.6508  17.8660  18.2269  18.4313  18.4722  18.5825
    19.0051  19.1494  19.3172  19.4024  19.5990  19.6716  19.9101  19.9832
    20.1233  20.2711  20.3247  21.1667  21.3085  21.5619  21.6402  22.3351
    22.5542

          k = 0.3973 0.6116 0.5337 (  5236 PWs)   bands (ev):

   -27.5419 -27.5008 -27.4924 -27.4810 -27.4300 -27.4232 -17.3324 -17.3322
    -6.4045  -6.3794  -6.3603  -6.3213  -6.2820  -6.2652  -5.8706  -5.8664
    -5.8122  -5.7896  -5.5906  -5.5520  -5.5239  -5.5075  -5.3700  -5.3578
    -5.3020  -5.2933   0.7041   0.7048   0.7327   0.7342   0.7482   0.7489
    16.6619  16.7540  16.7977  16.8691  16.9273  16.9662  17.0698  17.1363
    17.6899  17.9959  18.0722  18.1915  18.2930  18.4875  18.6876  18.7488
    18.8153  18.8449  19.0401  19.3640  19.4278  19.4877  19.6192  19.6863
    20.1937  20.5984  20.6281  20.8684  20.9946  21.1883  21.3160  21.4289
    23.1250

          k = 0.3973-0.3440 0.0000 (  5222 PWs)   bands (ev):

   -27.6411 -27.5457 -27.4959 -27.4202 -27.3932 -27.3711 -17.3261 -17.3254
    -6.5732  -6.3834  -6.2464  -6.2120  -6.1422  -6.0642  -6.0227  -5.9443
    -5.8951  -5.8057  -5.7184  -5.6435  -5.5346  -5.4947  -5.4365  -5.3593
    -5.2544  -5.1578   0.6364   0.6697   0.7496   0.7532   0.7568   0.7677
    16.1438  16.2606  16.5609  16.6629  16.7176  16.9289  17.1016  17.4241
    17.5656  17.6777  17.8744  18.2611  18.4939  18.5215  18.6458  18.7893
    18.8974  19.0341  19.3386  19.4721  19.7474  19.8730  19.9634  20.1545
    20.5596  20.6042  20.7944  20.9967  21.1014  21.3738  21.5298  21.8687
    22.3874

          k = 0.3973-0.3440 0.1779 (  5228 PWs)   bands (ev):

   -27.6296 -27.5399 -27.4904 -27.4262 -27.4043 -27.3771 -17.3273 -17.3266
    -6.5365  -6.4167  -6.2862  -6.2566  -6.2304  -5.9924  -5.9672  -5.9236
    -5.8505  -5.8157  -5.7381  -5.6961  -5.5181  -5.4510  -5.4053  -5.3188
    -5.2641  -5.2164   0.6471   0.6715   0.7492   0.7509   0.7600   0.7714
    16.2562  16.2775  16.5563  16.6237  16.7505  16.8725  17.1903  17.4233
    17.6235  17.7845  17.9399  18.0660  18.2512  18.2789  18.4464  18.7150
    19.1149  19.2520  19.3080  19.5370  19.6800  19.8843  20.1426  20.2290
    20.2990  20.4976  20.6594  21.1537  21.3692  21.4877  21.5911  21.8824
    22.5358

          k = 0.3973-0.3440 0.3558 (  5221 PWs)   bands (ev):

   -27.5974 -27.5245 -27.4768 -27.4451 -27.4310 -27.3937 -17.3297 -17.3292
    -6.4708  -6.4641  -6.3473  -6.3103  -6.2598  -6.1200  -5.9301  -5.8988
    -5.7768  -5.7476  -5.6990  -5.6285  -5.5407  -5.3803  -5.3773  -5.3613
    -5.2827  -5.2598   0.6693   0.6777   0.7403   0.7472   0.7744   0.7795
    16.2748  16.4609  16.5523  16.5701  16.9478  17.0730  17.1646  17.2403
    17.4984  17.7731  17.8378  17.9500  18.0266  18.3695  18.6457  18.8286
    18.8638  19.1074  19.3173  19.4378  19.7239  19.9149  20.0889  20.2189
    20.3685  20.4864  20.7234  20.9900  21.3604  21.6529  21.8000  21.9518
    22.0968

          k = 0.3973-0.3440 0.5337 (  5237 PWs)   bands (ev):

   -27.5519 -27.5136 -27.4799 -27.4676 -27.4392 -27.4170 -17.3318 -17.3316
    -6.4866  -6.4648  -6.3540  -6.2950  -6.2628  -6.2573  -5.8925  -5.8522
    -5.7902  -5.7517  -5.6518  -5.5840  -5.4932  -5.4177  -5.3728  -5.3390
    -5.3039  -5.2765   0.6846   0.6852   0.7351   0.7399   0.7857   0.7867
    16.4218  16.5414  16.6222  16.7095  16.7795  16.8227  16.9313  17.2283
    17.6660  17.8701  17.9687  18.0588  18.1045  18.2553  18.4882  18.6679
    19.1718  19.2693  19.3134  19.6108  19.7774  19.8340  20.0047  20.1406
    20.1757  20.5468  20.6659  20.7374  20.9107  21.1958  21.3318  21.4490
    22.6859

          k = 0.3973-0.1529 0.0000 (  5229 PWs)   bands (ev):

   -27.6530 -27.5348 -27.4919 -27.4298 -27.3875 -27.3699 -17.3256 -17.3245
    -6.5959  -6.4460  -6.2261  -6.2165  -6.1350  -6.1270  -6.1048  -5.9582
    -5.8924  -5.8516  -5.6333  -5.5503  -5.5294  -5.4408  -5.4352  -5.3399
    -5.2433  -5.1705   0.6595   0.6900   0.7462   0.7585   0.7674   0.7811
    16.0213  16.2151  16.2831  16.5236  16.5352  16.6654  16.8711  16.9428
    17.2857  17.4759  17.6984  18.2307  18.6040  18.7972  19.0241  19.1872
    19.2951  19.3277  19.4505  19.6263  19.9474  19.9858  20.1817  20.1906
    20.4594  20.4847  20.7039  20.7370  20.8992  21.2324  21.4703  22.2814
    22.8456

          k = 0.3973-0.1529 0.1779 (  5234 PWs)   bands (ev):

   -27.6416 -27.5289 -27.4863 -27.4378 -27.3968 -27.3759 -17.3267 -17.3258
    -6.5565  -6.4632  -6.3272  -6.2807  -6.2272  -6.0223  -5.9867  -5.9635
    -5.9401  -5.7826  -5.6363  -5.6041  -5.4851  -5.4366  -5.3930  -5.3047
    -5.2533  -5.2261   0.6691   0.6917   0.7480   0.7517   0.7735   0.7842
    16.0615  16.2227  16.3691  16.4008  16.5353  16.6707  16.7940  16.9817
    17.6121  17.7318  17.8649  18.1632  18.3617  18.4548  18.6304  18.9547
    19.0843  19.2358  19.4823  19.6576  19.7889  20.0160  20.1446  20.3857
    20.4760  20.6527  20.8659  20.9807  21.2071  21.3936  21.6269  22.2471
    22.9081

          k = 0.3973-0.1529 0.3558 (  5224 PWs)   bands (ev):

   -27.6096 -27.5138 -27.4738 -27.4579 -27.4205 -27.3925 -17.3290 -17.3284
    -6.5016  -6.4848  -6.3871  -6.3638  -6.2637  -6.1565  -6.0125  -5.8885
    -5.7651  -5.6431  -5.6284  -5.6006  -5.5269  -5.3832  -5.3705  -5.3506
    -5.2812  -5.2476   0.6889   0.6971   0.7398   0.7483   0.7875   0.7923
    16.0283  16.2276  16.2557  16.5389  16.6813  16.9988  17.0926  17.2256
    17.3579  17.4572  17.7515  18.1309  18.1443  18.3023  18.6203  18.7599
    18.8013  18.8660  19.2083  19.7697  19.9237  19.9999  20.1687  20.4357
    20.6664  20.7131  21.0685  21.2301  21.6643  21.7501  21.9386  22.0113
    22.2024

          k = 0.3973-0.1529 0.5337 (  5230 PWs)   bands (ev):

   -27.5641 -27.5183 -27.4768 -27.4534 -27.4401 -27.4163 -17.3309 -17.3307
    -6.5114  -6.4892  -6.3887  -6.3551  -6.3123  -6.2925  -5.9200  -5.7952
    -5.7457  -5.6856  -5.6153  -5.5699  -5.4695  -5.4053  -5.3778  -5.3317
    -5.3056  -5.2666   0.7022   0.7042   0.7362   0.7416   0.7980   0.7993
    16.1590  16.3218  16.3777  16.5610  16.6853  16.7743  17.0169  17.3410
    17.4607  17.5815  17.6760  17.8548  18.0087  18.1348  18.3443  18.4415
    19.1019  19.2382  19.5577  19.8421  19.9787  20.1000  20.1816  20.3326
    20.5073  20.6103  20.9886  21.0616  21.2182  21.5439  21.6623  21.7307
    22.7043

          k = 0.3973 0.0382 0.0000 (  5245 PWs)   bands (ev):

   -27.6567 -27.5248 -27.5007 -27.4288 -27.3824 -27.3734 -17.3255 -17.3245
    -6.6027  -6.4623  -6.2081  -6.1804  -6.1592  -6.1477  -6.1386  -6.0213
    -5.8776  -5.8563  -5.5992  -5.5196  -5.5171  -5.4467  -5.3648  -5.3422
    -5.2918  -5.1739   0.6811   0.7042   0.7448   0.7590   0.7647   0.7701
    16.0810  16.1109  16.2180  16.3368  16.5422  16.7969  16.8240  17.0274
    17.0439  17.2337  17.7164  18.1163  18.6032  18.8805  19.0993  19.1411
    19.4508  19.4748  19.6007  19.6611  19.8464  20.0682  20.0731  20.1339
    20.4031  20.4877  20.5885  20.7877  21.0091  21.1916  21.6636  22.5009
    23.0523

          k = 0.3973 0.0382 0.1779 (  5229 PWs)   bands (ev):

   -27.6453 -27.5187 -27.4959 -27.4369 -27.3910 -27.3793 -17.3262 -17.3256
    -6.5624  -6.4694  -6.3446  -6.2923  -6.1883  -6.1067  -5.9761  -5.9686
    -5.9481  -5.7818  -5.6055  -5.5760  -5.4468  -5.4320  -5.3467  -5.3152
    -5.2979  -5.2281   0.6895   0.7072   0.7477   0.7511   0.7702   0.7745
    16.1256  16.1448  16.2771  16.3798  16.5217  16.5586  16.6536  16.9263
    17.6550  17.7314  17.7712  18.1624  18.3170  18.5372  18.6496  18.8342
    19.0536  19.2285  19.5360  19.6937  19.9600  20.0063  20.1170  20.3011
    20.5316  20.7659  20.8807  20.9542  21.3121  21.4321  21.6636  22.3964
    22.9167

          k = 0.3973 0.0382 0.3558 (  5225 PWs)   bands (ev):

   -27.6133 -27.5023 -27.4887 -27.4553 -27.4130 -27.3955 -17.3287 -17.3282
    -6.4917  -6.4859  -6.4301  -6.3730  -6.2436  -6.2023  -6.0355  -5.8823
    -5.7508  -5.6290  -5.6132  -5.5959  -5.4576  -5.3935  -5.3780  -5.3464
    -5.2869  -5.2605   0.7049   0.7144   0.7405   0.7486   0.7816   0.7846
    16.0419  16.1196  16.1703  16.5859  16.7169  16.8177  16.9226  17.1881
    17.4645  17.6072  17.6416  17.9917  18.1161  18.3213  18.5025  18.7075
    18.7432  18.9049  19.3655  19.5592  19.8816  20.1410  20.2852  20.4877
    20.5444  20.9051  21.2770  21.3305  21.6246  21.8836  21.9422  22.1312
    22.2962

          k = 0.3973 0.0382 0.5337 (  5222 PWs)   bands (ev):

   -27.5675 -27.5193 -27.4754 -27.4543 -27.4342 -27.4181 -17.3306 -17.3303
    -6.4971  -6.4767  -6.4329  -6.3891  -6.3348  -6.2964  -5.9253  -5.7963
    -5.7084  -5.6898  -5.5828  -5.5171  -5.4597  -5.4264  -5.3963  -5.3375
    -5.2894  -5.2759   0.7147   0.7197   0.7400   0.7439   0.7913   0.7927
    16.1388  16.2107  16.3411  16.5527  16.6063  16.8022  17.1815  17.3053
    17.3695  17.4429  17.6092  17.8719  17.9464  18.0466  18.2294  18.3496
    19.0565  19.1335  19.7631  19.8950  20.0032  20.1089  20.1598  20.3574
    20.4633  20.6133  21.2574  21.3296  21.4503  21.5232  21.8288  21.8518
    22.8242

     the Fermi energy is    20.1130 ev

!    total energy              =    -817.04820239 Ry
     Harris-Foulkes estimate   =    -817.04820345 Ry
     estimated scf accuracy    <       0.00000133 Ry

     The total energy is the sum of the following terms:

     one-electron contribution =      -1.68587620 Ry
     hartree contribution      =      72.35406731 Ry
     xc contribution           =     -98.52780643 Ry
     ewald contribution        =    -788.52320883 Ry
     smearing contrib. (-TS)   =      -0.66537823 Ry

     convergence has been achieved in  11 iterations

     Forces acting on atoms (Ry/au):

     atom    1 type  1   force =     0.00962123    0.00555482    0.00000000
     atom    2 type  1   force =     0.00962123   -0.00555482    0.00000000
     atom    3 type  1   force =    -0.00962123   -0.00555482    0.00000000
     atom    4 type  1   force =    -0.00962123    0.00555482    0.00000000
     atom    5 type  1   force =     0.00000000   -0.01110964    0.00000000
     atom    6 type  1   force =     0.00000000    0.01110964    0.00000000
     atom    7 type  2   force =     0.00000000    0.00000000    0.00000000
     atom    8 type  2   force =     0.00000000    0.00000000    0.00000000

     Total force =     0.027213     Total SCF correction =     0.000000


     entering subroutine stress ...

          total   stress  (Ry/bohr**3)                   (kbar)     P=   12.91
   0.00005372   0.00000000   0.00000000          7.90      0.00      0.00
   0.00000000   0.00005372   0.00000000          0.00      7.90      0.00
   0.00000000   0.00000000   0.00015585          0.00      0.00     22.93


     Writing output data file Prototype-La-hP8-Mg3Cd.save
 
     init_run     :      9.49s CPU     13.02s WALL (       2 calls)
     electrons    :   1489.05s CPU   1794.56s WALL (       5 calls)
     update_pot   :      2.58s CPU      2.62s WALL (       3 calls)
     forces       :      9.12s CPU      9.68s WALL (       5 calls)
     stress       :     26.70s CPU     27.66s WALL (       5 calls)

     Called by init_run:
     wfcinit      :      8.42s CPU     10.63s WALL (       2 calls)
     potinit      :      0.48s CPU      0.49s WALL (       2 calls)

     Called by electrons:
     c_bands      :   1429.50s CPU   1688.06s WALL (      40 calls)
     sum_band     :     59.17s CPU     77.76s WALL (      40 calls)
     v_of_rho     :      0.08s CPU      0.10s WALL (      45 calls)
     mix_rho      :      0.08s CPU      0.10s WALL (      40 calls)

     Called by c_bands:
     init_us_2    :      4.92s CPU      6.28s WALL (    5888 calls)
     ccgdiagg     :   1266.90s CPU   1481.05s WALL (    2712 calls)
     wfcrot       :    166.44s CPU    210.81s WALL (    2776 calls)

     Called by *cgdiagg:
     h_psi        :   1037.06s CPU   1251.87s WALL (  917405 calls)
     cdiaghg      :      4.56s CPU      4.84s WALL (    2776 calls)

     Called by h_psi:
     add_vuspsi   :    124.48s CPU    147.47s WALL (  917405 calls)

     General routines
     calbec       :    300.47s CPU    306.38s WALL ( 1832674 calls)
     fft          :      0.24s CPU      0.27s WALL (     203 calls)
     fftw         :    776.16s CPU    925.83s WALL ( 2356538 calls)
     davcio       :      2.62s CPU      4.67s WALL (    8448 calls)
 
     Parallel routines
     fft_scatter  :    300.98s CPU    354.35s WALL ( 2356741 calls)
 
     PWSCF        : 25m37.73s CPU    30m52.52s WALL

 
   This run was terminated on:  18: 1:43  22Mar2018            

=------------------------------------------------------------------------------=
   JOB DONE.
=------------------------------------------------------------------------------=
