
     Program PWSCF v.5.0.2 starts on 22Mar2018 at 12: 9:42 

     This program is part of the open-source Quantum ESPRESSO suite
     for quantum simulation of materials; please cite
         "P. Giannozzi et al., J. Phys.:Condens. Matter 21 395502 (2009);
          URL http://www.quantum-espresso.org", 
     in publications or presentations arising from this work. More details at
     http://www.quantum-espresso.org/quote.php

     Parallel version (MPI), running on     4 processors
     R & G space division:  proc/nbgrp/npool/nimage =       4

     Current dimensions of program PWSCF are:
     Max number of different atomic species (ntypx) = 10
     Max number of k-points (npk) =  40000
     Max angular momentum in pseudopotentials (lmaxx) =  3
     Waiting for input...
     Reading input from standard input

     Subspace diagonalization in iterative solution of the eigenvalue problem:
     a serial algorithm will be used

 
     Parallelization info
     --------------------
     sticks:   dense  smooth     PW     G-vecs:    dense   smooth      PW
     Min         233     233     69                 5311     5311     851
     Max         234     234     70                 5314     5314     854
     Sum         933     933    277                21247    21247    3407
 


     bravais-lattice index     =            0
     lattice parameter (alat)  =       8.5346  a.u.
     unit-cell volume          =     621.6493 (a.u.)^3
     number of atoms/cell      =            8
     number of atomic types    =            2
     number of electrons       =       194.00
     number of Kohn-Sham states=          116
     kinetic-energy cutoff     =      40.0000  Ry
     charge density cutoff     =     160.0000  Ry
     convergence threshold     =      1.0E-04
     mixing beta               =       0.7000
     number of iterations used =            8  plain     mixing
     Exchange-correlation      = SLA-PZ-NOGX-NOGC ( 1 1 0 0 0)
     EXX-fraction              =        0.00
     nstep                     =           50


     celldm(1)=   8.534573  celldm(2)=   0.000000  celldm(3)=   0.000000
     celldm(4)=   0.000000  celldm(5)=   0.000000  celldm(6)=   0.000000

     crystal axes: (cart. coord. in units of alat)
               a(1) = (   1.000000   0.000000   0.000000 )  
               a(2) = (   0.000000   1.000000   0.000000 )  
               a(3) = (   0.000000   0.000000   1.000000 )  

     reciprocal axes: (cart. coord. in units 2 pi/alat)
               b(1) = (  1.000000  0.000000  0.000000 )  
               b(2) = (  0.000000  1.000000  0.000000 )  
               b(3) = (  0.000000  0.000000  1.000000 )  


     PseudoPot. # 1 for Yb read from file:
     /home/jld5415/pp.La/Yb.UPF
     MD5 check sum: 3e859b81cc28c53ec6aa3a2e888efcdf
     Pseudo is Norm-conserving, Zval = 24.0
     Generated in analytical, separable form
     Using radial grid of 1269 points,  6 beta functions with: 
                l(1) =   0
                l(2) =   0
                l(3) =   1
                l(4) =   1
                l(5) =   2
                l(6) =   3

     PseudoPot. # 2 for Lu read from file:
     /home/jld5415/pp.La/La.UPF
     MD5 check sum: 4fc038260c66a0bf25fb4835376efb80
     Pseudo is Norm-conserving, Zval = 25.0
     Generated in analytical, separable form
     Using radial grid of 1271 points,  6 beta functions with: 
                l(1) =   0
                l(2) =   0
                l(3) =   1
                l(4) =   1
                l(5) =   2
                l(6) =   3

     atomic species   valence    mass     pseudopotential
        Cr            24.00    51.99610     Yb( 1.00)
        Si            25.00    28.08550     Lu( 1.00)

     48 Sym. Ops., with inversion, found (24 have fractional translation)



   Cartesian axes

     site n.     atom                  positions (alat units)
         1           Cr  tau(   1) = (   0.0000000   0.5000000   0.2500000  )
         2           Cr  tau(   2) = (   0.0000000   0.5000000   0.7500000  )
         3           Cr  tau(   3) = (   0.5000000   0.7500000   0.0000000  )
         4           Cr  tau(   4) = (   0.5000000   0.2500000   0.0000000  )
         5           Cr  tau(   5) = (   0.7500000   0.0000000   0.5000000  )
         6           Cr  tau(   6) = (   0.2500000   0.0000000   0.5000000  )
         7           Si  tau(   7) = (   0.5000000   0.5000000   0.5000000  )
         8           Si  tau(   8) = (   0.0000000   0.0000000   0.0000000  )

     number of k points=    48  gaussian smearing, width (Ry)=  0.1000
                       cart. coord. in units 2pi/alat
        k(    1) = (   0.0000000   0.0000000   0.0000000), wk =   0.0095238
        k(    2) = (   0.0000000   0.0000000   0.1428571), wk =   0.0190476
        k(    3) = (   0.0000000   0.0000000   0.2857143), wk =   0.0190476
        k(    4) = (   0.0000000   0.0000000   0.4285714), wk =   0.0190476
        k(    5) = (   0.0000000   0.1666667   0.0000000), wk =   0.0190476
        k(    6) = (   0.0000000   0.1666667   0.1428571), wk =   0.0380952
        k(    7) = (   0.0000000   0.1666667   0.2857143), wk =   0.0380952
        k(    8) = (   0.0000000   0.1666667   0.4285714), wk =   0.0380952
        k(    9) = (   0.0000000   0.3333333   0.0000000), wk =   0.0190476
        k(   10) = (   0.0000000   0.3333333   0.1428571), wk =   0.0380952
        k(   11) = (   0.0000000   0.3333333   0.2857143), wk =   0.0380952
        k(   12) = (   0.0000000   0.3333333   0.4285714), wk =   0.0380952
        k(   13) = (   0.0000000  -0.5000000   0.0000000), wk =   0.0095238
        k(   14) = (   0.0000000  -0.5000000   0.1428571), wk =   0.0190476
        k(   15) = (   0.0000000  -0.5000000   0.2857143), wk =   0.0190476
        k(   16) = (   0.0000000  -0.5000000   0.4285714), wk =   0.0190476
        k(   17) = (   0.2000000   0.0000000   0.0000000), wk =   0.0190476
        k(   18) = (   0.2000000   0.0000000   0.1428571), wk =   0.0380952
        k(   19) = (   0.2000000   0.0000000   0.2857143), wk =   0.0380952
        k(   20) = (   0.2000000   0.0000000   0.4285714), wk =   0.0380952
        k(   21) = (   0.2000000   0.1666667   0.0000000), wk =   0.0380952
        k(   22) = (   0.2000000   0.1666667   0.1428571), wk =   0.0761905
        k(   23) = (   0.2000000   0.1666667   0.2857143), wk =   0.0761905
        k(   24) = (   0.2000000   0.1666667   0.4285714), wk =   0.0761905
        k(   25) = (   0.2000000   0.3333333   0.0000000), wk =   0.0380952
        k(   26) = (   0.2000000   0.3333333   0.1428571), wk =   0.0761905
        k(   27) = (   0.2000000   0.3333333   0.2857143), wk =   0.0761905
        k(   28) = (   0.2000000   0.3333333   0.4285714), wk =   0.0761905
        k(   29) = (   0.2000000  -0.5000000   0.0000000), wk =   0.0190476
        k(   30) = (   0.2000000  -0.5000000   0.1428571), wk =   0.0380952
        k(   31) = (   0.2000000  -0.5000000   0.2857143), wk =   0.0380952
        k(   32) = (   0.2000000  -0.5000000   0.4285714), wk =   0.0380952
        k(   33) = (   0.4000000   0.0000000   0.0000000), wk =   0.0190476
        k(   34) = (   0.4000000   0.0000000   0.1428571), wk =   0.0380952
        k(   35) = (   0.4000000   0.0000000   0.2857143), wk =   0.0380952
        k(   36) = (   0.4000000   0.0000000   0.4285714), wk =   0.0380952
        k(   37) = (   0.4000000   0.1666667   0.0000000), wk =   0.0380952
        k(   38) = (   0.4000000   0.1666667   0.1428571), wk =   0.0761905
        k(   39) = (   0.4000000   0.1666667   0.2857143), wk =   0.0761905
        k(   40) = (   0.4000000   0.1666667   0.4285714), wk =   0.0761905
        k(   41) = (   0.4000000   0.3333333   0.0000000), wk =   0.0380952
        k(   42) = (   0.4000000   0.3333333   0.1428571), wk =   0.0761905
        k(   43) = (   0.4000000   0.3333333   0.2857143), wk =   0.0761905
        k(   44) = (   0.4000000   0.3333333   0.4285714), wk =   0.0761905
        k(   45) = (   0.4000000  -0.5000000   0.0000000), wk =   0.0190476
        k(   46) = (   0.4000000  -0.5000000   0.1428571), wk =   0.0380952
        k(   47) = (   0.4000000  -0.5000000   0.2857143), wk =   0.0380952
        k(   48) = (   0.4000000  -0.5000000   0.4285714), wk =   0.0380952

     Dense  grid:    21247 G-vectors     FFT dimensions: (  36,  36,  36)

     Largest allocated arrays     est. size (Mb)     dimensions
        Kohn-Sham Wavefunctions         1.21 Mb     (    683,  116)
        NL pseudopotentials             1.67 Mb     (    683,  160)
        Each V/rho on FFT grid          0.18 Mb     (  11664)
        Each G-vector array             0.04 Mb     (   5314)
        G-vector shells                 0.04 Mb     (   5314)
     Largest temporary arrays     est. size (Mb)     dimensions
        Each subspace H/S matrix        0.21 Mb     ( 116, 116)
        Each <psi_i|beta_j> matrix      0.28 Mb     (    160,  116)
        Arrays for rho mixing           1.42 Mb     (  11664,   8)

     Initial potential from superposition of free atoms

     Starting from uniform charge
     Starting wfc are    0 randomized atomic wfcs

     total cpu time spent up to now is        4.7 secs

     Self-consistent Calculation

     iteration #  1     ecut=    40.00 Ry     beta=0.70
     CG style diagonalization
     ethr =  1.00E-02,  avg # of iterations = 17.8

     total cpu time spent up to now is       96.5 secs

     total energy              =   -2940.70748455 Ry
     Harris-Foulkes estimate   =   -3953.35111811 Ry
     estimated scf accuracy    <    1260.90791152 Ry

     iteration #  2     ecut=    40.00 Ry     beta=0.70
     CG style diagonalization
     c_bands:  1 eigenvalues not converged
     c_bands:  1 eigenvalues not converged
     c_bands:  1 eigenvalues not converged
     c_bands:  1 eigenvalues not converged
     c_bands:  1 eigenvalues not converged
     ethr =  1.00E-02,  avg # of iterations =  9.0

     total cpu time spent up to now is      144.3 secs

     total energy              =   -3205.68962056 Ry
     Harris-Foulkes estimate   =   -3514.08133387 Ry
     estimated scf accuracy    <     460.63550412 Ry

     iteration #  3     ecut=    40.00 Ry     beta=0.70
     CG style diagonalization
     c_bands:  1 eigenvalues not converged
     c_bands:  1 eigenvalues not converged
     c_bands:  1 eigenvalues not converged
     c_bands:  1 eigenvalues not converged
     c_bands:  1 eigenvalues not converged
     c_bands:  1 eigenvalues not converged
     c_bands:  1 eigenvalues not converged
     ethr =  1.00E-02,  avg # of iterations =  8.7

     total cpu time spent up to now is      189.6 secs

     total energy              =   -3319.16666234 Ry
     Harris-Foulkes estimate   =   -3375.15500987 Ry
     estimated scf accuracy    <     111.41708823 Ry

     iteration #  4     ecut=    40.00 Ry     beta=0.70
     CG style diagonalization
     ethr =  1.00E-02,  avg # of iterations =  4.6

     total cpu time spent up to now is      213.1 secs

     total energy              =   -3351.08075156 Ry
     Harris-Foulkes estimate   =   -3353.02924970 Ry
     estimated scf accuracy    <       3.51078398 Ry

     iteration #  5     ecut=    40.00 Ry     beta=0.70
     CG style diagonalization
     ethr =  1.81E-03,  avg # of iterations =  3.8

     total cpu time spent up to now is      232.2 secs

     total energy              =   -3351.87029908 Ry
     Harris-Foulkes estimate   =   -3351.90295563 Ry
     estimated scf accuracy    <       0.08012506 Ry

     iteration #  6     ecut=    40.00 Ry     beta=0.70
     CG style diagonalization
     c_bands:  1 eigenvalues not converged
     c_bands:  1 eigenvalues not converged
     c_bands:  1 eigenvalues not converged
     c_bands:  2 eigenvalues not converged
     c_bands:  1 eigenvalues not converged
     c_bands:  1 eigenvalues not converged
     c_bands:  2 eigenvalues not converged
     c_bands:  3 eigenvalues not converged
     c_bands:  1 eigenvalues not converged
     c_bands:  1 eigenvalues not converged
     c_bands:  2 eigenvalues not converged
     c_bands:  1 eigenvalues not converged
     c_bands:  3 eigenvalues not converged
     c_bands:  2 eigenvalues not converged
     c_bands:  1 eigenvalues not converged
     c_bands:  1 eigenvalues not converged
     c_bands:  1 eigenvalues not converged
     c_bands:  1 eigenvalues not converged
     c_bands:  2 eigenvalues not converged
     c_bands:  1 eigenvalues not converged
     c_bands:  1 eigenvalues not converged
     c_bands:  2 eigenvalues not converged
     c_bands:  2 eigenvalues not converged
     c_bands:  1 eigenvalues not converged
     c_bands:  1 eigenvalues not converged
     c_bands:  2 eigenvalues not converged
     c_bands:  2 eigenvalues not converged
     ethr =  4.13E-05,  avg # of iterations =  4.6

     total cpu time spent up to now is      257.3 secs

     total energy              =   -3351.89197175 Ry
     Harris-Foulkes estimate   =   -3351.90040746 Ry
     estimated scf accuracy    <       0.01407311 Ry

     iteration #  7     ecut=    40.00 Ry     beta=0.70
     CG style diagonalization
     c_bands:  1 eigenvalues not converged
     c_bands:  1 eigenvalues not converged
     c_bands:  1 eigenvalues not converged
     c_bands:  1 eigenvalues not converged
     c_bands:  1 eigenvalues not converged
     c_bands:  1 eigenvalues not converged
     c_bands:  1 eigenvalues not converged
     c_bands:  1 eigenvalues not converged
     c_bands:  1 eigenvalues not converged
     c_bands:  1 eigenvalues not converged
     ethr =  7.25E-06,  avg # of iterations =  4.0

     total cpu time spent up to now is      278.4 secs

     total energy              =   -3351.89593261 Ry
     Harris-Foulkes estimate   =   -3351.89613282 Ry
     estimated scf accuracy    <       0.00030062 Ry

     iteration #  8     ecut=    40.00 Ry     beta=0.70
     CG style diagonalization
     c_bands:  1 eigenvalues not converged
     ethr =  1.55E-07,  avg # of iterations =  4.4

     total cpu time spent up to now is      301.6 secs

     End of self-consistent calculation

          k = 0.0000 0.0000 0.0000 (  2601 PWs)   bands (ev):

   -82.0463 -81.9337 -70.3575 -70.3575 -70.1223 -69.9611 -69.9611 -69.9611
   -37.8010 -37.8010 -37.8010 -37.7841 -37.7841 -37.7841 -30.2027 -30.2027
   -30.1456 -29.2103 -29.2103 -29.2103 -29.0488 -29.0488 -29.0488 -28.9936
   -28.9936 -28.9936 -28.9545 -28.9545 -28.9545 -28.8721 -28.8721 -28.8721
    21.0440  21.0440  21.4689  21.4689  21.5848  21.5848  21.5848  21.8054
    21.8054  21.8054  23.1189  23.5141  23.5141  24.6097  24.6097  24.6097
    25.7826  25.7826  25.7826  25.9559  26.4852  27.4243  27.6581  27.6581
    27.6581  27.9408  27.9408  28.4209  28.4209  28.4209  29.3889  29.3889
    29.7509  29.7509  29.7509  29.8826  29.8826  29.8826  30.1918  30.1918
    30.1918  38.5940  38.5940  38.5940  39.1694  39.8671  39.8671  45.4765
    46.6171  46.6171  47.0949  47.0949  47.0949  48.5430  48.5430  48.5430
    49.5311  49.5311  49.5311  51.0445  52.3611  52.3611  52.3611  53.1814
    53.1814  53.1814  56.3503  56.3503  56.3503  58.5199  58.9824  58.9825
    58.9825  59.6603  59.6603  59.6604  60.3453  60.3454  61.2240  63.1344
    63.1345  63.1344  64.2257  64.2259

          k = 0.0000 0.0000 0.1429 (  2657 PWs)   bands (ev):

   -82.1363 -82.0588 -70.3752 -70.3251 -70.1685 -70.1322 -70.1080 -70.1080
   -37.8208 -37.8208 -37.8157 -37.8038 -37.8038 -37.8024 -30.2210 -30.2026
   -30.1294 -29.2100 -29.2100 -29.2037 -29.0567 -29.0567 -29.0457 -29.0158
   -29.0158 -29.0144 -28.9806 -28.9806 -28.9778 -28.9402 -28.8807 -28.8807
    21.0481  21.0793  21.4137  21.4417  21.5557  21.5557  21.5851  21.7758
    21.7758  21.7857  23.1821  23.4755  23.7289  24.6666  24.6955  24.6955
    25.6434  25.8817  25.8817  26.2078  26.5760  27.6023  27.6023  27.6327
    27.6525  27.8961  27.9228  28.4651  28.4651  28.5467  29.2649  29.2796
    29.3927  29.3927  29.7719  29.7719  29.8258  29.8322  29.9449  30.4753
    30.4753  36.1113  38.7922  38.7922  39.4156  39.8719  42.1830  44.5590
    45.2594  46.0710  46.1356  46.1356  48.4361  48.4361  48.7710  49.5642
    49.6884  50.6172  50.6172  51.4415  51.9953  51.9953  52.2977  53.1542
    53.5013  53.5013  56.3661  56.3661  56.6740  58.2945  58.3711  59.1054
    59.1054  59.1487  59.9518  59.9518  60.3677  60.3964  60.7358  63.1411
    63.1411  63.9707  64.0580  64.0881

          k = 0.0000 0.0000 0.2857 (  2677 PWs)   bands (ev):

   -82.1576 -82.1155 -70.3729 -70.3147 -70.2768 -70.1559 -70.1339 -70.1339
   -37.8241 -37.8241 -37.8226 -37.8180 -37.8097 -37.8097 -30.2174 -30.1979
   -29.9645 -29.2023 -29.2023 -29.1836 -29.1568 -29.0775 -29.0680 -29.0680
   -29.0129 -29.0129 -29.0097 -28.9921 -28.9921 -28.9861 -28.8877 -28.8877
    21.0545  21.1307  21.3407  21.3868  21.4854  21.4854  21.6028  21.7372
    21.7372  21.7395  23.2144  23.3982  24.5345  24.7667  24.8986  24.8986
    25.3585  26.1617  26.1617  26.8249  26.8678  27.5178  27.5178  27.6065
    27.8456  27.8861  28.2344  28.4547  28.4547  28.6994  28.7702  28.7702
    28.8279  29.0448  29.0922  29.6537  29.6537  29.9529  30.0291  30.8266
    30.8266  33.4684  39.3126  39.3126  39.4459  39.8353  43.2610  43.5300
    44.5750  44.5750  45.4847  46.5138  48.7258  48.7258  49.5348  50.1542
    50.5244  51.3206  51.3206  52.0572  52.0572  52.0722  52.5616  52.6637
    54.2320  54.2320  56.4796  56.4796  57.2996  57.9124  58.4011  58.5189
    58.7989  58.7989  59.2853  60.5518  60.8824  60.8825  61.5893  63.1822
    63.1820  63.2058  63.3864  63.9995

          k = 0.0000 0.0000 0.4286 (  2658 PWs)   bands (ev):

   -82.1017 -82.0980 -70.3051 -70.2844 -70.2331 -70.1805 -70.1124 -70.1124
   -37.8151 -37.8151 -37.8114 -37.8114 -37.8092 -37.8029 -30.2111 -30.2030
   -29.7032 -29.4113 -29.1977 -29.1977 -29.1396 -29.1094 -29.0648 -29.0648
   -29.0070 -29.0070 -29.0001 -28.9907 -28.9866 -28.9866 -28.8860 -28.8860
    21.0663  21.1085  21.3402  21.3576  21.4198  21.4198  21.6375  21.6842
    21.7244  21.7244  23.2481  23.3157  24.8938  25.0661  25.0661  25.0810
    25.8447  26.5395  26.5395  27.1536  27.3074  27.4464  27.4919  27.4919
    27.7046  27.8198  27.8958  27.8958  27.9220  28.3452  28.6951  28.6951
    28.9112  28.9428  29.5314  29.5500  29.5500  30.0357  30.0623  31.0564
    31.0564  31.2262  39.5417  39.6992  39.8777  39.8777  42.6690  42.8141
    43.4206  43.4206  47.3699  47.8716  49.0284  49.0284  49.1429  50.8343
    50.9316  50.9316  51.0810  51.5577  51.8282  52.5867  52.8473  52.8473
    55.0112  55.0112  56.7262  56.7262  57.8778  58.1941  58.3305  58.3305
    58.4097  58.6258  59.7567  60.4696  61.3520  61.3520  62.1230  62.1815
    62.5491  62.5493  63.1332  64.1540

          k = 0.0000 0.1667 0.0000 (  2653 PWs)   bands (ev):

   -82.1230 -82.0587 -70.3529 -70.3167 -70.1622 -70.1360 -70.1093 -70.1093
   -37.8189 -37.8189 -37.8113 -37.8038 -37.8038 -37.8022 -30.2203 -30.1989
   -30.1115 -29.2065 -29.2065 -29.1953 -29.0581 -29.0581 -29.0503 -29.0138
   -29.0138 -29.0137 -28.9817 -28.9817 -28.9787 -28.9600 -28.8796 -28.8796
    21.0504  21.0899  21.3992  21.4333  21.5477  21.5477  21.5872  21.7685
    21.7685  21.7796  23.1918  23.4645  23.8206  24.6829  24.7245  24.7245
    25.6004  25.9169  25.9169  26.2954  26.6081  27.5871  27.5871  27.6493
    27.7083  27.8865  27.9180  28.4765  28.4765  28.5781  29.2292  29.2495
    29.2879  29.2879  29.6988  29.7548  29.7548  29.8532  29.9609  30.5368
    30.5368  35.6524  38.8616  38.8616  39.4216  39.8723  42.6566  44.3196
    45.0151  45.8770  45.8770  46.1115  48.4686  48.4686  49.0869  49.6613
    49.7464  50.8639  50.8639  51.6378  51.9007  51.9007  52.2768  53.1270
    53.6055  53.6055  56.3750  56.3750  56.7789  58.2288  58.2599  59.0274
    59.0839  59.0839  60.1158  60.1158  60.2078  60.3964  60.8581  63.1529
    63.1529  63.9260  64.0513  64.0510

          k = 0.0000 0.1667 0.1429 (  2662 PWs)   bands (ev):

   -82.1526 -82.0657 -70.3339 -70.3174 -70.2448 -70.1329 -70.1210 -70.1168
   -37.8249 -37.8224 -37.8165 -37.8149 -37.8019 -37.7969 -30.2137 -30.1552
   -30.1036 -29.2025 -29.2017 -29.1948 -29.0737 -29.0634 -29.0464 -29.0184
   -29.0177 -29.0052 -28.9906 -28.9876 -28.9739 -28.9729 -28.9461 -28.8824
    21.0741  21.1070  21.3700  21.3955  21.5338  21.5444  21.5678  21.7288
    21.7455  21.7627  23.2591  23.6446  23.8198  24.5930  24.8203  24.9988
    25.7085  25.7953  26.0094  26.4710  26.6941  27.4321  27.5241  27.6708
    27.8815  27.9302  27.9990  28.5019  28.5318  28.5894  28.9810  29.2069
    29.2198  29.3008  29.3944  29.6656  29.7759  29.8796  30.0210  30.2078
    30.6915  35.7930  36.4309  39.0963  39.6798  41.6508  42.5219  43.9198
    44.5848  45.1914  45.4849  47.4442  47.8786  47.9157  49.4388  50.0605
    50.4303  51.0769  51.1740  51.4684  51.9786  52.4209  52.5479  53.4575
    53.5956  54.0081  56.3226  56.5728  56.8312  57.7956  57.8394  58.4894
    59.0878  59.5293  59.8072  60.2361  60.3961  60.8202  61.0830  63.1215
    63.1639  63.2401  63.9639  64.2143

          k = 0.0000 0.1667 0.2857 (  2666 PWs)   bands (ev):

   -82.1327 -82.1024 -70.3282 -70.2837 -70.2719 -70.1630 -70.1338 -70.1239
   -37.8213 -37.8200 -37.8176 -37.8133 -37.8102 -37.8017 -30.2122 -30.1239
   -29.9646 -29.1942 -29.1922 -29.1788 -29.1466 -29.0892 -29.0697 -29.0503
   -29.0211 -29.0153 -29.0006 -28.9953 -28.9933 -28.9759 -28.9733 -28.8848
    21.0810  21.1406  21.3210  21.3494  21.4768  21.4839  21.5722  21.6680
    21.7092  21.7315  23.2566  23.7252  24.5161  24.6746  25.0500  25.2322
    25.5521  26.0579  26.2666  26.9239  26.9850  27.2703  27.4386  27.6778
    27.8797  27.9100  28.2928  28.4413  28.5623  28.5789  28.7006  28.8361
    28.9496  29.0669  29.1831  29.4929  29.6325  29.7035  29.9122  30.3137
    30.9284  33.7643  36.4268  39.6977  39.7425  40.2631  43.1987  43.9264
    44.3577  45.1543  45.7171  46.8934  47.8324  48.1324  49.9043  49.9768
    50.9704  51.5010  51.5148  52.2061  52.5946  52.9250  53.1199  53.3353
    54.2713  54.8131  56.3452  56.5421  57.0160  57.3170  57.7420  58.2251
    58.8238  59.0524  59.9631  60.7391  60.9522  61.3904  61.8655  62.2240
    62.8377  63.2966  63.3602  63.6129

          k = 0.0000 0.1667 0.4286 (  2658 PWs)   bands (ev):

   -82.1122 -82.0904 -70.3018 -70.2733 -70.2247 -70.1726 -70.1409 -70.1230
   -37.8181 -37.8171 -37.8141 -37.8108 -37.8077 -37.7981 -30.2135 -30.1238
   -29.7017 -29.4121 -29.1845 -29.1832 -29.1413 -29.1072 -29.0703 -29.0582
   -29.0289 -29.0183 -28.9969 -28.9928 -28.9908 -28.9814 -28.9751 -28.8803
    21.0754  21.1105  21.3258  21.3387  21.4049  21.4262  21.5908  21.6453
    21.6768  21.7202  23.2421  23.6925  24.8555  25.1374  25.2457  25.4768
    25.8136  26.5894  26.6244  27.0443  27.2024  27.3966  27.4380  27.5773
    27.6120  27.7949  27.8576  27.8892  28.1305  28.4356  28.4977  28.7978
    28.8261  29.0961  29.1758  29.5555  29.7336  29.9571  29.9893  30.4977
    31.0943  31.6127  37.3396  38.6368  39.7948  40.3585  42.6173  43.2852
    44.5135  45.2732  46.1487  47.3540  48.3206  48.6585  49.1220  50.5475
    51.5053  51.7291  51.9713  52.2924  52.4684  52.7542  53.3184  53.3462
    55.0019  55.3629  56.3760  56.4931  56.9265  57.4394  58.4387  58.4603
    58.8852  59.6291  59.7824  60.4762  61.1437  61.3727  61.8873  62.1866
    62.2049  62.2762  63.0600  64.0146

          k = 0.0000 0.3333 0.0000 (  2677 PWs)   bands (ev):

   -82.1576 -82.1142 -70.3705 -70.3342 -70.2456 -70.2121 -70.1115 -70.1115
   -37.8237 -37.8237 -37.8188 -37.8148 -37.8148 -37.8105 -30.2159 -30.1963
   -29.8954 -29.2253 -29.2024 -29.2024 -29.1725 -29.0925 -29.0690 -29.0690
   -29.0137 -29.0137 -29.0066 -28.9903 -28.9903 -28.9842 -28.8924 -28.8924
    21.0573  21.1321  21.3341  21.3727  21.4586  21.4586  21.6122  21.7205
    21.7302  21.7302  23.2216  23.3698  24.8056  24.9188  24.9669  24.9669
    25.2679  26.2867  26.2867  26.9308  27.1276  27.4995  27.4995  27.5696
    27.8350  27.8722  28.3024  28.3024  28.3977  28.4274  28.6949  28.6949
    28.8076  28.9837  29.0341  29.6127  29.6127  29.9859  30.0466  30.9232
    30.9232  32.6642  39.4681  39.5195  39.5195  39.8017  42.9702  43.2405
    44.1116  44.1116  46.3970  46.7609  48.8437  48.8437  49.3404  50.3640
    51.0185  51.1613  51.1613  51.9288  52.2584  52.3977  52.3977  52.7030
    54.5153  54.5153  56.5743  56.5743  57.5525  57.8155  58.4894  58.6488
    58.6488  58.8078  58.9899  60.5785  61.0391  61.0391  61.8863  62.7134
    63.1937  63.3687  63.3685  63.7166

          k = 0.0000 0.3333 0.1429 (  2660 PWs)   bands (ev):

   -82.1142 -82.0970 -70.3069 -70.2642 -70.2542 -70.1650 -70.1330 -70.1292
   -37.8207 -37.8160 -37.8131 -37.8118 -37.8104 -37.7992 -30.2128 -30.1479
   -29.8849 -29.2275 -29.1908 -29.1891 -29.1642 -29.0927 -29.0690 -29.0525
   -29.0204 -29.0144 -28.9990 -28.9936 -28.9910 -28.9788 -28.9497 -28.8812
    21.0750  21.1373  21.3221  21.3483  21.4515  21.4613  21.5881  21.6743
    21.7008  21.7269  23.2548  23.6098  24.7277  24.9091  25.0872  25.2017
    25.4358  26.2377  26.3587  26.9969  27.1735  27.2846  27.4310  27.6468
    27.8388  27.8861  28.2101  28.2811  28.4877  28.5520  28.5546  28.7995
    28.9271  28.9706  29.1447  29.4686  29.6220  29.7712  29.9534  30.5283
    30.9804  32.9106  37.1069  39.7321  39.8302  39.9677  42.9841  43.7174
    43.9921  45.3088  46.1591  46.8102  48.0658  48.1248  49.8738  50.1275
    51.2598  51.4419  51.7040  52.3402  52.4284  52.6169  52.8836  53.3532
    54.5541  54.9197  56.4597  56.5060  57.2368  57.3366  57.8897  58.6311
    58.8568  58.8578  59.6929  60.7315  61.0585  61.3675  62.0346  62.3297
    62.6190  63.2117  63.2379  63.7171

          k = 0.0000 0.3333 0.2857 (  2658 PWs)   bands (ev):

   -82.1221 -82.0843 -70.2944 -70.2460 -70.2409 -70.1630 -70.1519 -70.1472
   -37.8185 -37.8172 -37.8128 -37.8112 -37.8066 -37.7993 -30.2132 -29.9696
   -29.8832 -29.2356 -29.1771 -29.1761 -29.1597 -29.1354 -29.0990 -29.0798
   -29.0390 -29.0306 -29.0153 -29.0051 -28.9954 -28.9928 -28.9775 -28.8814
    21.0773  21.1262  21.3121  21.3268  21.4115  21.4582  21.5267  21.5594
    21.6967  21.7135  23.2157  24.4602  24.8114  24.8997  25.3810  25.4035
    25.9071  26.1675  26.5361  26.9965  27.1520  27.3072  27.3964  27.7195
    27.7436  27.8388  27.9668  28.0316  28.4038  28.5298  28.7088  28.9231
    28.9268  29.0601  29.2149  29.3612  29.4703  29.6552  29.8022  29.8068
    31.0901  33.5428  34.7408  38.0842  39.9442  40.6125  42.8676  43.5936
    44.6433  46.1428  46.5394  47.1215  47.2352  48.7805  48.9324  50.0270
    51.7343  51.9614  52.3271  52.5542  53.3456  53.7488  54.0529  54.0645
    54.1686  55.9943  56.0081  56.2267  56.2396  56.9754  57.8923  58.6426
    58.8581  59.0709  60.6333  61.0695  61.2467  61.2892  61.5963  62.0580
    62.4249  62.4760  62.6700  63.5291

          k = 0.0000 0.3333 0.4286 (  2654 PWs)   bands (ev):

   -82.0986 -82.0895 -70.2685 -70.2433 -70.2329 -70.1685 -70.1575 -70.1338
   -37.8212 -37.8173 -37.8150 -37.8144 -37.7946 -37.7940 -30.2130 -29.8849
   -29.7003 -29.4146 -29.2328 -29.1654 -29.1635 -29.1420 -29.0962 -29.0807
   -29.0600 -29.0356 -29.0193 -29.0100 -28.9918 -28.9838 -28.9790 -28.8873
    21.0601  21.0822  21.3283  21.3337  21.3489  21.4367  21.5018  21.5026
    21.6937  21.7112  23.1847  24.8273  25.0528  25.3481  25.7253  25.7488
    26.0574  26.5795  26.7825  26.8308  27.1512  27.2430  27.4147  27.5171
    27.6493  27.6831  27.7971  27.8081  28.0783  28.3560  28.5102  28.6689
    28.9339  28.9597  29.0522  29.0648  29.4524  29.5908  29.7523  30.9568
    31.1774  32.5616  34.7563  36.2396  40.1505  41.5013  42.5416  42.9692
    44.6816  45.4096  46.7999  47.7618  48.0584  48.6101  49.6826  51.0824
    51.7935  52.2462  52.5607  52.8400  52.8879  53.6321  54.0063  54.4001
    54.9205  55.2253  56.0602  56.1194  56.7586  57.6236  58.6581  58.6959
    58.9629  59.7075  60.3948  60.4521  60.9670  60.9996  61.6672  61.9533
    62.0600  62.4576  62.5341  63.2311

          k = 0.0000-0.5000 0.0000 (  2666 PWs)   bands (ev):

   -82.1137 -82.1137 -70.3115 -70.3115 -70.2162 -70.2162 -70.1173 -70.1173
   -37.8161 -37.8161 -37.8153 -37.8153 -37.8087 -37.8087 -30.2104 -30.2104
   -29.5602 -29.5602 -29.1970 -29.1970 -29.1298 -29.1298 -29.0658 -29.0658
   -29.0138 -29.0138 -28.9962 -28.9962 -28.9842 -28.9842 -28.8863 -28.8863
    21.0836  21.0836  21.3486  21.3486  21.4097  21.4097  21.6591  21.6591
    21.7225  21.7225  23.2775  23.2775  24.9784  24.9784  25.0904  25.0904
    26.5907  26.5907  26.6286  26.6286  27.3122  27.3122  27.5075  27.5075
    27.7462  27.7462  27.8032  27.8032  28.1087  28.1087  28.7027  28.7027
    28.9072  28.9072  29.5336  29.5336  30.0564  30.0564  30.3028  30.3028
    31.0880  31.0880  39.6149  39.6149  39.9828  39.9828  42.6516  42.6516
    43.2379  43.2379  47.8134  47.8134  49.0729  49.0729  49.9883  49.9883
    50.8728  50.8728  51.2076  51.2076  52.2735  52.2735  52.9425  52.9425
    55.1490  55.1490  56.7487  56.7487  58.0696  58.0696  58.2178  58.2178
    58.5678  58.5679  60.1442  60.1443  61.6926  61.6927  62.0009  62.0009
    62.0762  62.0763  63.5341  63.5347

          k = 0.0000-0.5000 0.1429 (  2666 PWs)   bands (ev):

   -82.1148 -82.1148 -70.3115 -70.3018 -70.2180 -70.2135 -70.1285 -70.1253
   -37.8216 -37.8209 -37.8157 -37.8149 -37.8047 -37.8043 -30.2107 -30.1466
   -29.5616 -29.5602 -29.1867 -29.1865 -29.1360 -29.1231 -29.0682 -29.0614
   -29.0290 -29.0179 -28.9961 -28.9937 -28.9930 -28.9808 -28.9561 -28.8844
    21.0863  21.0874  21.3345  21.3372  21.3980  21.4158  21.6099  21.6623
    21.6671  21.7196  23.2483  23.5795  24.9105  25.0476  25.2263  25.4063
    26.4362  26.6159  26.6933  26.7637  27.2767  27.3669  27.3914  27.4047
    27.5994  27.7012  27.8606  27.9757  28.0154  28.3171  28.5266  28.7784
    28.8212  29.1280  29.1678  29.5392  29.8181  29.9869  30.5484  30.6771
    30.6979  31.1105  38.2482  38.3509  39.7622  40.3594  42.5378  43.1335
    44.3274  44.7824  46.4290  47.2736  48.6802  49.1355  49.7575  49.8399
    51.1515  51.6389  51.7035  52.3032  52.6161  52.6734  53.0286  53.2479
    55.1395  55.3356  56.4897  56.5483  57.1212  57.6398  58.1769  58.7475
    58.8368  59.4746  60.0362  60.1515  61.3642  61.4757  61.7767  61.9871
    62.1416  62.5080  62.7350  63.6780

          k = 0.0000-0.5000 0.2857 (  2658 PWs)   bands (ev):

   -82.1013 -82.1010 -70.2611 -70.2590 -70.2140 -70.2063 -70.1516 -70.1437
   -37.8216 -37.8213 -37.8162 -37.8156 -37.7952 -37.7949 -30.2155 -29.9642
   -29.5617 -29.5561 -29.1697 -29.1682 -29.1584 -29.1250 -29.1030 -29.0799
   -29.0551 -29.0352 -29.0217 -29.0033 -28.9967 -28.9859 -28.9855 -28.8877
    21.0746  21.0758  21.3303  21.3305  21.3577  21.4262  21.5211  21.5364
    21.6856  21.7136  23.1959  24.4475  25.0466  25.2232  25.6100  25.8875
    26.2548  26.6453  26.8252  26.9023  27.0198  27.2507  27.2886  27.4507
    27.5745  27.7514  27.7972  27.8849  27.9450  28.3773  28.4622  28.6559
    28.9190  28.9233  29.2479  29.3980  29.5252  29.5690  29.8149  31.1682
    31.3107  31.4385  36.1158  36.1349  40.0681  41.3245  42.4907  42.8831
    45.1086  45.3840  47.2798  47.3075  47.7044  48.0947  50.3270  50.4576
    51.9290  52.2726  52.3568  52.6167  52.9840  53.1825  54.0898  54.5920
    54.9358  55.0351  56.1483  56.2236  56.2800  57.9760  58.3355  58.8723
    59.1855  59.6895  60.1159  60.7583  60.9203  61.2978  61.4341  61.6540
    61.9198  62.3372  62.4997  63.5467

          k = 0.0000-0.5000 0.4286 (  2662 PWs)   bands (ev):

   -82.1088 -82.1088 -70.2928 -70.2447 -70.2221 -70.2112 -70.1706 -70.1266
   -37.8202 -37.8202 -37.8197 -37.8190 -37.7966 -37.7962 -30.2093 -29.7091
   -29.5655 -29.5571 -29.4156 -29.1572 -29.1503 -29.1486 -29.0904 -29.0835
   -29.0818 -29.0357 -29.0338 -29.0231 -28.9900 -28.9797 -28.9765 -28.8922
    21.0444  21.0449  21.3038  21.3417  21.3420  21.4339  21.4468  21.4776
    21.6988  21.7114  23.1599  25.2838  25.2919  25.6975  26.1270  26.1402
    26.2552  26.7395  26.9027  26.9120  26.9518  27.0513  27.2537  27.2622
    27.4359  27.5659  27.7262  27.8008  27.8526  28.1964  28.3377  28.4806
    28.5868  28.8063  29.0172  29.0207  29.5556  29.5699  29.6633  31.2250
    32.4769  32.5087  34.2036  34.2118  40.3834  42.4086  42.4472  42.6646
    44.5467  44.6104  45.8446  47.7777  49.5969  50.1966  51.1098  51.2565
    51.6674  51.8702  52.6459  52.8249  52.9141  52.9293  53.5561  53.9215
    55.2190  55.7266  55.9477  56.2130  57.8683  58.4478  58.7220  58.9452
    59.1879  59.3036  59.6033  60.1317  60.7224  61.0136  61.7595  61.8199
    62.1327  62.4468  62.4907  63.0058

          k = 0.2000 0.0000 0.0000 (  2661 PWs)   bands (ev):

   -82.1559 -82.0579 -70.3529 -70.3152 -70.2267 -70.1414 -70.1105 -70.1105
   -37.8238 -37.8238 -37.8188 -37.8039 -37.8039 -37.8020 -30.2191 -30.1962
   -30.0791 -29.2053 -29.2053 -29.1910 -29.0637 -29.0628 -29.0628 -29.0124
   -29.0121 -29.0121 -29.0055 -28.9833 -28.9833 -28.9801 -28.8847 -28.8847
    21.0528  21.1045  21.3788  21.4202  21.5316  21.5316  21.5903  21.7586
    21.7586  21.7698  23.2006  23.4471  23.9790  24.7065  24.7699  24.7699
    25.5352  25.9742  25.9742  26.4361  26.6601  27.5655  27.5655  27.6426
    27.8301  27.8749  27.9092  28.4900  28.4900  28.6187  29.1331  29.1331
    29.1768  29.2057  29.4923  29.7281  29.7281  29.8828  29.9825  30.6220
    30.6220  35.0203  38.9725  38.9725  39.4284  39.8679  43.2627  43.9761
    44.7466  45.5057  45.5057  46.1854  48.5274  48.5274  49.5174  49.7071
    49.8411  51.1825  51.1825  51.7743  51.7743  51.9312  52.2381  53.0605
    53.7662  53.7662  56.3919  56.3919  56.9242  58.1352  58.1592  58.8486
    59.0269  59.0269  59.9433  60.3635  60.3636  60.4416  61.0444  63.1274
    63.1274  63.7762  64.0550  64.0627

          k = 0.2000 0.0000 0.1429 (  2667 PWs)   bands (ev):

   -82.1416 -82.0956 -70.3386 -70.3127 -70.2623 -70.1443 -70.1338 -70.1176
   -37.8245 -37.8229 -37.8196 -37.8134 -37.8053 -37.8017 -30.2144 -30.1488
   -30.0751 -29.2002 -29.2002 -29.1927 -29.0797 -29.0675 -29.0514 -29.0202
   -29.0189 -29.0108 -29.0068 -28.9941 -28.9870 -28.9748 -28.9494 -28.8828
    21.0770  21.1189  21.3537  21.3831  21.5238  21.5301  21.5697  21.7131
    21.7353  21.7545  23.2631  23.6481  23.9651  24.6062  24.8696  25.0618
    25.6501  25.8591  26.0634  26.5857  26.7433  27.3971  27.5020  27.6726
    27.8905  27.9326  28.1005  28.5063  28.5393  28.6082  28.8836  29.0933
    29.1861  29.2359  29.3099  29.6704  29.7569  29.8615  29.8918  30.2745
    30.7531  35.1968  36.5085  39.2197  39.6895  41.3925  42.8769  43.9742
    44.4813  45.1935  45.2081  47.1981  47.8594  48.1412  49.5537  50.2493
    50.4235  51.1500  51.3032  51.5382  52.2065  52.6011  52.6072  53.3910
    53.7742  54.1810  56.3164  56.5978  56.9159  57.7016  57.7169  58.3363
    58.9930  59.3967  59.8932  60.3995  60.5038  60.9360  61.2533  62.8866
    63.2099  63.2228  63.9368  63.9797

          k = 0.2000 0.0000 0.2857 (  2659 PWs)   bands (ev):

   -82.1151 -82.0948 -70.3121 -70.2622 -70.2594 -70.1507 -70.1365 -70.1300
   -37.8158 -37.8156 -37.8155 -37.8118 -37.8093 -37.8012 -30.2122 -30.0868
   -29.9611 -29.1909 -29.1885 -29.1763 -29.1453 -29.0857 -29.0729 -29.0489
   -29.0203 -29.0145 -29.0049 -29.0003 -28.9951 -28.9934 -28.9758 -28.8826
    21.0855  21.1432  21.3156  21.3399  21.4704  21.4820  21.5602  21.6435
    21.7052  21.7270  23.2507  23.8952  24.5104  24.6846  25.1119  25.2934
    25.6464  26.0235  26.3093  26.9642  27.0373  27.2070  27.4216  27.6961
    27.8764  27.9022  28.2564  28.4106  28.5027  28.5770  28.7621  28.8504
    29.0352  29.0703  29.2101  29.4569  29.5372  29.6939  29.8825  30.1006
    30.9614  33.8891  35.8436  39.7772  39.8525  39.8664  43.2087  44.2500
    44.4404  44.9536  45.8350  47.1429  47.6410  48.1208  49.7461  49.8331
    51.1374  51.5605  51.7207  52.2488  52.9220  53.1580  53.3309  53.5019
    54.2455  55.0414  56.3057  56.4717  56.8737  57.1949  57.6675  58.1888
    58.8390  59.0309  60.2344  60.8477  60.9689  61.5375  61.9394  62.0019
    62.6473  63.2329  63.2903  63.5206

          k = 0.2000 0.0000 0.4286 (  2660 PWs)   bands (ev):

   -82.1156 -82.0944 -70.2942 -70.2723 -70.2303 -70.1833 -70.1459 -70.1251
   -37.8195 -37.8177 -37.8173 -37.8116 -37.8037 -37.8001 -30.2142 -30.0883
   -29.7038 -29.4121 -29.1812 -29.1793 -29.1428 -29.1097 -29.0731 -29.0605
   -29.0351 -29.0210 -29.0095 -28.9967 -28.9944 -28.9904 -28.9797 -28.8799
    21.0759  21.1083  21.3230  21.3351  21.3972  21.4278  21.5704  21.6157
    21.6790  21.7180  23.2299  23.8692  24.8740  25.1763  25.3220  25.5853
    25.8082  26.6000  26.6556  26.9782  27.2156  27.3731  27.4036  27.5695
    27.6364  27.7938  27.8348  27.8943  28.1478  28.4569  28.4598  28.7927
    28.8310  29.0135  29.2383  29.5366  29.6336  29.9199  30.1266  30.2688
    31.1091  31.7615  36.7959  38.1547  39.8549  40.5532  42.6073  43.2306
    45.0534  45.3939  46.1690  47.2434  48.0609  48.7758  48.8154  50.7196
    51.6227  51.9115  52.1322  52.2974  52.8322  52.8407  53.4646  53.6497
    54.9728  55.5478  56.1651  56.4030  56.6245  57.4308  58.4833  58.4897
    58.9419  59.5885  60.1516  60.4934  61.0573  61.3604  61.7758  62.0194
    62.0586  62.3071  62.9923  63.9622

          k = 0.2000 0.1667 0.0000 (  2672 PWs)   bands (ev):

   -82.1391 -82.1194 -70.3457 -70.2925 -70.2810 -70.1587 -70.1417 -70.1341
   -37.8296 -37.8223 -37.8177 -37.8151 -37.8126 -37.8001 -30.2160 -30.1303
   -30.0767 -29.1976 -29.1972 -29.1933 -29.0847 -29.0696 -29.0509 -29.0211
   -29.0199 -29.0118 -29.0091 -28.9953 -28.9948 -28.9745 -28.9696 -28.8855
    21.0816  21.1246  21.3455  21.3736  21.5189  21.5267  21.5647  21.7005
    21.7279  21.7493  23.2654  23.7359  23.9673  24.6075  24.9032  25.1170
    25.6920  25.8245  26.0944  26.6406  26.7720  27.3596  27.4865  27.6790
    27.8911  27.9403  28.1663  28.5068  28.5540  28.6063  28.8237  29.0744
    29.1713  29.1846  29.3132  29.6140  29.7559  29.8806  29.8916  30.1589
    30.7874  35.2422  36.0819  39.3043  39.7038  41.2753  43.0464  44.1025
    44.4360  45.0608  45.0896  47.4734  47.7637  48.0007  49.5226  50.3916
    50.4129  51.1472  51.3859  51.5857  52.4564  52.6808  52.6937  53.5085
    53.7570  54.3129  56.2975  56.6379  56.8894  57.5928  57.6355  58.2078
    58.9626  59.3631  59.9993  60.4534  60.5249  61.0329  61.3245  62.7377
    63.1455  63.2551  63.9155  63.9256

          k = 0.2000 0.1667 0.1429 (  2665 PWs)   bands (ev):

   -82.1368 -82.0948 -70.3270 -70.3127 -70.2567 -70.1528 -70.1434 -70.1042
   -37.8263 -37.8190 -37.8175 -37.8160 -37.8040 -37.8002 -30.1526 -30.1262
   -30.0740 -29.1976 -29.1911 -29.1887 -29.0970 -29.0557 -29.0529 -29.0218
   -29.0121 -29.0095 -29.0049 -29.0043 -28.9882 -28.9813 -28.9712 -28.9469
    21.1145  21.1330  21.3241  21.3328  21.5197  21.5219  21.5520  21.6743
    21.7002  21.7091  23.5229  23.7601  23.9465  24.5761  25.1491  25.2153
    25.7762  25.9129  25.9907  26.7586  26.8664  27.3681  27.3898  27.5443
    27.9956  28.0015  28.4218  28.4774  28.4995  28.5954  28.9058  28.9483
    29.0269  29.2373  29.3103  29.5267  29.5710  29.6372  30.0247  30.2761
    30.4313  35.4451  36.2656  36.8128  41.4441  41.5522  42.7195  42.8765
    44.2597  44.5778  47.0768  47.1524  47.9217  48.5719  49.3023  49.6937
    50.1066  51.7215  52.0388  52.1854  52.6646  52.7356  53.0139  53.8158
    54.0614  54.2080  56.5292  56.5908  56.7515  57.2858  57.6726  57.7867
    58.8529  59.6697  59.8021  60.1240  61.1554  61.2207  61.3966  62.8450
    62.9526  63.0868  63.5900  63.6473

          k = 0.2000 0.1667 0.2857 (  2655 PWs)   bands (ev):

   -82.1267 -82.0650 -70.2970 -70.2764 -70.2241 -70.1578 -70.1296 -70.1247
   -37.8192 -37.8160 -37.8119 -37.8107 -37.8047 -37.7973 -30.1262 -30.0842
   -29.9641 -29.1896 -29.1824 -29.1695 -29.1392 -29.1008 -29.0553 -29.0473
   -29.0223 -29.0175 -29.0102 -29.0035 -28.9979 -28.9868 -28.9820 -28.9698
    21.1228  21.1584  21.2865  21.2913  21.4748  21.4822  21.5463  21.6229
    21.6538  21.6619  23.6517  23.8862  24.4924  24.6899  25.3673  25.4980
    25.7426  26.1015  26.2124  27.0193  27.1967  27.2257  27.2775  27.5470
    28.0036  28.0403  28.2872  28.3032  28.5776  28.5947  28.8032  28.8275
    28.9046  29.0980  29.2304  29.3951  29.4691  29.5700  29.6871  30.1860
    30.4318  34.2153  36.1238  36.8619  40.1543  40.6630  42.2675  43.5113
    44.8163  45.9668  46.3801  47.1674  47.9998  49.1023  49.4725  50.0194
    50.9231  51.5788  52.1946  52.6949  53.1862  53.2762  53.8817  54.0088
    54.6315  54.8510  56.2422  56.3363  56.4519  57.2837  57.4686  57.9945
    58.7396  59.4944  59.7714  60.3278  61.5084  61.8266  61.9752  62.1258
    62.3614  62.7584  62.8686  63.4461

          k = 0.2000 0.1667 0.4286 (  2655 PWs)   bands (ev):

   -82.0991 -82.0888 -70.2800 -70.2771 -70.2048 -70.1887 -70.1355 -70.1167
   -37.8183 -37.8162 -37.8121 -37.8109 -37.8013 -37.7994 -30.1234 -30.0865
   -29.7042 -29.4119 -29.1796 -29.1733 -29.1380 -29.1148 -29.0655 -29.0629
   -29.0295 -29.0243 -29.0078 -28.9991 -28.9964 -28.9875 -28.9832 -28.9720
    21.0989  21.1244  21.2957  21.2995  21.4087  21.4185  21.5690  21.6104
    21.6173  21.6399  23.6496  23.8468  24.9411  25.2387  25.6443  25.6906
    25.8030  26.6575  26.7010  26.8870  27.2109  27.3069  27.4573  27.5097
    27.6419  27.6970  27.9687  28.1518  28.2214  28.3808  28.4661  28.5825
    28.9619  29.0207  29.1376  29.1679  29.5111  29.5970  30.2874  30.5347
    30.5691  32.1399  37.0815  37.7601  38.4656  39.1000  42.9690  43.4773
    45.3479  46.0983  46.1847  46.6690  49.0726  49.5280  50.1321  50.3471
    51.4574  51.8411  52.3031  52.4141  53.0072  53.5430  53.8018  54.0587
    55.2518  55.4125  55.8839  55.9732  56.7165  57.3039  58.2882  58.8152
    58.9670  59.1914  59.7593  60.2837  61.0310  61.3497  61.7203  61.8034
    62.2206  62.3491  63.0474  63.4430

          k = 0.2000 0.3333 0.0000 (  2656 PWs)   bands (ev):

   -82.1188 -82.0788 -70.3084 -70.2693 -70.2381 -70.1625 -70.1243 -70.1215
   -37.8180 -37.8148 -37.8141 -37.8095 -37.8090 -37.7970 -30.2108 -30.0846
   -29.8835 -29.2307 -29.1859 -29.1831 -29.1640 -29.0937 -29.0724 -29.0522
   -29.0253 -29.0138 -29.0064 -28.9963 -28.9948 -28.9920 -28.9756 -28.8828
    21.0803  21.1376  21.3143  21.3355  21.4413  21.4614  21.5633  21.6300
    21.6963  21.7224  23.2419  23.8858  24.7412  24.8999  25.1966  25.2884
    25.6115  26.2004  26.4204  27.0544  27.1434  27.2380  27.4062  27.6871
    27.8090  27.8726  28.1413  28.2221  28.4784  28.5261  28.6048  28.8627
    28.9516  29.0517  29.2203  29.4470  29.5486  29.6591  29.8968  30.1672
    31.0227  33.1311  36.1141  39.2639  39.8107  40.1032  42.9702  43.8695
    44.6539  45.0593  46.4424  47.1372  47.7315  47.8876  49.4295  50.2423
    51.4383  51.7570  51.8098  52.5003  52.8284  53.0366  53.3587  53.6462
    54.5223  55.2848  56.3363  56.3652  56.8532  57.1380  57.7721  58.5863
    58.8682  58.9010  60.1985  60.9112  61.0539  61.5062  61.8101  62.2493
    62.3458  62.9470  63.0797  63.7065

          k = 0.2000 0.3333 0.1429 (  2657 PWs)   bands (ev):

   -82.1229 -82.0757 -70.2917 -70.2753 -70.2325 -70.1750 -70.1295 -70.1222
   -37.8179 -37.8161 -37.8117 -37.8098 -37.8091 -37.7987 -30.1479 -30.0842
   -29.8853 -29.2291 -29.1864 -29.1744 -29.1597 -29.1043 -29.0605 -29.0554
   -29.0248 -29.0182 -29.0107 -29.0016 -28.9987 -28.9865 -28.9821 -28.9499
    21.1059  21.1500  21.2930  21.3002  21.4473  21.4592  21.5561  21.6199
    21.6545  21.6656  23.5456  23.8716  24.7502  24.8894  25.3263  25.5071
    25.6791  26.2477  26.3692  27.0825  27.1612  27.2727  27.3455  27.5688
    27.8902  27.9641  28.2135  28.2433  28.4739  28.5003  28.6362  28.7635
    28.9568  29.0928  29.1957  29.2993  29.4952  29.6115  29.8066  30.2174
    30.6166  33.3870  36.3308  37.5272  39.4829  40.3896  42.7517  43.4117
    44.8435  46.1962  46.4320  46.8728  47.7889  48.9215  49.8353  50.2912
    51.3241  51.4858  52.1729  52.7535  52.8869  53.3694  53.6652  54.0645
    54.7945  55.1361  56.1499  56.2809  56.4930  57.3320  57.6228  58.4423
    58.7495  59.2991  59.7503  60.4635  61.4521  61.7785  61.8122  61.9604
    62.3784  62.7876  62.9195  63.2851

          k = 0.2000 0.3333 0.2857 (  2656 PWs)   bands (ev):

   -82.1157 -82.0769 -70.2871 -70.2701 -70.2289 -70.1567 -70.1393 -70.1277
   -37.8189 -37.8177 -37.8139 -37.8064 -37.8057 -37.7971 -30.0880 -29.9655
   -29.8840 -29.2324 -29.1772 -29.1689 -29.1518 -29.1343 -29.1192 -29.0604
   -29.0415 -29.0321 -29.0203 -29.0109 -29.0087 -28.9973 -28.9900 -28.9866
    21.1288  21.1581  21.2575  21.2623  21.4320  21.4570  21.5156  21.5418
    21.6066  21.6108  23.8240  24.4440  24.8573  24.9116  25.6176  25.7560
    26.0269  26.2175  26.4430  27.0332  27.1552  27.2500  27.5338  27.5624
    27.9149  27.9793  28.1060  28.1450  28.3377  28.4328  28.6962  28.8346
    28.8694  29.0367  29.0697  29.1412  29.2261  29.3704  29.5550  30.2874
    30.4096  34.0542  35.1736  36.9525  38.5198  40.0824  41.0269  43.3329
    45.8501  46.5617  47.0104  47.8202  48.9834  49.3104  49.9636  50.6430
    51.3938  51.6188  52.6283  53.2505  53.5414  53.7132  54.2420  54.7460
    54.7931  55.4679  55.6610  55.8575  56.1320  57.1087  57.8546  58.1425
    58.6937  59.4027  59.9063  60.1523  61.1238  61.3149  61.4993  62.0298
    62.1577  62.5594  62.8758  63.1138

          k = 0.2000 0.3333 0.4286 (  2643 PWs)   bands (ev):

   -82.0758 -82.0660 -70.2502 -70.2337 -70.2024 -70.1606 -70.1365 -70.1148
   -37.8153 -37.8147 -37.8068 -37.8066 -37.7972 -37.7912 -30.0865 -29.8812
   -29.7007 -29.4122 -29.2343 -29.1608 -29.1480 -29.1301 -29.1090 -29.0648
   -29.0535 -29.0316 -29.0243 -29.0092 -29.0057 -28.9996 -28.9894 -28.9861
    21.1056  21.1205  21.2710  21.2731  21.3761  21.4294  21.4895  21.5019
    21.5910  21.6071  23.8076  24.8256  25.1898  25.5257  25.7689  25.9818
    26.1756  26.5979  26.7388  26.9177  27.1099  27.4016  27.4248  27.4702
    27.6503  27.7723  27.9672  28.0324  28.1085  28.2235  28.4023  28.6411
    28.7697  28.8586  29.0620  29.0780  29.0858  29.1596  29.4206  30.3423
    31.5258  33.0937  35.2104  36.7028  37.8748  39.3448  41.0542  42.2007
    46.3396  47.0738  47.5026  48.6661  49.3722  50.0354  50.2251  51.2122
    51.9659  52.4034  52.7184  52.8346  53.6268  53.8813  54.1730  54.4936
    54.8191  55.2927  55.5485  55.8175  56.5922  57.1545  58.1483  58.5542
    58.6327  59.3668  59.7021  60.0980  60.4427  61.2548  61.2995  61.6945
    62.1887  62.3773  62.8316  63.3938

          k = 0.2000-0.5000 0.0000 (  2658 PWs)   bands (ev):

   -82.1001 -82.0993 -70.2803 -70.2781 -70.2074 -70.2061 -70.1315 -70.1281
   -37.8150 -37.8143 -37.8143 -37.8135 -37.8041 -37.8038 -30.2121 -30.0874
   -29.5610 -29.5581 -29.1803 -29.1798 -29.1390 -29.1139 -29.0696 -29.0617
   -29.0375 -29.0193 -29.0062 -28.9982 -28.9916 -28.9910 -28.9772 -28.8811
    21.0863  21.0868  21.3298  21.3323  21.3866  21.4197  21.5730  21.6138
    21.6749  21.7175  23.2266  23.8653  24.9400  25.1091  25.3536  25.5964
    26.3613  26.6316  26.7449  26.8215  27.2270  27.2619  27.3500  27.4171
    27.6475  27.6611  27.8797  27.9383  28.0264  28.4009  28.4535  28.7560
    28.8346  28.9965  29.2429  29.5247  29.6351  29.9259  30.2801  30.8071
    30.9624  31.1307  37.3952  37.4539  39.8663  40.6941  42.5204  43.0441
    45.1638  45.5570  46.0260  47.0209  48.3860  48.4315  49.9622  50.0114
    51.6484  51.9336  52.1064  52.3414  52.9198  53.0772  53.1181  53.7272
    55.1059  55.6027  56.0988  56.3767  56.5896  57.7186  58.2440  58.8531
    59.0067  59.9380  60.0947  60.1268  61.2606  61.2810  61.5958  61.9391
    62.1687  62.2552  62.5807  64.0202

          k = 0.2000-0.5000 0.1429 (  2658 PWs)   bands (ev):

   -82.1002 -82.0996 -70.2775 -70.2764 -70.2055 -70.2054 -70.1312 -70.1290
   -37.8188 -37.8186 -37.8145 -37.8141 -37.7997 -37.7995 -30.1478 -30.0880
   -29.5588 -29.5573 -29.1791 -29.1789 -29.1299 -29.1186 -29.0696 -29.0655
   -29.0308 -29.0245 -29.0076 -28.9964 -28.9950 -28.9873 -28.9850 -28.9512
    21.1011  21.1015  21.3070  21.3075  21.3958  21.4117  21.5765  21.6118
    21.6217  21.6573  23.5386  23.8455  25.0411  25.0967  25.5953  25.6824
    26.4004  26.5017  26.8665  26.8797  27.1866  27.2748  27.3427  27.4171
    27.5058  27.5888  28.0057  28.0840  28.1964  28.3316  28.4648  28.5344
    28.9602  29.0200  29.1760  29.1900  29.5497  29.6818  30.2981  30.7034
    31.1664  31.2079  37.5439  37.7521  38.5404  38.9497  43.3570  43.4130
    45.4467  45.5423  46.1897  46.3995  49.3719  49.8477  50.0491  50.2515
    51.1120  51.4039  52.5480  52.8494  53.0811  53.1413  53.5004  53.9930
    55.2645  55.5045  55.8830  56.0369  56.8583  57.3787  58.5552  58.8279
    59.0664  59.0907  60.0235  60.1819  60.9386  61.1115  61.9350  61.9765
    62.0543  62.2962  62.8201  63.7053

          k = 0.2000-0.5000 0.2857 (  2648 PWs)   bands (ev):

   -82.0809 -82.0798 -70.2634 -70.2492 -70.1987 -70.1884 -70.1310 -70.1091
   -37.8151 -37.8145 -37.8110 -37.8105 -37.7957 -37.7952 -30.0858 -29.9641
   -29.5583 -29.5558 -29.1658 -29.1615 -29.1576 -29.1192 -29.1156 -29.0708
   -29.0523 -29.0276 -29.0275 -29.0070 -29.0024 -28.9998 -28.9882 -28.9844
    21.1113  21.1126  21.2760  21.2770  21.3825  21.4148  21.5163  21.5357
    21.5860  21.6076  23.8135  24.4303  25.2409  25.3075  25.9216  26.0181
    26.3316  26.4895  26.9860  27.0110  27.0409  27.1714  27.3565  27.3728
    27.5575  27.6367  27.9701  28.0887  28.2338  28.2538  28.4672  28.4810
    28.7937  28.8214  29.0932  29.1664  29.2135  29.4289  29.5480  30.3365
    31.9092  31.9449  36.4501  36.7053  38.0237  38.5445  42.0288  42.2162
    46.4655  46.5736  47.2683  47.7755  49.6479  50.0718  50.6454  50.8943
    51.7284  51.9469  52.6864  53.0981  53.3052  53.3588  54.2143  54.8079
    55.1531  55.2612  55.4984  55.8169  56.5316  57.1892  58.4133  58.6692
    58.9162  59.0102  59.8025  60.0355  60.5437  61.2503  61.4737  61.5259
    62.1364  62.4074  63.0528  63.1515

          k = 0.2000-0.5000 0.4286 (  2646 PWs)   bands (ev):

   -82.0763 -82.0750 -70.2310 -70.2114 -70.2052 -70.1878 -70.1465 -70.1399
   -37.8141 -37.8139 -37.8126 -37.8122 -37.7921 -37.7917 -30.0902 -29.7075
   -29.5613 -29.5551 -29.4094 -29.1537 -29.1528 -29.1266 -29.0946 -29.0716
   -29.0673 -29.0301 -29.0223 -29.0186 -29.0062 -29.0017 -28.9902 -28.9879
    21.0897  21.0905  21.2818  21.2819  21.3350  21.4275  21.4406  21.4676
    21.5892  21.6087  23.7940  25.4485  25.4801  25.7813  26.1828  26.2080
    26.3079  26.7039  26.9164  27.0204  27.1466  27.1558  27.3453  27.3585
    27.5328  27.5886  27.7289  27.7854  27.8631  28.0611  28.2242  28.5391
    28.5750  28.7038  28.9396  28.9825  29.0720  29.0866  29.4547  30.3738
    33.0209  33.0663  34.5889  34.7641  38.8180  39.5855  40.4370  40.8587
    47.0212  47.1554  47.6629  49.1434  50.4409  50.4915  51.4884  51.6955
    52.0146  52.3011  52.9763  52.9844  53.3193  53.6442  53.9468  54.1686
    54.6702  55.1940  55.3832  55.5428  57.3641  57.4528  57.8973  58.4846
    58.7991  59.3550  59.5221  59.9672  60.0954  61.2872  61.3335  61.8070
    62.2629  62.3437  62.5050  62.9989

          k = 0.4000 0.0000 0.0000 (  2657 PWs)   bands (ev):

   -82.1270 -82.0678 -70.3127 -70.2946 -70.2405 -70.1714 -70.1014 -70.1014
   -37.8194 -37.8194 -37.8106 -37.8085 -37.8085 -37.7982 -30.2112 -30.1995
   -29.7585 -29.3522 -29.1981 -29.1981 -29.1450 -29.1011 -29.0675 -29.0675
   -29.0082 -29.0082 -28.9994 -28.9870 -28.9870 -28.9860 -28.8868 -28.8868
    21.0621  21.1180  21.3361  21.3612  21.4291  21.4291  21.6290  21.6967
    21.7261  21.7261  23.2382  23.3320  24.8657  25.0435  25.0435  25.1253
    25.5604  26.4695  26.4695  27.0869  27.4204  27.4895  27.4895  27.4907
    27.7427  27.8238  27.9248  28.0088  28.0088  28.4112  28.6903  28.6903
    28.9250  28.9659  29.2704  29.5650  29.5650  30.0233  30.0605  31.0265
    31.0265  31.6373  39.5178  39.7331  39.7867  39.7867  42.7239  42.9182
    43.5854  43.5854  47.1707  47.5625  48.9858  48.9858  49.1011  50.6910
    50.9859  50.9859  51.4774  51.6101  51.6851  52.6675  52.7530  52.7530
    54.8843  54.8843  56.6928  56.6928  57.8544  58.0041  58.4191  58.4191
    58.5811  58.5819  59.5009  60.5441  61.2379  61.2380  62.1641  62.2213
    62.8373  62.8372  63.0726  64.2278

          k = 0.4000 0.0000 0.1429 (  2659 PWs)   bands (ev):

   -82.1194 -82.0875 -70.3015 -70.2747 -70.2315 -70.1768 -70.1409 -70.1193
   -37.8178 -37.8174 -37.8170 -37.8093 -37.8080 -37.7991 -30.2132 -30.1456
   -29.7613 -29.3532 -29.1872 -29.1869 -29.1448 -29.1037 -29.0693 -29.0573
   -29.0241 -29.0170 -28.9974 -28.9929 -28.9917 -28.9818 -28.9535 -28.8801
    21.0727  21.1207  21.3250  21.3436  21.4186  21.4331  21.5994  21.6662
    21.6829  21.7223  23.2509  23.5913  24.8120  25.1488  25.1731  25.3911
    25.5477  26.4787  26.5348  27.1368  27.1812  27.4075  27.4614  27.6069
    27.6944  27.8429  27.9040  27.9850  28.1639  28.4683  28.5332  28.7741
    28.8755  29.1327  29.1455  29.5725  29.6814  29.8004  29.9747  30.6166
    31.0610  31.9120  37.5258  39.2503  39.7537  40.1319  42.7086  43.4826
    43.9887  45.1337  46.2283  47.5866  48.1254  48.3722  49.5107  50.3775
    51.5171  51.5608  51.9513  52.0847  52.3151  52.6059  53.0955  53.3065
    54.9005  55.1776  56.4723  56.5416  57.2220  57.3831  58.2376  58.5486
    58.7924  59.4120  59.5736  60.5969  61.1253  61.3860  61.9779  62.2656
    62.3605  62.5698  63.2287  63.8462

          k = 0.4000 0.0000 0.2857 (  2657 PWs)   bands (ev):

   -82.1179 -82.0834 -70.2782 -70.2528 -70.2266 -70.1807 -70.1476 -70.1458
   -37.8225 -37.8158 -37.8153 -37.8147 -37.8023 -37.7923 -30.2150 -29.9675
   -29.7600 -29.3551 -29.1734 -29.1711 -29.1586 -29.1331 -29.1012 -29.0807
   -29.0494 -29.0330 -29.0184 -29.0039 -28.9934 -28.9898 -28.9785 -28.8849
    21.0700  21.1042  21.3203  21.3303  21.3789  21.4401  21.5224  21.5423
    21.6907  21.7130  23.2029  24.4541  24.9255  25.3212  25.4944  25.5289
    25.9083  26.4606  26.6787  26.9099  27.2205  27.2974  27.4261  27.6210
    27.7046  27.7544  27.8285  27.8731  28.2897  28.3840  28.5031  28.7629
    28.9047  28.9495  29.2330  29.3822  29.4996  29.6062  29.8089  30.3525
    31.1383  32.6170  35.2117  37.2451  40.0166  41.0015  42.6412  43.2098
    44.7946  45.8604  46.7857  47.2372  47.9535  48.3872  48.9351  50.8426
    51.8060  52.1304  52.3522  52.8087  52.8187  53.6264  54.0902  54.3938
    54.4623  55.6036  56.0976  56.2053  56.3170  57.3114  58.3535  58.7062
    58.9171  59.4491  60.6394  60.7068  61.1031  61.1032  61.6044  61.9124
    61.9921  62.4379  62.7067  63.6753

          k = 0.4000 0.0000 0.4286 (  2657 PWs)   bands (ev):

   -82.1067 -82.0929 -70.2737 -70.2438 -70.2082 -70.1941 -70.1688 -70.1386
   -37.8240 -37.8183 -37.8180 -37.8118 -37.7982 -37.7925 -30.2121 -29.7655
   -29.7003 -29.4190 -29.3540 -29.1592 -29.1555 -29.1456 -29.0915 -29.0853
   -29.0717 -29.0365 -29.0214 -29.0187 -28.9900 -28.9821 -28.9788 -28.8904
    21.0496  21.0633  21.3217  21.3352  21.3392  21.4380  21.4635  21.4857
    21.6977  21.7101  23.1697  25.1421  25.2786  25.5183  25.7973  25.9449
    26.1658  26.6332  26.8049  26.8376  27.0878  27.2493  27.2586  27.4446
    27.5634  27.7205  27.7254  27.8250  27.9643  28.3407  28.4331  28.5552
    28.5881  28.8844  28.9789  29.0091  29.5154  29.5901  29.6888  31.2063
    31.5116  33.0177  33.9228  35.3601  40.2868  41.9774  42.4875  42.8322
    44.5090  44.9984  46.2368  47.8743  48.8201  49.4711  50.4501  50.9239
    51.9745  52.2008  52.7705  52.8576  52.9023  53.2241  53.7953  54.0788
    55.2346  55.4070  55.9896  56.1266  57.5099  57.7739  58.8154  58.8214
    58.9383  59.7453  60.0320  60.4527  60.5532  60.8965  61.7507  61.9485
    62.3615  62.5469  62.6363  62.7873

          k = 0.4000 0.1667 0.0000 (  2659 PWs)   bands (ev):

   -82.1121 -82.0950 -70.2984 -70.2701 -70.2308 -70.1789 -70.1464 -70.1212
   -37.8190 -37.8170 -37.8141 -37.8107 -37.8078 -37.7998 -30.2140 -30.1230
   -29.7612 -29.3534 -29.1852 -29.1842 -29.1444 -29.1044 -29.0707 -29.0573
   -29.0282 -29.0167 -28.9978 -28.9936 -28.9928 -28.9805 -28.9759 -28.8797
    21.0744  21.1204  21.3225  21.3395  21.4147  21.4342  21.5875  21.6471
    21.6823  21.7208  23.2439  23.6973  24.8167  25.1756  25.2188  25.4542
    25.5561  26.4795  26.5560  27.1260  27.1521  27.4017  27.4447  27.6266
    27.6749  27.8334  27.9191  27.9708  28.1905  28.4833  28.5014  28.7984
    28.8557  29.0952  29.1755  29.5707  29.7261  29.7530  29.9512  30.4734
    31.0722  32.0041  37.1266  38.9379  39.7875  40.2493  42.7011  43.4473
    44.3850  45.3061  46.1574  47.5081  48.1359  48.1986  49.2870  50.5293
    51.5870  51.6977  52.0460  52.1858  52.4721  52.6930  53.2806  53.4128
    54.8917  55.2975  56.3839  56.4882  56.9828  57.3341  58.2392  58.5732
    58.8351  59.3864  59.8175  60.6314  61.0924  61.3960  61.8910  62.1891
    62.3245  62.4782  63.1836  63.9061

          k = 0.4000 0.1667 0.1429 (  2662 PWs)   bands (ev):

   -82.1151 -82.1011 -70.2963 -70.2868 -70.2210 -70.2002 -70.1413 -70.1208
   -37.8196 -37.8190 -37.8150 -37.8132 -37.8077 -37.7993 -30.1478 -30.1218
   -29.7623 -29.3535 -29.1864 -29.1798 -29.1438 -29.1096 -29.0649 -29.0617
   -29.0275 -29.0217 -29.0009 -28.9996 -28.9902 -28.9834 -28.9747 -28.9533
    21.0919  21.1298  21.3042  21.3120  21.4208  21.4277  21.5813  21.6377
    21.6455  21.6620  23.5437  23.6836  24.8413  25.2065  25.4873  25.5198
    25.5855  26.5238  26.5674  27.0436  27.2205  27.2688  27.5263  27.5312
    27.7050  27.7723  28.0350  28.1615  28.1967  28.4181  28.5307  28.6248
    29.0239  29.0788  29.1576  29.2229  29.6416  29.6990  30.0915  30.5022
    30.6565  32.2764  37.3250  37.8372  39.1589  39.5836  43.3787  43.4633
    44.6442  45.8360  46.2963  46.4962  48.3458  49.4158  49.8686  50.2909
    51.3577  51.9476  52.0690  52.1119  52.9052  53.3167  53.4362  53.8059
    55.1241  55.2258  56.1617  56.2170  56.7375  57.4655  58.0247  58.7608
    58.9860  59.1730  59.5966  60.4287  61.2806  61.4865  61.7956  61.8983
    62.2986  62.6917  63.0199  63.4893

          k = 0.4000 0.1667 0.2857 (  2650 PWs)   bands (ev):

   -82.0862 -82.0839 -70.2699 -70.2540 -70.2233 -70.1594 -70.1340 -70.1208
   -37.8177 -37.8135 -37.8116 -37.8100 -37.7981 -37.7964 -30.1254 -29.9634
   -29.7578 -29.3570 -29.1721 -29.1646 -29.1545 -29.1276 -29.1123 -29.0659
   -29.0468 -29.0324 -29.0210 -29.0060 -28.9989 -28.9863 -28.9839 -28.9705
    21.1029  21.1280  21.2838  21.2848  21.3958  21.4356  21.5184  21.5371
    21.6208  21.6346  23.6324  24.4403  24.9972  25.4271  25.5106  25.7775
    25.9966  26.4919  26.6652  26.9148  27.1528  27.3429  27.5059  27.5182
    27.7065  27.8059  28.0387  28.1171  28.2017  28.3409  28.4490  28.6809
    28.8731  28.9412  29.1302  29.1920  29.2698  29.4620  29.5654  30.5595
    30.7814  32.9899  35.5247  37.5595  37.9262  39.8107  41.8427  43.0866
    45.6970  46.5583  46.8007  47.8872  48.8970  49.2888  50.0043  50.8219
    51.6575  52.1256  52.6666  52.6806  53.4208  53.8760  53.9452  54.7008
    54.7503  55.4794  55.7076  55.8892  56.4547  57.1769  58.2621  58.5664
    58.7920  59.3490  59.8622  60.2881  60.8178  61.3196  61.4922  61.8478
    62.0243  62.4768  62.8235  63.2277

          k = 0.4000 0.1667 0.4286 (  2652 PWs)   bands (ev):

   -82.0908 -82.0853 -70.2500 -70.2328 -70.2133 -70.1740 -70.1585 -70.1488
   -37.8180 -37.8174 -37.8143 -37.8100 -37.7994 -37.7912 -30.1274 -29.7633
   -29.7004 -29.4162 -29.3554 -29.1586 -29.1456 -29.1408 -29.1013 -29.0704
   -29.0671 -29.0339 -29.0226 -29.0157 -28.9977 -28.9896 -28.9874 -28.9725
    21.0826  21.0935  21.2926  21.2935  21.3438  21.4343  21.4575  21.4796
    21.6214  21.6326  23.6100  25.2380  25.3582  25.6120  25.8081  26.0560
    26.2274  26.6575  26.7697  26.9438  27.0717  27.3268  27.4272  27.4887
    27.5672  27.7095  27.8091  27.8771  28.0198  28.1659  28.4435  28.4625
    28.6334  28.7707  28.9668  29.0044  29.1879  29.2216  29.4912  30.6100
    31.9111  33.4164  34.2283  35.6914  38.7610  40.2384  40.8192  41.9637
    46.1080  46.7271  47.3500  48.9989  49.5351  49.7596  50.7649  51.1836
    52.1685  52.3757  52.8546  52.9593  53.5213  53.5907  54.0916  54.2534
    54.6005  55.2372  55.6172  55.7792  57.2615  57.4337  58.1351  58.7325
    58.8016  59.5492  59.6857  60.1140  60.2792  61.2630  61.3009  61.8217
    62.0642  62.2364  62.6655  63.1359

          k = 0.4000 0.3333 0.0000 (  2652 PWs)   bands (ev):

   -82.0996 -82.0823 -70.2745 -70.2393 -70.2207 -70.1696 -70.1563 -70.1292
   -37.8192 -37.8170 -37.8151 -37.8129 -37.7958 -37.7924 -30.2121 -29.8873
   -29.7580 -29.3545 -29.2307 -29.1673 -29.1625 -29.1445 -29.0957 -29.0803
   -29.0565 -29.0334 -29.0205 -29.0083 -28.9914 -28.9838 -28.9770 -28.8872
    21.0624  21.0912  21.3248  21.3325  21.3589  21.4416  21.5046  21.5060
    21.6949  21.7109  23.1886  24.8291  25.0042  25.3662  25.5061  25.6769
    26.0471  26.4682  26.7298  26.8552  27.2353  27.2382  27.4322  27.5950
    27.6871  27.6925  27.7964  27.8157  28.2800  28.3597  28.5147  28.7249
    28.9253  28.9637  29.0488  29.0680  29.4387  29.6079  29.7529  30.6908
    31.1653  32.9241  34.5214  36.5848  40.1193  41.3432  42.5962  43.0934
    44.6120  45.5914  46.8499  47.5687  48.1530  48.4313  49.5271  50.7446
    51.9392  52.2075  52.5657  52.8130  53.0017  53.8151  53.9418  54.2956
    54.8043  55.4177  56.0841  56.0890  56.7381  57.3730  58.4640  58.7779
    58.9075  59.6020  60.4957  60.5996  60.9328  61.0911  61.6353  62.0159
    62.1797  62.4813  62.5290  63.3372

          k = 0.4000 0.3333 0.1429 (  2654 PWs)   bands (ev):

   -82.0978 -82.0881 -70.2570 -70.2486 -70.2202 -70.1728 -70.1544 -70.1434
   -37.8190 -37.8173 -37.8170 -37.8114 -37.7956 -37.7952 -30.1497 -29.8872
   -29.7574 -29.3574 -29.2322 -29.1664 -29.1554 -29.1397 -29.1061 -29.0685
   -29.0574 -29.0343 -29.0221 -29.0106 -28.9966 -28.9899 -28.9843 -28.9498
    21.0883  21.1110  21.2950  21.2959  21.3730  21.4390  21.4975  21.5046
    21.6411  21.6496  23.5091  24.8261  25.0609  25.4441  25.5368  25.8241
    26.1103  26.4832  26.7193  26.8795  27.1359  27.3666  27.4873  27.5257
    27.6499  27.7849  27.9308  27.9892  28.2322  28.2980  28.4428  28.6913
    28.9010  28.9337  29.0439  29.0563  29.2470  29.3365  29.5369  30.7309
    31.0093  33.2058  34.7558  36.8176  38.5449  40.3930  41.6296  42.8674
    45.5639  46.3214  47.1385  48.3461  48.6398  49.3524  49.8468  50.9072
    51.8302  52.1957  52.7525  52.8671  53.7107  53.8437  54.0681  54.2165
    54.6598  55.4318  55.7620  55.8898  56.7456  57.2300  58.4123  58.5087
    58.8254  59.4846  59.9573  60.3939  60.6338  61.1722  61.5812  61.9008
    61.9625  62.4256  62.6368  63.2716

          k = 0.4000 0.3333 0.2857 (  2651 PWs)   bands (ev):

   -82.0849 -82.0838 -70.2552 -70.2398 -70.2201 -70.1654 -70.1535 -70.1265
   -37.8195 -37.8141 -37.8115 -37.8062 -37.7990 -37.7968 -29.9653 -29.8855
   -29.7586 -29.3586 -29.2362 -29.1660 -29.1597 -29.1432 -29.1163 -29.1038
   -29.0532 -29.0438 -29.0361 -29.0259 -29.0130 -29.0072 -28.9996 -28.9966
    21.1433  21.1554  21.2217  21.2287  21.4049  21.4280  21.4803  21.4902
    21.5234  21.5391  24.4222  24.8345  25.2634  25.4707  25.8194  26.1371
    26.2972  26.4717  26.6106  27.0238  27.1305  27.3537  27.5184  27.5675
    27.7863  27.9258  27.9395  28.0530  28.1594  28.2832  28.4261  28.4827
    28.6291  28.7566  28.9117  28.9435  29.0871  29.1312  29.2581  29.5665
    31.7588  33.9400  35.4031  36.3927  37.4894  38.4388  39.7112  41.4699
    47.4354  47.8889  48.3493  48.9716  50.1109  50.5425  50.8923  51.1599
    52.0295  52.3513  52.7610  53.4568  53.5138  53.7425  54.5904  54.8476
    54.9752  55.0559  55.5957  55.7479  55.9008  56.8419  57.4641  57.6634
    58.4774  59.4182  59.5382  59.7277  60.6478  60.8722  61.0778  61.9840
    62.5204  62.5800  62.9024  63.2756

          k = 0.4000 0.3333 0.4286 (  2646 PWs)   bands (ev):

   -82.0762 -82.0707 -70.2418 -70.2237 -70.1959 -70.1651 -70.1567 -70.1272
   -37.8153 -37.8113 -37.8087 -37.8033 -37.8008 -37.7954 -29.8852 -29.7575
   -29.6995 -29.4177 -29.3616 -29.2356 -29.1603 -29.1494 -29.1032 -29.0917
   -29.0593 -29.0450 -29.0365 -29.0281 -29.0134 -29.0084 -29.0059 -28.9999
    21.1501  21.1548  21.2054  21.2088  21.3892  21.4210  21.4406  21.4596
    21.4770  21.4997  24.8362  25.4356  25.5936  25.7645  26.0250  26.2833
    26.5015  26.5569  26.6989  27.1684  27.2019  27.2525  27.4704  27.5469
    27.7039  27.7617  27.7857  27.8635  27.9578  28.1162  28.2154  28.4003
    28.4214  28.5223  28.7255  28.8725  28.9435  29.0510  29.1204  29.1942
    32.9010  34.4193  35.0953  36.4526  36.6106  37.9603  38.5144  39.8651
    48.5711  48.9806  49.2817  50.0889  50.7082  51.2458  51.7286  51.8560
    52.5509  52.6921  53.0978  53.4423  53.6512  53.7345  54.1875  54.5772
    54.6544  54.9366  55.2558  55.6517  55.7104  56.2442  56.6509  56.9295
    58.8074  59.2280  59.3742  59.5837  60.3181  60.4737  61.6238  62.2446
    62.7717  62.8750  63.1855  63.3623

          k = 0.4000-0.5000 0.0000 (  2650 PWs)   bands (ev):

   -82.0870 -82.0866 -70.2602 -70.2208 -70.2055 -70.1948 -70.1612 -70.1269
   -37.8192 -37.8190 -37.8152 -37.8145 -37.7903 -37.7897 -30.2094 -29.7610
   -29.5642 -29.5555 -29.3512 -29.1535 -29.1508 -29.1450 -29.0894 -29.0821
   -29.0773 -29.0292 -29.0276 -29.0165 -28.9891 -28.9797 -28.9772 -28.8907
    21.0496  21.0520  21.3122  21.3401  21.3404  21.4341  21.4584  21.4827
    21.6979  21.7118  23.1655  25.2341  25.2433  25.5301  26.0276  26.1295
    26.2026  26.7008  26.9007  26.9015  26.9659  27.1405  27.2526  27.2593
    27.5408  27.6062  27.7528  27.8069  27.8397  28.3396  28.3953  28.5210
    28.5668  28.8610  29.0020  29.0090  29.5379  29.5697  29.6832  31.2169
    32.2235  32.2715  34.5562  34.5595  40.3348  42.2250  42.4544  42.6950
    44.6132  44.7322  46.0715  47.8171  49.1715  49.7143  50.9614  51.1121
    51.7971  52.0153  52.6963  52.7679  52.9316  53.2505  53.4968  54.1577
    55.1576  55.5754  55.9720  56.1791  57.5555  58.4295  58.5623  58.9037
    59.2142  59.3941  59.8753  60.3213  60.5519  61.0488  61.8079  61.8091
    62.3700  62.5041  62.5365  62.7093

          k = 0.4000-0.5000 0.1429 (  2650 PWs)   bands (ev):

   -82.0856 -82.0832 -70.2374 -70.2296 -70.1986 -70.1977 -70.1560 -70.1408
   -37.8160 -37.8156 -37.8136 -37.8133 -37.7938 -37.7934 -30.1482 -29.7599
   -29.5641 -29.5568 -29.3560 -29.1527 -29.1510 -29.1408 -29.0939 -29.0742
   -29.0719 -29.0303 -29.0251 -29.0173 -28.9921 -28.9875 -28.9847 -28.9495
    21.0730  21.0752  21.3062  21.3079  21.3296  21.4298  21.4547  21.4777
    21.6414  21.6501  23.4912  25.2861  25.3422  25.5793  26.0969  26.1564
    26.2389  26.6696  26.8936  26.9992  27.0438  27.1851  27.2977  27.3136
    27.5838  27.5868  27.7885  27.8150  27.8997  28.1950  28.4130  28.5160
    28.5581  28.7751  28.9726  29.0250  29.2697  29.2990  29.5363  30.7730
    32.5173  32.5607  34.7475  34.8546  39.3414  40.2680  41.4430  41.8762
    45.9450  46.1890  47.1369  48.6590  49.6745  49.8737  51.1573  51.3568
    51.9767  52.2260  52.7058  52.9087  53.1588  53.6177  53.7802  54.2751
    54.8265  55.3696  55.5494  55.8386  57.4400  57.8647  58.3389  58.7220
    59.0842  59.3194  59.6978  60.2066  60.3133  61.3012  61.3448  61.8046
    62.1826  62.2034  62.4491  62.8191

          k = 0.4000-0.5000 0.2857 (  2640 PWs)   bands (ev):

   -82.0633 -82.0628 -70.2213 -70.2166 -70.1777 -70.1772 -70.1388 -70.1336
   -37.8127 -37.8126 -37.8045 -37.8043 -37.7948 -37.7944 -29.9670 -29.7561
   -29.5582 -29.5550 -29.3576 -29.1557 -29.1522 -29.1510 -29.1063 -29.0841
   -29.0605 -29.0532 -29.0315 -29.0246 -29.0123 -29.0101 -28.9981 -28.9972
    21.1282  21.1289  21.2337  21.2344  21.3668  21.4185  21.4456  21.4668
    21.5073  21.5365  24.4199  25.4069  25.6353  25.7502  26.2389  26.2432
    26.3846  26.6693  26.8678  27.0423  27.1498  27.2435  27.4254  27.4536
    27.5833  27.6510  27.7724  27.7779  27.9404  28.0370  28.3019  28.5457
    28.5605  28.6172  28.6344  28.8441  28.9643  29.0556  29.2935  29.5846
    33.2645  33.3109  35.3459  35.6208  37.5471  38.0573  39.6429  39.8979
    48.2965  48.3920  48.5779  50.1051  50.3566  51.0588  51.7880  51.8294
    52.4345  52.6531  52.9502  53.1389  53.5917  53.8172  54.2402  54.4387
    54.7022  54.7485  55.2329  55.4718  56.4354  56.4948  57.2543  57.3505
    58.8343  59.2399  59.4611  59.6703  60.2480  60.7193  61.5555  62.0073
    62.6921  62.7714  63.0447  63.2431

          k = 0.4000-0.5000 0.4286 (  2640 PWs)   bands (ev):

   -82.0598 -82.0598 -70.2045 -70.1961 -70.1851 -70.1696 -70.1515 -70.1434
   -37.8100 -37.8100 -37.8025 -37.8023 -37.7983 -37.7983 -29.7578 -29.7012
   -29.5589 -29.5581 -29.4172 -29.3617 -29.1572 -29.1564 -29.0791 -29.0730
   -29.0532 -29.0518 -29.0373 -29.0339 -29.0145 -29.0119 -29.0100 -29.0090
    21.1635  21.1640  21.1881  21.1884  21.3935  21.4048  21.4247  21.4310
    21.4438  21.4540  25.4792  25.7337  26.0293  26.0770  26.3032  26.3232
    26.6544  26.7359  26.7909  26.8331  27.2312  27.2554  27.3979  27.4161
    27.6073  27.6257  27.6771  27.6986  27.9108  27.9449  28.0098  28.1288
    28.1750  28.3059  28.7571  28.7662  28.8924  28.9159  29.0201  29.0808
    34.4057  34.4227  35.8362  36.0786  36.4280  36.6912  37.9777  38.0418
    49.8506  49.8521  50.3918  50.8661  51.3278  51.7088  52.5845  52.6498
    52.9074  52.9200  53.4221  53.4435  53.5541  53.5781  54.1073  54.2053
    54.3708  54.5262  55.0478  55.1973  55.3818  55.4769  56.0773  56.0910
    58.9897  59.1341  59.3918  59.4059  59.9757  59.9859  62.3599  62.4985
    63.0251  63.1216  63.2899  63.3959

     the Fermi energy is    54.9599 ev

!    total energy              =   -3351.89612759 Ry
     Harris-Foulkes estimate   =   -3351.89613444 Ry
     estimated scf accuracy    <       0.00000955 Ry

     The total energy is the sum of the following terms:

     one-electron contribution =    -289.33267814 Ry
     hartree contribution      =     386.13156860 Ry
     xc contribution           =    -270.93802840 Ry
     ewald contribution        =   -3177.48512859 Ry
     smearing contrib. (-TS)   =      -0.27186105 Ry

     convergence has been achieved in   8 iterations

     Forces acting on atoms (Ry/au):

     atom    1 type  1   force =     0.00000000    0.00000000    0.00000000
     atom    2 type  1   force =     0.00000000    0.00000000    0.00000000
     atom    3 type  1   force =     0.00000000    0.00000000    0.00000000
     atom    4 type  1   force =     0.00000000    0.00000000    0.00000000
     atom    5 type  1   force =     0.00000000    0.00000000    0.00000000
     atom    6 type  1   force =     0.00000000    0.00000000    0.00000000
     atom    7 type  2   force =     0.00000000    0.00000000    0.00000000
     atom    8 type  2   force =     0.00000000    0.00000000    0.00000000

     Total force =     0.000000     Total SCF correction =     0.000000


     entering subroutine stress ...

          total   stress  (Ry/bohr**3)                   (kbar)     P= 5958.38
   0.04050428   0.00000000   0.00000000       5958.38      0.00      0.00
   0.00000000   0.04050428   0.00000000          0.00   5958.38      0.00
   0.00000000   0.00000000   0.04050428          0.00      0.00   5958.38


     BFGS Geometry Optimization

     number of scf cycles    =   1
     number of bfgs steps    =   0

     enthalpy new            =   -3351.8961275851 Ry

     new trust radius        =       0.5000000000 bohr
     new conv_thr            =       0.0001000000 Ry

     new unit-cell volume =    828.02266 a.u.^3 (   122.70030 Ang^3 )

CELL_PARAMETERS (alat=  8.53457320)
   1.100269143   0.000000000   0.000000000
   0.000000000   1.100269143   0.000000000
   0.000000000   0.000000000   1.100269143

ATOMIC_POSITIONS (crystal)
Cr       0.000000000   0.500000000   0.250000000
Cr       0.000000000   0.500000000   0.750000000
Cr       0.500000000   0.750000000   0.000000000
Cr       0.500000000   0.250000000   0.000000000
Cr       0.750000000   0.000000000   0.500000000
Cr       0.250000000   0.000000000   0.500000000
Si       0.500000000   0.500000000   0.500000000
Si       0.000000000   0.000000000   0.000000000



     Writing output data file Prototype-La-cP8-Cr3Si.save
     NEW-OLD atomic charge density approx. for the potential
     NEW k-points:
        k(    1) = (   0.0000000   0.0000000   0.0000000), wk =   0.0095238
        k(    2) = (   0.0000000   0.0000000   0.1298384), wk =   0.0190476
        k(    3) = (   0.0000000   0.0000000   0.2596767), wk =   0.0190476
        k(    4) = (   0.0000000   0.0000000   0.3895151), wk =   0.0190476
        k(    5) = (   0.0000000   0.1514781   0.0000000), wk =   0.0190476
        k(    6) = (   0.0000000   0.1514781   0.1298384), wk =   0.0380952
        k(    7) = (   0.0000000   0.1514781   0.2596767), wk =   0.0380952
        k(    8) = (   0.0000000   0.1514781   0.3895151), wk =   0.0380952
        k(    9) = (   0.0000000   0.3029562   0.0000000), wk =   0.0190476
        k(   10) = (   0.0000000   0.3029562   0.1298384), wk =   0.0380952
        k(   11) = (   0.0000000   0.3029562   0.2596767), wk =   0.0380952
        k(   12) = (   0.0000000   0.3029562   0.3895151), wk =   0.0380952
        k(   13) = (   0.0000000  -0.4544343   0.0000000), wk =   0.0095238
        k(   14) = (   0.0000000  -0.4544343   0.1298384), wk =   0.0190476
        k(   15) = (   0.0000000  -0.4544343   0.2596767), wk =   0.0190476
        k(   16) = (   0.0000000  -0.4544343   0.3895151), wk =   0.0190476
        k(   17) = (   0.1817737   0.0000000   0.0000000), wk =   0.0190476
        k(   18) = (   0.1817737   0.0000000   0.1298384), wk =   0.0380952
        k(   19) = (   0.1817737   0.0000000   0.2596767), wk =   0.0380952
        k(   20) = (   0.1817737   0.0000000   0.3895151), wk =   0.0380952
        k(   21) = (   0.1817737   0.1514781   0.0000000), wk =   0.0380952
        k(   22) = (   0.1817737   0.1514781   0.1298384), wk =   0.0761905
        k(   23) = (   0.1817737   0.1514781   0.2596767), wk =   0.0761905
        k(   24) = (   0.1817737   0.1514781   0.3895151), wk =   0.0761905
        k(   25) = (   0.1817737   0.3029562   0.0000000), wk =   0.0380952
        k(   26) = (   0.1817737   0.3029562   0.1298384), wk =   0.0761905
        k(   27) = (   0.1817737   0.3029562   0.2596767), wk =   0.0761905
        k(   28) = (   0.1817737   0.3029562   0.3895151), wk =   0.0761905
        k(   29) = (   0.1817737  -0.4544343   0.0000000), wk =   0.0190476
        k(   30) = (   0.1817737  -0.4544343   0.1298384), wk =   0.0380952
        k(   31) = (   0.1817737  -0.4544343   0.2596767), wk =   0.0380952
        k(   32) = (   0.1817737  -0.4544343   0.3895151), wk =   0.0380952
        k(   33) = (   0.3635474   0.0000000   0.0000000), wk =   0.0190476
        k(   34) = (   0.3635474   0.0000000   0.1298384), wk =   0.0380952
        k(   35) = (   0.3635474   0.0000000   0.2596767), wk =   0.0380952
        k(   36) = (   0.3635474   0.0000000   0.3895151), wk =   0.0380952
        k(   37) = (   0.3635474   0.1514781   0.0000000), wk =   0.0380952
        k(   38) = (   0.3635474   0.1514781   0.1298384), wk =   0.0761905
        k(   39) = (   0.3635474   0.1514781   0.2596767), wk =   0.0761905
        k(   40) = (   0.3635474   0.1514781   0.3895151), wk =   0.0761905
        k(   41) = (   0.3635474   0.3029562   0.0000000), wk =   0.0380952
        k(   42) = (   0.3635474   0.3029562   0.1298384), wk =   0.0761905
        k(   43) = (   0.3635474   0.3029562   0.2596767), wk =   0.0761905
        k(   44) = (   0.3635474   0.3029562   0.3895151), wk =   0.0761905
        k(   45) = (   0.3635474  -0.4544343   0.0000000), wk =   0.0190476
        k(   46) = (   0.3635474  -0.4544343   0.1298384), wk =   0.0380952
        k(   47) = (   0.3635474  -0.4544343   0.2596767), wk =   0.0380952
        k(   48) = (   0.3635474  -0.4544343   0.3895151), wk =   0.0380952

     total cpu time spent up to now is      307.3 secs

     Self-consistent Calculation

     iteration #  1     ecut=    40.00 Ry     beta=0.70
     CG style diagonalization
     c_bands:  2 eigenvalues not converged
     c_bands:  4 eigenvalues not converged
     c_bands:  1 eigenvalues not converged
     c_bands:  2 eigenvalues not converged
     c_bands:  3 eigenvalues not converged
     c_bands:  1 eigenvalues not converged
     c_bands:  2 eigenvalues not converged
     c_bands:  2 eigenvalues not converged
     c_bands:  1 eigenvalues not converged
     c_bands:  1 eigenvalues not converged
     c_bands:  2 eigenvalues not converged
     c_bands:  1 eigenvalues not converged
     c_bands:  1 eigenvalues not converged
     c_bands:  1 eigenvalues not converged
     c_bands:  2 eigenvalues not converged
     c_bands:  4 eigenvalues not converged
     c_bands:  1 eigenvalues not converged
     c_bands:  2 eigenvalues not converged
     c_bands:  1 eigenvalues not converged
     c_bands:  1 eigenvalues not converged
     c_bands:  2 eigenvalues not converged
     c_bands:  2 eigenvalues not converged
     c_bands:  1 eigenvalues not converged
     c_bands:  3 eigenvalues not converged
     c_bands:  1 eigenvalues not converged
     c_bands:  1 eigenvalues not converged
     c_bands:  1 eigenvalues not converged
     c_bands:  2 eigenvalues not converged
     c_bands:  1 eigenvalues not converged
     c_bands:  2 eigenvalues not converged
     c_bands:  3 eigenvalues not converged
     c_bands:  1 eigenvalues not converged
     c_bands:  3 eigenvalues not converged
     c_bands:  2 eigenvalues not converged
     c_bands:  2 eigenvalues not converged
     c_bands:  2 eigenvalues not converged
     c_bands:  1 eigenvalues not converged
     c_bands:  3 eigenvalues not converged
     ethr =  1.00E-06,  avg # of iterations = 22.3

     total cpu time spent up to now is      429.8 secs

     total energy              =   -3340.62373766 Ry
     Harris-Foulkes estimate   =   -3381.36262846 Ry
     estimated scf accuracy    <      50.44952076 Ry

     iteration #  2     ecut=    40.00 Ry     beta=0.70
     CG style diagonalization
     ethr =  1.00E-02,  avg # of iterations =  4.1

     total cpu time spent up to now is      451.9 secs

     total energy              =   -3355.10653822 Ry
     Harris-Foulkes estimate   =   -3357.59605498 Ry
     estimated scf accuracy    <       3.45053963 Ry

     iteration #  3     ecut=    40.00 Ry     beta=0.70
     CG style diagonalization
     ethr =  1.78E-03,  avg # of iterations =  3.7

     total cpu time spent up to now is      471.2 secs

     total energy              =   -3356.01196094 Ry
     Harris-Foulkes estimate   =   -3356.01732492 Ry
     estimated scf accuracy    <       0.00932129 Ry

     iteration #  4     ecut=    40.00 Ry     beta=0.70
     CG style diagonalization
     c_bands:  1 eigenvalues not converged
     c_bands:  2 eigenvalues not converged
     c_bands:  1 eigenvalues not converged
     c_bands:  1 eigenvalues not converged
     c_bands:  1 eigenvalues not converged
     c_bands:  1 eigenvalues not converged
     c_bands:  1 eigenvalues not converged
     c_bands:  3 eigenvalues not converged
     c_bands:  1 eigenvalues not converged
     c_bands:  1 eigenvalues not converged
     c_bands:  2 eigenvalues not converged
     c_bands:  1 eigenvalues not converged
     c_bands:  2 eigenvalues not converged
     c_bands:  3 eigenvalues not converged
     c_bands:  1 eigenvalues not converged
     c_bands:  1 eigenvalues not converged
     c_bands:  3 eigenvalues not converged
     c_bands:  2 eigenvalues not converged
     c_bands:  1 eigenvalues not converged
     c_bands:  1 eigenvalues not converged
     ethr =  4.80E-06,  avg # of iterations =  5.2

     total cpu time spent up to now is      501.0 secs

     total energy              =   -3356.02888970 Ry
     Harris-Foulkes estimate   =   -3356.03103206 Ry
     estimated scf accuracy    <       0.00357651 Ry

     iteration #  5     ecut=    40.00 Ry     beta=0.70
     CG style diagonalization
     c_bands:  1 eigenvalues not converged
     c_bands:  1 eigenvalues not converged
[...]
    32.2597  33.2746  33.8183  33.9317  34.7598  34.8305  35.9726  36.3548
    36.8210  37.2468  37.5976  37.7535  38.0098  38.1157  38.3074  38.3818
    38.5425  38.9042  39.0710  39.1779

          k = 0.3359 0.0000 0.2399 (  4482 PWs)   bands (ev):

  -104.5124-104.4897 -92.2302 -92.2093 -92.1920 -92.1852 -92.1685 -92.1590
   -60.0158 -60.0157 -60.0131 -60.0102 -60.0075 -60.0004 -51.2174 -51.1848
   -51.1557 -51.0976 -51.0667 -51.0309 -50.9619 -50.9597 -50.9573 -50.9559
   -50.9542 -50.9530 -50.9519 -50.9489 -50.9481 -50.9438 -50.9409 -50.9392
     0.5522   0.5539   0.5600   0.5614   0.5990   0.5995   0.6042   0.6050
     0.6101   0.6129   5.3622   5.7894   6.1539   6.2256   6.2624   6.3777
     6.4224   6.5921   6.6607   6.7866   6.8338   6.8658   6.9015   6.9283
     6.9498   6.9825   6.9936   7.0022   7.0721   7.0811   7.0878   7.1496
     7.1575   7.1913   7.2698   7.2853   7.3404   7.3830   7.3961   7.8666
    13.8193  14.9991  16.7241  17.8470  19.5183  20.5537  21.4798  21.7069
    22.6819  22.9820  24.0849  24.3635  25.2458  25.8392  26.1345  27.9455
    28.7922  29.4017  29.6775  30.4176  30.4986  30.8628  31.2590  31.5472
    31.5821  31.9820  32.2377  33.7633  34.5552  35.0297  35.8883  36.3689
    36.6383  37.0489  37.4991  37.5559  37.6496  37.8760  38.2049  38.2053
    38.3263  38.8172  38.9331  39.2512

          k = 0.3359 0.0000 0.3598 (  4483 PWs)   bands (ev):

  -104.5130-104.4936 -92.2360 -92.2343 -92.1952 -92.1726 -92.1689 -92.1468
   -60.0190 -60.0128 -60.0123 -60.0084 -60.0063 -60.0053 -51.2215 -51.1573
   -51.1495 -51.1041 -51.0950 -51.0264 -50.9575 -50.9567 -50.9559 -50.9553
   -50.9537 -50.9525 -50.9517 -50.9512 -50.9486 -50.9464 -50.9449 -50.9421
     0.5515   0.5521   0.5596   0.5602   0.5970   0.6001   0.6008   0.6034
     0.6095   0.6140   5.3620   6.1485   6.2523   6.2575   6.2750   6.4994
     6.5359   6.6181   6.7066   6.7234   6.7802   6.8211   6.8341   6.8647
     6.8981   6.9548   6.9887   6.9968   7.0085   7.0456   7.1017   7.1130
     7.1346   7.1539   7.1679   7.1844   7.3148   7.3382   7.3773   7.8729
    14.4252  15.1013  16.1151  16.7806  20.0195  20.7521  21.0716  22.0798
    22.1151  22.7851  23.4622  24.9308  26.0381  26.3986  27.3669  27.8096
    29.0264  29.4932  29.8198  30.3257  30.6445  30.8261  31.4057  31.4569
    31.5560  31.9545  32.6280  33.7657  34.1844  34.7127  34.9264  36.3483
    36.5974  37.1163  37.1683  37.2581  37.4941  37.7690  37.9403  38.2141
    38.2436  38.4626  38.9062  39.1265

          k = 0.3359 0.1399 0.0000 (  4486 PWs)   bands (ev):

  -104.5090-104.5001 -92.2261 -92.2045 -92.2020 -92.1840 -92.1786 -92.1617
   -60.0165 -60.0136 -60.0129 -60.0107 -60.0073 -60.0065 -51.2185 -51.2046
   -51.1532 -51.0975 -51.0473 -51.0344 -50.9633 -50.9618 -50.9586 -50.9577
   -50.9543 -50.9528 -50.9509 -50.9475 -50.9468 -50.9465 -50.9430 -50.9382
     0.5521   0.5540   0.5611   0.5615   0.6002   0.6007   0.6060   0.6096
     0.6100   0.6124   5.3625   5.5136   6.1537   6.2010   6.2444   6.2823
     6.3260   6.6153   6.6398   6.8229   6.8429   6.8946   6.9118   6.9256
     6.9274   6.9845   6.9973   7.0205   7.0585   7.0660   7.1128   7.1491
     7.1883   7.2501   7.2690   7.3310   7.3691   7.4144   7.6811   7.8596
    13.4915  14.7212  17.7166  18.8471  19.2989  20.3384  21.1413  22.1749
    22.4001  23.1156  23.3877  24.4184  24.9492  25.5701  26.8267  27.2764
    28.5467  28.9573  29.0440  29.3926  29.9666  30.3967  31.0904  31.1409
    32.2338  33.0452  33.5983  33.9111  34.7704  34.7852  35.9661  36.3778
    36.7772  37.2410  37.6422  37.7874  38.0084  38.0216  38.2680  38.2882
    38.4818  38.9090  39.0139  39.1641

          k = 0.3359 0.1399 0.1199 (  4474 PWs)   bands (ev):

  -104.4924-104.4894 -92.2217 -92.2020 -92.1778 -92.1717 -92.1635 -92.1614
   -60.0145 -60.0125 -60.0112 -60.0091 -60.0060 -59.9995 -51.2082 -51.2037
   -51.1526 -51.0953 -51.0437 -51.0426 -50.9600 -50.9586 -50.9574 -50.9544
   -50.9526 -50.9515 -50.9486 -50.9475 -50.9464 -50.9450 -50.9406 -50.9386
     0.5525   0.5551   0.5605   0.5607   0.6005   0.6011   0.6065   0.6088
     0.6102   0.6107   5.4734   5.5139   6.1540   6.2274   6.2824   6.2980
     6.3468   6.6237   6.6304   6.8012   6.8623   6.8718   6.8933   6.9268
     6.9555   6.9691   7.0056   7.0406   7.0458   7.0722   7.1134   7.1433
     7.2116   7.2254   7.2699   7.2853   7.3613   7.3729   7.6846   7.7307
    13.6174  14.8425  17.6972  18.4720  18.8180  19.6108  21.8006  22.2725
    22.7812  22.9750  23.4820  24.1409  25.7117  26.2166  26.6912  27.5889
    27.9766  28.7151  29.1081  29.5720  30.3407  30.9276  31.2359  31.2598
    32.1623  33.1264  33.3381  33.6214  33.8694  34.7590  35.8626  36.2930
    36.9608  37.0788  37.4273  37.4698  37.6147  38.0251  38.2322  38.2773
    38.5861  38.6509  39.1184  39.2136

          k = 0.3359 0.1399 0.2399 (  4482 PWs)   bands (ev):

  -104.5053-104.4989 -92.2278 -92.2114 -92.1966 -92.1762 -92.1702 -92.1668
   -60.0157 -60.0156 -60.0134 -60.0091 -60.0080 -60.0013 -51.2047 -51.1834
   -51.1548 -51.0986 -51.0668 -51.0451 -50.9602 -50.9582 -50.9575 -50.9551
   -50.9524 -50.9515 -50.9508 -50.9498 -50.9490 -50.9482 -50.9418 -50.9405
     0.5529   0.5545   0.5588   0.5594   0.5993   0.5998   0.6040   0.6050
     0.6074   0.6099   5.5132   5.7896   6.1543   6.2748   6.3201   6.3935
     6.4379   6.6014   6.6480   6.7747   6.8292   6.8777   6.8931   6.9203
     6.9591   6.9705   6.9948   7.0270   7.0532   7.0857   7.0971   7.1564
     7.1605   7.1899   7.2402   7.2619   7.2853   7.3463   7.3885   7.6923
    13.9891  15.1583  16.8658  17.9797  18.3797  19.5075  20.8022  21.8553
    22.9674  24.0392  24.3963  25.2177  25.7005  26.3424  26.9678  27.8948
    28.3729  29.0240  29.4039  29.7112  30.9174  31.1924  31.4462  31.5103
    31.7633  32.3431  32.3733  33.2404  33.7635  34.2184  35.4166  36.0845
    36.7380  36.8438  37.2146  37.5673  37.6029  37.7960  37.9490  38.1564
    38.2619  38.6320  38.8825  39.3984

          k = 0.3359 0.1399 0.3598 (  4494 PWs)   bands (ev):

  -104.5216-104.5129 -92.2301 -92.2257 -92.2031 -92.1929 -92.1871 -92.1740
   -60.0174 -60.0166 -60.0147 -60.0136 -60.0082 -60.0074 -51.2062 -51.1568
   -51.1485 -51.1080 -51.0986 -51.0451 -50.9604 -50.9586 -50.9580 -50.9573
   -50.9556 -50.9553 -50.9538 -50.9515 -50.9499 -50.9454 -50.9452 -50.9445
     0.5523   0.5528   0.5585   0.5588   0.5966   0.5993   0.6004   0.6024
     0.6061   0.6098   5.5131   6.1504   6.2558   6.3132   6.3324   6.5098
     6.5480   6.6235   6.7023   6.7206   6.7715   6.8282   6.8543   6.8606
     6.8978   6.9437   6.9768   6.9902   7.0275   7.0431   7.0933   7.0980
     7.1355   7.1515   7.1818   7.2041   7.2579   7.2692   7.3383   7.6984
    14.5946  15.2651  16.2758  16.9329  18.9182  19.6667  20.1493  20.9074
    23.5320  24.1463  25.0201  25.5703  26.4580  26.6348  27.5655  27.9704
    29.1391  29.5248  29.7373  29.9512  30.3953  30.6502  30.9448  31.2654
    31.6509  31.7371  32.8994  33.2037  33.5651  34.1558  34.4602  35.8406
    36.6787  36.8752  37.1071  37.1789  37.5424  37.6246  37.6909  38.1805
    38.6106  38.9489  38.9653  39.3199

          k = 0.3359 0.2799 0.0000 (  4479 PWs)   bands (ev):

  -104.5059-104.4907 -92.2432 -92.2125 -92.1889 -92.1689 -92.1605 -92.1574
   -60.0164 -60.0146 -60.0118 -60.0081 -60.0063 -60.0020 -51.2166 -51.1737
   -51.1569 -51.0967 -51.0774 -51.0294 -50.9599 -50.9589 -50.9567 -50.9560
   -50.9548 -50.9527 -50.9512 -50.9499 -50.9487 -50.9448 -50.9394 -50.9368
     0.5520   0.5531   0.5600   0.5609   0.5986   0.5997   0.6036   0.6040
     0.6101   0.6135   5.3621   5.9309   6.1543   6.2363   6.2678   6.4223
     6.4717   6.5837   6.6723   6.7759   6.8294   6.8443   6.8906   6.9245
     6.9667   6.9669   6.9863   6.9952   7.0673   7.0704   7.0879   7.1462
     7.1468   7.1710   7.2334   7.2558   7.2962   7.3405   7.3885   7.8693
    13.9987  15.1155  16.3875  17.4655  19.6628  20.6929  21.3891  21.6592
    22.6772  22.8016  23.7751  25.0234  25.4876  25.6266  26.5901  27.7104
    29.1169  29.7583  29.8128  30.5110  30.7881  30.9076  31.1501  31.3331
    31.6047  31.8260  31.9725  33.7180  34.5401  35.1129  35.5340  36.2733
    36.6344  36.9541  37.4672  37.4776  37.5546  37.8954  38.0227  38.2014
    38.2345  38.9586  38.9718  39.1991

          k = 0.3359 0.2799 0.1199 (  4492 PWs)   bands (ev):

  -104.5239-104.5035 -92.2366 -92.2194 -92.2001 -92.1874 -92.1818 -92.1746
   -60.0180 -60.0163 -60.0151 -60.0124 -60.0095 -60.0040 -51.2083 -51.1766
   -51.1562 -51.0987 -51.0803 -51.0416 -50.9614 -50.9590 -50.9589 -50.9551
   -50.9551 -50.9537 -50.9519 -50.9516 -50.9502 -50.9471 -50.9452 -50.9423
     0.5521   0.5536   0.5588   0.5598   0.5982   0.5991   0.6027   0.6031
     0.6073   0.6103   5.4735   5.9313   6.1545   6.2754   6.3113   6.4325
     6.4819   6.5894   6.6639   6.7697   6.8159   6.8702   6.8854   6.9188
     6.9587   6.9633   6.9841   7.0173   7.0570   7.0715   7.0940   7.1354
     7.1529   7.1742   7.2405   7.2560   7.2606   7.2919   7.3544   7.7399
    14.1199  15.2319  16.5015  17.5705  18.7434  19.8413  20.6495  21.7240
    22.8417  23.8758  24.8290  25.2097  25.6280  26.3942  26.7945  27.8223
    28.8752  29.3754  29.5804  30.2214  30.5933  31.0118  31.3105  31.4069
    31.6164  31.8212  32.5189  33.3874  34.0758  34.2534  35.1527  36.1876
    36.7153  36.8327  37.1378  37.3970  37.5793  37.6544  37.9279  38.1140
    38.5038  38.5260  38.9342  39.4235

          k = 0.3359 0.2799 0.2399 (  4492 PWs)   bands (ev):

  -104.5210-104.5100 -92.2266 -92.2174 -92.2076 -92.1961 -92.1865 -92.1719
   -60.0160 -60.0157 -60.0138 -60.0117 -60.0105 -60.0077 -51.1833 -51.1722
   -51.1550 -51.0998 -51.0824 -51.0691 -50.9602 -50.9590 -50.9577 -50.9575
   -50.9558 -50.9534 -50.9529 -50.9497 -50.9489 -50.9476 -50.9471 -50.9427
     0.5536   0.5547   0.5566   0.5573   0.5984   0.5992   0.6013   0.6029
     0.6041   0.6050   5.7900   5.9325   6.1550   6.3733   6.4316   6.4672
     6.5155   6.6057   6.6336   6.7638   6.8024   6.8816   6.8916   6.8958
     6.9571   6.9711   6.9739   7.0009   7.0586   7.0728   7.1040   7.1136
     7.1396   7.1675   7.1716   7.2023   7.2517   7.2590   7.2868   7.3956
    14.4950  15.5510  16.8246  17.5287  17.8173  18.6830  19.4711  20.5537
    24.6416  25.3028  25.5754  25.9523  26.9238  27.1532  27.5552  28.1734
    28.5167  28.8051  29.3407  29.8295  30.3826  30.9120  31.2750  31.5531
    31.8770  32.0924  32.1418  32.5037  32.6202  33.3061  34.3150  34.6390
    36.9324  37.0773  37.4474  37.5805  37.7665  37.9481  38.0344  38.2326
    38.5286  38.8415  39.0456  39.3808

          k = 0.3359 0.2799 0.3598 (  4495 PWs)   bands (ev):

  -104.5327-104.5055 -92.2267 -92.2118 -92.2088 -92.1986 -92.1924 -92.1836
   -60.0188 -60.0158 -60.0134 -60.0118 -60.0106 -60.0086 -51.1711 -51.1568
   -51.1488 -51.1083 -51.0986 -51.0808 -50.9593 -50.9575 -50.9565 -50.9560
   -50.9556 -50.9544 -50.9536 -50.9527 -50.9505 -50.9487 -50.9468 -50.9466
     0.5534   0.5543   0.5557   0.5564   0.5974   0.5987   0.5995   0.6018
     0.6021   0.6038   5.9330   6.1541   6.2564   6.4588   6.4956   6.5497
     6.5852   6.6330   6.6658   6.7251   6.7703   6.8343   6.8398   6.8579
     6.9038   6.9187   6.9477   6.9584   7.0295   7.0374   7.0634   7.0997
     7.1102   7.1205   7.1457   7.1715   7.2047   7.2209   7.2607   7.2656
    15.0885  15.7031  16.7629  17.3366  17.5336  18.3124  18.7775  19.5221
    25.6696  26.2018  26.3419  26.8661  27.2493  27.8948  28.0193  28.5985
    29.0241  29.1317  29.6374  29.7372  30.1671  30.2105  30.7702  31.1718
    31.2275  31.5433  31.7724  32.0338  32.3260  32.5401  33.2410  33.7008
    37.3583  37.4224  37.6118  38.0177  38.0613  38.2231  38.4800  38.5989
    38.6341  38.9526  39.0847  39.4986

          k = 0.3359-0.4198 0.0000 (  4484 PWs)   bands (ev):

  -104.5050-104.5048 -92.2258 -92.2227 -92.1938 -92.1824 -92.1757 -92.1598
   -60.0158 -60.0157 -60.0109 -60.0107 -60.0063 -60.0061 -51.2188 -51.1591
   -51.1269 -51.1268 -51.0975 -51.0257 -50.9596 -50.9558 -50.9550 -50.9545
   -50.9543 -50.9532 -50.9530 -50.9520 -50.9506 -50.9453 -50.9430 -50.9420
     0.5515   0.5517   0.5602   0.5603   0.5968   0.5989   0.6001   0.6033
     0.6096   0.6141   5.3618   6.1506   6.2656   6.2680   6.4914   6.4998
     6.5217   6.5684   6.7086   6.7154   6.7340   6.7916   6.8103   6.8231
     6.8810   6.9496   6.9862   7.0056   7.0121   7.0613   7.0803   7.1074
     7.1327   7.1518   7.1636   7.1767   7.3213   7.3355   7.3744   7.8740
    14.7832  14.7882  16.3237  16.4002  20.2670  20.4687  21.2057  21.9078
    22.3761  22.5219  23.4909  24.7671  26.3376  26.5221  27.9437  28.0348
    28.5621  29.1180  29.7314  30.2056  30.5644  31.1315  31.1748  31.4503
    31.6938  32.5805  32.8004  33.5817  33.8697  34.6536  34.7237  36.5013
    36.6895  36.9193  37.0884  37.1860  37.4590  37.8877  38.0227  38.1545
    38.2387  38.2610  38.8280  39.0771

          k = 0.3359-0.4198 0.1199 (  4488 PWs)   bands (ev):

  -104.5100-104.5099 -92.2322 -92.2271 -92.1961 -92.1949 -92.1676 -92.1642
   -60.0143 -60.0141 -60.0130 -60.0129 -60.0082 -60.0080 -51.2099 -51.1571
   -51.1275 -51.1272 -51.0985 -51.0383 -50.9601 -50.9581 -50.9575 -50.9557
   -50.9553 -50.9542 -50.9527 -50.9518 -50.9504 -50.9457 -50.9450 -50.9387
     0.5522   0.5523   0.5591   0.5592   0.5965   0.5991   0.6004   0.6028
     0.6070   0.6112   5.4735   6.1514   6.3092   6.3113   6.4944   6.5035
     6.5284   6.5674   6.7117   6.7176   6.7430   6.7831   6.8045   6.8377
     6.8838   6.9461   6.9812   7.0072   7.0084   7.0408   7.0834   7.1145
     7.1207   7.1584   7.1657   7.1958   7.2775   7.2844   7.3459   7.7445
    14.9068  14.9153  16.4462  16.5102  19.4695  19.5266  20.5360  20.8294
    23.5334  23.6277  24.7623  25.3281  26.6307  26.6340  28.0645  28.1648
    28.6484  29.2395  29.6791  30.1535  30.3894  30.6705  30.9290  31.4374
    31.6539  32.2496  32.6056  33.0688  33.9055  34.2044  34.5888  36.0139
    36.6884  36.7249  37.0015  37.2117  37.4075  37.5990  37.6997  38.2006
    38.4868  38.8746  39.1970  39.2330

          k = 0.3359-0.4198 0.2399 (  4500 PWs)   bands (ev):

  -104.5251-104.5246 -92.2325 -92.2248 -92.2082 -92.2022 -92.1917 -92.1887
   -60.0177 -60.0177 -60.0141 -60.0140 -60.0109 -60.0108 -51.1816 -51.1581
   -51.1302 -51.1301 -51.0976 -51.0710 -50.9611 -50.9589 -50.9575 -50.9568
   -50.9561 -50.9557 -50.9544 -50.9532 -50.9529 -50.9498 -50.9462 -50.9435
     0.5531   0.5532   0.5565   0.5567   0.5965   0.5986   0.6000   0.6018
     0.6019   0.6051   5.7903   6.1538   6.4300   6.4323   6.5048   6.5104
     6.5499   6.5732   6.7042   6.7365   6.7493   6.7616   6.8040   6.8429
     6.9082   6.9109   6.9695   6.9715   7.0236   7.0277   7.0616   7.1192
     7.1315   7.1438   7.1532   7.1790   7.1858   7.2170   7.2849   7.3990
    15.2664  15.2703  16.7979  16.8375  18.2543  18.2573  19.4455  19.4979
    25.3477  25.4542  26.2046  26.5732  27.0148  27.6970  28.4216  28.5182
    28.6737  29.3370  29.6017  29.6232  30.1704  30.7010  30.7067  30.8051
    31.4325  31.5742  31.8298  32.4169  32.7821  32.8902  33.4619  34.2437
    37.2150  37.2785  37.4630  37.6830  37.9199  38.0987  38.2108  38.4193
    38.6697  39.0453  39.2288  39.2677

          k = 0.3359-0.4198 0.3598 (  4510 PWs)   bands (ev):

  -104.5345-104.5341 -92.2247 -92.2201 -92.2184 -92.2159 -92.2106 -92.2033
   -60.0178 -60.0177 -60.0169 -60.0168 -60.0138 -60.0137 -51.1552 -51.1478
   -51.1306 -51.1305 -51.1111 -51.1018 -50.9600 -50.9586 -50.9578 -50.9574
   -50.9560 -50.9556 -50.9554 -50.9548 -50.9537 -50.9530 -50.9509 -50.9498
     0.5532   0.5532   0.5542   0.5544   0.5974   0.5979   0.5997   0.5998
     0.6010   0.6014   6.1556   6.2559   6.5080   6.5088   6.5709   6.5709
     6.6119   6.6189   6.6942   6.6979   6.7457   6.7746   6.7843   6.8031
     6.8418   6.8542   6.8898   6.8910   7.0224   7.0267   7.0308   7.0469
     7.0655   7.0814   7.1564   7.1601   7.1846   7.1848   7.2134   7.2288
    15.7704  15.7704  17.0475  17.0603  17.6060  17.6123  18.4255  18.4294
    26.8480  26.8994  27.2220  27.4627  27.8941  28.2540  28.8485  28.8633
    29.0955  29.4174  29.7600  29.8679  30.0465  30.3042  30.4029  30.4459
    30.8326  30.9780  31.2965  31.4219  31.5709  31.6312  32.3342  32.5441
    37.8803  37.8861  38.1317  38.1889  38.5748  38.6004  38.7892  38.9609
    38.9624  39.1118  39.3053  39.3176

     the Fermi energy is    32.1310 ev

!    total energy              =   -3363.02181624 Ry
     Harris-Foulkes estimate   =   -3363.02181630 Ry
     estimated scf accuracy    <       0.00000006 Ry

     The total energy is the sum of the following terms:

     one-electron contribution =   -1032.63250818 Ry
     hartree contribution      =     598.67693391 Ry
     xc contribution           =    -260.83126816 Ry
     ewald contribution        =   -2667.93956418 Ry
     smearing contrib. (-TS)   =      -0.29540963 Ry

     convergence has been achieved in  11 iterations

     Forces acting on atoms (Ry/au):

     atom    1 type  1   force =     0.00000000    0.00000000    0.00000000
     atom    2 type  1   force =     0.00000000    0.00000000    0.00000000
     atom    3 type  1   force =     0.00000000    0.00000000    0.00000000
     atom    4 type  1   force =     0.00000000    0.00000000    0.00000000
     atom    5 type  1   force =     0.00000000    0.00000000    0.00000000
     atom    6 type  1   force =     0.00000000    0.00000000    0.00000000
     atom    7 type  2   force =     0.00000000    0.00000000    0.00000000
     atom    8 type  2   force =     0.00000000    0.00000000    0.00000000

     Total force =     0.000000     Total SCF correction =     0.000000


     entering subroutine stress ...

          total   stress  (Ry/bohr**3)                   (kbar)     P=  217.36
   0.00147755   0.00000000   0.00000000        217.36      0.00      0.00
   0.00000000   0.00147755   0.00000000          0.00    217.36      0.00
   0.00000000   0.00000000   0.00147755          0.00      0.00    217.36


     Writing output data file Prototype-La-cP8-Cr3Si.save
 
     init_run     :      9.59s CPU     12.15s WALL (       2 calls)
     electrons    :   1800.72s CPU   2075.86s WALL (       5 calls)
     update_pot   :      1.38s CPU      1.40s WALL (       3 calls)
     forces       :      7.01s CPU      7.62s WALL (       5 calls)
     stress       :     18.96s CPU     19.52s WALL (       5 calls)

     Called by init_run:
     wfcinit      :      9.07s CPU     11.60s WALL (       2 calls)
     potinit      :      0.20s CPU      0.21s WALL (       2 calls)

     Called by electrons:
     c_bands      :   1748.25s CPU   1972.94s WALL (      39 calls)
     sum_band     :     52.14s CPU     61.42s WALL (      39 calls)
     v_of_rho     :      0.05s CPU      0.06s WALL (      44 calls)
     mix_rho      :      0.05s CPU      0.06s WALL (      39 calls)

     Called by c_bands:
     init_us_2    :      2.58s CPU      3.29s WALL (    4320 calls)
     ccgdiagg     :   1572.02s CPU   1747.54s WALL (    2261 calls)
     wfcrot       :    181.93s CPU    230.85s WALL (    2309 calls)

     Called by *cgdiagg:
     h_psi        :   1149.12s CPU   1333.07s WALL ( 1389662 calls)
     cdiaghg      :     13.89s CPU     15.11s WALL (    2309 calls)

     Called by h_psi:
     add_vuspsi   :    134.87s CPU    159.93s WALL ( 1389662 calls)

     General routines
     calbec       :    364.22s CPU    360.79s WALL ( 2777495 calls)
     fft          :      0.08s CPU      0.09s WALL (     199 calls)
     fftw         :    798.64s CPU    917.97s WALL ( 3527546 calls)
     davcio       :      2.28s CPU      5.31s WALL (    6192 calls)
 
     Parallel routines
     fft_scatter  :    320.55s CPU    361.10s WALL ( 3527745 calls)
 
     PWSCF        : 30m38.37s CPU    35m28.22s WALL

 
   This run was terminated on:  12:45:10  22Mar2018            

=------------------------------------------------------------------------------=
   JOB DONE.
=------------------------------------------------------------------------------=
