
     Program PWSCF v.5.0.2 starts on 23Mar2018 at  0:54:34 

     This program is part of the open-source Quantum ESPRESSO suite
     for quantum simulation of materials; please cite
         "P. Giannozzi et al., J. Phys.:Condens. Matter 21 395502 (2009);
          URL http://www.quantum-espresso.org", 
     in publications or presentations arising from this work. More details at
     http://www.quantum-espresso.org/quote.php

     Parallel version (MPI), running on     4 processors
     R & G space division:  proc/nbgrp/npool/nimage =       4

     Current dimensions of program PWSCF are:
     Max number of different atomic species (ntypx) = 10
     Max number of k-points (npk) =  40000
     Max angular momentum in pseudopotentials (lmaxx) =  3
     Waiting for input...
     Reading input from standard input

     Subspace diagonalization in iterative solution of the eigenvalue problem:
     a serial algorithm will be used

 
     Parallelization info
     --------------------
     sticks:   dense  smooth     PW     G-vecs:    dense   smooth      PW
     Min         207     207     61                 7381     7381    1191
     Max         208     208     62                 7386     7386    1192
     Sum         829     829    247                29529    29529    4767
 


     bravais-lattice index     =            0
     lattice parameter (alat)  =       7.0151  a.u.
     unit-cell volume          =     862.2778 (a.u.)^3
     number of atoms/cell      =           12
     number of atomic types    =            2
     number of electrons       =       256.00
     number of Kohn-Sham states=          154
     kinetic-energy cutoff     =      40.0000  Ry
     charge density cutoff     =     160.0000  Ry
     convergence threshold     =      1.0E-04
     mixing beta               =       0.7000
     number of iterations used =            8  plain     mixing
     Exchange-correlation      = SLA-PZ-NOGX-NOGC ( 1 1 0 0 0)
     EXX-fraction              =        0.00
     nstep                     =           50


     celldm(1)=   7.015105  celldm(2)=   0.000000  celldm(3)=   0.000000
     celldm(4)=   0.000000  celldm(5)=   0.000000  celldm(6)=   0.000000

     crystal axes: (cart. coord. in units of alat)
               a(1) = (   1.000000   0.000000   0.000000 )  
               a(2) = (   0.000000   1.315963   0.000000 )  
               a(3) = (   0.000000   0.000000   1.898020 )  

     reciprocal axes: (cart. coord. in units 2 pi/alat)
               b(1) = (  1.000000  0.000000  0.000000 )  
               b(2) = (  0.000000  0.759900  0.000000 )  
               b(3) = (  0.000000  0.000000  0.526865 )  


     PseudoPot. # 1 for Ho read from file:
     /home/cwx6513/pp.La/Ho.UPF
     MD5 check sum: f307ee11bce99f5b724fa279e3790763
     Pseudo is Norm-conserving, Zval = 21.0
     Generated in analytical, separable form
     Using radial grid of 1265 points,  6 beta functions with: 
                l(1) =   0
                l(2) =   0
                l(3) =   1
                l(4) =   1
                l(5) =   2
                l(6) =   3

     PseudoPot. # 2 for Er read from file:
     /home/cwx6513/pp.La/Er.UPF
     MD5 check sum: e152ae21b84514339d8526f066caf99b
     Pseudo is Norm-conserving, Zval = 22.0
     Generated in analytical, separable form
     Using radial grid of 1267 points,  6 beta functions with: 
                l(1) =   0
                l(2) =   0
                l(3) =   1
                l(4) =   1
                l(5) =   2
                l(6) =   3

     atomic species   valence    mass     pseudopotential
        Co            21.00    58.93320     Ho( 1.00)
        Si            22.00    28.08550     Er( 1.00)

      8 Sym. Ops., with inversion, found ( 6 have fractional translation)



   Cartesian axes

     site n.     atom                  positions (alat units)
         1           Co  tau(   1) = (   0.7500000   1.0875135   0.8270358  )
         2           Co  tau(   2) = (   0.2500000   0.2284499   1.0709846  )
         3           Co  tau(   3) = (   0.7500000   0.4295318   0.1219744  )
         4           Co  tau(   4) = (   0.2500000   0.8864316   1.7760460  )
         5           Co  tau(   5) = (   0.2500000   0.7067855   0.5358966  )
         6           Co  tau(   6) = (   0.7500000   0.6091779   1.3621238  )
         7           Co  tau(   7) = (   0.2500000   0.0488038   0.4131136  )
         8           Co  tau(   8) = (   0.7500000   1.2671596   1.4849068  )
         9           Si  tau(   9) = (   0.2500000   0.2669484   1.6960710  )
        10           Si  tau(  10) = (   0.7500000   1.0490149   0.2019494  )
        11           Si  tau(  11) = (   0.2500000   0.9249301   1.1509596  )
        12           Si  tau(  12) = (   0.7500000   0.3910333   0.7470608  )

     number of k points=    12  gaussian smearing, width (Ry)=  0.1000
                       cart. coord. in units 2pi/alat
        k(    1) = (   0.0000000   0.0000000   0.0000000), wk =   0.0833333
        k(    2) = (   0.0000000   0.0000000   0.1317162), wk =   0.1666667
        k(    3) = (   0.0000000   0.0000000  -0.2634324), wk =   0.0833333
        k(    4) = (   0.0000000   0.2532999   0.0000000), wk =   0.1666667
        k(    5) = (   0.0000000   0.2532999   0.1317162), wk =   0.3333333
        k(    6) = (   0.0000000   0.2532999  -0.2634324), wk =   0.1666667
        k(    7) = (  -0.5000000   0.0000000   0.0000000), wk =   0.0833333
        k(    8) = (  -0.5000000   0.0000000   0.1317162), wk =   0.1666667
        k(    9) = (  -0.5000000   0.0000000  -0.2634324), wk =   0.0833333
        k(   10) = (  -0.5000000   0.2532999   0.0000000), wk =   0.1666667
        k(   11) = (  -0.5000000   0.2532999   0.1317162), wk =   0.3333333
        k(   12) = (  -0.5000000   0.2532999  -0.2634324), wk =   0.1666667

     Dense  grid:    29529 G-vectors     FFT dimensions: (  30,  40,  54)

     Largest allocated arrays     est. size (Mb)     dimensions
        Kohn-Sham Wavefunctions         2.17 Mb     (    922,  154)
        NL pseudopotentials             3.38 Mb     (    922,  240)
        Each V/rho on FFT grid          0.26 Mb     (  16800)
        Each G-vector array             0.06 Mb     (   7386)
        G-vector shells                 0.06 Mb     (   7386)
     Largest temporary arrays     est. size (Mb)     dimensions
        Each subspace H/S matrix        0.36 Mb     ( 154, 154)
        Each <psi_i|beta_j> matrix      0.56 Mb     (    240,  154)
        Arrays for rho mixing           2.05 Mb     (  16800,   8)

     Initial potential from superposition of free atoms

     Starting from uniform charge
     Starting wfc are    0 randomized atomic wfcs

     total cpu time spent up to now is        2.8 secs

     Self-consistent Calculation

     iteration #  1     ecut=    40.00 Ry     beta=0.70
     CG style diagonalization
     c_bands:  5 eigenvalues not converged
     ethr =  1.00E-02,  avg # of iterations = 15.5

     total cpu time spent up to now is       51.4 secs

     total energy              =   -3291.10155925 Ry
     Harris-Foulkes estimate   =   -4130.27035897 Ry
     estimated scf accuracy    <    1074.18074071 Ry

     iteration #  2     ecut=    40.00 Ry     beta=0.70
     CG style diagonalization
     c_bands:  1 eigenvalues not converged
     ethr =  1.00E-02,  avg # of iterations =  8.7

     total cpu time spent up to now is       79.9 secs

     total energy              =   -3523.33201890 Ry
     Harris-Foulkes estimate   =   -3765.97116037 Ry
     estimated scf accuracy    <     363.75759170 Ry

     iteration #  3     ecut=    40.00 Ry     beta=0.70
     CG style diagonalization
     ethr =  1.00E-02,  avg # of iterations =  7.9

     total cpu time spent up to now is      105.3 secs

     total energy              =   -3624.87483235 Ry
     Harris-Foulkes estimate   =   -3665.14394317 Ry
     estimated scf accuracy    <      76.34779665 Ry

     iteration #  4     ecut=    40.00 Ry     beta=0.70
     CG style diagonalization
     ethr =  1.00E-02,  avg # of iterations =  4.3

     total cpu time spent up to now is      118.6 secs

     total energy              =   -3642.83327454 Ry
     Harris-Foulkes estimate   =   -3645.69064050 Ry
     estimated scf accuracy    <       5.82420066 Ry

     iteration #  5     ecut=    40.00 Ry     beta=0.70
     CG style diagonalization
     ethr =  2.28E-03,  avg # of iterations =  3.8

     total cpu time spent up to now is      130.4 secs

     total energy              =   -3644.12852153 Ry
     Harris-Foulkes estimate   =   -3644.45526431 Ry
     estimated scf accuracy    <       0.54607163 Ry

     iteration #  6     ecut=    40.00 Ry     beta=0.70
     CG style diagonalization
     c_bands:  1 eigenvalues not converged
     c_bands:  1 eigenvalues not converged
     c_bands:  1 eigenvalues not converged
     ethr =  2.13E-04,  avg # of iterations =  4.2

     total cpu time spent up to now is      143.3 secs

     total energy              =   -3644.27546792 Ry
     Harris-Foulkes estimate   =   -3644.34890153 Ry
     estimated scf accuracy    <       0.13595965 Ry

     iteration #  7     ecut=    40.00 Ry     beta=0.70
     CG style diagonalization
     ethr =  5.31E-05,  avg # of iterations =  3.7

     total cpu time spent up to now is      154.5 secs

     total energy              =   -3644.30574368 Ry
     Harris-Foulkes estimate   =   -3644.31097440 Ry
     estimated scf accuracy    <       0.00856896 Ry

     iteration #  8     ecut=    40.00 Ry     beta=0.70
     CG style diagonalization
     c_bands:  1 eigenvalues not converged
     c_bands:  2 eigenvalues not converged
     ethr =  3.35E-06,  avg # of iterations =  4.4

     total cpu time spent up to now is      168.1 secs

     total energy              =   -3644.30836181 Ry
     Harris-Foulkes estimate   =   -3644.30881591 Ry
     estimated scf accuracy    <       0.00076383 Ry

     iteration #  9     ecut=    40.00 Ry     beta=0.70
     CG style diagonalization
     ethr =  2.98E-07,  avg # of iterations =  3.8

     total cpu time spent up to now is      180.0 secs

     total energy              =   -3644.30861240 Ry
     Harris-Foulkes estimate   =   -3644.30870739 Ry
     estimated scf accuracy    <       0.00018128 Ry

     iteration # 10     ecut=    40.00 Ry     beta=0.70
     CG style diagonalization
     ethr =  7.08E-08,  avg # of iterations =  3.6

     total cpu time spent up to now is      190.4 secs

     End of self-consistent calculation

          k = 0.0000 0.0000 0.0000 (  3675 PWs)   bands (ev):

   -48.9521 -48.9511 -48.9374 -48.9245 -40.1938 -40.1379 -40.1101 -40.0988
   -39.9558 -39.8809 -39.7836 -39.7832 -11.7569 -11.6566 -11.6298 -11.5867
   -11.5774 -11.5737 -11.4924 -11.4712 -11.2726 -11.2566 -11.1600 -11.1080
    -5.5213  -5.2961  -5.2097  -5.0622  -5.0211  -4.9920  -4.9742  -4.8937
    -4.7575  -4.6825  -4.6343  -4.6298  -4.5068  -4.4343  -4.3746  -4.3604
    -4.3570  -4.2626  -4.2278  -4.1290  -4.0317  -3.9266  -3.7885  -3.7258
    30.3747  30.6416  30.7209  30.7793  31.1512  31.2260  31.2309  31.2900
    31.6065  31.7838  31.8598  31.9210  32.2873  32.4755  32.7494  32.8025
    32.9182  33.5870  33.8860  33.9316  34.2251  34.8795  35.0144  35.3966
    35.7054  35.7818  35.8242  35.8739  36.5618  36.5803  36.6198  36.9041
    36.9150  37.1717  37.2299  37.6469  38.0666  38.4506  38.5253  38.5354
    38.6023  38.8091  38.8710  39.4351  40.0808  40.1314  40.1387  40.1389
    41.0715  41.1959  41.4366  41.4734  41.6005  41.6510  41.9359  42.2561
    42.2661  42.3150  42.6801  42.7011  42.7886  43.1537  43.1816  47.3180
    47.6790  47.8225  48.1082  48.8100  51.8475  52.0362  53.4815  53.8231
    56.0182  56.1363  56.1409  56.1889  56.2079  56.4064  56.4412  56.9685
    57.0886  57.5103  57.6446  57.7131  57.7709  57.8119  58.6808  58.7858
    58.8933  58.9035  58.9047  59.2672  59.6068  59.6986  59.7353  60.3917
    60.4897  60.6752  61.1213  61.1441  61.6264  61.6554  62.4106  62.7492
    62.9179  62.9210

          k = 0.0000 0.0000 0.1317 (  3675 PWs)   bands (ev):

   -48.9580 -48.9477 -48.9368 -48.9247 -40.1838 -40.1477 -40.1094 -40.1049
   -39.9453 -39.9050 -39.7890 -39.7629 -11.7310 -11.6766 -11.6115 -11.5876
   -11.5764 -11.5653 -11.5129 -11.4784 -11.2740 -11.2720 -11.1457 -11.1172
    -5.4965  -5.3333  -5.1744  -5.0654  -5.0297  -5.0071  -4.9296  -4.8538
    -4.7338  -4.7290  -4.6523  -4.6401  -4.4890  -4.4402  -4.4080  -4.4031
    -4.3432  -4.1790  -4.1667  -4.1605  -4.0437  -3.9901  -3.7865  -3.7434
    30.4374  30.4459  30.8220  30.8350  30.8713  31.2222  31.2509  31.3681
    31.7620  31.8601  32.0662  32.2743  32.2963  32.4068  32.6949  33.0751
    33.1826  33.2210  33.5366  33.7178  33.9765  34.7300  35.3540  35.4001
    35.5475  35.8010  35.8677  35.9429  36.4084  36.7011  36.8004  36.9073
    36.9541  37.1638  37.4274  37.7609  37.8463  38.1432  38.1574  38.6455
    38.7967  39.0757  39.1138  39.4270  39.4411  40.0890  40.1822  40.3097
    40.3793  40.8153  41.0201  41.1338  41.4033  41.8605  41.9781  42.0657
    42.2997  42.6513  42.6899  42.7038  42.7714  43.0888  45.1350  47.6326
    47.7611  48.1153  48.5836  48.7165  51.3777  52.2924  52.3654  54.0088
    54.5868  55.7827  55.9117  56.1518  56.2226  56.6718  56.6813  56.7370
    56.7816  57.5983  57.6705  57.6735  58.1643  58.3936  58.4135  58.5904
    58.6442  59.1881  59.2898  59.4521  59.6652  59.9902  60.4052  60.5856
    60.7110  60.7357  60.9678  61.0150  61.2084  62.2082  62.2243  62.3590
    62.5577  62.8394

          k = 0.0000 0.0000-0.2634 (  3690 PWs)   bands (ev):

   -48.9535 -48.9535 -48.9440 -48.9440 -40.1796 -40.1796 -40.1111 -40.1111
   -39.9210 -39.9210 -39.7827 -39.7827 -11.7044 -11.7044 -11.5947 -11.5947
   -11.5550 -11.5550 -11.5255 -11.5255 -11.2926 -11.2926 -11.1352 -11.1352
    -5.4411  -5.4411  -5.0651  -5.0651  -5.0524  -5.0524  -4.8376  -4.8376
    -4.7390  -4.7390  -4.6762  -4.6762  -4.4543  -4.4543  -4.4346  -4.4346
    -4.2601  -4.2601  -4.1218  -4.1218  -4.0922  -4.0922  -3.7749  -3.7749
    30.4953  30.4953  30.5272  30.5272  31.1362  31.1362  31.7719  31.7719
    31.8219  31.8219  32.1482  32.1482  32.4302  32.4302  32.6474  32.6474
    33.3428  33.3428  33.4492  33.4492  34.1238  34.1238  35.4094  35.4094
    35.7915  35.7915  36.0549  36.0549  36.5529  36.5529  36.8289  36.8289
    37.3961  37.3961  37.4661  37.4661  37.5256  37.5256  38.2227  38.2227
    39.2643  39.2643  39.4279  39.4279  39.5141  39.5141  40.2305  40.2305
    40.2975  40.2975  41.1177  41.1177  41.2814  41.2814  41.8015  41.8015
    42.6293  42.6293  42.8386  42.8386  43.0258  43.0258  47.4946  47.4946
    48.0659  48.0659  48.6880  48.6880  51.2846  51.2846  52.5092  52.5092
    55.4410  55.4410  56.0315  56.0315  56.1544  56.1544  56.7843  56.7843
    57.1405  57.1405  57.5429  57.5429  57.6264  57.6264  59.1598  59.1598
    59.1882  59.1882  59.7636  59.7636  60.0180  60.0181  60.5457  60.5457
    60.6322  60.6323  60.9771  60.9772  61.8328  61.8329  61.8840  61.8841
    62.8109  62.8110

          k = 0.0000 0.2533 0.0000 (  3664 PWs)   bands (ev):

   -48.9586 -48.9520 -48.9219 -48.9068 -40.1688 -40.1492 -40.1050 -40.0967
   -39.9037 -39.8684 -39.8233 -39.8012 -11.7084 -11.6481 -11.6359 -11.6050
   -11.5785 -11.5689 -11.4686 -11.4580 -11.2146 -11.2126 -11.1316 -11.1119
    -5.3524  -5.1272  -5.1250  -5.1117  -5.0468  -5.0005  -4.9832  -4.8732
    -4.8447  -4.7354  -4.6677  -4.6423  -4.6023  -4.4268  -4.3371  -4.2710
    -4.2434  -4.2247  -4.1674  -4.1599  -4.0987  -4.0599  -3.9763  -3.9515
    30.8016  30.8620  31.1786  31.2891  31.4026  31.5432  31.6735  31.6758
    31.8053  32.0602  32.1484  32.2150  32.3100  32.6563  32.7623  33.2387
    33.3469  33.4063  33.4083  33.4525  33.8946  34.5661  35.0133  35.2262
    35.3961  35.7282  36.1807  36.2195  36.3737  36.5301  36.7427  36.8095
    37.1083  37.4528  37.4538  37.8076  38.1024  38.2361  38.3126  38.4999
    38.6300  38.7128  39.2837  39.4419  39.4626  39.7028  40.0446  40.2013
    40.4976  40.5020  40.5807  40.9742  41.1170  41.2395  41.5029  41.9650
    42.1462  42.4410  42.4730  42.5265  42.8393  42.9099  43.2117  43.4390
    44.9604  45.2648  50.9852  52.7459  53.3861  54.0732  54.3267  55.0873
    55.3184  55.5407  55.7667  55.8698  56.3378  56.7132  56.8165  56.9194
    57.1108  57.1372  57.2545  57.5036  57.6456  58.0599  58.6279  58.6682
    58.7924  58.8284  59.2286  59.3038  59.4066  59.4640  60.2128  60.2680
    60.8227  61.2139  61.2479  61.2667  61.9406  62.1396  62.4901  62.8379
    63.0760  63.4203

          k = 0.0000 0.2533 0.1317 (  3669 PWs)   bands (ev):

   -48.9541 -48.9456 -48.9324 -48.9212 -40.1692 -40.1494 -40.1130 -40.1032
   -39.9003 -39.8751 -39.8184 -39.8083 -11.6905 -11.6623 -11.6280 -11.6094
   -11.5628 -11.5601 -11.4939 -11.4747 -11.2196 -11.2164 -11.1388 -11.1157
    -5.3317  -5.1784  -5.1253  -5.0681  -5.0634  -5.0413  -4.9178  -4.8286
    -4.8187  -4.7314  -4.6914  -4.6764  -4.5909  -4.4402  -4.3228  -4.2880
    -4.2855  -4.2465  -4.2113  -4.1166  -4.0993  -4.0489  -3.9908  -3.9581
    30.8135  30.8508  31.1207  31.3142  31.3445  31.6207  31.6313  31.6881
    31.9164  31.9925  32.1772  32.2284  32.5471  32.5898  32.9639  32.9739
    33.1475  33.2637  33.4015  33.5724  34.3188  34.6862  35.2590  35.4843
    35.5461  35.7762  35.8973  36.0065  36.2137  36.3094  36.9204  36.9360
    37.2362  37.3536  37.4362  37.5692  37.7949  38.0576  38.0632  38.4577
    38.4653  38.6425  39.1939  39.3717  39.8849  39.9803  40.0019  40.0354
    40.1408  40.5687  40.8481  40.8737  40.9337  41.2436  41.5136  41.7315
    41.7599  42.1428  42.1632  42.5925  42.7815  43.0473  43.2747  43.4805
    45.8125  47.3894  51.5300  52.0636  52.6806  53.0806  54.2155  54.6018
    54.7614  55.4358  55.8170  56.0483  56.2669  56.3397  56.6657  56.9599
    57.4115  57.6017  57.7808  57.9351  57.9576  58.1607  58.3373  58.6001
    58.8223  59.3065  59.3534  59.3853  59.7058  60.0708  60.1335  60.3517
    60.7383  60.8603  61.0548  61.4207  61.6204  62.1490  62.3643  62.7405
    62.9496  63.4185

          k = 0.0000 0.2533-0.2634 (  3666 PWs)   bands (ev):

   -48.9429 -48.9429 -48.9313 -48.9313 -40.1596 -40.1596 -40.1103 -40.1103
   -39.8811 -39.8811 -39.8145 -39.8145 -11.6763 -11.6763 -11.6186 -11.6186
   -11.5352 -11.5352 -11.5085 -11.5085 -11.2191 -11.2191 -11.1251 -11.1251
    -5.2533  -5.2533  -5.0940  -5.0940  -5.0411  -5.0411  -4.8415  -4.8415
    -4.7625  -4.7625  -4.6897  -4.6897  -4.5098  -4.5098  -4.3174  -4.3174
    -4.3104  -4.3104  -4.1565  -4.1565  -4.0742  -4.0742  -3.9754  -3.9754
    30.8569  30.8569  31.0024  31.0024  31.6659  31.6659  31.9355  31.9355
    31.9515  31.9515  32.0960  32.0960  32.3719  32.3719  33.0927  33.0927
    33.2343  33.2343  33.3692  33.3692  34.9804  34.9804  35.3766  35.3766
    35.5402  35.5402  35.7691  35.7691  36.5349  36.5349  36.8162  36.8162
    37.2539  37.2539  37.5108  37.5108  37.5588  37.5588  38.1316  38.1316
    38.8424  38.8424  38.9491  38.9491  39.6725  39.6725  39.8993  39.8993
    40.2849  40.2849  41.0472  41.0472  41.3589  41.3589  41.3685  41.3685
    41.9612  41.9612  42.4588  42.4588  42.8186  42.8186  43.2201  43.2201
    48.5111  48.5111  50.7309  50.7309  52.9487  52.9487  53.4243  53.4243
    55.2449  55.2449  55.9874  55.9874  56.2364  56.2364  56.8250  56.8250
    57.7312  57.7312  57.8261  57.8261  58.2777  58.2777  58.4987  58.4987
    59.4380  59.4380  59.7383  59.7383  59.7733  59.7734  60.3858  60.3859
    61.0554  61.0555  61.1990  61.1990  61.5079  61.5081  62.5342  62.5343
    62.6605  62.6611

          k =-0.5000 0.0000 0.0000 (  3722 PWs)   bands (ev):

   -48.9627 -48.9627 -48.9598 -48.9598 -40.1489 -40.1489 -40.1399 -40.1399
   -39.9616 -39.9616 -39.8071 -39.8071 -11.6997 -11.6997 -11.6639 -11.6639
   -11.5909 -11.5909 -11.5728 -11.5728 -11.2430 -11.2430 -11.1640 -11.1640
    -5.4120  -5.4120  -5.1544  -5.1544  -5.0737  -5.0737  -4.8921  -4.8921
    -4.7775  -4.7775  -4.5739  -4.5739  -4.4621  -4.4621  -4.3897  -4.3897
    -4.1857  -4.1857  -4.1241  -4.1241  -4.0678  -4.0678  -3.8175  -3.8175
    30.8523  30.8523  31.1654  31.1654  31.5801  31.5801  31.7348  31.7348
    31.8839  31.8839  31.9783  31.9783  32.0770  32.0770  33.0273  33.0273
    33.2175  33.2175  34.2137  34.2137  34.3021  34.3021  34.3722  34.3722
    35.2373  35.2373  35.9986  35.9986  36.1914  36.1914  36.9433  36.9433
    37.6945  37.6945  37.7982  37.7982  38.2030  38.2030  38.9423  38.9423
    39.1790  39.1790  39.2080  39.2080  39.6257  39.6257  39.8875  39.8875
    40.6996  40.6996  41.1899  41.1899  41.2446  41.2446  41.7700  41.7700
    42.2972  42.2972  42.5661  42.5661  42.9294  42.9294  44.9248  44.9248
    45.1036  45.1036  46.7816  46.7816  51.8077  51.8077  53.6312  53.6312
    53.8261  53.8261  54.9621  54.9621  55.2220  55.2220  56.3106  56.3106
    57.1268  57.1268  57.3315  57.3315  58.3588  58.3588  59.1622  59.1622
    59.5927  59.5927  60.6376  60.6377  61.1736  61.1736  61.2010  61.2010
    61.6348  61.6349  62.2871  62.2872  62.8042  62.8043  62.8808  62.8809
    63.1884  63.1887

          k =-0.5000 0.0000 0.1317 (  3710 PWs)   bands (ev):

   -48.9590 -48.9590 -48.9513 -48.9513 -40.1518 -40.1518 -40.1287 -40.1287
   -39.9543 -39.9543 -39.8052 -39.8052 -11.6975 -11.6975 -11.6614 -11.6614
   -11.5928 -11.5928 -11.5547 -11.5547 -11.2400 -11.2400 -11.1665 -11.1665
    -5.4070  -5.4070  -5.1479  -5.1479  -4.9977  -4.9977  -4.8845  -4.8845
    -4.7693  -4.7693  -4.5870  -4.5870  -4.5381  -4.5381  -4.3535  -4.3535
    -4.1962  -4.1962  -4.1197  -4.1197  -4.0638  -4.0638  -3.8213  -3.8213
    30.9216  30.9216  31.0597  31.0597  31.5413  31.5413  31.8206  31.8206
    31.8865  31.8865  32.0669  32.0669  32.2320  32.2320  32.8889  32.8889
    32.9115  32.9115  34.2905  34.2905  34.6082  34.6082  34.6637  34.6637
    35.1906  35.1906  35.9568  35.9568  36.5693  36.5693  36.7120  36.7120
    37.3225  37.3225  37.5639  37.5639  38.1219  38.1219  38.4719  38.4719
    38.7764  38.7764  39.0367  39.0367  39.5889  39.5889  40.5128  40.5128
    40.8342  40.8342  41.3654  41.3654  41.5950  41.5950  41.8304  41.8304
    42.1975  42.1975  42.6224  42.6224  42.9396  42.9396  43.9078  43.9078
    45.9981  45.9981  47.5236  47.5236  50.5031  50.5031  54.0481  54.0481
    54.4166  54.4166  55.1106  55.1106  55.7527  55.7527  56.2660  56.2660
    56.8148  56.8148  57.0802  57.0802  58.1380  58.1380  58.9048  58.9048
    59.4931  59.4931  60.4492  60.4493  60.8776  60.8777  61.0278  61.0279
    61.5095  61.5095  62.1534  62.1534  62.4235  62.4235  63.0624  63.0625
    64.0669  64.0679

          k =-0.5000 0.0000-0.2634 (  3680 PWs)   bands (ev):

   -48.9427 -48.9427 -48.9388 -48.9388 -40.1376 -40.1376 -40.1222 -40.1222
   -39.9369 -39.9369 -39.8037 -39.8037 -11.6897 -11.6897 -11.6414 -11.6414
   -11.6034 -11.6034 -11.5271 -11.5271 -11.2310 -11.2310 -11.1638 -11.1638
    -5.4148  -5.4148  -5.0917  -5.0917  -4.9723  -4.9723  -4.7949  -4.7949
    -4.7787  -4.7787  -4.6243  -4.6243  -4.5952  -4.5952  -4.3329  -4.3329
    -4.2218  -4.2218  -4.0971  -4.0971  -4.0467  -4.0467  -3.8122  -3.8122
    30.8438  30.8438  31.2103  31.2103  31.4673  31.4673  31.7053  31.7053
    32.0333  32.0333  32.2281  32.2281  32.4507  32.4507  32.5574  32.5574
    32.7586  32.7586  34.4451  34.4451  34.4932  34.4932  35.1485  35.1485
    35.5033  35.5033  35.7138  35.7138  36.5489  36.5489  36.7705  36.7705
    37.1341  37.1341  37.4770  37.4770  37.6565  37.6565  38.2226  38.2226
    38.4064  38.4064  38.9072  38.9072  40.0754  40.0754  40.3796  40.3796
    40.6920  40.6920  41.6222  41.6222  41.9911  41.9911  42.0657  42.0657
    42.5148  42.5148  42.5825  42.5825  42.8273  42.8273  43.1094  43.1094
    46.7829  46.7829  48.5542  48.5542  48.9564  48.9564  54.4134  54.4134
    54.8248  54.8248  55.2212  55.2212  55.4260  55.4260  56.7449  56.7449
    56.8205  56.8205  57.4113  57.4113  57.8417  57.8417  58.3376  58.3376
    59.2686  59.2686  59.4432  59.4433  60.8924  60.8925  61.3012  61.3012
    61.5917  61.5919  62.2176  62.2176  63.0476  63.0476  63.4550  63.4551
    63.5671  63.5675

          k =-0.5000 0.2533 0.0000 (  3686 PWs)   bands (ev):

   -48.9499 -48.9499 -48.9400 -48.9400 -40.1347 -40.1347 -40.1326 -40.1326
   -39.9114 -39.9114 -39.8374 -39.8374 -11.6685 -11.6685 -11.6521 -11.6521
   -11.5676 -11.5676 -11.5613 -11.5613 -11.1909 -11.1909 -11.1462 -11.1462
    -5.2990  -5.2990  -5.2164  -5.2164  -5.0153  -5.0153  -4.8102  -4.8102
    -4.7514  -4.7514  -4.6316  -4.6316  -4.4780  -4.4780  -4.3928  -4.3928
    -4.2035  -4.2035  -4.1440  -4.1440  -4.0401  -4.0401  -3.9887  -3.9887
    31.3892  31.3892  31.3926  31.3926  31.5836  31.5836  31.9135  31.9135
    32.0035  32.0035  32.4447  32.4447  32.7365  32.7365  32.9106  32.9106
    33.3578  33.3578  33.8213  33.8213  34.6321  34.6321  34.8648  34.8648
    35.6719  35.6719  35.8314  35.8314  36.2541  36.2541  37.0436  37.0436
    37.2516  37.2516  37.6318  37.6318  37.7462  37.7462  38.1845  38.1845
    38.4306  38.4306  39.2612  39.2612  39.5971  39.5971  40.0812  40.0812
    40.5553  40.5553  40.6277  40.6277  40.8912  40.8912  41.1190  41.1190
    41.7370  41.7370  41.8249  41.8249  42.4412  42.4412  44.9243  44.9243
    46.7919  46.7919  47.1627  47.1627  49.6893  49.6893  50.3838  50.3838
    55.5075  55.5075  56.4718  56.4718  57.1821  57.1821  57.8908  57.8908
    57.9273  57.9273  58.4578  58.4578  58.5621  58.5621  59.3264  59.3264
    59.4208  59.4208  60.4128  60.4128  60.8787  60.8787  61.1316  61.1316
    61.6544  61.6545  62.4373  62.4374  62.6293  62.6293  63.0984  63.0987
    63.6168  63.6169

          k =-0.5000 0.2533 0.1317 (  3692 PWs)   bands (ev):

   -48.9561 -48.9561 -48.9398 -48.9398 -40.1402 -40.1402 -40.1333 -40.1333
   -39.9131 -39.9131 -39.8370 -39.8370 -11.6742 -11.6742 -11.6471 -11.6471
   -11.5767 -11.5767 -11.5542 -11.5542 -11.2014 -11.2014 -11.1464 -11.1464
    -5.2732  -5.2732  -5.1848  -5.1848  -4.9830  -4.9830  -4.8809  -4.8809
    -4.7705  -4.7705  -4.6385  -4.6385  -4.4775  -4.4775  -4.3482  -4.3482
    -4.1939  -4.1939  -4.1712  -4.1712  -4.0646  -4.0646  -4.0034  -4.0034
    31.2994  31.2994  31.4732  31.4732  31.6248  31.6248  31.9273  31.9273
    32.1040  32.1040  32.3812  32.3812  32.5730  32.5730  32.8316  32.8316
    33.5221  33.5221  33.8700  33.8700  34.8518  34.8518  35.0774  35.0774
    35.7080  35.7080  35.9562  35.9562  36.2564  36.2564  36.6218  36.6218
    37.2654  37.2654  37.3952  37.3952  37.8544  37.8544  38.0619  38.0619
    38.5383  38.5383  38.9508  38.9508  39.3632  39.3632  39.9460  39.9460
    40.0886  40.0886  40.4045  40.4045  40.9471  40.9471  41.2884  41.2884
    41.9578  41.9578  42.2274  42.2274  42.9500  42.9500  45.1803  45.1803
    45.8720  45.8720  47.8005  47.8005  49.0153  49.0153  51.9794  51.9794
    55.6622  55.6622  55.8851  55.8851  56.8625  56.8625  57.3434  57.3434
    57.9472  57.9472  58.2377  58.2377  58.7448  58.7448  59.3875  59.3875
    59.5533  59.5533  60.2776  60.2776  60.6705  60.6705  60.8288  60.8289
    61.7306  61.7307  62.1312  62.1312  62.6130  62.6131  63.0894  63.0894
    63.7204  63.7206

          k =-0.5000 0.2533-0.2634 (  3704 PWs)   bands (ev):

   -48.9649 -48.9649 -48.9436 -48.9436 -40.1449 -40.1449 -40.1354 -40.1354
   -39.9198 -39.9198 -39.8399 -39.8399 -11.6789 -11.6789 -11.6427 -11.6427
   -11.5903 -11.5903 -11.5525 -11.5525 -11.2060 -11.2060 -11.1559 -11.1559
    -5.2655  -5.2655  -5.1137  -5.1137  -4.9848  -4.9848  -4.8801  -4.8801
    -4.8711  -4.8711  -4.6499  -4.6499  -4.4651  -4.4651  -4.3018  -4.3018
    -4.2227  -4.2227  -4.1912  -4.1912  -4.0719  -4.0719  -4.0131  -4.0131
    31.2151  31.2151  31.5892  31.5892  31.6443  31.6443  31.9468  31.9468
    32.1861  32.1861  32.2978  32.2978  32.5340  32.5340  32.7188  32.7188
    33.5598  33.5598  33.9670  33.9670  35.2562  35.2562  35.4340  35.4340
    35.6203  35.6203  35.9130  35.9130  36.0612  36.0612  36.5345  36.5345
    36.7898  36.7898  37.5389  37.5389  37.8219  37.8219  38.1530  38.1530
    38.4660  38.4660  39.0474  39.0474  39.2422  39.2422  39.5114  39.5114
    39.6365  39.6365  40.2168  40.2168  40.8729  40.8729  41.3768  41.3768
    42.3351  42.3351  42.4515  42.4515  44.0022  44.0022  44.3523  44.3523
    46.3900  46.3900  46.9547  46.9547  49.5416  49.5416  53.6144  53.6144
    54.8288  54.8288  55.7578  55.7578  56.4820  56.4820  56.7960  56.7960
    57.9775  57.9775  58.0135  58.0135  58.2601  58.2601  59.7386  59.7386
    59.8802  59.8802  60.1805  60.1805  60.3989  60.3989  61.2207  61.2208
    61.5208  61.5210  62.1297  62.1297  62.4926  62.4927  63.2358  63.2361
    63.5452  63.5456

     the Fermi energy is    57.1120 ev

!    total energy              =   -3644.30865333 Ry
     Harris-Foulkes estimate   =   -3644.30865722 Ry
     estimated scf accuracy    <       0.00000485 Ry

     The total energy is the sum of the following terms:

     one-electron contribution =     152.60577381 Ry
     hartree contribution      =     323.92474040 Ry
     xc contribution           =    -335.66177076 Ry
     ewald contribution        =   -3784.64516966 Ry
     smearing contrib. (-TS)   =      -0.53222712 Ry

     convergence has been achieved in  10 iterations

     Forces acting on atoms (Ry/au):

     atom    1 type  1   force =     0.00000000   -0.05675329   -0.06907722
     atom    2 type  1   force =     0.00000000    0.05675329    0.06907722
     atom    3 type  1   force =     0.00000000   -0.05675329    0.06907722
     atom    4 type  1   force =     0.00000000    0.05675329   -0.06907722
     atom    5 type  1   force =     0.00000000    0.12080127   -0.24775371
     atom    6 type  1   force =     0.00000000   -0.12080127    0.24775371
     atom    7 type  1   force =     0.00000000    0.12080127    0.24775371
     atom    8 type  1   force =     0.00000000   -0.12080127   -0.24775371
     atom    9 type  2   force =     0.00000000   -0.22019015    0.03568544
     atom   10 type  2   force =     0.00000000    0.22019015   -0.03568544
     atom   11 type  2   force =     0.00000000   -0.22019015   -0.03568544
     atom   12 type  2   force =     0.00000000    0.22019015    0.03568544

     Total force =     0.731367     Total SCF correction =     0.000000


     entering subroutine stress ...

          total   stress  (Ry/bohr**3)                   (kbar)     P= 7654.85
   0.05560405   0.00000000   0.00000000       8179.64      0.00      0.00
   0.00000000   0.04903711   0.00000000          0.00   7213.61      0.00
   0.00000000   0.00000000   0.05146861          0.00      0.00   7571.29


     BFGS Geometry Optimization

     number of scf cycles    =   1
     number of bfgs steps    =   0

     enthalpy new            =   -3644.3086533320 Ry

     new trust radius        =       0.5000000000 bohr
     new conv_thr            =       0.0001000000 Ry

     new unit-cell volume =   1085.21558 a.u.^3 (   160.81235 Ang^3 )

CELL_PARAMETERS (alat=  7.01510508)
   1.085136619   0.000000000   0.000000000
   0.000000000   1.414768321   0.000000000
   0.000000000   0.000000000   2.047593442

ATOMIC_POSITIONS (crystal)
Co       0.750000000   0.826024484   0.435418262
Co       0.250000000   0.173975516   0.564581738
Co       0.750000000   0.326024484   0.064581738
Co       0.250000000   0.673975516   0.935418262
Co       0.250000000   0.537887426   0.281205393
Co       0.750000000   0.462112574   0.718794607
Co       0.250000000   0.037887426   0.218794607
Co       0.750000000   0.962112574   0.781205393
Si       0.250000000   0.201393203   0.893764144
Si       0.750000000   0.798606797   0.106235856
Si       0.250000000   0.701393203   0.606235856
Si       0.750000000   0.298606797   0.393764144



     Writing output data file Prototype-La-oP12-Co2Si.save
     NEW-OLD atomic charge density approx. for the potential
     NEW k-points:
        k(    1) = (   0.0000000   0.0000000   0.0000000), wk =   0.0833333
        k(    2) = (   0.0000000   0.0000000   0.1220946), wk =   0.1666667
        k(    3) = (   0.0000000   0.0000000  -0.2441891), wk =   0.0833333
        k(    4) = (   0.0000000   0.2356098   0.0000000), wk =   0.1666667
        k(    5) = (   0.0000000   0.2356098   0.1220946), wk =   0.3333333
        k(    6) = (   0.0000000   0.2356098  -0.2441891), wk =   0.1666667
        k(    7) = (  -0.4607715   0.0000000   0.0000000), wk =   0.0833333
        k(    8) = (  -0.4607715   0.0000000   0.1220946), wk =   0.1666667
        k(    9) = (  -0.4607715   0.0000000  -0.2441891), wk =   0.0833333
        k(   10) = (  -0.4607715   0.2356098   0.0000000), wk =   0.1666667
        k(   11) = (  -0.4607715   0.2356098   0.1220946), wk =   0.3333333
        k(   12) = (  -0.4607715   0.2356098  -0.2441891), wk =   0.1666667

     total cpu time spent up to now is      194.6 secs

     Self-consistent Calculation

     iteration #  1     ecut=    40.00 Ry     beta=0.70
     CG style diagonalization
     c_bands:  2 eigenvalues not converged
     c_bands:  1 eigenvalues not converged
     c_bands:  1 eigenvalues not converged
     ethr =  1.00E-06,  avg # of iterations = 22.1

     total cpu time spent up to now is      256.0 secs

     total energy              =   -3638.07691354 Ry
     Harris-Foulkes estimate   =   -3672.30603014 Ry
     estimated scf accuracy    <      43.36245240 Ry

     iteration #  2     ecut=    40.00 Ry     beta=0.70
     CG style diagonalization
     ethr =  1.00E-02,  avg # of iterations =  4.0

     total cpu time spent up to now is      267.3 secs

     total energy              =   -3650.79828406 Ry
     Harris-Foulkes estimate   =   -3653.89774469 Ry
     estimated scf accuracy    <       4.54665698 Ry

     iteration #  3     ecut=    40.00 Ry     beta=0.70
     CG style diagonalization
     ethr =  1.78E-03,  avg # of iterations =  3.7

     total cpu time spent up to now is      277.6 secs

     total energy              =   -3651.90790515 Ry
     Harris-Foulkes estimate   =   -3651.95737604 Ry
     estimated scf accuracy    <       0.08160053 Ry

     iteration #  4     ecut=    40.00 Ry     beta=0.70
     CG style diagonalization
     c_bands:  1 eigenvalues not converged
     ethr =  3.19E-05,  avg # of iterations =  4.1

     total cpu time spent up to now is      290.2 secs

     total energy              =   -3651.93937244 Ry
     Harris-Foulkes estimate   =   -3651.94749961 Ry
     estimated scf accuracy    <       0.01629942 Ry

     iteration #  5     ecut=    40.00 Ry     beta=0.70
     CG style diagonalization
     ethr =  6.37E-06,  avg # of iterations =  3.8

     total cpu time spent up to now is      300.8 secs

     total energy              =   -3651.94289056 Ry
     Harris-Foulkes estimate   =   -3651.94367885 Ry
     estimated scf accuracy    <       0.00158780 Ry

     iteration #  6     ecut=    40.00 Ry     beta=0.70
     CG style diagonalization
     ethr =  6.20E-07,  avg # of iterations =  3.7

     total cpu time spent up to now is      311.0 secs

     End of self-consistent calculation

          k = 0.0000 0.0000 0.0000 (  3675 PWs)   bands (ev):

   -58.7993 -58.7731 -58.7725 -58.7435 -49.8584 -49.8567 -49.8515 -49.8220
   -49.6780 -49.6291 -49.5713 -49.5620 -21.4562 -21.4378 -21.4355 -21.4308
   -21.4224 -21.4048 -21.4010 -21.3880 -21.2376 -21.2290 -21.2085 -21.1738
   -14.7488 -14.6421 -14.5886 -14.5669 -14.5505 -14.5332 -14.5066 -14.4975
   -14.4688 -14.4113 -14.3344 -14.3296 -14.2950 -14.2495 -14.1475 -14.1457
   -14.1434 -14.0812 -14.0781 -14.0518 -14.0373 -13.9654 -13.8791 -13.8402
    22.3817  22.5826  22.6564  22.6686  22.8783  22.8961  22.9393  22.9936
    23.1562  23.1843  23.2098  23.2318  23.3847  23.4555  23.7613  24.0493
    24.2365  24.2938  24.4088  24.4796  24.6949  25.6334  26.1703  26.2934
    26.5358  26.5596  26.5705  26.8488  27.1125  27.3092  27.3525  27.4034
    27.4986  27.6082  27.9446  28.1677  28.2308  28.4686  28.6393  28.6913
    28.7401  28.7782  28.8065  29.2077  29.3907  29.4989  29.7552  29.8776
    30.2584  30.2942  30.4155  30.5110  30.6106  30.8152  30.9389  30.9827
    31.1883  31.2074  31.3010  31.3877  31.4647  31.5977  31.7128  35.6571
    35.8304  36.1626  36.6154  36.7464  39.4235  39.4918  41.3934  41.4246
    43.2096  43.3869  43.6946  43.7002  43.9456  44.2205  44.4875  45.2453
    45.3627  45.4846  45.6083  45.9804  46.3923  47.1899  47.4390  47.4948
    47.6141  47.6491  47.8417  48.0247  48.0786  48.4064  48.4812  48.4855
    48.9495  49.1709  49.4190  50.0599  50.3568  51.0231  51.3627  51.4023
    51.8585  52.1153

          k = 0.0000 0.0000 0.1221 (  3675 PWs)   bands (ev):

   -58.8103 -58.7694 -58.7691 -58.7415 -49.8764 -49.8490 -49.8331 -49.8280
   -49.6776 -49.6722 -49.5786 -49.5182 -21.4376 -21.4369 -21.4355 -21.4279
   -21.4157 -21.4123 -21.4038 -21.3959 -21.2442 -21.2395 -21.1975 -21.1803
   -14.7312 -14.6455 -14.5960 -14.5794 -14.5685 -14.5395 -14.5115 -14.4611
   -14.4451 -14.4378 -14.3509 -14.3499 -14.2877 -14.2692 -14.1520 -14.1232
   -14.1141 -14.0612 -14.0602 -14.0449 -14.0365 -13.9944 -13.8799 -13.8546
    22.4242  22.4838  22.6896  22.7354  22.7650  22.8806  22.9498  22.9633
    23.2320  23.2566  23.2644  23.3700  23.4273  23.5017  23.7199  23.8363
    24.2864  24.2868  24.3181  24.5954  24.6759  25.6564  26.1399  26.3599
    26.3832  26.5441  26.7406  26.8501  27.0562  27.2238  27.5173  27.5188
    27.5408  27.6742  27.8789  28.0944  28.0959  28.3128  28.4254  28.5922
    28.6621  28.8346  29.1283  29.1446  29.3235  29.5380  29.6057  29.8793
    29.9629  30.1597  30.3034  30.3111  30.3553  30.8832  30.8943  30.9479
    31.1613  31.1830  31.2311  31.3062  31.4570  31.6638  33.5420  35.7386
    35.8740  36.3972  36.4652  37.0498  38.9520  39.8442  39.8872  41.1236
    42.6495  43.7838  43.8380  44.0700  44.2484  44.6244  44.7559  45.2461
    45.3387  45.3989  45.7341  45.7628  46.2755  46.8935  47.3135  47.3265
    47.6996  47.7145  47.8604  48.1528  48.3551  48.4950  48.5587  48.7095
    48.8005  49.4246  49.5544  49.8077  50.3373  50.6931  51.2659  51.4485
    51.4771  51.6988

          k = 0.0000 0.0000-0.2442 (  3690 PWs)   bands (ev):

   -58.8067 -58.8067 -58.7666 -58.7666 -49.8773 -49.8773 -49.8489 -49.8489
   -49.6705 -49.6705 -49.5636 -49.5636 -21.4334 -21.4334 -21.4330 -21.4330
   -21.4198 -21.4198 -21.4066 -21.4066 -21.2592 -21.2592 -21.1953 -21.1953
   -14.7043 -14.7043 -14.5848 -14.5848 -14.5634 -14.5634 -14.4843 -14.4843
   -14.4064 -14.4064 -14.3891 -14.3891 -14.2792 -14.2792 -14.1407 -14.1407
   -14.0861 -14.0861 -14.0580 -14.0580 -14.0414 -14.0414 -13.8774 -13.8774
    22.5012  22.5012  22.5251  22.5251  22.9040  22.9040  23.1619  23.1619
    23.2278  23.2278  23.4126  23.4126  23.4200  23.4200  23.6453  23.6453
    24.2454  24.2454  24.3755  24.3755  25.2745  25.2745  26.1255  26.1255
    26.6398  26.6398  26.8378  26.8378  27.2751  27.2751  27.3569  27.3569
    27.7633  27.7633  27.8871  27.8871  27.9950  27.9950  28.2977  28.2977
    28.8305  28.8305  29.2672  29.2672  29.3913  29.3913  29.7695  29.7695
    29.7968  29.7968  30.2413  30.2413  30.5785  30.5785  30.7517  30.7517
    31.1701  31.1701  31.4924  31.4924  31.5630  31.5630  35.9013  35.9013
    35.9261  35.9261  36.4431  36.4431  38.9337  38.9337  40.2230  40.2230
    43.2852  43.2852  44.0037  44.0037  44.8583  44.8583  44.9098  44.9098
    45.0570  45.0570  45.6154  45.6154  46.9181  46.9181  47.2811  47.2811
    47.5546  47.5546  48.3507  48.3507  48.6132  48.6132  48.8089  48.8089
    48.8953  48.8953  50.0240  50.0240  50.3078  50.3078  50.5017  50.5017
    51.6857  51.6857

          k = 0.0000 0.2356 0.0000 (  3664 PWs)   bands (ev):

   -58.7971 -58.7969 -58.7374 -58.7056 -49.8583 -49.8364 -49.8354 -49.8224
   -49.6431 -49.6163 -49.5789 -49.5656 -21.4450 -21.4375 -21.4278 -21.4248
   -21.4197 -21.3963 -21.3943 -21.3920 -21.2226 -21.2205 -21.1843 -21.1797
   -14.6652 -14.5926 -14.5808 -14.5777 -14.5399 -14.5210 -14.4887 -14.4724
   -14.4716 -14.3809 -14.3734 -14.3439 -14.3347 -14.2227 -14.1221 -14.0987
   -14.0923 -14.0797 -14.0725 -14.0617 -14.0344 -13.9923 -13.9850 -13.9593
    22.6324  22.6649  22.9310  22.9757  23.0184  23.0639  23.1684  23.1981
    23.3080  23.3582  23.3659  23.4636  23.5058  23.6751  23.8769  23.8905
    24.1420  24.1549  24.2110  24.2907  25.1890  25.6357  26.2776  26.2989
    26.6134  26.6167  26.7341  26.9571  27.0475  27.2017  27.4642  27.4851
    27.5239  27.6746  27.8792  28.1470  28.1776  28.2587  28.3501  28.5120
    28.5987  28.6966  29.0930  29.0985  29.2186  29.5006  29.6164  29.7366
    29.8956  29.8968  30.0095  30.3045  30.3362  30.3526  30.6243  30.9182
    31.2145  31.3166  31.3193  31.3565  31.4184  31.6081  31.6245  32.0675
    33.7189  33.9003  38.7206  40.5043  41.4287  41.8506  42.1576  42.7586
    42.8823  43.1045  43.4767  43.4878  43.7911  43.8066  43.9011  43.9825
    44.2925  44.8572  45.2486  45.3509  45.6423  46.4048  47.7324  48.0054
    48.0760  48.2012  48.2585  48.7082  48.7742  49.1792  49.3484  49.4969
    49.6853  49.9369  49.9835  50.1387  50.4109  50.7586  50.8066  51.0965
    51.3915  51.7201

          k = 0.0000 0.2356 0.1221 (  3669 PWs)   bands (ev):

   -58.7901 -58.7846 -58.7575 -58.7310 -49.8671 -49.8528 -49.8291 -49.8191
   -49.6483 -49.6374 -49.5760 -49.5666 -21.4358 -21.4309 -21.4284 -21.4231
   -21.4152 -21.4128 -21.4003 -21.3957 -21.2291 -21.2236 -21.1957 -21.1801
   -14.6731 -14.6155 -14.5819 -14.5753 -14.5545 -14.5419 -14.4822 -14.4668
   -14.4352 -14.3788 -14.3742 -14.3548 -14.3342 -14.2265 -14.1211 -14.1063
   -14.0981 -14.0925 -14.0791 -14.0482 -14.0323 -14.0017 -13.9781 -13.9647
    22.6682  22.6834  22.9010  23.0058  23.0368  23.0465  23.1314  23.1572
    23.3200  23.3521  23.3789  23.4849  23.5535  23.6643  23.8570  23.9559
    24.0406  24.1087  24.1582  24.3476  25.4464  25.7711  26.3852  26.4279
    26.6590  26.6795  26.8053  26.8288  26.9242  27.1694  27.3238  27.4836
    27.5786  27.7023  27.7966  27.8642  28.1216  28.2235  28.2253  28.4396
    28.4896  28.7456  28.9579  29.1288  29.4393  29.4760  29.5909  29.6206
    29.8109  29.9581  30.1387  30.1926  30.2667  30.4748  30.6237  30.6897
    30.8119  31.0314  31.1874  31.2802  31.5069  31.5543  31.6706  32.3499
    34.1588  35.7438  39.1835  39.5351  40.5208  40.8168  41.9779  42.0678
    42.5326  43.0736  43.3063  43.4480  43.7802  44.1034  44.1440  44.5501
    45.2450  45.6944  45.7238  45.9087  45.9339  46.5254  47.1144  47.7762
    48.1092  48.1586  48.3490  48.4650  48.6757  49.0044  49.1298  49.3518
    49.5172  49.8469  49.8552  50.1514  50.3965  50.4854  50.8812  51.2204
    51.3007  51.4329

          k = 0.0000 0.2356-0.2442 (  3666 PWs)   bands (ev):

   -58.7768 -58.7768 -58.7496 -58.7496 -49.8588 -49.8588 -49.8204 -49.8204
   -49.6333 -49.6333 -49.5782 -49.5782 -21.4275 -21.4275 -21.4198 -21.4198
   -21.4108 -21.4108 -21.4080 -21.4080 -21.2256 -21.2256 -21.1870 -21.1870
   -14.6442 -14.6442 -14.5679 -14.5679 -14.5564 -14.5564 -14.4695 -14.4695
   -14.4036 -14.4036 -14.3542 -14.3542 -14.2775 -14.2775 -14.1132 -14.1132
   -14.1019 -14.1019 -14.0642 -14.0642 -14.0272 -14.0272 -13.9654 -13.9654
    22.7389  22.7389  22.7966  22.7966  23.1744  23.1744  23.2057  23.2057
    23.3417  23.3417  23.3783  23.3783  23.5611  23.5611  23.9053  23.9053
    24.0428  24.0428  24.2653  24.2653  25.9527  25.9527  26.3200  26.3200
    26.6618  26.6618  26.8136  26.8136  27.0996  27.0996  27.3274  27.3274
    27.6500  27.6500  27.8165  27.8165  27.8635  27.8635  28.3473  28.3473
    28.8209  28.8209  28.8333  28.8333  29.3521  29.3521  29.3916  29.3916
    29.8468  29.8468  30.2944  30.2944  30.4602  30.4602  30.5965  30.5965
    30.9402  30.9402  31.1457  31.1457  31.6605  31.6605  31.7339  31.7339
    36.5231  36.5231  38.4676  38.4676  40.4074  40.4074  41.2081  41.2081
    43.0033  43.0033  43.4522  43.4522  43.6590  43.6590  44.8969  44.8969
    45.8884  45.8884  46.3798  46.3798  46.4062  46.4062  47.6845  47.6845
    47.9368  47.9368  48.0160  48.0160  48.5267  48.5267  48.8315  48.8316
    49.6497  49.6498  50.3115  50.3115  50.5176  50.5176  51.1070  51.1072
    51.2007  51.2010

          k =-0.4608 0.0000 0.0000 (  3722 PWs)   bands (ev):

   -58.8259 -58.8259 -58.8194 -58.8194 -49.8908 -49.8908 -49.8782 -49.8782
   -49.6835 -49.6835 -49.6225 -49.6225 -21.4589 -21.4589 -21.4458 -21.4458
   -21.4414 -21.4414 -21.4354 -21.4354 -21.2359 -21.2359 -21.2101 -21.2101
   -14.7093 -14.7093 -14.6522 -14.6522 -14.5939 -14.5939 -14.4967 -14.4967
   -14.4520 -14.4520 -14.3556 -14.3556 -14.2796 -14.2796 -14.1659 -14.1659
   -14.0880 -14.0880 -14.0635 -14.0635 -14.0196 -14.0196 -13.8773 -13.8773
    22.6805  22.6805  22.7677  22.7677  23.0878  23.0878  23.1439  23.1439
    23.2358  23.2358  23.3032  23.3032  23.3254  23.3254  23.9303  23.9303
    24.0519  24.0519  24.7604  24.7604  25.4302  25.4302  25.8272  25.8272
    26.4284  26.4284  26.8753  26.8753  27.0165  27.0165  27.7260  27.7260
    28.1104  28.1104  28.1535  28.1535  28.5477  28.5477  28.9214  28.9214
    29.0228  29.0228  29.2501  29.2501  29.3364  29.3364  29.4892  29.4892
    29.9221  29.9221  30.3631  30.3631  30.3853  30.3853  30.6894  30.6894
    31.0793  31.0793  31.2353  31.2353  31.5885  31.5885  33.5633  33.5633
    33.7216  33.7216  35.5838  35.5838  39.2661  39.2661  41.1052  41.1052
    41.5892  41.5892  41.9834  41.9834  42.8920  42.8920  44.8070  44.8070
    45.0157  45.0157  46.6449  46.6449  47.5090  47.5090  47.6064  47.6064
    48.4281  48.4281  49.1115  49.1115  49.2824  49.2824  49.9572  49.9572
    50.1853  50.1853  50.7331  50.7331  51.0941  51.0941  51.7743  51.7743
    51.9868  51.9869

          k =-0.4608 0.0000 0.1221 (  3710 PWs)   bands (ev):

   -58.8115 -58.8115 -58.8079 -58.8079 -49.8893 -49.8893 -49.8589 -49.8589
   -49.6758 -49.6758 -49.6108 -49.6108 -21.4590 -21.4590 -21.4443 -21.4443
   -21.4299 -21.4299 -21.4237 -21.4237 -21.2326 -21.2326 -21.2116 -21.2116
   -14.7036 -14.7036 -14.6504 -14.6504 -14.5521 -14.5521 -14.5081 -14.5081
   -14.4316 -14.4316 -14.3582 -14.3582 -14.3002 -14.3002 -14.1518 -14.1518
   -14.0927 -14.0927 -14.0518 -14.0518 -14.0152 -14.0152 -13.8825 -13.8825
    22.6859  22.6859  22.7486  22.7486  23.0722  23.0722  23.2037  23.2037
    23.2404  23.2404  23.3054  23.3054  23.4298  23.4298  23.8117  23.8117
    24.0054  24.0054  24.7577  24.7577  25.5355  25.5355  26.0285  26.0285
    26.4005  26.4005  26.8954  26.8954  27.2878  27.2878  27.5441  27.5441
    27.8979  27.8979  28.0855  28.0855  28.3997  28.3997  28.4840  28.4840
    28.7322  28.7322  28.9960  28.9960  29.3092  29.3092  29.9611  29.9611
    30.2528  30.2528  30.5273  30.5273  30.6717  30.6717  30.7340  30.7340
    30.9224  30.9224  31.2495  31.2495  31.6090  31.6090  32.5679  32.5679
    34.7920  34.7920  36.0836  36.0836  38.3995  38.3995  41.2398  41.2398
    41.4134  41.4134  42.5549  42.5549  42.9532  42.9532  43.7364  43.7364
    46.0313  46.0313  46.9986  46.9986  47.3839  47.3839  47.5837  47.5837
    48.0361  48.0361  48.2160  48.2160  49.3919  49.3919  49.7045  49.7045
    50.3107  50.3107  51.0330  51.0330  51.1376  51.1376  51.7223  51.7223
    52.5605  52.5605

          k =-0.4608 0.0000-0.2442 (  3680 PWs)   bands (ev):

   -58.7894 -58.7894 -58.7688 -58.7688 -49.8571 -49.8571 -49.8451 -49.8451
   -49.6276 -49.6276 -49.6123 -49.6123 -21.4462 -21.4462 -21.4310 -21.4310
   -21.4205 -21.4205 -21.4068 -21.4068 -21.2210 -21.2210 -21.2095 -21.2095
   -14.7101 -14.7101 -14.6205 -14.6205 -14.5235 -14.5235 -14.4852 -14.4852
   -14.3969 -14.3969 -14.3682 -14.3682 -14.3273 -14.3273 -14.1211 -14.1211
   -14.1138 -14.1138 -14.0395 -14.0395 -13.9858 -13.9858 -13.8701 -13.8701
    22.6241  22.6241  22.8437  22.8437  23.0636  23.0636  23.1176  23.1176
    23.3061  23.3061  23.4278  23.4278  23.5281  23.5281  23.6257  23.6257
    23.9618  23.9618  24.7614  24.7614  25.6152  25.6152  26.2764  26.2764
    26.4724  26.4724  26.8630  26.8630  27.5208  27.5208  27.5309  27.5309
    27.7321  27.7321  27.7503  27.7503  28.0350  28.0350  28.3564  28.3564
    28.6621  28.6621  28.7457  28.7457  29.7002  29.7002  29.8421  29.8421
    30.2519  30.2519  30.5970  30.5970  30.7247  30.7247  31.1321  31.1321
    31.3015  31.3015  31.3066  31.3066  31.5729  31.5729  31.7204  31.7204
    35.5645  35.5645  37.0130  37.0130  37.1470  37.1470  41.1918  41.1918
    41.4724  41.4724  41.7626  41.7626  43.7050  43.7050  44.6653  44.6653
    45.1225  45.1225  46.9501  46.9501  47.0808  47.0808  47.7299  47.7299
    47.7482  47.7482  48.7794  48.7794  49.2325  49.2325  49.5552  49.5552
    49.8471  49.8471  51.2374  51.2374  51.7396  51.7396  51.8517  51.8517
    52.2153  52.2153

          k =-0.4608 0.2356 0.0000 (  3686 PWs)   bands (ev):

   -58.7961 -58.7961 -58.7815 -58.7815 -49.8634 -49.8634 -49.8554 -49.8554
   -49.6383 -49.6383 -49.6171 -49.6171 -21.4475 -21.4475 -21.4396 -21.4396
   -21.4232 -21.4232 -21.4217 -21.4217 -21.2091 -21.2091 -21.1939 -21.1939
   -14.6680 -14.6680 -14.6237 -14.6237 -14.5632 -14.5632 -14.4893 -14.4893
   -14.3960 -14.3960 -14.3447 -14.3447 -14.2578 -14.2578 -14.1669 -14.1669
   -14.1056 -14.1056 -14.0551 -14.0551 -13.9949 -13.9949 -13.9669 -13.9669
    22.8835  22.8835  22.9400  22.9400  23.1033  23.1033  23.2503  23.2503
    23.3391  23.3391  23.5864  23.5864  23.7111  23.7111  23.9189  23.9189
    24.1920  24.1920  24.4915  24.4915  25.8958  25.8958  25.9798  25.9798
    26.6783  26.6783  26.9517  26.9517  27.1394  27.1394  27.6806  27.6806
    27.8218  27.8218  27.9914  27.9914  28.0820  28.0820  28.4948  28.4948
    28.5886  28.5886  29.0875  29.0875  29.3277  29.3277  29.5375  29.5375
    29.8930  29.8930  29.9556  29.9556  30.1242  30.1242  30.4391  30.4391
    30.8249  30.8249  30.9197  30.9197  31.4152  31.4152  33.5332  33.5332
    34.9757  34.9757  35.2039  35.2039  37.5515  37.5515  37.9219  37.9219
    43.8764  43.8764  44.8274  44.8274  45.1319  45.1319  45.7558  45.7558
    46.1703  46.1703  46.8843  46.8843  47.1235  47.1235  48.0808  48.0808
    48.0855  48.0855  48.3071  48.3071  48.7390  48.7390  49.6836  49.6836
    50.3377  50.3377  50.7253  50.7253  51.1660  51.1660  51.4701  51.4701
    52.2455  52.2455

          k =-0.4608 0.2356 0.1221 (  3692 PWs)   bands (ev):

   -58.8136 -58.8136 -58.7752 -58.7752 -49.8665 -49.8665 -49.8606 -49.8606
   -49.6455 -49.6455 -49.6166 -49.6166 -21.4466 -21.4466 -21.4385 -21.4385
   -21.4262 -21.4262 -21.4215 -21.4215 -21.2208 -21.2208 -21.1940 -21.1940
   -14.6576 -14.6576 -14.6140 -14.6140 -14.5521 -14.5521 -14.5103 -14.5103
   -14.4038 -14.4038 -14.3613 -14.3613 -14.2554 -14.2554 -14.1497 -14.1497
   -14.0930 -14.0930 -14.0719 -14.0719 -14.0103 -14.0103 -13.9774 -13.9774
    22.8515  22.8515  22.9782  22.9782  23.1208  23.1208  23.2990  23.2990
    23.3811  23.3811  23.5623  23.5623  23.6442  23.6442  23.8129  23.8129
    24.2635  24.2635  24.5097  24.5097  26.0032  26.0032  26.1731  26.1731
    26.7064  26.7064  27.0070  27.0070  27.1280  27.1280  27.4503  27.4503
    27.7667  27.7667  27.8985  27.8985  28.1317  28.1317  28.3183  28.3183
    28.6881  28.6881  28.9055  28.9055  29.1827  29.1827  29.5308  29.5308
    29.6017  29.6017  29.8703  29.8703  30.2163  30.2163  30.5306  30.5306
    30.8935  30.8935  31.1230  31.1230  31.7901  31.7901  33.6028  33.6028
    34.1595  34.1595  35.9099  35.9099  36.8788  36.8788  39.5043  39.5043
    43.1215  43.1215  43.8874  43.8874  44.4199  44.4199  45.4945  45.4945
    46.3530  46.3530  47.1746  47.1746  47.8055  47.8055  48.0592  48.0592
    48.3423  48.3423  48.6974  48.6974  49.2706  49.2706  49.8153  49.8153
    50.3481  50.3481  50.3722  50.3722  51.0967  51.0967  51.4100  51.4100
    51.8749  51.8749

          k =-0.4608 0.2356-0.2442 (  3704 PWs)   bands (ev):

   -58.8316 -58.8316 -58.7825 -58.7825 -49.8789 -49.8789 -49.8663 -49.8663
   -49.6572 -49.6572 -49.6234 -49.6234 -21.4487 -21.4487 -21.4367 -21.4367
   -21.4345 -21.4345 -21.4250 -21.4250 -21.2243 -21.2243 -21.2058 -21.2058
   -14.6604 -14.6604 -14.5853 -14.5853 -14.5674 -14.5674 -14.5144 -14.5144
   -14.4377 -14.4377 -14.3776 -14.3776 -14.2526 -14.2526 -14.1235 -14.1235
   -14.1115 -14.1115 -14.0870 -14.0870 -14.0093 -14.0093 -13.9848 -13.9848
    22.8234  22.8234  23.0090  23.0090  23.1539  23.1539  23.3356  23.3356
    23.4637  23.4637  23.4842  23.4842  23.6312  23.6312  23.7032  23.7032
    24.2875  24.2875  24.5395  24.5395  26.1667  26.1667  26.4802  26.4802
    26.6469  26.6469  26.9907  26.9907  27.0599  27.0599  27.3288  27.3288
    27.4725  27.4725  27.9834  27.9834  28.0645  28.0645  28.3858  28.3858
    28.5942  28.5942  29.0417  29.0417  29.0981  29.0981  29.2887  29.2887
    29.3822  29.3822  29.7732  29.7732  30.1362  30.1362  30.5877  30.5877
    31.1001  31.1001  31.2573  31.2573  32.5635  32.5635  32.8043  32.8043
    34.7256  34.7256  35.0486  35.0486  37.6224  37.6224  40.8604  40.8604
    42.2647  42.2647  42.5480  42.5480  44.3093  44.3093  44.9851  44.9851
    46.3400  46.3400  47.5793  47.5793  48.0291  48.0291  48.6762  48.6762
    48.8588  48.8588  48.9697  48.9697  49.2599  49.2599  49.6466  49.6466
    50.3113  50.3113  50.4270  50.4270  50.8056  50.8056  51.1931  51.1931
    51.6245  51.6245

     the Fermi energy is    45.2407 ev

!    total energy              =   -3651.94322980 Ry
     Harris-Foulkes estimate   =   -3651.94326773 Ry
     estimated scf accuracy    <       0.00005427 Ry

     The total energy is the sum of the following terms:

     one-electron contribution =    -236.45328029 Ry
     hartree contribution      =     419.22747550 Ry
     xc contribution           =    -328.24845980 Ry
     ewald contribution        =   -3506.10007138 Ry
     smearing contrib. (-TS)   =      -0.36889384 Ry

     convergence has been achieved in   6 iterations

     Forces acting on atoms (Ry/au):

     atom    1 type  1   force =     0.00000000   -0.03376571   -0.04724656
     atom    2 type  1   force =     0.00000000    0.03376571    0.04724656
     atom    3 type  1   force =     0.00000000   -0.03376571    0.04724656
     atom    4 type  1   force =     0.00000000    0.03376571   -0.04724656
     atom    5 type  1   force =     0.00000000    0.06954413   -0.14206921
     atom    6 type  1   force =     0.00000000   -0.06954413    0.14206921
     atom    7 type  1   force =     0.00000000    0.06954413    0.14206921
     atom    8 type  1   force =     0.00000000   -0.06954413   -0.14206921
     atom    9 type  2   force =     0.00000000   -0.11462674    0.02074691
     atom   10 type  2   force =     0.00000000    0.11462674   -0.02074691
     atom   11 type  2   force =     0.00000000   -0.11462674   -0.02074691
     atom   12 type  2   force =     0.00000000    0.11462674    0.02074691

     Total force =     0.409693     Total SCF correction =     0.000000


     entering subroutine stress ...

          total   stress  (Ry/bohr**3)                   (kbar)     P= 2822.60
   0.02179615   0.00000000   0.00000000       3206.32      0.00      0.00
   0.00000000   0.01731971   0.00000000          0.00   2547.82      0.00
   0.00000000   0.00000000   0.01844706          0.00      0.00   2713.66


     number of scf cycles    =   2
     number of bfgs steps    =   1

     enthalpy old            =   -3644.3086533321 Ry
     enthalpy new            =   -3651.9432298037 Ry

     CASE: enthalpy_new < enthalpy_old

     small trust_radius: resetting bfgs history

     new trust radius        =       3.5901107268 bohr
     new conv_thr            =       0.0001000000 Ry

     new unit-cell volume =   3510.46095 a.u.^3 (   520.19664 Ang^3 )

CELL_PARAMETERS (alat=  7.01510508)
   1.676431696   0.000000000   0.000000000
   0.000000000   2.027352828   0.000000000
   0.000000000   0.000000000   2.991895379

ATOMIC_POSITIONS (crystal)
Co       0.750000000   0.822622311   0.432129047
Co       0.250000000   0.177377689   0.567870953
Co       0.750000000   0.322622311   0.067870953
Co       0.250000000   0.677377689   0.932129047
Co       0.250000000   0.544894569   0.271314806
Co       0.750000000   0.455105431   0.728685194
Co       0.250000000   0.044894569   0.228685194
Co       0.750000000   0.955105431   0.771314806
Si       0.250000000   0.189843617   0.895208505
Si       0.750000000   0.810156383   0.104791495
Si       0.250000000   0.689843617   0.604791495
Si       0.750000000   0.310156383   0.395208505



     Writing output data file Prototype-La-oP12-Co2Si.save
     NEW-OLD atomic charge density approx. for the potential
     NEW k-points:
        k(    1) = (   0.0000000   0.0000000   0.0000000), wk =   0.0833333
        k(    2) = (   0.0000000   0.0000000   0.0835591), wk =   0.1666667
        k(    3) = (   0.0000000   0.0000000  -0.1671181), wk =   0.0833333
        k(    4) = (   0.0000000   0.1644180   0.0000000), wk =   0.1666667
        k(    5) = (   0.0000000   0.1644180   0.0835591), wk =   0.3333333
        k(    6) = (   0.0000000   0.1644180  -0.1671181), wk =   0.1666667
        k(    7) = (  -0.2982525   0.0000000   0.0000000), wk =   0.0833333
        k(    8) = (  -0.2982525   0.0000000   0.0835591), wk =   0.1666667
        k(    9) = (  -0.2982525   0.0000000  -0.1671181), wk =   0.0833333
        k(   10) = (  -0.2982525   0.1644180   0.0000000), wk =   0.1666667
        k(   11) = (  -0.2982525   0.1644180   0.0835591), wk =   0.3333333
        k(   12) = (  -0.2982525   0.1644180  -0.1671181), wk =   0.1666667

     total cpu time spent up to now is      315.6 secs

     Self-consistent Calculation

     iteration #  1     ecut=    40.00 Ry     beta=0.70
     CG style diagonalization
     c_bands:  3 eigenvalues not converged
     c_bands:  4 eigenvalues not converged
     c_bands:  4 eigenvalues not converged
     ethr =  1.00E-06,  avg # of iterations = 33.6

     total cpu time spent up to now is      412.2 secs

     total energy              =   -3498.18736213 Ry
     Harris-Foulkes estimate   =   -3969.57818891 Ry
     estimated scf accuracy    <     591.99681905 Ry

     iteration #  2     ecut=    40.00 Ry     beta=0.70
     CG style diagonalization
     ethr =  1.00E-02,  avg # of iterations =  5.3

     total cpu time spent up to now is      429.2 secs

     total energy              =   -3607.56062249 Ry
     Harris-Foulkes estimate   =   -3618.22520028 Ry
     estimated scf accuracy    <      13.86453642 Ry

     iteration #  3     ecut=    40.00 Ry     beta=0.70
     CG style diagonalization
     ethr =  5.42E-03,  avg # of iterations =  3.8

     total cpu time spent up to now is      441.4 secs

     total energy              =   -3611.06978809 Ry
     Harris-Foulkes estimate   =   -3614.98870262 Ry
     estimated scf accuracy    <       7.74315713 Ry

     iteration #  4     ecut=    40.00 Ry     beta=0.70
     CG style diagonalization
     ethr =  3.02E-03,  avg # of iterations =  3.6

     total cpu time spent up to now is      453.2 secs

     total energy              =   -3612.74638662 Ry
     Harris-Foulkes estimate   =   -3613.00473047 Ry
     estimated scf accuracy    <       0.49156912 Ry

     iteration #  5     ecut=    40.00 Ry     beta=0.70
     CG style diagonalization
     ethr =  1.92E-04,  avg # of iterations =  3.8

     total cpu time spent up to now is      464.6 secs

     total energy              =   -3612.85781741 Ry
     Harris-Foulkes estimate   =   -3612.88549602 Ry
     estimated scf accuracy    <       0.04844740 Ry

     iteration #  6     ecut=    40.00 Ry     beta=0.70
     CG style diagonalization
     c_bands:  2 eigenvalues not converged
     c_bands:  1 eigenvalues not converged
     c_bands:  1 eigenvalues not converged
     ethr =  1.89E-05,  avg # of iterations =  3.9

     total cpu time spent up to now is      476.6 secs

     total energy              =   -3612.87012069 Ry
     Harris-Foulkes estimate   =   -3612.87601087 Ry
     estimated scf accuracy    <       0.01170490 Ry

     iteration #  7     ecut=    40.00 Ry     beta=0.70
     CG style diagonalization
     ethr =  4.57E-06,  avg # of iterations =  3.6

     total cpu time spent up to now is      487.2 secs

     total energy              =   -3612.87245644 Ry
     Harris-Foulkes estimate   =   -3612.87284797 Ry
     estimated scf accuracy    <       0.00059798 Ry

     iteration #  8     ecut=    40.00 Ry     beta=0.70
     CG style diagonalization
     ethr =  2.34E-07,  avg # of iterations =  4.1

     total cpu time spent up to now is      499.2 secs

     total energy              =   -3612.87268185 Ry
     Harris-Foulkes estimate   =   -3612.87276301 Ry
     estimated scf accuracy    <       0.00012846 Ry

     iteration #  9     ecut=    40.00 Ry     beta=0.70
     CG style diagonalization
     ethr =  5.02E-08,  avg # of iterations =  3.4

     total cpu time spent up to now is      508.8 secs

     End of self-consistent calculation

          k = 0.0000 0.0000 0.0000 (  3675 PWs)   bands (ev):

   -87.7724 -87.7416 -87.7170 -87.6671 -76.9815 -76.9446 -76.9051 -76.8677
   -76.8311 -76.7503 -76.7436 -76.6798 -57.8958 -57.8158 -57.8032 -57.7863
   -57.7555 -57.7028 -57.6923 -57.6911 -57.2257 -57.1636 -57.1092 -57.0891
   -48.4419 -48.4303 -48.4265 -48.4251 -48.3821 -48.3795 -48.3790 -48.3635
   -48.3533 -48.3515 -48.3462 -48.3291 -48.3246 -48.3238 -48.3043 -48.2589
   -48.0643 -48.0433 -48.0285 -48.0090 -47.9329 -47.9303 -47.9291 -47.9033
    -5.3448  -5.2717  -5.1849  -5.1595  -5.0845  -5.0252  -4.9938  -4.9740
    -4.5134  -4.5015  -4.4707  -4.4191  -4.3974  -4.3367  -4.2936  -4.1646
    -4.0514  -3.9185  -3.9015  -3.8680  -1.0827  -0.9556  -0.8870  -0.8403
    -0.7820  -0.7464  -0.7366  -0.7335  -0.7227  -0.6889  -0.6308  -0.5784
    -0.5770  -0.5383  -0.4655  -0.3404  -0.3337  -0.3314  -0.2994  -0.2797
    -0.2662  -0.2311  -0.1978  -0.1381  -0.0966  -0.0747  -0.0674  -0.0503
    -0.0479  -0.0238  -0.0119   0.0253   0.0442   0.0600   0.0863   0.1715
     0.2456   0.2732   0.3681   0.3792   3.0199   4.1340   4.2711   5.0640
     6.4241   6.4540   7.3415   7.3945   7.4362   7.4976   7.7904   7.9843
     8.5017   9.5166  10.0878  10.0922  10.1019  10.1817  10.2145  10.5863
    10.8294  10.8398  11.1356  11.2067  11.5100  12.0899  12.3434  12.3666
    12.7091  12.8220  12.8350  13.3770  13.5752  13.7183  14.0159  14.4334
    14.6711  14.7905  14.8241  14.8473  15.6126  15.7462  15.9525  16.4633
    16.8616  18.1199

          k = 0.0000 0.0000 0.0836 (  3675 PWs)   bands (ev):

   -87.7777 -87.7331 -87.7074 -87.6949 -77.0061 -76.9674 -76.9347 -76.8464
   -76.7983 -76.7731 -76.7336 -76.6680 -57.8915 -57.8358 -57.8348 -57.8023
   -57.7331 -57.7234 -57.7014 -57.6418 -57.1929 -57.1576 -57.1118 -57.0513
   -48.4507 -48.4418 -48.4301 -48.4214 -48.3953 -48.3871 -48.3823 -48.3785
   -48.3633 -48.3412 -48.3382 -48.3152 -48.3101 -48.3023 -48.2987 -48.2809
   -48.0530 -48.0428 -48.0394 -47.9547 -47.9378 -47.9345 -47.9008 -47.8846
    -5.2713  -5.2362  -5.2114  -5.1785  -5.1266  -5.1064  -5.0331  -5.0007
    -4.6037  -4.5876  -4.4534  -4.3886  -4.3851  -4.2945  -4.2233  -4.1405
    -4.0364  -4.0043  -3.7916  -3.7585  -1.0384  -1.0328  -0.8932  -0.8735
    -0.8036  -0.7631  -0.7204  -0.7084  -0.6945  -0.6710  -0.6425  -0.6121
    -0.5678  -0.5591  -0.5175  -0.4087  -0.4078  -0.3471  -0.3001  -0.2866
    -0.2237  -0.2144  -0.1889  -0.1631  -0.1379  -0.1054  -0.0491  -0.0386
    -0.0170  -0.0033   0.0181   0.0354   0.0660   0.1308   0.1341   0.1920
     0.2920   0.3109   0.4284   0.4773   3.0984   3.6994   4.7251   5.0679
     6.4129   6.5895   7.1167   7.1704   7.2787   7.4604   7.8858   8.4523
     8.6195   9.3443   9.4330   9.9605  10.2267  10.3668  10.4175  10.7692
    10.7722  11.0065  11.1708  11.1729  11.3871  11.8776  12.0396  12.4618
    12.6411  12.7360  13.2833  13.7195  13.8990  13.9324  13.9428  14.0978
    14.3407  14.8406  14.9327  15.2389  15.3174  15.7253  16.0436  16.4554
    16.8903  17.0854

          k = 0.0000 0.0000-0.1671 (  3690 PWs)   bands (ev):

   -87.7937 -87.7937 -87.7306 -87.7306 -77.0428 -77.0428 -76.9057 -76.9057
   -76.8195 -76.8195 -76.7321 -76.7321 -57.8886 -57.8886 -57.8402 -57.8402
   -57.7281 -57.7281 -57.6845 -57.6845 -57.1670 -57.1670 -57.0561 -57.0561
   -48.4587 -48.4587 -48.4343 -48.4343 -48.4084 -48.4084 -48.3836 -48.3836
   -48.3734 -48.3734 -48.3418 -48.3418 -48.2893 -48.2893 -48.2796 -48.2796
   -48.0314 -48.0314 -47.9870 -47.9870 -47.9298 -47.9298 -47.8875 -47.8875
    -5.3444  -5.3444  -5.2548  -5.2548  -5.1533  -5.1533  -5.1382  -5.1382
    -4.5658  -4.5658  -4.3959  -4.3959  -4.2542  -4.2542  -4.1765  -4.1765
    -4.0591  -4.0591  -3.8111  -3.8111  -1.0414  -1.0414  -0.9325  -0.9325
    -0.8599  -0.8599  -0.8200  -0.8200  -0.7340  -0.7340  -0.7171  -0.7171
    -0.6133  -0.6133  -0.4389  -0.4389  -0.3648  -0.3648  -0.2635  -0.2635
    -0.2026  -0.2026  -0.1463  -0.1463  -0.0781  -0.0781  -0.0434  -0.0434
    -0.0088  -0.0088   0.0618   0.0618   0.0790   0.0790   0.1572   0.1572
     0.2369   0.2369   0.4667   0.4667   3.3220   3.3220   5.0292   5.0292
     6.6631   6.6631   6.8577   6.8577   7.1954   7.1954   8.4700   8.4700
     8.9415   8.9415   9.5904   9.5904  10.2380  10.2380  10.5459  10.5459
    10.7686  10.7686  11.1765  11.1765  12.2429  12.2429  12.3024  12.3024
    12.6570  12.6570  12.6752  12.6752  14.1927  14.1927  14.2811  14.2811
    14.7944  14.7944  15.0878  15.0878  15.6882  15.6882  16.0755  16.0755
    16.9205  16.9205

          k = 0.0000 0.1644 0.0000 (  3664 PWs)   bands (ev):

   -87.7805 -87.7382 -87.6578 -87.6493 -76.9691 -76.9284 -76.9110 -76.8735
   -76.7529 -76.7341 -76.6998 -76.6814 -57.8598 -57.8426 -57.8116 -57.7860
   -57.7517 -57.7335 -57.6389 -57.6314 -57.2040 -57.1234 -57.0962 -57.0664
   -48.4398 -48.4184 -48.4163 -48.4061 -48.3869 -48.3851 -48.3789 -48.3708
   -48.3614 -48.3498 -48.3298 -48.3245 -48.3155 -48.3093 -48.2762 -48.2592
   -48.0447 -48.0393 -48.0365 -47.9674 -47.9588 -47.9363 -47.8825 -47.8599
    -5.2346  -5.2278  -5.1572  -5.1571  -5.0629  -5.0164  -5.0142  -4.9493
    -4.5897  -4.4867  -4.4573  -4.4265  -4.3773  -4.3300  -4.1939  -4.1397
    -4.0007  -3.9356  -3.7738  -3.7734  -0.9700  -0.9113  -0.8547  -0.8332
    -0.8205  -0.7627  -0.7207  -0.7192  -0.6595  -0.6595  -0.6414  -0.5952
    -0.5619  -0.4806  -0.4710  -0.3935  -0.3652  -0.3489  -0.2906  -0.2692
    -0.2478  -0.2318  -0.1722  -0.1291  -0.1222  -0.0985  -0.0770  -0.0247
    -0.0083   0.0231   0.0358   0.0573   0.0604   0.0751   0.1153   0.2143
     0.2939   0.3261   0.4664   0.4959   3.3140   4.1062   4.4376   4.4393
     5.8815   5.9633   7.0787   7.1759   7.5340   7.7586   8.4530   8.5016
     8.9123   9.9149   9.9845  10.0580  10.1706  10.3613  10.3759  10.3916
    10.6782  11.1873  11.4771  11.6690  11.7031  12.2071  12.3047  12.4082
    12.7793  12.9438  13.2823  13.3363  13.4437  13.8187  13.8682  14.1695
    14.5295  14.5678  14.7616  15.0949  15.1891  15.3472  15.6776  15.8290
    16.0368  16.5524

          k = 0.0000 0.1644 0.0836 (  3669 PWs)   bands (ev):

   -87.7774 -87.7404 -87.6956 -87.6612 -77.0056 -76.9357 -76.9063 -76.8550
   -76.7885 -76.7645 -76.7102 -76.6861 -57.8585 -57.8415 -57.8303 -57.8168
   -57.7405 -57.7108 -57.6972 -57.6408 -57.1818 -57.1225 -57.0837 -57.0469
   -48.4475 -48.4222 -48.4202 -48.4084 -48.4001 -48.3952 -48.3919 -48.3753
   -48.3582 -48.3521 -48.3329 -48.3237 -48.3196 -48.3033 -48.2808 -48.2765
   -48.0563 -48.0409 -47.9832 -47.9661 -47.9441 -47.9227 -47.8794 -47.8645
    -5.2603  -5.2439  -5.2160  -5.1624  -5.1021  -5.0715  -5.0444  -5.0025
    -4.5807  -4.4924  -4.4487  -4.4321  -4.3898  -4.2995  -4.2003  -4.1230
    -3.9593  -3.8958  -3.8211  -3.7467  -0.9425  -0.9237  -0.9084  -0.8523
    -0.8050  -0.7834  -0.7425  -0.7292  -0.7005  -0.6819  -0.6515  -0.6301
    -0.6196  -0.5539  -0.4847  -0.4405  -0.3761  -0.3140  -0.2767  -0.2532
    -0.2325  -0.2099  -0.1890  -0.1638  -0.1588  -0.0707  -0.0375  -0.0349
    -0.0281  -0.0027   0.0231   0.0507   0.0748   0.1347   0.1579   0.2180
     0.2957   0.3210   0.4682   0.5325   3.3888   3.9341   4.2957   4.5948
     5.9026   6.3177   6.9886   7.2193   7.4223   7.7776   8.1477   8.3829
     9.0224   9.7610   9.8692   9.8917  10.1197  10.2326  10.4041  10.6138
    11.3058  11.4345  11.5234  11.5359  11.9157  12.1134  12.3079  12.5056
    12.6838  12.7701  13.0569  13.2937  13.4523  13.7780  13.8338  14.2444
    14.6246  14.6425  14.9252  14.9954  15.1798  15.4072  15.5530  15.6970
    15.8769  16.3273

          k = 0.0000 0.1644-0.1671 (  3666 PWs)   bands (ev):

   -87.7347 -87.7347 -87.6892 -87.6892 -76.9290 -76.9290 -76.8468 -76.8468
   -76.8018 -76.8018 -76.7202 -76.7202 -57.8507 -57.8507 -57.8167 -57.8167
   -57.7247 -57.7247 -57.6648 -57.6648 -57.1436 -57.1436 -57.0787 -57.0787
   -48.4222 -48.4222 -48.4177 -48.4177 -48.3987 -48.3987 -48.3818 -48.3818
   -48.3424 -48.3424 -48.3349 -48.3349 -48.3028 -48.3028 -48.2936 -48.2936
   -48.0428 -48.0428 -47.9794 -47.9794 -47.9308 -47.9308 -47.8816 -47.8816
    -5.2329  -5.2329  -5.1686  -5.1686  -5.1165  -5.1165  -4.9963  -4.9963
    -4.5000  -4.5000  -4.4409  -4.4409  -4.3021  -4.3021  -4.2035  -4.2035
    -3.9430  -3.9430  -3.7878  -3.7878  -0.9383  -0.9383  -0.8176  -0.8176
    -0.7787  -0.7787  -0.7404  -0.7404  -0.7112  -0.7112  -0.6255  -0.6255
    -0.5597  -0.5597  -0.4947  -0.4947  -0.3009  -0.3009  -0.2553  -0.2553
    -0.2130  -0.2130  -0.1655  -0.1655  -0.1254  -0.1254  -0.0343  -0.0343
    -0.0133  -0.0133   0.0244   0.0244   0.0676   0.0676   0.1897   0.1897
     0.3268   0.3268   0.4944   0.4944   3.6066   3.6066   4.4418   4.4418
     6.3310   6.3310   6.9939   6.9939   7.6726   7.6726   7.9942   7.9942
     9.3204   9.3204   9.8776   9.8776  10.3378  10.3378  10.5416  10.5416
    11.0106  11.0106  12.0795  12.0795  12.1635  12.1635  12.5297  12.5297
    12.8017  12.8017  13.1186  13.1186  13.1890  13.1890  13.7767  13.7767
    14.8061  14.8061  14.8373  14.8373  15.4345  15.4345  15.8303  15.8303
    16.2372  16.2372

          k =-0.2983 0.0000 0.0000 (  3722 PWs)   bands (ev):

   -87.8254 -87.8254 -87.7885 -87.7885 -76.9904 -76.9904 -76.9688 -76.9688
   -76.8856 -76.8856 -76.8787 -76.8787 -57.8534 -57.8534 -57.8377 -57.8377
   -57.7617 -57.7617 -57.7347 -57.7347 -57.3250 -57.3250 -57.2425 -57.2425
   -48.4196 -48.4196 -48.4140 -48.4140 -48.4061 -48.4061 -48.3932 -48.3932
   -48.3723 -48.3723 -48.3586 -48.3586 -48.3437 -48.3437 -48.3267 -48.3267
   -48.0887 -48.0887 -48.0756 -48.0756 -48.0464 -48.0464 -48.0392 -48.0392
    -5.2769  -5.2769  -5.2767  -5.2767  -5.2645  -5.2645  -5.0668  -5.0668
    -4.5559  -4.5559  -4.4679  -4.4679  -4.3944  -4.3944  -4.3752  -4.3752
    -4.3422  -4.3422  -4.2455  -4.2455  -1.0415  -1.0415  -0.8891  -0.8891
    -0.8475  -0.8475  -0.8044  -0.8044  -0.7670  -0.7670  -0.6736  -0.6736
    -0.6622  -0.6622  -0.6362  -0.6362  -0.4810  -0.4810  -0.2698  -0.2698
    -0.2567  -0.2567  -0.1949  -0.1949  -0.1516  -0.1516  -0.1044  -0.1044
    -0.0754  -0.0754  -0.0694  -0.0694  -0.0624  -0.0624   0.0047   0.0047
     0.0070   0.0070   0.0420   0.0420   3.9370   3.9370   4.9180   4.9180
     5.7095   5.7095   6.6867   6.6867   7.6753   7.6753   7.8204   7.8204
     8.6236   8.6236   9.5219   9.5219   9.6200   9.6200  10.1340  10.1340
    10.3903  10.3903  12.1772  12.1772  12.6881  12.6881  13.0020  13.0020
    13.3331  13.3331  14.2244  14.2244  14.3218  14.3218  14.6380  14.6380
    15.1938  15.1939  15.5989  15.5990  15.9550  15.9553  16.3062  16.3064
    16.5177  16.7946

          k =-0.2983 0.0000 0.0836 (  3710 PWs)   bands (ev):

   -87.7930 -87.7930 -87.7790 -87.7790 -76.9636 -76.9636 -76.9388 -76.9388
   -76.9018 -76.9018 -76.8283 -76.8283 -57.8575 -57.8575 -57.8325 -57.8325
   -57.7422 -57.7422 -57.7058 -57.7058 -57.2917 -57.2917 -57.2289 -57.2289
   -48.4202 -48.4202 -48.4098 -48.4098 -48.4073 -48.4073 -48.3918 -48.3918
   -48.3563 -48.3563 -48.3400 -48.3400 -48.3379 -48.3379 -48.3148 -48.3148
   -48.0999 -48.0999 -48.0581 -48.0581 -48.0327 -48.0327 -48.0058 -48.0058
    -5.2792  -5.2792  -5.2532  -5.2532  -5.1567  -5.1567  -5.1078  -5.1078
    -4.5201  -4.5201  -4.4502  -4.4502  -4.3779  -4.3779  -4.2943  -4.2943
    -4.2742  -4.2742  -4.2103  -4.2103  -1.0209  -1.0209  -0.8767  -0.8767
    -0.8198  -0.8198  -0.7714  -0.7714  -0.7566  -0.7566  -0.6861  -0.6861
    -0.6675  -0.6675  -0.5525  -0.5525  -0.4496  -0.4496  -0.2264  -0.2264
    -0.2110  -0.2110  -0.1669  -0.1669  -0.1486  -0.1486  -0.0914  -0.0914
    -0.0528  -0.0528  -0.0351  -0.0351  -0.0322  -0.0322  -0.0105  -0.0105
     0.0500   0.0500   0.0737   0.0737   3.9759   3.9759   4.7546   4.7546
     5.8265   5.8265   6.9016   6.9016   7.5125   7.5125   7.8990   7.8990
     8.7088   8.7088   9.0894   9.0894   9.3331   9.3331  10.1844  10.1844
    11.2674  11.2674  11.5391  11.5391  12.7106  12.7106  13.0927  13.0927
    13.7110  13.7110  14.2036  14.2036  14.5555  14.5555  14.9112  14.9112
    15.1666  15.1666  15.2492  15.2492  15.6085  15.6087  16.3208  16.3209
    16.4230  16.4230

          k =-0.2983 0.0000-0.1671 (  3680 PWs)   bands (ev):

   -87.7551 -87.7551 -87.7076 -87.7076 -76.9183 -76.9183 -76.8668 -76.8668
   -76.8067 -76.8067 -76.8028 -76.8028 -57.8489 -57.8489 -57.8336 -57.8336
   -57.6923 -57.6923 -57.6486 -57.6486 -57.2355 -57.2355 -57.1979 -57.1979
   -48.4237 -48.4237 -48.4136 -48.4136 -48.3952 -48.3952 -48.3923 -48.3923
   -48.3316 -48.3316 -48.3171 -48.3171 -48.2999 -48.2999 -48.2867 -48.2867
   -48.0840 -48.0840 -48.0398 -48.0398 -48.0039 -48.0039 -47.9639 -47.9639
    -5.1968  -5.1968  -5.1772  -5.1772  -5.1631  -5.1631  -4.9843  -4.9843
    -4.4713  -4.4713  -4.4479  -4.4479  -4.2520  -4.2520  -4.1830  -4.1830
    -4.1760  -4.1760  -4.1058  -4.1058  -0.9728  -0.9728  -0.8155  -0.8155
    -0.7649  -0.7649  -0.7614  -0.7614  -0.6780  -0.6780  -0.6524  -0.6524
    -0.5917  -0.5917  -0.5538  -0.5538  -0.4572  -0.4572  -0.2058  -0.2058
    -0.1622  -0.1622  -0.1037  -0.1037  -0.0847  -0.0847  -0.0328  -0.0328
    -0.0028  -0.0028   0.0014   0.0014   0.0746   0.0746   0.1109   0.1109
     0.1366   0.1366   0.1609   0.1609   4.0292   4.0292   4.6148   4.6148
     5.9082   5.9082   7.3005   7.3005   7.3562   7.3562   7.8410   7.8410
     8.6183   8.6183   8.6269   8.6269   9.5961   9.5961  10.5258  10.5258
    10.6266  10.6266  12.3203  12.3203  12.7008  12.7008  12.7380  12.7380
    14.1107  14.1108  14.1918  14.1918  14.4603  14.4603  15.1899  15.1900
    15.2320  15.2321  15.3944  15.3944  15.5327  15.5327  15.6252  15.6253
    16.3755  16.3755

          k =-0.2983 0.1644 0.0000 (  3686 PWs)   bands (ev):

   -87.7383 -87.7383 -87.7318 -87.7318 -76.8837 -76.8837 -76.8720 -76.8720
   -76.8612 -76.8612 -76.8087 -76.8087 -57.8260 -57.8260 -57.8210 -57.8210
   -57.7103 -57.7103 -57.6961 -57.6961 -57.3045 -57.3045 -57.2469 -57.2469
   -48.4114 -48.4114 -48.4067 -48.4067 -48.3853 -48.3853 -48.3850 -48.3850
   -48.3446 -48.3446 -48.3401 -48.3401 -48.3179 -48.3179 -48.3115 -48.3115
   -48.0913 -48.0913 -48.0670 -48.0670 -48.0635 -48.0635 -48.0146 -48.0146
    -5.1760  -5.1760  -5.1206  -5.1206  -5.0743  -5.0743  -5.0633  -5.0633
    -4.5185  -4.5185  -4.4472  -4.4472  -4.3636  -4.3636  -4.3086  -4.3086
    -4.2661  -4.2661  -4.2089  -4.2089  -0.9154  -0.9154  -0.7907  -0.7907
    -0.7894  -0.7894  -0.6884  -0.6884  -0.6606  -0.6606  -0.6557  -0.6557
    -0.6260  -0.6260  -0.5462  -0.5462  -0.3433  -0.3433  -0.2535  -0.2535
    -0.2192  -0.2192  -0.1957  -0.1957  -0.1588  -0.1588  -0.0939  -0.0939
    -0.0701  -0.0701  -0.0182  -0.0182  -0.0141  -0.0141  -0.0028  -0.0028
     0.0314   0.0314   0.0552   0.0552   4.1978   4.1978   4.7613   4.7613
     5.9605   5.9605   6.1450   6.1450   6.9136   6.9136   7.1061   7.1061
     9.7998   9.7998  10.3414  10.3414  10.5345  10.5345  11.0734  11.0734
    11.1470  11.1470  11.4744  11.4744  11.9360  11.9360  12.7152  12.7152
    13.6307  13.6307  13.7987  13.7987  14.5121  14.5122  14.5501  14.5501
    14.7682  14.7682  14.9240  14.9240  15.3121  15.3121  15.3881  15.3882
    16.1957  16.1961

          k =-0.2983 0.1644 0.0836 (  3692 PWs)   bands (ev):

   -87.7909 -87.7909 -87.7103 -87.7103 -76.9129 -76.9129 -76.8730 -76.8730
   -76.8617 -76.8617 -76.8363 -76.8363 -57.8711 -57.8711 -57.8158 -57.8158
   -57.7135 -57.7135 -57.6902 -57.6902 -57.2586 -57.2586 -57.2405 -57.2405
   -48.4248 -48.4248 -48.4139 -48.4139 -48.4071 -48.4071 -48.3881 -48.3881
   -48.3424 -48.3424 -48.3291 -48.3291 -48.3173 -48.3173 -48.3148 -48.3148
   -48.0783 -48.0783 -48.0448 -48.0448 -48.0412 -48.0412 -48.0040 -48.0040
    -5.2493  -5.2493  -5.1844  -5.1844  -5.1074  -5.1074  -5.0354  -5.0354
    -4.5652  -4.5652  -4.4861  -4.4861  -4.3635  -4.3635  -4.2948  -4.2948
    -4.1742  -4.1742  -4.1237  -4.1237  -0.9190  -0.9190  -0.8509  -0.8509
    -0.7890  -0.7890  -0.7294  -0.7294  -0.7091  -0.7091  -0.6809  -0.6809
    -0.6514  -0.6514  -0.5271  -0.5271  -0.3549  -0.3549  -0.2605  -0.2605
    -0.2312  -0.2312  -0.1916  -0.1916  -0.1600  -0.1600  -0.1109  -0.1109
    -0.0491  -0.0491  -0.0076  -0.0076   0.0111   0.0111   0.0387   0.0387
     0.0673   0.0673   0.1034   0.1034   4.2278   4.2278   4.7241   4.7241
     5.7256   5.7256   6.2838   6.2838   6.9119   6.9119   7.5109   7.5109
     9.2870   9.2870   9.9630   9.9630  10.2725  10.2725  10.8730  10.8730
    11.6803  11.6803  11.9219  11.9219  12.5386  12.5386  12.8513  12.8513
    13.5300  13.5300  13.9123  13.9123  14.2053  14.2053  14.4731  14.4732
    14.7254  14.7255  14.9648  14.9649  15.2959  15.2959  15.3806  15.3807
    15.6392  15.6394

          k =-0.2983 0.1644-0.1671 (  3704 PWs)   bands (ev):

   -87.8221 -87.8221 -87.7298 -87.7298 -76.9309 -76.9309 -76.9212 -76.9212
   -76.8904 -76.8904 -76.8463 -76.8463 -57.8927 -57.8927 -57.8449 -57.8449
   -57.7160 -57.7160 -57.6694 -57.6694 -57.2623 -57.2623 -57.2578 -57.2578
   -48.4357 -48.4357 -48.4300 -48.4300 -48.4153 -48.4153 -48.4027 -48.4027
   -48.3376 -48.3376 -48.3353 -48.3353 -48.3116 -48.3116 -48.2951 -48.2951
   -48.0827 -48.0827 -48.0624 -48.0624 -48.0383 -48.0383 -48.0104 -48.0104
    -5.3210  -5.3210  -5.2187  -5.2187  -5.1116  -5.1116  -5.0851  -5.0851
    -4.5830  -4.5830  -4.5248  -4.5248  -4.3565  -4.3565  -4.3538  -4.3538
    -4.1800  -4.1800  -4.0900  -4.0900  -0.9294  -0.9294  -0.8559  -0.8559
    -0.8266  -0.8266  -0.7918  -0.7918  -0.7400  -0.7400  -0.7246  -0.7246
    -0.6894  -0.6894  -0.5349  -0.5349  -0.3601  -0.3601  -0.2909  -0.2909
    -0.2562  -0.2562  -0.2023  -0.2023  -0.1753  -0.1753  -0.1190  -0.1190
    -0.0595  -0.0595  -0.0301  -0.0301  -0.0047  -0.0047   0.0226   0.0226
     0.1019   0.1019   0.1048   0.1048   4.2707   4.2707   4.6724   4.6724
     5.6294   5.6294   6.2060   6.2060   7.2121   7.2121   7.7921   7.7921
     8.7745   8.7745   9.6943   9.6943  10.1919  10.1919  10.5919  10.5919
    12.1922  12.1922  12.4732  12.4732  12.6046  12.6046  13.3660  13.3660
    13.4598  13.4598  13.8946  13.8946  14.2010  14.2010  14.2874  14.2874
    14.5090  14.5090  14.6910  14.6910  15.1650  15.1650  15.2991  15.2991
    15.5601  15.5601

     the Fermi energy is    10.9176 ev

!    total energy              =   -3612.87270285 Ry
     Harris-Foulkes estimate   =   -3612.87271532 Ry
     estimated scf accuracy    <       0.00001493 Ry

     The total energy is the sum of the following terms:

     one-electron contribution =   -1863.59660278 Ry
     hartree contribution      =     927.48094376 Ry
     xc contribution           =    -303.35470224 Ry
     ewald contribution        =   -2372.86911751 Ry
     smearing contrib. (-TS)   =      -0.53322409 Ry

     convergence has been achieved in   9 iterations

     Forces acting on atoms (Ry/au):

     atom    1 type  1   force =     0.00000000    0.00254310    0.00780455
     atom    2 type  1   force =     0.00000000   -0.00254310   -0.00780455
     atom    3 type  1   force =     0.00000000    0.00254310   -0.00780455
     atom    4 type  1   force =     0.00000000   -0.00254310    0.00780455
     atom    5 type  1   force =     0.00000000   -0.00820627    0.01398655
     atom    6 type  1   force =     0.00000000    0.00820627   -0.01398655
[...]
    18.1743  18.1788  18.1883  18.2495  18.3017  18.3291  18.4607  18.5324
    18.9287  18.9661  19.0098  19.1186  19.7809  20.5199  21.0472  21.1272
    21.2368  21.4367  21.4914  21.6514  21.6768  21.9232  22.1410  22.1602
    22.1617  22.2131  22.4923  22.5900  22.5994  22.7593  22.8853  22.9480
    22.9723  23.0245  23.2893  23.4605  23.5686  23.6277  23.7242  23.9832
    24.0120  24.0915  24.1907  24.2363  24.2759  24.6133  24.6740  24.7056
    24.7467  24.8303  24.9227  24.9749  25.1768  25.2444  27.1096  29.0488
    29.3315  29.8832  30.0530  30.5533  32.0022  32.8384  33.0120  33.8722
    35.1254  35.4974  36.4916  36.9895  37.0176  37.3613  37.4051  38.0085
    38.0208  38.0613  38.4756  38.4760  38.7889  39.7644  39.7936  40.1377
    40.9209  40.9406  40.9924  41.0559  41.3972  41.7903  41.8966  42.0251
    42.3284  42.6373  42.7271  43.2472  43.3549  43.7098  44.6386  44.7375
    45.0221  45.0423

          k = 0.0000 0.0000-0.2327 (  5402 PWs)   bands (ev):

   -65.3032 -65.3032 -65.2863 -65.2863 -56.1677 -56.1677 -56.1572 -56.1572
   -55.9803 -55.9803 -55.9469 -55.9469 -27.4424 -27.4424 -27.4408 -27.4408
   -27.4346 -27.4346 -27.4213 -27.4213 -27.3249 -27.3248 -27.3152 -27.3152
   -20.5858 -20.5858 -20.5382 -20.5382 -20.5024 -20.5024 -20.4846 -20.4846
   -20.4399 -20.4399 -20.4358 -20.4358 -20.3946 -20.3946 -20.2403 -20.2403
   -20.2282 -20.2282 -20.2167 -20.2167 -20.2019 -20.2019 -20.0802 -20.0802
    17.7376  17.7376  17.7985  17.7985  17.9816  17.9816  18.1392  18.1392
    18.1826  18.1826  18.2790  18.2790  18.2812  18.2812  18.4134  18.4134
    18.9344  18.9344  19.0177  19.0178  20.3102  20.3102  20.9384  20.9384
    21.4412  21.4412  21.5287  21.5287  21.9957  21.9957  22.0118  22.0118
    22.3185  22.3185  22.4181  22.4181  22.5713  22.5713  22.6823  22.6823
    23.0346  23.0346  23.4529  23.4529  23.6128  23.6128  23.8022  23.8022
    23.9068  23.9068  24.2054  24.2054  24.4532  24.4532  24.5944  24.5944
    24.7427  24.7427  25.1235  25.1235  25.1921  25.1921  29.1774  29.1774
    29.5251  29.5251  29.7434  29.7434  32.0414  32.0414  33.4137  33.4137
    35.3375  35.3375  36.7366  36.7366  37.6432  37.6432  37.6926  37.6926
    37.8237  37.8237  38.4311  38.4311  39.7713  39.7713  39.7744  39.7744
    40.4851  40.4852  41.1582  41.1582  41.3968  41.3968  41.9979  41.9980
    42.4900  42.4900  43.5393  43.5395  43.7871  43.7872  43.9605  43.9606
    44.8561  44.8571

          k = 0.0000 0.2256 0.0000 (  5411 PWs)   bands (ev):

   -65.3163 -65.3072 -65.2994 -65.2729 -56.1725 -56.1698 -56.1649 -56.1512
   -55.9753 -55.9725 -55.9640 -55.9582 -27.4554 -27.4472 -27.4441 -27.4381
   -27.4315 -27.4305 -27.4292 -27.4133 -27.3272 -27.3226 -27.3160 -27.3141
   -20.5923 -20.5517 -20.5502 -20.5264 -20.5084 -20.5006 -20.4892 -20.4860
   -20.4503 -20.4272 -20.4161 -20.4136 -20.3972 -20.3561 -20.2426 -20.2412
   -20.2393 -20.2377 -20.2265 -20.2202 -20.2145 -20.1816 -20.1579 -20.1486
    17.8126  17.8583  18.0301  18.0337  18.0536  18.1490  18.1544  18.1951
    18.2435  18.2657  18.2698  18.3530  18.3722  18.4598  18.5374  18.6525
    18.7742  18.8594  18.8766  18.9559  20.2849  20.6321  21.1842  21.2505
    21.4161  21.4508  21.5628  21.6976  21.8431  21.9835  22.0072  22.1375
    22.1720  22.2290  22.3964  22.5138  22.5917  22.7192  22.7283  22.8259
    22.9182  23.0431  23.2742  23.3185  23.4471  23.6575  23.6953  23.8757
    23.8917  23.9394  24.0565  24.2131  24.2228  24.2733  24.4889  24.7144
    24.8595  24.8778  25.0249  25.0441  25.1553  25.2381  25.5412  25.7833
    27.5090  27.6225  31.8973  33.4876  34.3609  34.6276  35.1904  35.2827
    35.4566  35.7981  36.0316  36.0465  36.2569  36.4034  36.4688  36.4775
    36.7593  37.6763  38.0244  38.1197  38.4698  39.2756  40.7221  41.3389
    41.5628  41.6516  41.6517  42.0301  42.0661  42.4224  42.4867  42.7829
    42.9675  43.0306  43.2044  43.4688  43.5291  43.5430  43.8705  44.0164
    44.5338  44.5914

          k = 0.0000 0.2256 0.1164 (  5398 PWs)   bands (ev):

   -65.3093 -65.3070 -65.2889 -65.2722 -56.1710 -56.1675 -56.1566 -56.1523
   -55.9730 -55.9678 -55.9624 -55.9531 -27.4478 -27.4443 -27.4405 -27.4383
   -27.4353 -27.4280 -27.4243 -27.4196 -27.3267 -27.3180 -27.3079 -27.3063
   -20.5752 -20.5560 -20.5347 -20.5183 -20.5151 -20.5054 -20.4812 -20.4761
   -20.4424 -20.4228 -20.4215 -20.4116 -20.3843 -20.3586 -20.2472 -20.2396
   -20.2373 -20.2348 -20.2283 -20.2256 -20.2076 -20.1879 -20.1525 -20.1438
    17.8470  17.8772  18.0205  18.0729  18.0824  18.1064  18.1101  18.1950
    18.2289  18.2690  18.2717  18.3640  18.3786  18.4639  18.5339  18.6803
    18.7186  18.8407  18.8656  18.9702  20.4809  20.7355  21.2166  21.3550
    21.4770  21.5575  21.6041  21.6504  21.7053  21.9469  21.9906  22.0410
    22.2066  22.2163  22.2790  22.3622  22.5846  22.6424  22.6486  22.8158
    22.8637  23.0912  23.2113  23.2799  23.5705  23.5760  23.6926  23.7141
    23.9315  23.9941  24.1070  24.1994  24.2134  24.4381  24.4689  24.4994
    24.6489  24.7452  24.8370  24.9965  25.1401  25.2018  25.3126  26.1826
    27.7213  29.3188  32.2817  32.4820  33.6859  33.7378  34.7885  34.8230
    35.0939  35.5094  35.6355  35.9476  36.3798  36.7807  36.7859  37.2353
    38.0266  38.2262  38.5753  38.7398  38.8892  39.4752  39.9366  41.0383
    41.0383  41.5602  41.7152  41.7297  42.0055  42.0688  42.1150  42.2626
    42.6215  42.9794  42.9913  43.6317  43.7647  43.7709  43.8579  44.0212
    44.4090  44.4475

          k = 0.0000 0.2256-0.2327 (  5418 PWs)   bands (ev):

   -65.3083 -65.3083 -65.2959 -65.2958 -56.1714 -56.1714 -56.1626 -56.1626
   -55.9787 -55.9787 -55.9599 -55.9599 -27.4474 -27.4474 -27.4414 -27.4414
   -27.4410 -27.4410 -27.4325 -27.4325 -27.3221 -27.3221 -27.3108 -27.3107
   -20.5724 -20.5724 -20.5400 -20.5400 -20.5180 -20.5180 -20.4771 -20.4771
   -20.4362 -20.4362 -20.4170 -20.4170 -20.3677 -20.3677 -20.2436 -20.2436
   -20.2376 -20.2376 -20.2361 -20.2361 -20.2123 -20.2123 -20.1506 -20.1506
    17.9160  17.9160  17.9558  17.9558  18.1479  18.1479  18.1695  18.1695
    18.2725  18.2725  18.3030  18.3030  18.3810  18.3810  18.6072  18.6072
    18.7551  18.7551  18.9338  18.9338  20.8640  20.8640  21.1985  21.1985
    21.5593  21.5593  21.6757  21.6757  21.8111  21.8111  21.9214  21.9214
    22.2115  22.2115  22.3196  22.3196  22.3867  22.3867  22.7566  22.7566
    23.1073  23.1073  23.1397  23.1397  23.4981  23.4981  23.5127  23.5127
    23.9259  23.9259  24.2410  24.2410  24.3060  24.3060  24.5297  24.5297
    24.7711  24.7711  24.7727  24.7727  25.2122  25.2122  25.5544  25.5544
    29.8872  29.8872  31.6374  31.6374  33.3313  33.3313  34.1453  34.1453
    35.2815  35.2815  36.0908  36.0908  36.1558  36.1558  37.7187  37.7187
    38.7725  38.7725  39.1995  39.1995  39.4346  39.4346  40.2550  40.2550
    40.8790  40.8790  40.9048  40.9048  41.9296  41.9297  42.0065  42.0065
    42.9074  42.9074  43.2680  43.2680  43.5848  43.5850  44.2534  44.2536
    44.2786  44.2787

          k =-0.4326 0.0000 0.0000 (  5456 PWs)   bands (ev):

   -65.3277 -65.3277 -65.3079 -65.3079 -56.1778 -56.1778 -56.1757 -56.1757
   -55.9944 -55.9944 -55.9674 -55.9674 -27.4590 -27.4590 -27.4536 -27.4536
   -27.4453 -27.4453 -27.4415 -27.4415 -27.3328 -27.3328 -27.3246 -27.3246
   -20.5816 -20.5816 -20.5598 -20.5598 -20.5448 -20.5448 -20.4976 -20.4976
   -20.4627 -20.4627 -20.4346 -20.4346 -20.3926 -20.3926 -20.2762 -20.2762
   -20.2355 -20.2355 -20.2159 -20.2159 -20.2055 -20.2055 -20.0915 -20.0915
    17.8260  17.8260  17.8674  17.8674  18.0849  18.0849  18.0958  18.0958
    18.1683  18.1683  18.2222  18.2222  18.2323  18.2323  18.6503  18.6503
    18.7389  18.7389  19.2198  19.2198  20.3864  20.3864  20.9108  20.9108
    21.2711  21.2711  21.6497  21.6497  21.8256  21.8256  22.4289  22.4289
    22.6404  22.6404  22.6554  22.6554  22.9685  22.9685  23.2540  23.2540
    23.3030  23.3030  23.4704  23.4704  23.6070  23.6070  23.7090  23.7090
    23.9052  23.9052  24.2300  24.2300  24.3104  24.3104  24.4428  24.4428
    24.7908  24.7908  24.9222  24.9222  25.2683  25.2683  27.2821  27.2821
    27.3909  27.3909  29.4745  29.4745  32.2438  32.2438  34.0676  34.0676
    34.2361  34.2361  34.5452  34.5452  35.3855  35.3855  37.3693  37.3693
    37.4533  37.4533  40.2123  40.2124  41.2209  41.2209  41.5229  41.5229
    41.5739  41.5739  41.9447  41.9447  42.1753  42.1753  42.7469  42.7469
    42.9178  42.9178  44.0173  44.0174  44.2072  44.2072  44.8881  44.8882
    45.0347  45.0347

          k =-0.4326 0.0000 0.1164 (  5414 PWs)   bands (ev):

   -65.3106 -65.3106 -65.2931 -65.2931 -56.1680 -56.1680 -56.1636 -56.1636
   -55.9833 -55.9833 -55.9576 -55.9576 -27.4540 -27.4540 -27.4418 -27.4418
   -27.4361 -27.4361 -27.4337 -27.4337 -27.3212 -27.3212 -27.3150 -27.3150
   -20.5753 -20.5753 -20.5457 -20.5457 -20.5282 -20.5282 -20.4931 -20.4931
   -20.4467 -20.4467 -20.4241 -20.4241 -20.3948 -20.3948 -20.2660 -20.2660
   -20.2315 -20.2315 -20.2101 -20.2101 -20.1955 -20.1955 -20.0762 -20.0762
    17.8167  17.8167  17.8734  17.8734  18.0588  18.0588  18.1472  18.1472
    18.1888  18.1888  18.1961  18.1961  18.2987  18.2987  18.5621  18.5621
    18.7561  18.7561  19.2103  19.2103  20.4452  20.4452  21.0403  21.0403
    21.2699  21.2699  21.7002  21.7002  21.9749  21.9749  22.2848  22.2848
    22.4993  22.4993  22.6512  22.6512  22.8402  22.8402  22.9116  22.9116
    23.0339  23.0339  23.3244  23.3244  23.5178  23.5178  23.9888  23.9888
    24.2572  24.2572  24.3864  24.3864  24.4852  24.4852  24.5745  24.5745
    24.6545  24.6545  24.9220  24.9220  25.2866  25.2866  26.2612  26.2612
    28.5979  28.5979  29.8442  29.8442  31.6785  31.6785  33.5865  33.5865
    34.1141  34.1141  35.0312  35.0312  35.6071  35.6071  36.2952  36.2952
    39.0577  39.0577  39.8492  39.8492  40.6030  40.6030  41.2054  41.2054
    41.3002  41.3002  41.9187  41.9187  42.6972  42.6972  42.9521  42.9521
    43.4535  43.4535  43.8132  43.8133  44.1745  44.1745  44.6170  44.6170
    45.2525  45.2526

          k =-0.4326 0.0000-0.2327 (  5428 PWs)   bands (ev):

   -65.3114 -65.3114 -65.3022 -65.3022 -56.1731 -56.1731 -56.1645 -56.1645
   -55.9874 -55.9874 -55.9611 -55.9611 -27.4487 -27.4487 -27.4454 -27.4454
   -27.4453 -27.4453 -27.4378 -27.4378 -27.3270 -27.3270 -27.3151 -27.3151
   -20.5810 -20.5810 -20.5521 -20.5521 -20.5272 -20.5272 -20.4957 -20.4957
   -20.4451 -20.4451 -20.4252 -20.4252 -20.4009 -20.4009 -20.2667 -20.2667
   -20.2397 -20.2397 -20.2109 -20.2109 -20.1956 -20.1956 -20.0809 -20.0809
    17.7816  17.7816  17.9231  17.9231  18.0646  18.0646  18.0932  18.0932
    18.2026  18.2026  18.2874  18.2874  18.3455  18.3455  18.4565  18.4565
    18.7560  18.7560  19.2012  19.2012  20.5022  20.5022  21.1810  21.1810
    21.3316  21.3316  21.7234  21.7234  22.1794  22.1794  22.2771  22.2771
    22.2795  22.2795  22.3609  22.3609  22.5881  22.5881  22.8374  22.8374
    23.0338  23.0338  23.0761  23.0761  23.8203  23.8203  23.9042  23.9042
    24.2776  24.2776  24.4221  24.4221  24.4241  24.4241  24.8771  24.8771
    24.9211  24.9211  25.1173  25.1173  25.3578  25.3578  25.4289  25.4289
    29.4039  29.4039  30.6565  30.6565  30.6821  30.6821  33.3591  33.3591
    34.0509  34.0509  34.0625  34.0625  36.6641  36.6641  37.1935  37.1935
    37.6271  37.6271  39.9253  39.9253  41.0131  41.0131  41.1241  41.1242
    41.4273  41.4273  42.3200  42.3200  42.5126  42.5126  42.7109  42.7109
    42.7874  42.7874  44.2252  44.2252  44.4956  44.4956  44.6970  44.6971
    44.8416  44.8417

          k =-0.4326 0.2256 0.0000 (  5400 PWs)   bands (ev):

   -65.3013 -65.3013 -65.2907 -65.2907 -56.1645 -56.1645 -56.1598 -56.1598
   -55.9722 -55.9722 -55.9603 -55.9603 -27.4461 -27.4461 -27.4401 -27.4401
   -27.4374 -27.4374 -27.4287 -27.4287 -27.3149 -27.3149 -27.3110 -27.3110
   -20.5611 -20.5611 -20.5496 -20.5496 -20.5172 -20.5172 -20.4883 -20.4883
   -20.4324 -20.4324 -20.4141 -20.4141 -20.3481 -20.3481 -20.2614 -20.2614
   -20.2343 -20.2343 -20.2200 -20.2200 -20.1879 -20.1879 -20.1453 -20.1453
    17.9345  17.9345  17.9799  17.9799  18.0953  18.0953  18.1804  18.1804
    18.2650  18.2650  18.3956  18.3956  18.5008  18.5008  18.6597  18.6597
    18.8389  18.8389  19.0418  19.0418  20.7878  20.7878  20.9973  20.9973
    21.5210  21.5210  21.8073  21.8073  21.9422  21.9422  22.3161  22.3161
    22.4382  22.4382  22.5371  22.5371  22.5973  22.5973  22.9749  22.9749
    22.9879  22.9879  23.3584  23.3584  23.5186  23.5186  23.6203  23.6203
    23.8722  23.8722  23.9501  23.9501  24.0659  24.0659  24.3986  24.3986
    24.6654  24.6654  24.7917  24.7917  25.2576  25.2576  27.2200  27.2200
    28.4208  28.4208  28.5521  28.5521  30.7377  30.7377  30.9151  30.9151
    36.4325  36.4325  37.5601  37.5601  37.8027  37.8027  38.3425  38.3425
    38.7942  38.7942  39.4224  39.4224  40.0771  40.0771  41.0629  41.0630
    41.5806  41.5806  42.0085  42.0085  42.0628  42.0628  42.8544  42.8544
    43.4777  43.4777  43.5228  43.5229  44.2593  44.2594  44.3044  44.3045
    45.0952  45.0954

          k =-0.4326 0.2256 0.1164 (  5406 PWs)   bands (ev):

   -65.3028 -65.3028 -65.2946 -65.2946 -56.1680 -56.1680 -56.1607 -56.1607
   -55.9728 -55.9728 -55.9627 -55.9627 -27.4469 -27.4469 -27.4407 -27.4407
   -27.4381 -27.4381 -27.4308 -27.4308 -27.3174 -27.3174 -27.3130 -27.3130
   -20.5591 -20.5591 -20.5418 -20.5418 -20.5145 -20.5145 -20.4974 -20.4974
   -20.4339 -20.4339 -20.4187 -20.4187 -20.3522 -20.3522 -20.2544 -20.2544
   -20.2398 -20.2398 -20.2282 -20.2282 -20.1905 -20.1905 -20.1473 -20.1473
    17.9162  17.9162  18.0016  18.0016  18.1133  18.1133  18.2167  18.2167
    18.2826  18.2826  18.3877  18.3877  18.4667  18.4667  18.5844  18.5844
    18.8839  18.8839  19.0512  19.0512  20.8557  20.8557  21.1342  21.1342
    21.5432  21.5432  21.8455  21.8455  21.9300  21.9300  22.1888  22.1888
    22.3406  22.3406  22.4703  22.4703  22.6444  22.6444  22.7899  22.7899
    23.0886  23.0886  23.2326  23.2326  23.4260  23.4260  23.6525  23.6525
    23.6929  23.6929  23.9107  23.9107  24.1695  24.1695  24.4424  24.4424
    24.6742  24.6742  24.9057  24.9057  25.5572  25.5572  27.1313  27.1313
    27.6893  27.6893  29.2748  29.2748  30.1527  30.1527  32.4599  32.4599
    35.5123  35.5123  36.5344  36.5344  36.9925  36.9925  38.0386  38.0386
    39.6405  39.6405  40.0309  40.0309  41.0546  41.0546  41.2362  41.2362
    41.8830  41.8831  41.9865  41.9865  42.2867  42.2867  43.0166  43.0166
    43.1450  43.1450  43.5164  43.5165  43.9076  43.9078  44.1755  44.1756
    44.7296  44.7297

          k =-0.4326 0.2256-0.2327 (  5432 PWs)   bands (ev):

   -65.3115 -65.3115 -65.3057 -65.3057 -56.1740 -56.1740 -56.1683 -56.1683
   -55.9801 -55.9801 -55.9686 -55.9687 -27.4532 -27.4532 -27.4492 -27.4492
   -27.4420 -27.4420 -27.4392 -27.4392 -27.3240 -27.3240 -27.3141 -27.3141
   -20.5677 -20.5677 -20.5411 -20.5411 -20.5221 -20.5221 -20.5057 -20.5057
   -20.4390 -20.4390 -20.4187 -20.4187 -20.3610 -20.3610 -20.2544 -20.2544
   -20.2466 -20.2466 -20.2328 -20.2328 -20.2018 -20.2018 -20.1553 -20.1553
    17.9039  17.9039  18.0127  18.0127  18.1426  18.1426  18.2471  18.2471
    18.3181  18.3181  18.3577  18.3577  18.4780  18.4780  18.4871  18.4871
    18.9049  18.9049  19.0652  19.0652  20.9457  20.9457  21.3443  21.3443
    21.5274  21.5274  21.8225  21.8225  21.9111  21.9111  22.0921  22.0921
    22.1186  22.1186  22.5392  22.5392  22.5632  22.5632  22.8422  22.8422
    22.9788  22.9788  23.3678  23.3678  23.3688  23.3688  23.5194  23.5194
    23.5756  23.5756  23.8560  23.8560  24.0986  24.0986  24.4787  24.4787
    24.7923  24.7923  24.9877  24.9877  26.2138  26.2138  26.3357  26.3357
    28.2480  28.2480  28.4141  28.4141  31.0844  31.0844  33.6059  33.6059
    34.8371  34.8371  34.9641  34.9641  36.9181  36.9181  37.5064  37.5064
    39.9238  39.9238  41.1808  41.1808  41.4643  41.4644  41.8030  41.8030
    41.8539  41.8540  42.1422  42.1422  42.5100  42.5100  42.5273  42.5274
    43.3072  43.3073  43.4136  43.4137  43.5301  43.5301  43.9152  43.9153
    44.3874  44.3876

     the Fermi energy is    37.9629 ev

!    total energy              =   -3659.78918184 Ry
     Harris-Foulkes estimate   =   -3659.78919435 Ry
     estimated scf accuracy    <       0.00001548 Ry

     The total energy is the sum of the following terms:

     one-electron contribution =    -493.92102403 Ry
     hartree contribution      =     489.59851591 Ry
     xc contribution           =    -324.75270789 Ry
     ewald contribution        =   -3330.38701278 Ry
     smearing contrib. (-TS)   =      -0.32695305 Ry

     convergence has been achieved in  10 iterations

     Forces acting on atoms (Ry/au):

     atom    1 type  1   force =     0.00000000   -0.04477222    0.01012635
     atom    2 type  1   force =     0.00000000    0.04477222   -0.01012635
     atom    3 type  1   force =     0.00000000   -0.04477222   -0.01012635
     atom    4 type  1   force =     0.00000000    0.04477222    0.01012635
     atom    5 type  1   force =     0.00000000    0.03892198   -0.08283657
     atom    6 type  1   force =     0.00000000   -0.03892198    0.08283657
     atom    7 type  1   force =     0.00000000    0.03892198    0.08283657
     atom    8 type  1   force =     0.00000000   -0.03892198   -0.08283657
     atom    9 type  2   force =     0.00000000   -0.08157874    0.03942426
     atom   10 type  2   force =     0.00000000    0.08157874   -0.03942426
     atom   11 type  2   force =     0.00000000   -0.08157874   -0.03942426
     atom   12 type  2   force =     0.00000000    0.08157874    0.03942426

     Total force =     0.273447     Total SCF correction =     0.000000


     entering subroutine stress ...

          total   stress  (Ry/bohr**3)                   (kbar)     P= 1662.85
   0.01293808   0.00000000   0.00000000       1903.26      0.00      0.00
   0.00000000   0.01021863   0.00000000          0.00   1503.21      0.00
   0.00000000   0.00000000   0.01075477          0.00      0.00   1582.08


     Writing output data file Prototype-La-oP12-Co2Si.save
 
     init_run     :      4.98s CPU      6.09s WALL (       2 calls)
     electrons    :   1075.45s CPU   1224.17s WALL (       5 calls)
     update_pot   :      1.90s CPU      2.53s WALL (       3 calls)
     forces       :      4.99s CPU      5.22s WALL (       5 calls)
     stress       :     13.26s CPU     13.49s WALL (       5 calls)

     Called by init_run:
     wfcinit      :      4.13s CPU      5.21s WALL (       2 calls)
     potinit      :      0.41s CPU      0.41s WALL (       2 calls)

     Called by electrons:
     c_bands      :   1054.09s CPU   1177.25s WALL (      43 calls)
     sum_band     :     21.02s CPU     27.67s WALL (      43 calls)
     v_of_rho     :      0.07s CPU      0.08s WALL (      48 calls)
     mix_rho      :      0.06s CPU      0.08s WALL (      43 calls)

     Called by c_bands:
     init_us_2    :      1.24s CPU      1.44s WALL (    1176 calls)
     ccgdiagg     :    961.36s CPU   1061.49s WALL (     639 calls)
     wfcrot       :     95.45s CPU    117.87s WALL (     651 calls)

     Called by *cgdiagg:
     h_psi        :    643.17s CPU    750.90s WALL (  517159 calls)
     cdiaghg      :      7.79s CPU      8.59s WALL (     651 calls)

     Called by h_psi:
     add_vuspsi   :    110.88s CPU    122.52s WALL (  517159 calls)

     General routines
     calbec       :    269.55s CPU    280.05s WALL ( 1033787 calls)
     fft          :      0.14s CPU      0.15s WALL (     215 calls)
     fftw         :    363.81s CPU    427.65s WALL ( 1312988 calls)
     davcio       :      0.80s CPU      2.80s WALL (    1692 calls)
 
     Parallel routines
     fft_scatter  :    144.65s CPU    173.95s WALL ( 1313203 calls)
 
     PWSCF        : 18m20.96s CPU    20m54.59s WALL

 
   This run was terminated on:   1:15:28  23Mar2018            

=------------------------------------------------------------------------------=
   JOB DONE.
=------------------------------------------------------------------------------=
