
     Program PWSCF v.5.0.2 starts on 22Mar2018 at 18:43:52 

     This program is part of the open-source Quantum ESPRESSO suite
     for quantum simulation of materials; please cite
         "P. Giannozzi et al., J. Phys.:Condens. Matter 21 395502 (2009);
          URL http://www.quantum-espresso.org", 
     in publications or presentations arising from this work. More details at
     http://www.quantum-espresso.org/quote.php

     Parallel version (MPI), running on     4 processors
     R & G space division:  proc/nbgrp/npool/nimage =       4

     Current dimensions of program PWSCF are:
     Max number of different atomic species (ntypx) = 10
     Max number of k-points (npk) =  40000
     Max angular momentum in pseudopotentials (lmaxx) =  3
     Waiting for input...
     Reading input from standard input

     Subspace diagonalization in iterative solution of the eigenvalue problem:
     a serial algorithm will be used

 
     Parallelization info
     --------------------
     sticks:   dense  smooth     PW     G-vecs:    dense   smooth      PW
     Min         207     207     61                 7381     7381    1191
     Max         208     208     62                 7386     7386    1192
     Sum         829     829    247                29529    29529    4767
 


     bravais-lattice index     =            0
     lattice parameter (alat)  =       7.0151  a.u.
     unit-cell volume          =     862.2778 (a.u.)^3
     number of atoms/cell      =           12
     number of atomic types    =            2
     number of electrons       =       200.00
     number of Kohn-Sham states=          120
     kinetic-energy cutoff     =      40.0000  Ry
     charge density cutoff     =     160.0000  Ry
     convergence threshold     =      1.0E-04
     mixing beta               =       0.7000
     number of iterations used =            8  plain     mixing
     Exchange-correlation      = SLA-PZ-NOGX-NOGC ( 1 1 0 0 0)
     EXX-fraction              =        0.00
     nstep                     =           50


     celldm(1)=   7.015105  celldm(2)=   0.000000  celldm(3)=   0.000000
     celldm(4)=   0.000000  celldm(5)=   0.000000  celldm(6)=   0.000000

     crystal axes: (cart. coord. in units of alat)
               a(1) = (   1.000000   0.000000   0.000000 )  
               a(2) = (   0.000000   1.315963   0.000000 )  
               a(3) = (   0.000000   0.000000   1.898020 )  

     reciprocal axes: (cart. coord. in units 2 pi/alat)
               b(1) = (  1.000000  0.000000  0.000000 )  
               b(2) = (  0.000000  0.759900  0.000000 )  
               b(3) = (  0.000000  0.000000  0.526865 )  


     PseudoPot. # 1 for Sm read from file:
     /home/cwx6513/pp.La/Sm.UPF
     MD5 check sum: 5079e8b144a06bfcdbc14fb02b96ab09
     Pseudo is Norm-conserving, Zval = 16.0
     Generated in analytical, separable form
     Using radial grid of 1259 points,  6 beta functions with: 
                l(1) =   0
                l(2) =   0
                l(3) =   1
                l(4) =   1
                l(5) =   2
                l(6) =   3

     PseudoPot. # 2 for Gd read from file:
     /home/cwx6513/pp.La/Gd.UPF
     MD5 check sum: 09a8be538722f05520810cb6aac0efd2
     Pseudo is Norm-conserving, Zval = 18.0
     Generated in analytical, separable form
     Using radial grid of 1263 points,  6 beta functions with: 
                l(1) =   0
                l(2) =   0
                l(3) =   1
                l(4) =   1
                l(5) =   2
                l(6) =   3

     atomic species   valence    mass     pseudopotential
        Co            16.00    58.93320     Sm( 1.00)
        Si            18.00    28.08550     Gd( 1.00)

      8 Sym. Ops., with inversion, found ( 6 have fractional translation)



   Cartesian axes

     site n.     atom                  positions (alat units)
         1           Co  tau(   1) = (   0.7500000   1.0875135   0.8270358  )
         2           Co  tau(   2) = (   0.2500000   0.2284499   1.0709846  )
         3           Co  tau(   3) = (   0.7500000   0.4295318   0.1219744  )
         4           Co  tau(   4) = (   0.2500000   0.8864316   1.7760460  )
         5           Co  tau(   5) = (   0.2500000   0.7067855   0.5358966  )
         6           Co  tau(   6) = (   0.7500000   0.6091779   1.3621238  )
         7           Co  tau(   7) = (   0.2500000   0.0488038   0.4131136  )
         8           Co  tau(   8) = (   0.7500000   1.2671596   1.4849068  )
         9           Si  tau(   9) = (   0.2500000   0.2669484   1.6960710  )
        10           Si  tau(  10) = (   0.7500000   1.0490149   0.2019494  )
        11           Si  tau(  11) = (   0.2500000   0.9249301   1.1509596  )
        12           Si  tau(  12) = (   0.7500000   0.3910333   0.7470608  )

     number of k points=    12  gaussian smearing, width (Ry)=  0.1000
                       cart. coord. in units 2pi/alat
        k(    1) = (   0.0000000   0.0000000   0.0000000), wk =   0.0833333
        k(    2) = (   0.0000000   0.0000000   0.1317162), wk =   0.1666667
        k(    3) = (   0.0000000   0.0000000  -0.2634324), wk =   0.0833333
        k(    4) = (   0.0000000   0.2532999   0.0000000), wk =   0.1666667
        k(    5) = (   0.0000000   0.2532999   0.1317162), wk =   0.3333333
        k(    6) = (   0.0000000   0.2532999  -0.2634324), wk =   0.1666667
        k(    7) = (  -0.5000000   0.0000000   0.0000000), wk =   0.0833333
        k(    8) = (  -0.5000000   0.0000000   0.1317162), wk =   0.1666667
        k(    9) = (  -0.5000000   0.0000000  -0.2634324), wk =   0.0833333
        k(   10) = (  -0.5000000   0.2532999   0.0000000), wk =   0.1666667
        k(   11) = (  -0.5000000   0.2532999   0.1317162), wk =   0.3333333
        k(   12) = (  -0.5000000   0.2532999  -0.2634324), wk =   0.1666667

     Dense  grid:    29529 G-vectors     FFT dimensions: (  30,  40,  54)

     Largest allocated arrays     est. size (Mb)     dimensions
        Kohn-Sham Wavefunctions         1.69 Mb     (    922,  120)
        NL pseudopotentials             3.38 Mb     (    922,  240)
        Each V/rho on FFT grid          0.26 Mb     (  16800)
        Each G-vector array             0.06 Mb     (   7386)
        G-vector shells                 0.06 Mb     (   7386)
     Largest temporary arrays     est. size (Mb)     dimensions
        Each subspace H/S matrix        0.22 Mb     ( 120, 120)
        Each <psi_i|beta_j> matrix      0.44 Mb     (    240,  120)
        Arrays for rho mixing           2.05 Mb     (  16800,   8)

     Initial potential from superposition of free atoms

     Starting from uniform charge
     Starting wfc are    0 randomized atomic wfcs

     total cpu time spent up to now is        2.6 secs

     Self-consistent Calculation

     iteration #  1     ecut=    40.00 Ry     beta=0.70
     CG style diagonalization
     c_bands:  1 eigenvalues not converged
     c_bands:  1 eigenvalues not converged
     c_bands:  1 eigenvalues not converged
     ethr =  1.00E-02,  avg # of iterations = 12.1

     total cpu time spent up to now is       27.7 secs

     total energy              =   -1873.77291579 Ry
     Harris-Foulkes estimate   =   -2152.34547516 Ry
     estimated scf accuracy    <     366.36503860 Ry

     iteration #  2     ecut=    40.00 Ry     beta=0.70
     CG style diagonalization
     c_bands:  1 eigenvalues not converged
     ethr =  1.00E-02,  avg # of iterations =  9.1

     total cpu time spent up to now is       45.9 secs

     total energy              =   -1945.40139024 Ry
     Harris-Foulkes estimate   =   -2073.20076264 Ry
     estimated scf accuracy    <     208.89976675 Ry

     iteration #  3     ecut=    40.00 Ry     beta=0.70
     CG style diagonalization
     ethr =  1.00E-02,  avg # of iterations =  7.4

     total cpu time spent up to now is       60.9 secs

     total energy              =   -2000.55064174 Ry
     Harris-Foulkes estimate   =   -2014.55838103 Ry
     estimated scf accuracy    <      26.79121038 Ry

     iteration #  4     ecut=    40.00 Ry     beta=0.70
     CG style diagonalization
     ethr =  1.00E-02,  avg # of iterations =  3.7

     total cpu time spent up to now is       68.1 secs

     total energy              =   -2006.27214768 Ry
     Harris-Foulkes estimate   =   -2007.34025980 Ry
     estimated scf accuracy    <       2.01840052 Ry

     iteration #  5     ecut=    40.00 Ry     beta=0.70
     CG style diagonalization
     ethr =  1.01E-03,  avg # of iterations =  4.2

     total cpu time spent up to now is       76.4 secs

     total energy              =   -2006.95973188 Ry
     Harris-Foulkes estimate   =   -2007.08566819 Ry
     estimated scf accuracy    <       0.20908365 Ry

     iteration #  6     ecut=    40.00 Ry     beta=0.70
     CG style diagonalization
     c_bands:  2 eigenvalues not converged
     c_bands:  1 eigenvalues not converged
     c_bands:  1 eigenvalues not converged
     c_bands:  1 eigenvalues not converged
     c_bands:  1 eigenvalues not converged
     ethr =  1.05E-04,  avg # of iterations =  4.4

     total cpu time spent up to now is       84.8 secs

     total energy              =   -2007.01967534 Ry
     Harris-Foulkes estimate   =   -2007.08823595 Ry
     estimated scf accuracy    <       0.16489193 Ry

     iteration #  7     ecut=    40.00 Ry     beta=0.70
     CG style diagonalization
     ethr =  8.24E-05,  avg # of iterations =  3.4

     total cpu time spent up to now is       91.3 secs

     total energy              =   -2007.04953474 Ry
     Harris-Foulkes estimate   =   -2007.05308565 Ry
     estimated scf accuracy    <       0.00603843 Ry

     iteration #  8     ecut=    40.00 Ry     beta=0.70
     CG style diagonalization
     c_bands:  1 eigenvalues not converged
     c_bands:  1 eigenvalues not converged
     c_bands:  2 eigenvalues not converged
     ethr =  3.02E-06,  avg # of iterations =  4.8

     total cpu time spent up to now is      100.5 secs

     total energy              =   -2007.05159789 Ry
     Harris-Foulkes estimate   =   -2007.05213442 Ry
     estimated scf accuracy    <       0.00093067 Ry

     iteration #  9     ecut=    40.00 Ry     beta=0.70
     CG style diagonalization
     ethr =  4.65E-07,  avg # of iterations =  3.8

     total cpu time spent up to now is      107.4 secs

     End of self-consistent calculation

          k = 0.0000 0.0000 0.0000 (  3675 PWs)   bands (ev):

   -23.7416 -23.6434 -23.6143 -23.5831 -11.9050 -11.6810 -11.2904 -10.9054
   -10.7818 -10.7726 -10.6792 -10.5813   3.4133   3.9037   3.9937   4.0018
     4.1196   4.1767   4.3303   4.3648   4.4991   4.6675   4.7837   5.0431
    10.4030  10.7812  11.0056  11.5521  12.2458  12.3620  12.4963  12.6269
    12.7708  12.8423  13.3262  13.3856  13.5111  13.5180  13.9332  13.9874
    14.1862  14.2821  14.3769  14.4856  15.4332  15.4656  15.5254  15.7805
    33.1055  33.2621  33.5674  34.3791  34.4058  34.4726  34.4832  34.8897
    35.1399  35.7577  36.2524  36.7073  36.8899  37.0353  37.3295  38.2342
    38.7217  39.0226  39.3948  39.7398  39.7453  40.3156  40.5234  40.8144
    40.8707  41.2223  41.4388  41.4709  42.2840  42.3241  42.4294  42.5921
    42.6597  43.4326  43.5155  43.8530  43.8823  44.7654  44.8558  44.9314
    45.2847  45.3995  45.5324  46.8128  47.1090  47.4478  47.8761  48.0457
    48.4275  49.1538  49.3809  49.6473  49.7559  50.2270  50.3686  50.3911
    50.9071  50.9937  51.3674  51.7021  51.9987  52.5798  52.8898  53.7897
    54.6187  55.3823  55.5304  55.9323  56.5172  56.9867  57.0037  57.1042

          k = 0.0000 0.0000 0.1317 (  3675 PWs)   bands (ev):

   -23.7311 -23.6668 -23.6000 -23.5849 -11.8942 -11.7562 -11.1666 -10.9119
   -10.8360 -10.7403 -10.6989 -10.5908   3.4684   3.7739   4.0675   4.0859
     4.1432   4.1684   4.3038   4.3578   4.4252   4.5754   4.8432   5.0094
    10.4207  10.6817  11.2752  11.6716  12.3584  12.3865  12.3989  12.6088
    12.8627  13.0372  13.3006  13.4399  13.4466  13.4667  13.5662  13.8818
    14.1708  14.4119  14.4556  14.6405  15.1673  15.3446  15.5384  15.7345
    32.9954  33.3021  33.7701  33.9395  33.9592  34.5201  35.0048  35.0104
    35.4125  35.7756  36.6368  37.0319  37.0331  37.6148  37.6733  38.0850
    38.1684  38.7863  39.2112  39.3426  39.4965  39.8090  40.8071  40.8298
    40.8773  41.0496  41.8449  41.9237  42.1102  42.2333  42.2518  42.3503
    42.5515  43.2782  43.4171  44.1785  44.2014  44.5764  44.5969  45.1454
    45.5188  45.6680  46.1857  46.4395  46.6844  47.1980  47.5191  47.6952
    47.8980  48.2530  48.9156  49.4527  49.8769  50.2650  50.3183  50.5884
    50.6540  51.5156  51.8148  52.0682  52.2826  52.8330  53.4968  54.7022
    55.1810  55.1961  55.3379  55.7126  56.3796  56.6674  57.0417  57.0749

          k = 0.0000 0.0000-0.2634 (  3690 PWs)   bands (ev):

   -23.7028 -23.7028 -23.5902 -23.5902 -11.8490 -11.8490 -10.9733 -10.9733
   -10.8447 -10.8447 -10.6302 -10.6302   3.6010   3.6010   4.1472   4.1472
     4.2184   4.2184   4.2674   4.2674   4.3909   4.3909   4.9371   4.9371
    10.5096  10.5096  11.9251  11.9251  11.9800  11.9800  12.7070  12.7070
    12.9404  12.9404  13.2130  13.2130  13.5532  13.5532  13.8380  13.8380
    14.1187  14.1187  14.6301  14.6301  15.0768  15.0768  15.6226  15.6226
    33.1501  33.1501  33.4428  33.4428  34.3906  34.3906  35.5633  35.5633
    36.2578  36.2578  36.2885  36.2885  37.3945  37.3945  37.9391  37.9391
    38.4426  38.4426  38.5866  38.5866  40.0025  40.0025  40.7714  40.7714
    41.0596  41.0596  41.6096  41.6096  42.2119  42.2119  42.9319  42.9319
    43.2475  43.2474  43.3239  43.3239  43.6853  43.6853  44.8828  44.8828
    45.9562  45.9562  46.0006  46.0006  46.7015  46.7015  47.7689  47.7689
    47.8023  47.8023  49.2692  49.2692  49.4758  49.4758  50.3747  50.3747
    51.3242  51.3242  52.4590  52.4591  52.5950  52.5950  54.8115  54.8115
    55.0719  55.0719  55.6296  55.6297  56.5062  56.5064  56.6135  56.6136

          k = 0.0000 0.2533 0.0000 (  3664 PWs)   bands (ev):

   -23.7045 -23.6447 -23.6148 -23.6078 -11.7822 -11.5326 -11.4802 -11.1928
   -10.8767 -10.8750 -10.4826 -10.4807   3.5900   3.8962   3.9959   4.0274
     4.0319   4.1094   4.5646   4.5818   4.7449   4.7450   4.9207   5.0232
    10.7550  11.4724  11.5596  11.6404  11.6702  11.7479  11.9497  12.5037
    12.5834  12.7628  13.0043  13.3079  13.4698  13.9260  14.0149  14.0856
    14.2785  14.3116  14.4462  14.4920  14.6356  15.0194  15.0701  15.2703
    34.0188  34.0638  34.0907  34.4071  35.1344  35.1970  35.4625  35.6023
    35.8659  36.2732  36.3821  36.5890  36.6479  37.5237  37.7111  38.1845
    38.4186  38.4495  39.0375  39.4385  39.5768  39.8825  40.0290  40.0857
    40.4545  41.2261  41.9211  41.9891  42.1350  42.3462  42.8918  42.8940
    43.0724  43.5623  43.5886  43.8774  44.6293  44.9057  44.9241  45.1254
    45.6201  45.7995  46.3289  46.4534  46.5096  46.5279  47.2130  47.4835
    47.7532  48.1121  48.2912  48.4629  48.7654  49.3023  49.5273  50.0825
    50.4974  50.7049  51.1893  51.4993  52.2679  52.3402  52.4993  53.1849
    53.2095  53.2447  55.9183  56.7622  56.9941  57.0515  57.2914  57.6251

          k = 0.0000 0.2533 0.1317 (  3669 PWs)   bands (ev):

   -23.6966 -23.6545 -23.6145 -23.6083 -11.7744 -11.6455 -11.3765 -11.2283
   -10.8503 -10.7810 -10.5404 -10.5055   3.6315   3.8379   4.0030   4.0356
     4.0954   4.1512   4.5299   4.5741   4.6246   4.6779   4.9426   5.0245
    10.9252  11.4162  11.5522  11.6951  11.7635  11.9766  12.0810  12.4682
    12.7007  12.7344  12.9105  13.1633  13.4450  13.8828  13.9315  14.0935
    14.0939  14.2672  14.4907  14.5046  14.6814  14.9892  14.9990  15.2049
    33.8717  33.9183  34.3777  34.4539  34.8845  35.3326  35.5992  35.7903
    35.9731  36.2233  36.5234  36.6294  37.0036  37.4381  38.0343  38.0496
    38.2382  38.2794  38.6082  39.5105  39.8565  39.8786  40.4224  40.7985
    40.9690  41.0324  41.3202  41.4958  42.0249  42.2473  42.5479  42.8831
    43.3342  43.4428  43.7096  43.9427  44.2416  44.2648  44.6757  45.0212
    45.2031  45.2502  46.2429  46.4797  46.8842  47.0554  47.4120  47.5568
    47.5944  48.1254  48.5927  48.6179  48.7843  49.4393  49.5859  49.8875
    50.0245  50.4684  50.6864  51.1625  51.9247  52.2497  52.6466  53.2807
    54.1415  55.0508  56.2091  56.6602  56.9831  57.0443  57.2112  57.2450

          k = 0.0000 0.2533-0.2634 (  3666 PWs)   bands (ev):

   -23.6762 -23.6762 -23.6106 -23.6106 -11.7361 -11.7361 -11.2937 -11.2937
   -10.7364 -10.7364 -10.5839 -10.5839   3.7274   3.7274   4.0248   4.0248
     4.2118   4.2118   4.4622   4.4622   4.5988   4.5988   4.9974   4.9974
    11.2202  11.2202  11.7094  11.7094  11.9444  11.9444  12.4087  12.4087
    12.7195  12.7195  12.9374  12.9374  13.6275  13.6275  13.9423  13.9423
    13.9984  13.9984  14.6283  14.6283  14.7943  14.7943  15.0559  15.0559
    33.9201  33.9201  34.1183  34.1183  35.5222  35.5222  35.9428  35.9428
    36.1083  36.1083  36.7617  36.7617  36.9222  36.9222  37.9400  37.9400
    38.5015  38.5015  38.9266  38.9266  40.0778  40.0778  40.6260  40.6260
    40.6571  40.6571  41.3041  41.3041  42.6239  42.6239  43.0609  43.0609
    43.3992  43.3992  43.4194  43.4194  43.8853  43.8853  44.3803  44.3803
    45.3988  45.3988  45.9397  45.9397  46.8975  46.8975  47.5069  47.5069
    47.5419  47.5419  49.0060  49.0060  49.3996  49.3996  49.4128  49.4128
    50.3165  50.3165  51.3389  51.3390  51.3937  51.3938  53.1268  53.1268
    56.0349  56.0351  56.7272  56.7278  57.0602  57.0606  57.1623  57.1632

          k =-0.5000 0.0000 0.0000 (  3722 PWs)   bands (ev):

   -23.6435 -23.6435 -23.5909 -23.5909 -11.7542 -11.7542 -11.1056 -11.1056
   -10.9212 -10.9212 -10.7762 -10.7762   3.5072   3.5072   3.7738   3.7738
     4.2602   4.2602   4.2814   4.2814   4.4930   4.4930   4.9638   4.9638
    10.6153  10.6153  11.9010  11.9010  11.9614  11.9614  12.4345  12.4345
    13.1230  13.1230  13.8401  13.8401  14.0249  14.0249  14.1349  14.1349
    14.4392  14.4392  14.7260  14.7260  14.9021  14.9021  15.2951  15.2951
    33.9295  33.9295  35.4190  35.4190  35.7390  35.7390  35.7646  35.7646
    36.1136  36.1136  36.3120  36.3120  36.5352  36.5352  37.6069  37.6069
    38.0234  38.0234  38.6489  38.6489  38.8857  38.8857  38.9395  38.9395
    40.0411  40.0411  40.6909  40.6909  41.5860  41.5860  42.4183  42.4183
    43.3680  43.3680  43.4623  43.4623  43.7585  43.7585  45.0626  45.0626
    45.4152  45.4152  46.3465  46.3465  46.4693  46.4693  47.4197  47.4197
    48.4872  48.4872  49.1670  49.1670  49.5229  49.5229  50.0388  50.0388
    50.9049  50.9049  51.5897  51.5897  52.4453  52.4454  52.9796  52.9796
    53.1050  53.1050  53.8527  53.8527  54.2895  54.2896  56.1406  56.1412

          k =-0.5000 0.0000 0.1317 (  3710 PWs)   bands (ev):

   -23.6428 -23.6428 -23.5899 -23.5899 -11.7685 -11.7685 -11.0853 -11.0853
   -10.9288 -10.9288 -10.7714 -10.7714   3.5476   3.5476   3.7116   3.7116
     4.0403   4.0403   4.4716   4.4716   4.5552   4.5552   4.9303   4.9303
    10.6579  10.6579  12.0232  12.0232  12.1194  12.1194  12.4820  12.4820
    13.1267  13.1267  13.7571  13.7571  13.7987  13.7987  13.9794  13.9794
    14.5625  14.5625  14.6809  14.6809  14.9082  14.9082  15.2945  15.2945
    34.1191  34.1191  35.0630  35.0630  35.5225  35.5225  35.8566  35.8566
    36.2041  36.2041  36.6253  36.6253  36.8106  36.8106  37.4207  37.4207
    37.9311  37.9311  38.7564  38.7564  39.0324  39.0324  39.3967  39.3967
    40.0139  40.0139  40.6471  40.6471  41.4414  41.4414  42.1190  42.1190
    42.6068  42.6068  43.5797  43.5797  44.3769  44.3769  45.0336  45.0336
    45.1081  45.1081  45.8876  45.8876  46.3886  46.3886  47.6006  47.6006
    48.2402  48.2402  49.3541  49.3541  49.7560  49.7560  50.2433  50.2433
    50.7448  50.7448  51.7561  51.7562  52.1846  52.1847  52.5181  52.5181
    52.8341  52.8342  54.6815  54.6818  55.3485  55.3488  55.9279  55.9281

          k =-0.5000 0.0000-0.2634 (  3680 PWs)   bands (ev):

   -23.6401 -23.6401 -23.5891 -23.5891 -11.7814 -11.7814 -11.0665 -11.0665
   -10.9345 -10.9345 -10.7677 -10.7677   3.5604   3.5604   3.7198   3.7198
     3.9117   3.9117   4.4859   4.4859   4.6798   4.6798   4.8895   4.8895
    10.6983  10.6983  12.2110  12.2110  12.2747  12.2747  12.5387  12.5387
    13.1286  13.1286  13.6341  13.6341  13.6474  13.6474  13.7458  13.7458
    14.6007  14.6007  14.8007  14.8007  14.8175  14.8175  15.2960  15.2960
    34.3045  34.3045  34.8149  34.8149  35.4834  35.4834  35.8440  35.8440
    36.5237  36.5237  36.6418  36.6418  37.1367  37.1367  37.2351  37.2351
    37.6577  37.6577  38.6869  38.6869  39.3590  39.3590  39.5821  39.5821
    40.1542  40.1542  40.7541  40.7541  41.8305  41.8305  42.1002  42.1002
    42.1225  42.1225  43.6382  43.6382  43.6995  43.6995  43.8211  43.8211
    45.4094  45.4094  45.7426  45.7426  47.4502  47.4502  47.6699  47.6699
    47.8097  47.8097  49.1897  49.1897  50.2115  50.2115  50.2467  50.2466
    51.1879  51.1880  51.2703  51.2703  52.0001  52.0002  52.2972  52.2972
    53.3419  53.3420  54.6847  54.6848  54.9909  54.9909  56.4915  56.4918

          k =-0.5000 0.2533 0.0000 (  3686 PWs)   bands (ev):

   -23.6271 -23.6271 -23.5998 -23.5998 -11.5747 -11.5747 -11.2342 -11.2342
   -10.9402 -10.9402 -10.8851 -10.8851   3.7592   3.7592   3.8471   3.8471
     4.3329   4.3329   4.3814   4.3814   4.6423   4.6423   4.9076   4.9076
    11.0295  11.0295  11.2570  11.2570  12.1280  12.1280  12.8532  12.8532
    12.8922  12.8922  13.3425  13.3425  13.8877  13.8877  13.9245  13.9245
    14.4534  14.4534  14.5509  14.5509  14.8671  14.8671  14.9979  14.9979
    34.6450  34.6450  35.6715  35.6715  35.8725  35.8725  36.0866  36.0866
    36.5946  36.5946  36.6880  36.6880  37.5951  37.5951  37.8917  37.8917
    38.1485  38.1485  38.2417  38.2417  39.4093  39.4093  39.6337  39.6337
    40.4951  40.4951  40.6153  40.6153  41.4968  41.4968  42.0641  42.0641
    43.1240  43.1240  43.5914  43.5914  43.7858  43.7858  44.4591  44.4591
    44.5497  44.5497  46.2737  46.2737  46.4906  46.4906  47.3925  47.3925
    48.0238  48.0238  48.1238  48.1239  48.7818  48.7818  48.9126  48.9126
    49.7871  49.7871  49.8844  49.8844  50.9961  50.9961  53.1336  53.1336
    54.5927  54.5928  55.0473  55.0474  55.8423  55.8424  56.3104  56.3102

          k =-0.5000 0.2533 0.1317 (  3692 PWs)   bands (ev):

   -23.6260 -23.6260 -23.6017 -23.6017 -11.5893 -11.5893 -11.2361 -11.2361
   -10.9376 -10.9376 -10.8684 -10.8684   3.7200   3.7200   3.8346   3.8346
     4.2394   4.2394   4.4937   4.4937   4.6204   4.6204   4.9203   4.9203
    11.1185  11.1185  11.4722  11.4722  12.1471  12.1471  12.6853  12.6853
    12.8466  12.8466  13.4127  13.4127  13.7665  13.7665  14.0179  14.0179
    14.3827  14.3827  14.6198  14.6198  14.7447  14.7447  14.9535  14.9535
    34.6698  34.6698  35.4172  35.4172  35.8084  35.8084  36.2367  36.2367
    36.5911  36.5911  36.9939  36.9939  37.4830  37.4830  37.8445  37.8445
    38.4358  38.4358  38.7161  38.7161  39.2810  39.2810  39.6796  39.6796
    40.5989  40.5989  40.8600  40.8600  41.4523  41.4523  41.7843  41.7843
    42.8783  42.8783  43.4674  43.4674  43.8971  43.8971  44.2008  44.2008
    44.7991  44.7991  45.6712  45.6712  46.2502  46.2502  47.1014  47.1014
    47.3172  47.3172  47.6978  47.6978  48.6182  48.6182  49.0333  49.0333
    50.1827  50.1827  50.5412  50.5412  51.4404  51.4404  53.1406  53.1407
    54.6694  54.6694  54.9909  54.9910  55.7697  55.7700  56.3892  56.3892

          k =-0.5000 0.2533-0.2634 (  3704 PWs)   bands (ev):

   -23.6261 -23.6261 -23.6030 -23.6030 -11.6028 -11.6028 -11.2391 -11.2391
   -10.9319 -10.9319 -10.8552 -10.8552   3.6642   3.6642   3.8527   3.8527
     4.1852   4.1852   4.5309   4.5309   4.6211   4.6211   4.9265   4.9265
    11.2246  11.2246  11.7720  11.7720  12.1095  12.1095  12.5766  12.5766
    12.7180  12.7180  13.3703  13.3703  13.8276  13.8276  14.0389  14.0389
    14.3660  14.3660  14.4993  14.4993  14.7662  14.7662  14.8788  14.8788
    34.6119  34.6119  35.3151  35.3151  35.7847  35.7847  36.4336  36.4336
    36.7480  36.7480  37.0414  37.0414  37.4026  37.4026  37.8100  37.8100
    38.6699  38.6699  38.7748  38.7748  39.7706  39.7706  39.7786  39.7786
    40.5157  40.5157  40.6825  40.6825  41.4980  41.4980  42.1558  42.1558
    42.4275  42.4275  43.2140  43.2140  43.8155  43.8155  44.4217  44.4217
    44.4531  44.4531  45.9434  45.9434  45.9728  45.9728  46.3797  46.3797
    46.5199  46.5199  47.2319  47.2319  48.4151  48.4151  49.2111  49.2111
    50.8240  50.8240  50.9266  50.9266  52.5266  52.5266  52.9299  52.9300
    54.3582  54.3583  55.1818  55.1819  55.2468  55.2468  56.9009  56.9014

     the Fermi energy is    48.8292 ev

!    total energy              =   -2007.05183169 Ry
     Harris-Foulkes estimate   =   -2007.05188707 Ry
     estimated scf accuracy    <       0.00006483 Ry

     The total energy is the sum of the following terms:

     one-electron contribution =     426.61907763 Ry
     hartree contribution      =     106.51379380 Ry
     xc contribution           =    -227.35343190 Ry
     ewald contribution        =   -2312.41906471 Ry
     smearing contrib. (-TS)   =      -0.41220652 Ry

     convergence has been achieved in   9 iterations

     Forces acting on atoms (Ry/au):

     atom    1 type  1   force =     0.00000000   -0.07690809   -0.06735803
     atom    2 type  1   force =     0.00000000    0.07690809    0.06735803
     atom    3 type  1   force =     0.00000000   -0.07690809    0.06735803
     atom    4 type  1   force =     0.00000000    0.07690809   -0.06735803
     atom    5 type  1   force =     0.00000000    0.18823696   -0.23317571
     atom    6 type  1   force =     0.00000000   -0.18823696    0.23317571
     atom    7 type  1   force =     0.00000000    0.18823696    0.23317571
     atom    8 type  1   force =     0.00000000   -0.18823696   -0.23317571
     atom    9 type  2   force =     0.00000000   -0.20096810   -0.05123983
     atom   10 type  2   force =     0.00000000    0.20096810    0.05123983
     atom   11 type  2   force =     0.00000000   -0.20096810    0.05123983
     atom   12 type  2   force =     0.00000000    0.20096810   -0.05123983

     Total force =     0.757020     Total SCF correction =     0.000000


     entering subroutine stress ...

          total   stress  (Ry/bohr**3)                   (kbar)     P= 6657.49
   0.04850111   0.00000000   0.00000000       7134.76      0.00      0.00
   0.00000000   0.04216705   0.00000000          0.00   6202.99      0.00
   0.00000000   0.00000000   0.04510187          0.00      0.00   6634.71


     BFGS Geometry Optimization

     number of scf cycles    =   1
     number of bfgs steps    =   0

     enthalpy new            =   -2007.0518316924 Ry

     new trust radius        =       0.5000000000 bohr
     new conv_thr            =       0.0001000000 Ry

     new unit-cell volume =   1084.50862 a.u.^3 (   160.70759 Ang^3 )

CELL_PARAMETERS (alat=  7.01510508)
   1.085136619   0.000000000   0.000000000
   0.000000000   1.413368494   0.000000000
   0.000000000   0.000000000   2.048286200

ATOMIC_POSITIONS (crystal)
Co       0.750000000   0.825816050   0.435380795
Co       0.250000000   0.174183950   0.564619205
Co       0.750000000   0.325816050   0.064619205
Co       0.250000000   0.674183950   0.935380795
Co       0.250000000   0.538517699   0.281115374
Co       0.750000000   0.461482301   0.718884626
Co       0.250000000   0.038517699   0.218884626
Co       0.750000000   0.961482301   0.781115374
Si       0.250000000   0.201325471   0.893329793
Si       0.750000000   0.798674529   0.106670207
Si       0.250000000   0.701325471   0.606670207
Si       0.750000000   0.298674529   0.393329793



     Writing output data file Prototype-La-oP12-Co2Si.save
     NEW-OLD atomic charge density approx. for the potential
     NEW k-points:
        k(    1) = (   0.0000000   0.0000000   0.0000000), wk =   0.0833333
        k(    2) = (   0.0000000   0.0000000   0.1220533), wk =   0.1666667
        k(    3) = (   0.0000000   0.0000000  -0.2441065), wk =   0.0833333
        k(    4) = (   0.0000000   0.2358432   0.0000000), wk =   0.1666667
        k(    5) = (   0.0000000   0.2358432   0.1220533), wk =   0.3333333
        k(    6) = (   0.0000000   0.2358432  -0.2441065), wk =   0.1666667
        k(    7) = (  -0.4607715   0.0000000   0.0000000), wk =   0.0833333
        k(    8) = (  -0.4607715   0.0000000   0.1220533), wk =   0.1666667
        k(    9) = (  -0.4607715   0.0000000  -0.2441065), wk =   0.0833333
        k(   10) = (  -0.4607715   0.2358432   0.0000000), wk =   0.1666667
        k(   11) = (  -0.4607715   0.2358432   0.1220533), wk =   0.3333333
        k(   12) = (  -0.4607715   0.2358432  -0.2441065), wk =   0.1666667

     total cpu time spent up to now is      110.6 secs

     Self-consistent Calculation

     iteration #  1     ecut=    40.00 Ry     beta=0.70
     CG style diagonalization
     c_bands:  2 eigenvalues not converged
     c_bands:  1 eigenvalues not converged
     c_bands:  2 eigenvalues not converged
     c_bands:  2 eigenvalues not converged
     ethr =  1.00E-06,  avg # of iterations = 20.9

     total cpu time spent up to now is      149.5 secs

     total energy              =   -2007.40486625 Ry
     Harris-Foulkes estimate   =   -2022.00533970 Ry
     estimated scf accuracy    <      19.26387709 Ry

     iteration #  2     ecut=    40.00 Ry     beta=0.70
     CG style diagonalization
     ethr =  9.63E-03,  avg # of iterations =  3.8

     total cpu time spent up to now is      156.9 secs

     total energy              =   -2010.82840619 Ry
     Harris-Foulkes estimate   =   -2014.72104759 Ry
     estimated scf accuracy    <       5.87048352 Ry

     iteration #  3     ecut=    40.00 Ry     beta=0.70
     CG style diagonalization
     ethr =  2.94E-03,  avg # of iterations =  3.6

     total cpu time spent up to now is      163.6 secs

     total energy              =   -2012.80530939 Ry
     Harris-Foulkes estimate   =   -2014.20948301 Ry
     estimated scf accuracy    <       3.17818891 Ry

     iteration #  4     ecut=    40.00 Ry     beta=0.70
     CG style diagonalization
     ethr =  1.59E-03,  avg # of iterations =  3.4

     total cpu time spent up to now is      169.8 secs

     total energy              =   -2013.26098939 Ry
     Harris-Foulkes estimate   =   -2013.31652049 Ry
     estimated scf accuracy    <       0.14422776 Ry

     iteration #  5     ecut=    40.00 Ry     beta=0.70
     CG style diagonalization
     ethr =  7.21E-05,  avg # of iterations =  3.8

     total cpu time spent up to now is      176.8 secs

     total energy              =   -2013.28782057 Ry
     Harris-Foulkes estimate   =   -2013.29873272 Ry
     estimated scf accuracy    <       0.02313706 Ry

     iteration #  6     ecut=    40.00 Ry     beta=0.70
     CG style diagonalization
     c_bands:  1 eigenvalues not converged
     c_bands:  1 eigenvalues not converged
     ethr =  1.16E-05,  avg # of iterations =  3.8

     total cpu time spent up to now is      184.0 secs

     total energy              =   -2013.29367546 Ry
     Harris-Foulkes estimate   =   -2013.29730995 Ry
     estimated scf accuracy    <       0.00936879 Ry

     iteration #  7     ecut=    40.00 Ry     beta=0.70
     CG style diagonalization
     c_bands:  2 eigenvalues not converged
     ethr =  4.68E-06,  avg # of iterations =  3.5

     total cpu time spent up to now is      190.6 secs

     total energy              =   -2013.29504388 Ry
     Harris-Foulkes estimate   =   -2013.29574046 Ry
     estimated scf accuracy    <       0.00160321 Ry

     iteration #  8     ecut=    40.00 Ry     beta=0.70
     CG style diagonalization
     ethr =  8.02E-07,  avg # of iterations =  3.4

     total cpu time spent up to now is      197.2 secs

     End of self-consistent calculation

          k = 0.0000 0.0000 0.0000 (  3675 PWs)   bands (ev):

   -32.6958 -32.6658 -32.6648 -32.6622 -21.1088 -20.9705 -20.6954 -20.6067
   -20.5595 -20.5098 -20.4756 -20.4463  -4.4286  -4.2573  -4.2149  -4.2110
    -4.1902  -4.1336  -4.0483  -4.0422  -3.9845  -3.9696  -3.8354  -3.7414
     2.2210   2.4803   2.7651   3.0670   3.2652   3.2928   3.4327   3.6292
     3.6432   3.7907   3.9468   3.9832   4.0082   4.1368   4.3748   4.4295
     4.4366   4.4807   4.4891   4.6281   4.9888   5.0675   5.1752   5.3071
    26.2791  26.2918  26.2985  26.9954  27.0514  27.1117  27.1913  27.4249
    27.4503  28.1759  28.4203  28.4231  28.4536  28.7593  28.8823  29.0041
    29.3475  30.4826  30.5439  30.5994  30.6664  31.0709  31.1381  31.7301
    31.9050  31.9084  31.9295  32.3287  32.5719  32.8066  32.8329  32.8474
    33.2570  33.2924  33.3683  33.7315  34.3749  34.8841  34.9023  34.9147
    35.0960  35.2650  35.6489  36.3009  36.7778  36.9072  37.0584  37.1208
    38.1032  38.1599  38.2128  38.5966  38.6403  38.7009  39.0987  39.2679
    39.4575  39.5242  39.7718  40.2398  40.2866  40.8730  41.0267  41.1905
    42.8695  43.6339  44.0145  44.8719  45.7773  46.1411  46.2790  46.8372

          k = 0.0000 0.0000 0.1221 (  3675 PWs)   bands (ev):

   -32.6928 -32.6739 -32.6645 -32.6577 -21.0983 -21.0033 -20.6519 -20.6054
   -20.5684 -20.5024 -20.4914 -20.4517  -4.3986  -4.2971  -4.1943  -4.1844
    -4.1669  -4.1465  -4.0781  -4.0460  -4.0069  -3.9965  -3.8089  -3.7484
     2.2464   2.4283   2.8799   3.0912   3.2516   3.3431   3.3589   3.6816
     3.7093   3.8324   3.9323   3.9817   4.0363   4.1589   4.1711   4.3095
     4.4184   4.5693   4.5859   4.6758   4.9443   4.9581   5.1870   5.2832
    26.2040  26.2649  26.6019  26.6279  26.6825  27.1493  27.5013  27.5087
    27.7231  28.0099  28.7214  28.7551  28.8788  29.0062  29.0558  29.0748
    29.4857  29.6834  30.2710  30.3413  30.3585  30.4432  31.4805  31.5218
    31.8303  31.9809  32.0392  32.2952  32.4409  32.7593  32.9086  33.0074
    33.0330  33.6406  33.8511  34.0035  34.2708  34.6385  34.6868  35.0184
    35.4434  35.4884  35.6152  36.0577  36.1471  36.9139  37.0215  37.0651
    37.1534  37.6446  37.9116  38.3257  38.6678  38.7819  39.0841  39.3829
    39.4225  40.1136  40.2544  40.3848  40.3917  40.8323  41.2907  42.7694
    43.3365  43.5598  44.1100  44.5813  45.7434  45.9459  46.4760  46.6534

          k = 0.0000 0.0000-0.2441 (  3690 PWs)   bands (ev):

   -32.6848 -32.6848 -32.6656 -32.6656 -21.0615 -21.0615 -20.5964 -20.5964
   -20.5669 -20.5669 -20.4657 -20.4657  -4.3521  -4.3521  -4.1576  -4.1576
    -4.1444  -4.1444  -4.0971  -4.0971  -4.0368  -4.0368  -3.7784  -3.7784
     2.3165   2.3165   3.1529   3.1529   3.1646   3.1646   3.5274   3.5274
     3.8833   3.8833   3.9104   3.9104   4.0732   4.0732   4.3063   4.3063
     4.3640   4.3640   4.7111   4.7111   4.8547   4.8547   5.2277   5.2277
    26.2962  26.2962  26.3094  26.3094  26.9902  26.9902  27.9061  27.9061
    28.2936  28.2936  28.3002  28.3002  29.1624  29.1624  29.5501  29.5501
    29.5665  29.5665  29.6829  29.6829  29.9239  29.9239  31.5847  31.5847
    31.8462  31.8462  32.1472  32.1472  32.9333  32.9333  33.0646  33.0646
    33.4775  33.4775  33.8490  33.8490  33.9307  33.9307  34.8330  34.8330
    35.8974  35.8974  36.0597  36.0597  36.0764  36.0764  36.7459  36.7459
    37.0536  37.0536  38.2833  38.2833  38.3280  38.3280  39.0769  39.0769
    40.0508  40.0508  40.4744  40.4744  40.9167  40.9167  42.5600  42.5600
    43.7785  43.7785  44.7770  44.7770  45.7529  45.7531  46.3866  46.3866

          k = 0.0000 0.2358 0.0000 (  3664 PWs)   bands (ev):

   -32.6916 -32.6742 -32.6575 -32.6509 -21.0218 -20.8804 -20.8171 -20.7001
   -20.5946 -20.5591 -20.4111 -20.4085  -4.3569  -4.2539  -4.2194  -4.2032
    -4.1853  -4.1732  -3.9936  -3.9674  -3.9212  -3.9061  -3.7855  -3.7373
     2.5457   2.9744   3.0293   3.0603   3.0833   3.1880   3.2163   3.4554
     3.5112   3.6798   3.7410   3.9517   4.0141   4.3350   4.3508   4.4811
     4.5006   4.5103   4.5935   4.6050   4.6816   4.8344   4.8901   4.9743
    26.8656  26.9252  27.0001  27.0307  27.4840  27.6510  27.8025  27.8291
    28.1620  28.3465  28.4137  28.6623  28.8610  29.0762  29.2925  29.3773
    29.5053  29.8627  29.8724  30.2089  30.2288  30.8918  30.9681  31.0758
    31.3736  31.8946  32.0366  32.3056  32.5494  32.7763  32.8905  32.9220
    33.4120  33.7476  34.0472  34.1989  34.5826  34.7634  34.8449  35.0131
    35.2269  35.3266  35.7527  36.0887  36.1126  36.2161  36.4149  37.0305
    37.0417  37.3570  37.5783  37.7940  38.0121  38.1139  38.4906  38.4961
    39.1176  39.2086  39.3831  40.0365  40.4249  40.5389  40.5438  40.9032
    41.0524  41.1434  45.7207  46.2913  46.3630  46.9497  46.9546  47.2310

          k = 0.0000 0.2358 0.1221 (  3669 PWs)   bands (ev):

   -32.6878 -32.6724 -32.6610 -32.6595 -21.0114 -20.9242 -20.7912 -20.7200
   -20.5697 -20.5298 -20.4311 -20.4204  -4.3360  -4.2758  -4.2096  -4.1886
    -4.1784  -4.1595  -4.0254  -4.0009  -3.9251  -3.9133  -3.7838  -3.7428
     2.6041   2.8709   3.0508   3.0903   3.1831   3.1917   3.2855   3.4996
     3.5063   3.7058   3.7448   3.8863   4.0270   4.2998   4.3528   4.3899
     4.3962   4.4630   4.6159   4.6403   4.7289   4.8067   4.8816   4.9622
    26.7241  26.8433  26.9980  27.1889  27.2926  27.6706  28.0277  28.0353
    28.1150  28.3327  28.5539  28.7976  28.8260  29.1804  29.3900  29.5297
    29.5898  29.6678  29.9286  29.9943  30.3491  30.9320  31.2532  31.2758
    31.6550  31.6964  31.9068  31.9310  32.1778  32.4317  33.1778  33.1976
    33.6221  33.7206  33.8517  33.9695  34.1858  34.4854  34.5052  34.9677
    34.9733  35.0857  35.8584  35.9682  36.4768  36.4937  36.5865  36.8149
    36.8554  37.2788  37.6249  37.7603  37.8572  38.2339  38.3480  38.8231
    38.8543  39.0547  39.4483  39.5382  40.1755  40.4242  40.7911  41.1567
    41.9914  42.7572  45.9637  45.9791  46.2277  46.5286  47.0546  47.1465

          k = 0.0000 0.2358-0.2441 (  3666 PWs)   bands (ev):

   -32.6777 -32.6777 -32.6616 -32.6616 -20.9771 -20.9771 -20.7582 -20.7582
   -20.5179 -20.5179 -20.4450 -20.4450  -4.3072  -4.3072  -4.1978  -4.1978
    -4.1359  -4.1359  -4.0524  -4.0524  -3.9209  -3.9209  -3.7590  -3.7590
     2.7375   2.7375   3.1148   3.1148   3.1921   3.1921   3.4464   3.4464
     3.6077   3.6077   3.8327   3.8327   4.1558   4.1558   4.3000   4.3000
     4.3544   4.3544   4.7029   4.7029   4.7318   4.7318   4.9158   4.9158
    26.6946  26.6946  26.9493  26.9493  27.7657  27.7657  28.1166  28.1166
    28.4027  28.4027  28.6439  28.6439  28.7555  28.7555  29.6889  29.6889
    29.8255  29.8255  29.9006  29.9006  30.6482  30.6482  31.3865  31.3865
    31.4875  31.4875  31.5353  31.5353  32.9021  32.9021  33.1279  33.1279
    33.4641  33.4641  33.8922  33.8922  33.9201  33.9201  34.4865  34.4865
    35.3068  35.3068  35.5489  35.5489  36.3440  36.3440  36.7074  36.7074
    36.8060  36.8060  37.9089  37.9089  38.4240  38.4240  38.4301  38.4301
    38.9609  38.9609  39.7007  39.7007  39.8893  39.8893  41.0614  41.0614
    44.0389  44.0389  45.3344  45.3344  46.3491  46.3491  46.7619  46.7619

          k =-0.4608 0.0000 0.0000 (  3722 PWs)   bands (ev):

   -32.6847 -32.6847 -32.6711 -32.6711 -20.9922 -20.9922 -20.6324 -20.6324
   -20.5745 -20.5745 -20.5568 -20.5568  -4.3727  -4.3727  -4.3075  -4.3075
    -4.1382  -4.1382  -4.1338  -4.1338  -3.9519  -3.9519  -3.7985  -3.7985
     2.3781   2.3781   3.0019   3.0019   3.1074   3.1074   3.5178   3.5178
     3.6519   3.6519   4.1690   4.1690   4.2666   4.2666   4.3982   4.3982
     4.5985   4.5985   4.7566   4.7566   4.8455   4.8455   5.1039   5.1039
    26.5678  26.5678  27.4883  27.4883  27.8352  27.8352  28.0749  28.0749
    28.2534  28.2534  28.2659  28.2659  28.4579  28.4579  29.3897  29.3897
    29.5992  29.5992  29.9189  29.9189  30.3413  30.3413  30.6246  30.6246
    31.2665  31.2665  31.8878  31.8878  32.4679  32.4679  32.7688  32.7688
    34.0221  34.0221  34.0304  34.0304  34.2562  34.2562  34.8574  34.8574
    35.3056  35.3056  35.7059  35.7059  36.0588  36.0588  36.6652  36.6652
    37.4055  37.4055  38.1069  38.1069  38.4456  38.4456  38.9778  38.9778
    39.3853  39.3853  40.0841  40.0841  40.5225  40.5225  40.9305  40.9305
    40.9995  40.9995  41.6936  41.6936  44.9389  44.9386  46.4522  46.4528

          k =-0.4608 0.0000 0.1221 (  3710 PWs)   bands (ev):

   -32.6826 -32.6826 -32.6669 -32.6669 -20.9934 -20.9934 -20.6276 -20.6276
   -20.5762 -20.5762 -20.5537 -20.5537  -4.3653  -4.3653  -4.3140  -4.3140
    -4.1902  -4.1902  -4.0670  -4.0670  -3.9496  -3.9496  -3.8046  -3.8046
     2.3747   2.3747   3.0439   3.0439   3.2253   3.2253   3.4900   3.4900
     3.6946   3.6946   4.1297   4.1297   4.1642   4.1642   4.3301   4.3301
     4.6700   4.6700   4.7345   4.7345   4.8529   4.8529   5.1011   5.1011
    26.7105  26.7105  27.2579  27.2579  27.7777  27.7777  28.1200  28.1200
    28.1586  28.1586  28.5189  28.5189  28.7593  28.7593  29.0511  29.0511
    29.4771  29.4771  30.3146  30.3146  30.4151  30.4151  30.8396  30.8396
    31.2677  31.2677  31.8604  31.8604  32.4473  32.4473  32.7219  32.7219
    33.3978  33.3978  33.5510  33.5510  34.3613  34.3613  34.8536  34.8536
    35.0787  35.0787  35.6525  35.6525  36.2526  36.2526  37.1808  37.1808
    37.3317  37.3317  38.0221  38.0221  38.5178  38.5178  38.9231  38.9231
    39.4976  39.4976  40.1441  40.1441  40.2855  40.2855  40.6468  40.6468
    40.9660  40.9660  42.8830  42.8830  45.0168  45.0168  45.3694  45.3694

          k =-0.4608 0.0000-0.2441 (  3680 PWs)   bands (ev):

   -32.6725 -32.6725 -32.6628 -32.6628 -20.9904 -20.9904 -20.6251 -20.6251
   -20.5747 -20.5747 -20.5506 -20.5506  -4.3615  -4.3615  -4.2932  -4.2932
    -4.2268  -4.2268  -4.0256  -4.0256  -3.9393  -3.9393  -3.8051  -3.8051
     2.3652   2.3652   3.1229   3.1229   3.3676   3.3676   3.4491   3.4491
     3.7145   3.7145   4.0917   4.0917   4.1026   4.1026   4.2176   4.2176
     4.6961   4.6961   4.8051   4.8051   4.8135   4.8135   5.1049   5.1049
    26.8046  26.8046  27.2484  27.2484  27.6234  27.6234  28.0296  28.0296
    28.2920  28.2920  28.6456  28.6456  28.9163  28.9163  29.1256  29.1256
    29.2596  29.2596  30.1854  30.1854  30.8592  30.8592  30.9912  30.9912
    31.4020  31.4020  31.7583  31.7583  32.3325  32.3325  32.5711  32.5711
    33.0743  33.0743  33.7860  33.7860  33.8297  33.8297  34.6041  34.6041
    34.9269  34.9269  35.5548  35.5548  36.5663  36.5663  37.1407  37.1407
    37.3850  37.3850  38.3641  38.3641  38.7442  38.7442  38.7891  38.7891
    39.4506  39.4506  39.6568  39.6568  40.4954  40.4954  40.5589  40.5589
    41.7367  41.7367  43.0818  43.0818  44.2002  44.2002  45.6938  45.6938

          k =-0.4608 0.2358 0.0000 (  3686 PWs)   bands (ev):

   -32.6757 -32.6757 -32.6644 -32.6644 -20.8978 -20.8978 -20.7154 -20.7154
   -20.5766 -20.5766 -20.5730 -20.5730  -4.2918  -4.2918  -4.2755  -4.2755
    -4.1206  -4.1206  -4.1103  -4.1103  -3.8814  -3.8814  -3.7942  -3.7942
     2.6759   2.6759   2.8360   2.8360   3.1421   3.1421   3.6553   3.6553
     3.6604   3.6604   4.0142   4.0142   4.1794   4.1794   4.2283   4.2283
     4.6225   4.6225   4.6710   4.6710   4.8173   4.8173   4.8967   4.8967
    27.2208  27.2208  27.8140  27.8140  27.9250  27.9250  28.3367  28.3367
    28.4384  28.4384  28.6884  28.6884  29.2574  29.2574  29.4859  29.4859
    29.7864  29.7864  30.0674  30.0674  30.6232  30.6232  30.8601  30.8601
    31.3964  31.3964  31.5968  31.5968  32.1945  32.1945  33.0507  33.0507
    33.2654  33.2654  33.7349  33.7349  33.8953  33.8953  34.5357  34.5357
    34.6779  34.6779  35.7707  35.7707  35.9156  35.9156  36.7751  36.7751
    37.3324  37.3324  37.5352  37.5352  37.7967  37.7967  37.9272  37.9272
    38.6605  38.6605  38.8406  38.8406  39.2900  39.2900  40.8706  40.8706
    42.7460  42.7460  43.2198  43.2198  44.4925  44.4925  45.3624  45.3624

          k =-0.4608 0.2358 0.1221 (  3692 PWs)   bands (ev):

   -32.6734 -32.6734 -32.6690 -32.6690 -20.9015 -20.9015 -20.7174 -20.7174
   -20.5774 -20.5774 -20.5674 -20.5674  -4.3107  -4.3107  -4.2694  -4.2694
    -4.1433  -4.1433  -4.0820  -4.0820  -3.8918  -3.8918  -3.7920  -3.7920
     2.7050   2.7050   2.9217   2.9217   3.1986   3.1986   3.4904   3.4904
     3.6458   3.6458   4.0130   4.0130   4.1923   4.1923   4.3249   4.3249
     4.5684   4.5684   4.6810   4.6810   4.7672   4.7672   4.8784   4.8784
    27.2772  27.2772  27.6857  27.6857  27.9559  27.9559  28.2407  28.2407
    28.5596  28.5596  28.8321  28.8321  29.1674  29.1674  29.3867  29.3867
    30.0280  30.0280  30.2348  30.2348  30.5818  30.5818  30.9709  30.9709
    31.5890  31.5890  31.8815  31.8815  32.1620  32.1620  32.5475  32.5475
    33.1369  33.1369  33.3583  33.3583  34.1602  34.1602  34.2696  34.2696
    34.9585  34.9585  35.4722  35.4722  35.7765  35.7765  36.6053  36.6053
    36.7431  36.7431  37.0196  37.0196  37.8128  37.8128  38.1749  38.1749
    39.0449  39.0449  39.3553  39.3553  39.6137  39.6137  41.1172  41.1172
    42.4220  42.4220  43.3125  43.3125  44.3791  44.3791  45.9423  45.9423

          k =-0.4608 0.2358-0.2441 (  3704 PWs)   bands (ev):

   -32.6763 -32.6763 -32.6719 -32.6719 -20.9042 -20.9042 -20.7192 -20.7192
   -20.5784 -20.5784 -20.5654 -20.5654  -4.3273  -4.3273  -4.2591  -4.2591
    -4.1629  -4.1629  -4.0717  -4.0717  -3.8965  -3.8965  -3.7976  -3.7976
     2.7247   2.7247   3.0767   3.0767   3.2560   3.2560   3.3601   3.3601
     3.5297   3.5297   3.9898   3.9898   4.2815   4.2815   4.3967   4.3967
     4.5332   4.5332   4.5811   4.5811   4.7949   4.7949   4.8413   4.8413
    27.2367  27.2367  27.7569  27.7569  27.8740  27.8740  28.3894  28.3894
    28.5431  28.5431  28.8752  28.8752  29.0706  29.0706  29.3353  29.3353
    30.0873  30.0873  30.4214  30.4214  31.0177  31.0177  31.1659  31.1659
    31.5204  31.5204  31.8754  31.8754  31.9942  31.9942  32.3424  32.3424
    32.6474  32.6474  33.6816  33.6816  33.9614  33.9614  34.5916  34.5916
    34.8618  34.8618  35.3859  35.3859  35.5462  35.5462  36.1029  36.1029
    36.2557  36.2557  36.7419  36.7419  37.7554  37.7554  38.3174  38.3174
    39.4440  39.4440  39.6279  39.6279  40.6924  40.6924  40.7860  40.7860
    42.3876  42.3876  43.0462  43.0462  44.2846  44.2846  46.8457  46.8470

     the Fermi energy is    37.9026 ev

!    total energy              =   -2013.29532571 Ry
     Harris-Foulkes estimate   =   -2013.29534318 Ry
     estimated scf accuracy    <       0.00001971 Ry

     The total energy is the sum of the following terms:

     one-electron contribution =     204.18177120 Ry
     hartree contribution      =     145.54238346 Ry
     xc contribution           =    -219.71859963 Ry
     ewald contribution        =   -2142.76264151 Ry
     smearing contrib. (-TS)   =      -0.53823924 Ry

     convergence has been achieved in   8 iterations

     Forces acting on atoms (Ry/au):

     atom    1 type  1   force =     0.00000000   -0.04695758   -0.01161728
     atom    2 type  1   force =     0.00000000    0.04695758    0.01161728
     atom    3 type  1   force =     0.00000000   -0.04695758    0.01161728
     atom    4 type  1   force =     0.00000000    0.04695758   -0.01161728
     atom    5 type  1   force =     0.00000000    0.12050038   -0.12792663
     atom    6 type  1   force =     0.00000000   -0.12050038    0.12792663
     atom    7 type  1   force =     0.00000000    0.12050038    0.12792663
     atom    8 type  1   force =     0.00000000   -0.12050038   -0.12792663
     atom    9 type  2   force =     0.00000000   -0.09360564   -0.01867866
     atom   10 type  2   force =     0.00000000    0.09360564    0.01867866
     atom   11 type  2   force =     0.00000000   -0.09360564    0.01867866
     atom   12 type  2   force =     0.00000000    0.09360564   -0.01867866

     Total force =     0.411516     Total SCF correction =     0.000000


     entering subroutine stress ...

          total   stress  (Ry/bohr**3)                   (kbar)     P= 2171.22
   0.01569020   0.00000000   0.00000000       2308.11      0.00      0.00
   0.00000000   0.01362972   0.00000000          0.00   2005.00      0.00
   0.00000000   0.00000000   0.01495900          0.00      0.00   2200.54


     number of scf cycles    =   2
     number of bfgs steps    =   1

     enthalpy old            =   -2007.0518316924 Ry
     enthalpy new            =   -2013.2953257131 Ry

     CASE: enthalpy_new < enthalpy_old

     small trust_radius: resetting bfgs history

     new trust radius        =       2.5835383270 bohr
     new conv_thr            =       0.0001000000 Ry

     new unit-cell volume =   2781.48094 a.u.^3 (   412.17295 Ang^3 )

CELL_PARAMETERS (alat=  7.01510508)
   1.510786812   0.000000000   0.000000000
   0.000000000   1.894963818   0.000000000
   0.000000000   0.000000000   2.814293836

ATOMIC_POSITIONS (crystal)
Co       0.750000000   0.821080002   0.434572296
Co       0.250000000   0.178919998   0.565427704
Co       0.750000000   0.321080002   0.065427704
Co       0.250000000   0.678919998   0.934572296
Co       0.250000000   0.550671128   0.272212379
Co       0.750000000   0.449328872   0.727787621
Co       0.250000000   0.050671128   0.227787621
Co       0.750000000   0.949328872   0.772212379
Si       0.250000000   0.191884591   0.892029860
Si       0.750000000   0.808115409   0.107970140
Si       0.250000000   0.691884591   0.607970140
Si       0.750000000   0.308115409   0.392029860



     Writing output data file Prototype-La-oP12-Co2Si.save
     NEW-OLD atomic charge density approx. for the potential
     NEW k-points:
        k(    1) = (   0.0000000   0.0000000   0.0000000), wk =   0.0833333
        k(    2) = (   0.0000000   0.0000000   0.0888322), wk =   0.1666667
        k(    3) = (   0.0000000   0.0000000  -0.1776645), wk =   0.0833333
        k(    4) = (   0.0000000   0.1759049   0.0000000), wk =   0.1666667
        k(    5) = (   0.0000000   0.1759049   0.0888322), wk =   0.3333333
        k(    6) = (   0.0000000   0.1759049  -0.1776645), wk =   0.1666667
        k(    7) = (  -0.3309534   0.0000000   0.0000000), wk =   0.0833333
        k(    8) = (  -0.3309534   0.0000000   0.0888322), wk =   0.1666667
        k(    9) = (  -0.3309534   0.0000000  -0.1776645), wk =   0.0833333
        k(   10) = (  -0.3309534   0.1759049   0.0000000), wk =   0.1666667
        k(   11) = (  -0.3309534   0.1759049   0.0888322), wk =   0.3333333
        k(   12) = (  -0.3309534   0.1759049  -0.1776645), wk =   0.1666667

     total cpu time spent up to now is      200.3 secs

     Self-consistent Calculation

     iteration #  1     ecut=    40.00 Ry     beta=0.70
     CG style diagonalization
     c_bands:  1 eigenvalues not converged
     c_bands:  1 eigenvalues not converged
     c_bands:  2 eigenvalues not converged
     c_bands:  1 eigenvalues not converged
     c_bands:  4 eigenvalues not converged
     c_bands:  2 eigenvalues not converged
     c_bands:  2 eigenvalues not converged
     ethr =  1.00E-06,  avg # of iterations = 27.2

     total cpu time spent up to now is      250.6 secs

     total energy              =   -1906.76231340 Ry
     Harris-Foulkes estimate   =   -2183.50451978 Ry
     estimated scf accuracy    <     360.61058769 Ry

     iteration #  2     ecut=    40.00 Ry     beta=0.70
     CG style diagonalization
     c_bands:  1 eigenvalues not converged
     ethr =  1.00E-02,  avg # of iterations =  6.2

     total cpu time spent up to now is      263.7 secs

     total energy              =   -1956.64696121 Ry
     Harris-Foulkes estimate   =   -2044.04084957 Ry
     estimated scf accuracy    <     134.49339011 Ry

     iteration #  3     ecut=    40.00 Ry     beta=0.70
     CG style diagonalization
     ethr =  1.00E-02,  avg # of iterations =  7.6

     total cpu time spent up to now is      279.2 secs

     total energy              =   -1992.04694087 Ry
     Harris-Foulkes estimate   =   -2043.39087605 Ry
     estimated scf accuracy    <     142.93680803 Ry

     iteration #  4     ecut=    40.00 Ry     beta=0.70
     CG style diagonalization
     ethr =  1.00E-02,  avg # of iterations =  4.6

     total cpu time spent up to now is      288.6 secs

     total energy              =   -2002.61261267 Ry
     Harris-Foulkes estimate   =   -2003.46986691 Ry
     estimated scf accuracy    <       4.27991294 Ry

     iteration #  5     ecut=    40.00 Ry     beta=0.70
     CG style diagonalization
     ethr =  2.14E-03,  avg # of iterations =  3.6

     total cpu time spent up to now is      295.3 secs

     total energy              =   -2003.95621985 Ry
     Harris-Foulkes estimate   =   -2004.45835480 Ry
     estimated scf accuracy    <       3.99577731 Ry

     iteration #  6     ecut=    40.00 Ry     beta=0.70
     CG style diagonalization
     ethr =  2.00E-03,  avg # of iterations =  3.0

     total cpu time spent up to now is      300.7 secs

     total energy              =   -2004.06075744 Ry
     Harris-Foulkes estimate   =   -2004.13592690 Ry
     estimated scf accuracy    <       0.31626408 Ry

     iteration #  7     ecut=    40.00 Ry     beta=0.70
     CG style diagonalization
     ethr =  1.58E-04,  avg # of iterations =  3.7

     total cpu time spent up to now is      308.0 secs

     total energy              =   -2004.11124038 Ry
     Harris-Foulkes estimate   =   -2004.18875766 Ry
     estimated scf accuracy    <       0.52836165 Ry

     iteration #  8     ecut=    40.00 Ry     beta=0.70
     CG style diagonalization
     ethr =  1.58E-04,  avg # of iterations =  3.1

     total cpu time spent up to now is      313.7 secs

     total energy              =   -2004.01903923 Ry
     Harris-Foulkes estimate   =   -2004.18308892 Ry
     estimated scf accuracy    <       1.14201549 Ry

     iteration #  9     ecut=    40.00 Ry     beta=0.70
     CG style diagonalization
     ethr =  1.58E-04,  avg # of iterations =  3.0

     total cpu time spent up to now is      319.1 secs

     total energy              =   -2004.09608560 Ry
     Harris-Foulkes estimate   =   -2004.10438580 Ry
     estimated scf accuracy    <       0.04674848 Ry

     iteration # 10     ecut=    40.00 Ry     beta=0.70
     CG style diagonalization
     c_bands:  1 eigenvalues not converged
     c_bands:  1 eigenvalues not converged
     ethr =  2.34E-05,  avg # of iterations =  3.1

     total cpu time spent up to now is      324.8 secs

     total energy              =   -2004.10023612 Ry
     Harris-Foulkes estimate   =   -2004.10230431 Ry
     estimated scf accuracy    <       0.01297835 Ry

     iteration # 11     ecut=    40.00 Ry     beta=0.70
     CG style diagonalization
     c_bands:  1 eigenvalues not converged
     c_bands:  2 eigenvalues not converged
     ethr =  6.49E-06,  avg # of iterations =  3.4

     total cpu time spent up to now is      331.2 secs

     total energy              =   -2004.10206934 Ry
     Harris-Foulkes estimate   =   -2004.10216859 Ry
     estimated scf accuracy    <       0.00063110 Ry

     iteration # 12     ecut=    40.00 Ry     beta=0.70
     CG style diagonalization
     ethr =  3.16E-07,  avg # of iterations =  3.8

     total cpu time spent up to now is      338.3 secs

     total energy              =   -2004.10211431 Ry
     Harris-Foulkes estimate   =   -2004.10221693 Ry
     estimated scf accuracy    <       0.00063915 Ry

     iteration # 13     ecut=    40.00 Ry     beta=0.70
     CG style diagonalization
     ethr =  3.16E-07,  avg # of iterations =  3.0

     total cpu time spent up to now is      343.9 secs

     End of self-consistent calculation

          k = 0.0000 0.0000 0.0000 (  3675 PWs)   bands (ev):

   -52.4544 -52.4350 -52.4008 -52.3965 -43.4202 -43.3697 -43.3565 -43.2913
   -43.2455 -43.2139 -43.1670 -43.1343 -26.5363 -26.5342 -26.5330 -26.5320
   -26.5247 -26.5223 -26.5214 -26.5203 -26.4868 -26.4862 -26.4859 -26.4821
   -20.2774 -20.2571 -20.2334 -20.2271 -20.2160 -20.2069 -20.1938 -20.1896
   -20.1788 -20.1779 -20.1732 -20.1645 -20.1622 -20.1580 -20.1574 -20.1558
   -20.1463 -20.1452 -20.1362 -20.1268 -20.1237 -20.1190 -20.1045 -20.1004
     7.4311   7.8424   8.0388   8.0765   8.0867   8.0999   8.1200   8.1213
     8.1815   8.2952   8.3099   8.3184   8.3666   8.4095   8.4127   8.4195
     8.5464   8.6737   8.7061   8.8187   8.8470   8.8985   8.9030   9.0836
     9.2902   9.3221   9.3421   9.4413   9.4659   9.6591   9.6914   9.8266
     9.8392   9.8999   9.9037   9.9305  10.0111  10.2589  10.2939  10.3203
    10.3543  10.3767  10.3944  10.5425  10.6598  10.7530  10.7720  10.9059
    10.9229  10.9820  11.0416  11.0422  11.0876  11.2158  11.2297  11.2722
    11.3221  11.3367  11.3728  11.3891  11.4940  11.5193  11.5237  12.9455
    13.1795  13.2698  13.5083  13.5339  14.7982  14.8578  15.7014  15.8981

          k = 0.0000 0.0000 0.0888 (  3675 PWs)   bands (ev):

   -52.4745 -52.4390 -52.4130 -52.3562 -43.4109 -43.4056 -43.3803 -43.2718
   -43.2232 -43.2084 -43.1750 -43.1110 -26.5354 -26.5351 -26.5325 -26.5324
   -26.5238 -26.5230 -26.5221 -26.5197 -26.4903 -26.4870 -26.4858 -26.4822
   -20.2784 -20.2580 -20.2300 -20.2253 -20.2214 -20.2076 -20.2059 -20.1832
   -20.1777 -20.1765 -20.1715 -20.1699 -20.1646 -20.1621 -20.1569 -20.1502
   -20.1466 -20.1421 -20.1338 -20.1239 -20.1208 -20.1197 -20.1094 -20.1043
     7.5427   7.8773   8.0007   8.0430   8.0625   8.1151   8.1294   8.1350
     8.1873   8.2008   8.3026   8.3813   8.4030   8.4243   8.4253   8.4429
     8.5343   8.5471   8.6006   8.7705   8.7916   8.8615   9.0842   9.1622
     9.2290   9.3166   9.3907   9.4055   9.4963   9.6796   9.7820   9.8023
     9.8052   9.9251   9.9520  10.0062  10.0435  10.0629  10.1463  10.2638
    10.2780  10.3704  10.4715  10.5066  10.6675  10.7184  10.7964  10.8587
    10.8839  10.9210  10.9871  11.0394  11.0653  11.1940  11.2394  11.2413
    11.2974  11.3100  11.3617  11.4741  11.5083  11.5696  12.0752  13.2084
    13.2962  13.4215  13.4263  13.4480  14.4753  14.9699  15.0346  15.4025

          k = 0.0000 0.0000-0.1777 (  3690 PWs)   bands (ev):

   -52.4740 -52.4740 -52.4260 -52.4260 -43.4482 -43.4482 -43.3306 -43.3306
   -43.2629 -43.2629 -43.1413 -43.1413 -26.5353 -26.5353 -26.5323 -26.5323
   -26.5254 -26.5254 -26.5222 -26.5222 -26.4915 -26.4915 -26.4863 -26.4863
   -20.2781 -20.2781 -20.2239 -20.2239 -20.2103 -20.2103 -20.1985 -20.1985
   -20.1806 -20.1806 -20.1694 -20.1694 -20.1646 -20.1646 -20.1589 -20.1589
   -20.1493 -20.1493 -20.1391 -20.1391 -20.1214 -20.1214 -20.1130 -20.1130
     7.8001   7.8001   7.9556   7.9556   8.0504   8.0504   8.1116   8.1116
     8.2867   8.2867   8.3013   8.3013   8.3365   8.3365   8.4828   8.4828
     8.5217   8.5217   8.6838   8.6838   8.7616   8.7616   9.1241   9.1241
     9.2945   9.2945   9.5218   9.5218   9.6364   9.6364   9.7226   9.7226
     9.8364   9.8364   9.9658   9.9658  10.0425  10.0425  10.0935  10.0935
    10.3369  10.3369  10.5462  10.5462  10.7143  10.7143  10.7514  10.7514
    10.8163  10.8163  10.9870  10.9870  11.1041  11.1041  11.2025  11.2025
    11.3034  11.3034  11.4503  11.4503  11.6124  11.6124  13.1572  13.1572
    13.3147  13.3147  13.3612  13.3613  14.3445  14.3446  15.1580  15.1580

          k = 0.0000 0.1759 0.0000 (  3664 PWs)   bands (ev):

   -52.4883 -52.4513 -52.3242 -52.3221 -43.3881 -43.3620 -43.3476 -43.3183
   -43.1981 -43.1592 -43.1498 -43.1106 -26.5372 -26.5353 -26.5324 -26.5315
   -26.5231 -26.5218 -26.5211 -26.5201 -26.4884 -26.4869 -26.4817 -26.4812
   -20.2430 -20.2215 -20.2195 -20.2161 -20.2107 -20.2107 -20.2035 -20.2026
   -20.1886 -20.1838 -20.1781 -20.1709 -20.1709 -20.1543 -20.1496 -20.1483
   -20.1454 -20.1383 -20.1336 -20.1328 -20.1229 -20.1204 -20.1186 -20.1182
     7.8018   8.0151   8.1467   8.1511   8.1853   8.2551   8.2685   8.2902
     8.3306   8.3429   8.3441   8.3449   8.4157   8.4374   8.4877   8.4907
     8.5375   8.5543   8.6135   8.7234   8.7749   8.9418   9.0409   9.1532
     9.3007   9.3163   9.4531   9.5070   9.5578   9.5672   9.6732   9.7299
     9.8190   9.8569   9.8580  10.1067  10.1260  10.1494  10.1496  10.1526
    10.1984  10.3387  10.4998  10.5063  10.5503  10.5723  10.6961  10.7454
    10.7776  10.8125  10.8735  10.9631  11.0196  11.0296  11.1331  11.1424
    11.2973  11.3167  11.3636  11.3665  11.3719  11.4198  11.5059  11.5348
    12.0550  12.1655  14.2802  15.6991  15.8878  15.9642  16.3841  16.3906

          k = 0.0000 0.1759 0.0888 (  3669 PWs)   bands (ev):

   -52.4712 -52.4483 -52.3784 -52.3331 -43.4308 -43.3780 -43.3300 -43.2666
   -43.2205 -43.2042 -43.1473 -43.1305 -26.5365 -26.5359 -26.5319 -26.5313
   -26.5251 -26.5221 -26.5208 -26.5201 -26.4898 -26.4877 -26.4821 -26.4817
   -20.2490 -20.2281 -20.2200 -20.2185 -20.2158 -20.2062 -20.2015 -20.1922
   -20.1906 -20.1853 -20.1798 -20.1747 -20.1709 -20.1589 -20.1493 -20.1463
   -20.1451 -20.1380 -20.1364 -20.1304 -20.1281 -20.1228 -20.1194 -20.1171
     7.8860   8.0367   8.1092   8.1644   8.1850   8.2182   8.2267   8.2771
     8.3414   8.3453   8.3561   8.4101   8.4413   8.4486   8.4596   8.4904
     8.4931   8.5463   8.6479   8.6933   8.8200   8.9062   9.0116   9.1621
     9.3049   9.3758   9.4089   9.4970   9.5480   9.5580   9.7062   9.7915
     9.8111   9.8246   9.8726   9.9406  10.0603  10.1118  10.1261  10.1673
    10.1676  10.3328  10.4111  10.5269  10.5859  10.6253  10.6794  10.7297
    10.7322  10.7794  10.8629  10.9540  10.9784  11.0118  11.0826  11.1206
    11.2048  11.2934  11.3188  11.3512  11.3826  11.4690  11.5242  11.5739
    12.3350  12.9773  14.5107  14.7796  15.3830  15.8038  15.9535  16.3171

          k = 0.0000 0.1759-0.1777 (  3666 PWs)   bands (ev):

   -52.4202 -52.4202 -52.3822 -52.3822 -43.3663 -43.3663 -43.2760 -43.2760
   -43.2313 -43.2313 -43.1608 -43.1608 -26.5358 -26.5358 -26.5317 -26.5317
   -26.5224 -26.5224 -26.5207 -26.5207 -26.4883 -26.4883 -26.4823 -26.4823
   -20.2391 -20.2391 -20.2151 -20.2151 -20.2095 -20.2095 -20.1919 -20.1919
   -20.1883 -20.1883 -20.1738 -20.1738 -20.1646 -20.1646 -20.1498 -20.1498
   -20.1432 -20.1432 -20.1338 -20.1338 -20.1270 -20.1270 -20.1186 -20.1186
     8.0368   8.0368   8.1228   8.1228   8.1677   8.1677   8.2778   8.2778
     8.3599   8.3599   8.3853   8.3853   8.4306   8.4306   8.4476   8.4476
     8.4988   8.4988   8.7498   8.7498   8.7782   8.7782   9.1388   9.1388
     9.3024   9.3024   9.4801   9.4801   9.6242   9.6242   9.6564   9.6564
     9.7937   9.7937   9.9234   9.9234  10.0071  10.0071  10.1405  10.1405
    10.2755  10.2755  10.3538  10.3538  10.6113  10.6113  10.6589  10.6589
    10.7569  10.7569  10.9247  10.9247  11.0668  11.0668  11.0898  11.0898
    11.2301  11.2301  11.3029  11.3029  11.4340  11.4340  11.5204  11.5204
    13.3855  13.3855  14.2346  14.2347  15.1153  15.1155  16.0202  16.0206

          k =-0.3310 0.0000 0.0000 (  3722 PWs)   bands (ev):

   -52.5354 -52.5354 -52.5219 -52.5219 -43.3964 -43.3964 -43.3921 -43.3921
   -43.3387 -43.3387 -43.3385 -43.3385 -26.5344 -26.5344 -26.5341 -26.5341
   -26.5253 -26.5253 -26.5235 -26.5235 -26.4899 -26.4899 -26.4866 -26.4866
   -20.2850 -20.2850 -20.2342 -20.2342 -20.2257 -20.2257 -20.2066 -20.2066
   -20.1848 -20.1848 -20.1731 -20.1731 -20.1661 -20.1661 -20.1645 -20.1645
   -20.1411 -20.1411 -20.1351 -20.1351 -20.1281 -20.1281 -20.1064 -20.1064
     7.9407   7.9407   8.0260   8.0260   8.1501   8.1501   8.2325   8.2325
     8.2734   8.2734   8.3223   8.3223   8.4183   8.4183   8.5286   8.5286
     8.6145   8.6145   8.8588   8.8588   8.9204   8.9204   8.9381   8.9381
     9.2155   9.2155   9.4318   9.4318   9.5602   9.5602   9.7963   9.7963
    10.0704  10.0704  10.1565  10.1565  10.2198  10.2198  10.2361  10.2361
    10.4263  10.4263  10.4629  10.4629  10.6590  10.6590  10.7010  10.7010
    10.7946  10.7946  10.9025  10.9025  11.0398  11.0398  11.1988  11.1988
    11.3222  11.3222  11.3372  11.3372  11.6013  11.6013  11.9286  11.9286
    11.9976  11.9976  12.8374  12.8374  14.7297  14.7297  15.6933  15.6934

          k =-0.3310 0.0000 0.0888 (  3710 PWs)   bands (ev):

   -52.5019 -52.5019 -52.4991 -52.4991 -43.3736 -43.3736 -43.3691 -43.3691
   -43.3482 -43.3482 -43.2802 -43.2802 -26.5341 -26.5341 -26.5336 -26.5336
   -26.5250 -26.5250 -26.5227 -26.5227 -26.4893 -26.4893 -26.4873 -26.4873
   -20.2808 -20.2808 -20.2350 -20.2350 -20.2161 -20.2161 -20.2049 -20.2049
   -20.1853 -20.1853 -20.1745 -20.1745 -20.1647 -20.1647 -20.1579 -20.1579
   -20.1409 -20.1409 -20.1312 -20.1312 -20.1293 -20.1293 -20.1110 -20.1110
     7.9743   7.9743   7.9968   7.9968   8.1800   8.1800   8.2353   8.2353
     8.3183   8.3183   8.3384   8.3384   8.4189   8.4189   8.5382   8.5382
     8.5821   8.5821   8.8374   8.8374   8.9651   8.9651   8.9927   8.9927
     9.1888   9.1888   9.4421   9.4421   9.5792   9.5792   9.7999   9.7999
     9.9154   9.9154   9.9761   9.9761  10.0933  10.0933  10.2648  10.2648
    10.3699  10.3699  10.4865  10.4865  10.5594  10.5594  10.8409  10.8409
    10.8930  10.8930  11.0756  11.0756  11.1195  11.1195  11.1842  11.1842
    11.2432  11.2432  11.4042  11.4042  11.6083  11.6083  11.6173  11.6173
    12.3778  12.3778  13.1208  13.1208  14.3209  14.3209  15.6471  15.6471

          k =-0.3310 0.0000-0.1777 (  3680 PWs)   bands (ev):

   -52.4576 -52.4576 -52.4094 -52.4094 -43.3422 -43.3422 -43.2986 -43.2986
   -43.2539 -43.2539 -43.2514 -43.2514 -26.5335 -26.5335 -26.5324 -26.5324
   -26.5230 -26.5230 -26.5203 -26.5203 -26.4877 -26.4877 -26.4876 -26.4876
   -20.2837 -20.2837 -20.2225 -20.2225 -20.2088 -20.2088 -20.1910 -20.1910
   -20.1816 -20.1816 -20.1736 -20.1736 -20.1653 -20.1653 -20.1516 -20.1516
   -20.1434 -20.1434 -20.1276 -20.1276 -20.1209 -20.1209 -20.1071 -20.1071
     7.9581   7.9581   8.0995   8.0995   8.1347   8.1347   8.2301   8.2301
     8.3028   8.3028   8.3871   8.3871   8.4925   8.4925   8.5715   8.5715
     8.5896   8.5896   8.8180   8.8180   8.9023   8.9023   9.1342   9.1342
     9.1419   9.1419   9.4328   9.4328   9.5172   9.5172   9.7799   9.7799
     9.8318   9.8318   9.9363   9.9363  10.1197  10.1197  10.1639  10.1639
    10.3901  10.3901  10.4029  10.4029  10.6549  10.6549  10.7152  10.7152
    11.0306  11.0306  11.1031  11.1031  11.1614  11.1614  11.2417  11.2417
    11.3590  11.3590  11.3740  11.3740  11.4471  11.4471  11.6207  11.6207
    12.7156  12.7157  13.6598  13.6599  13.6638  13.6638  15.7961  15.7975

          k =-0.3310 0.1759 0.0000 (  3686 PWs)   bands (ev):

   -52.4757 -52.4757 -52.4344 -52.4344 -43.3337 -43.3337 -43.3310 -43.3310
   -43.3004 -43.3004 -43.2653 -43.2653 -26.5341 -26.5341 -26.5330 -26.5330
   -26.5215 -26.5215 -26.5211 -26.5211 -26.4849 -26.4849 -26.4827 -26.4827
   -20.2413 -20.2413 -20.2240 -20.2240 -20.2229 -20.2229 -20.1947 -20.1947
   -20.1882 -20.1882 -20.1712 -20.1712 -20.1610 -20.1610 -20.1543 -20.1543
   -20.1384 -20.1384 -20.1364 -20.1364 -20.1221 -20.1221 -20.1214 -20.1214
     8.0808   8.0808   8.1485   8.1485   8.2550   8.2550   8.3086   8.3086
     8.3652   8.3652   8.5059   8.5059   8.5215   8.5215   8.5966   8.5966
     8.6729   8.6729   8.8101   8.8101   9.0181   9.0181   9.1407   9.1407
     9.2349   9.2349   9.5659   9.5659   9.5701   9.5701   9.7609   9.7609
     9.8016   9.8016   9.9409   9.9409   9.9957   9.9957  10.2461  10.2461
    10.2688  10.2688  10.4416  10.4416  10.4497  10.4497  10.6244  10.6244
    10.7638  10.7638  10.8489  10.8489  10.8893  10.8893  11.0575  11.0575
    11.1859  11.1859  11.2327  11.2327  11.2831  11.2831  11.9241  11.9241
    12.5845  12.5845  12.7255  12.7255  13.7802  13.7803  13.9567  13.9567

          k =-0.3310 0.1759 0.0888 (  3692 PWs)   bands (ev):

   -52.5062 -52.5062 -52.4252 -52.4252 -43.3511 -43.3511 -43.3132 -43.3132
   -43.3101 -43.3101 -43.2845 -43.2845 -26.5344 -26.5344 -26.5330 -26.5330
   -26.5226 -26.5226 -26.5215 -26.5215 -26.4874 -26.4874 -26.4827 -26.4827
   -20.2461 -20.2461 -20.2227 -20.2227 -20.2188 -20.2188 -20.1998 -20.1998
   -20.1884 -20.1884 -20.1753 -20.1753 -20.1600 -20.1600 -20.1527 -20.1527
   -20.1401 -20.1401 -20.1380 -20.1380 -20.1265 -20.1265 -20.1239 -20.1239
     8.1002   8.1002   8.1453   8.1453   8.2796   8.2796   8.3360   8.3360
     8.4028   8.4028   8.4501   8.4501   8.5118   8.5118   8.5426   8.5426
     8.7248   8.7248   8.8253   8.8253   9.0045   9.0045   9.1464   9.1464
     9.2918   9.2918   9.5423   9.5423   9.6368   9.6368   9.6815   9.6815
     9.7692   9.7692   9.8345   9.8345  10.0512  10.0512  10.1147  10.1147
    10.3121  10.3121  10.3752  10.3752  10.4478  10.4478  10.6211  10.6211
    10.6678  10.6678  10.7770  10.7770  10.9167  10.9167  11.0752  11.0752
    11.2715  11.2715  11.3104  11.3104  11.4014  11.4014  11.9983  11.9983
    12.2938  12.2938  13.0547  13.0547  13.4138  13.4138  14.7215  14.7216

          k =-0.3310 0.1759-0.1777 (  3704 PWs)   bands (ev):

   -52.5450 -52.5450 -52.4370 -52.4370 -43.3634 -43.3634 -43.3600 -43.3600
   -43.3232 -43.3232 -43.2901 -43.2901 -26.5349 -26.5349 -26.5333 -26.5333
   -26.5238 -26.5238 -26.5224 -26.5224 -26.4886 -26.4886 -26.4851 -26.4851
   -20.2493 -20.2493 -20.2223 -20.2223 -20.2204 -20.2204 -20.1982 -20.1982
   -20.1955 -20.1955 -20.1789 -20.1789 -20.1628 -20.1628 -20.1525 -20.1525
   -20.1447 -20.1447 -20.1422 -20.1422 -20.1276 -20.1276 -20.1263 -20.1263
     8.0884   8.0884   8.2088   8.2088   8.2706   8.2706   8.3684   8.3684
     8.4021   8.4021   8.4360   8.4360   8.4732   8.4732   8.5446   8.5446
     8.7085   8.7085   8.8589   8.8589   9.0585   9.0585   9.1334   9.1334
     9.2859   9.2859   9.4996   9.4996   9.5811   9.5811   9.6047   9.6047
     9.7861   9.7861   9.9499   9.9499   9.9923   9.9923  10.0918  10.0918
    10.2888  10.2888  10.3642  10.3642  10.3653  10.3653  10.5800  10.5800
    10.5913  10.5913  10.7180  10.7180  10.9357  10.9357  11.0882  11.0882
    11.3397  11.3397  11.3892  11.3892  11.6462  11.6462  11.7961  11.7961
    12.5072  12.5072  12.6769  12.6769  13.7885  13.7886  15.3422  15.3424

     the Fermi energy is    11.1225 ev

!    total energy              =   -2004.10215143 Ry
     Harris-Foulkes estimate   =   -2004.10217681 Ry
     estimated scf accuracy    <       0.00002688 Ry

     The total energy is the sum of the following terms:

     one-electron contribution =    -603.18397372 Ry
     hartree contribution      =     371.53732760 Ry
     xc contribution           =    -204.10757640 Ry
     ewald contribution        =   -1566.69972517 Ry
     smearing contrib. (-TS)   =      -1.64820374 Ry

     convergence has been achieved in  13 iterations

     Forces acting on atoms (Ry/au):

     atom    1 type  1   force =     0.00000000   -0.00128413    0.00121355
     atom    2 type  1   force =     0.00000000    0.00128413   -0.00121355
     atom    3 type  1   force =     0.00000000   -0.00128413   -0.00121355
     atom    4 type  1   force =     0.00000000    0.00128413    0.00121355
     atom    5 type  1   force =     0.00000000    0.00326612   -0.00396643
     atom    6 type  1   force =     0.00000000   -0.00326612    0.00396643
     atom    7 type  1   force =     0.00000000    0.00326612    0.00396643
     atom    8 type  1   force =     0.00000000   -0.00326612   -0.00396643
     atom    9 type  2   force =     0.00000000    0.00312224   -0.00532141
     atom   10 type  2   force =     0.00000000   -0.00312224    0.00532141
     atom   11 type  2   force =     0.00000000    0.00312224    0.00532141
     atom   12 type  2   force =     0.00000000   -0.00312224   -0.00532141

     Total force =     0.016442     Total SCF correction =     0.000000


     entering subroutine stress ...

          total   stress  (Ry/bohr**3)                   (kbar)     P=-1255.19
  -0.00887114   0.00000000   0.00000000      -1304.99      0.00      0.00
   0.00000000  -0.00817609   0.00000000          0.00  -1202.74      0.00
   0.00000000   0.00000000  -0.00855060          0.00      0.00  -1257.84


     number of scf cycles    =   3
     number of bfgs steps    =   2

     enthalpy old            =   -2013.2953257131 Ry
     enthalpy new            =   -2004.1021514345 Ry

     CASE: enthalpy_new > enthalpy_old

     new trust radius        =       0.9825921610 bohr

     trust_radius < trust_radius_min

     resetting bfgs history

     Message from routine bfgs:
     history already reset at previous step: stopping
     new conv_thr            =       0.0001000000 Ry

     new unit-cell volume =   1292.15703 a.u.^3 (   191.47791 Ang^3 )

CELL_PARAMETERS (alat=  7.01510508)
   1.156751810   0.000000000   0.000000000
   0.000000000   1.488511417   0.000000000
   0.000000000   0.000000000   2.173804049

ATOMIC_POSITIONS (crystal)
Co       0.750000000   0.825229530   0.435285454
Co       0.250000000   0.174770470   0.564714546
Co       0.750000000   0.325229530   0.064714546
Co       0.250000000   0.674770470   0.935285454
Co       0.250000000   0.540022800   0.280065502
Co       0.750000000   0.459977200   0.719934498
Co       0.250000000   0.040022800   0.219934498
Co       0.750000000   0.959977200   0.780065502
Si       0.250000000   0.200156296   0.893176500
Si       0.750000000   0.799843704   0.106823500
Si       0.250000000   0.700156296   0.606823500
Si       0.750000000   0.299843704   0.393176500



     Writing output data file Prototype-La-oP12-Co2Si.save
     NEW-OLD atomic charge density approx. for the potential
     NEW k-points:
        k(    1) = (   0.0000000   0.0000000   0.0000000), wk =   0.0833333
        k(    2) = (   0.0000000   0.0000000   0.1150058), wk =   0.1666667
        k(    3) = (   0.0000000   0.0000000  -0.2300115), wk =   0.0833333
        k(    4) = (   0.0000000   0.2239374   0.0000000), wk =   0.1666667
        k(    5) = (   0.0000000   0.2239374   0.1150058), wk =   0.3333333
        k(    6) = (   0.0000000   0.2239374  -0.2300115), wk =   0.1666667
        k(    7) = (  -0.4322448   0.0000000   0.0000000), wk =   0.0833333
        k(    8) = (  -0.4322448   0.0000000   0.1150058), wk =   0.1666667
        k(    9) = (  -0.4322448   0.0000000  -0.2300115), wk =   0.0833333
        k(   10) = (  -0.4322448   0.2239374   0.0000000), wk =   0.1666667
        k(   11) = (  -0.4322448   0.2239374   0.1150058), wk =   0.3333333
        k(   12) = (  -0.4322448   0.2239374  -0.2300115), wk =   0.1666667

     total cpu time spent up to now is      347.0 secs

     Self-consistent Calculation

     iteration #  1     ecut=    40.00 Ry     beta=0.70
     CG style diagonalization
     c_bands:  1 eigenvalues not converged
     c_bands:  2 eigenvalues not converged
     c_bands:  1 eigenvalues not converged
     c_bands:  2 eigenvalues not converged
     c_bands:  4 eigenvalues not converged
     c_bands:  4 eigenvalues not converged
     c_bands:  2 eigenvalues not converged
     ethr =  1.00E-06,  avg # of iterations = 30.4

     total cpu time spent up to now is      403.2 secs

     total energy              =   -1942.45299929 Ry
     Harris-Foulkes estimate   =   -2152.08107698 Ry
     estimated scf accuracy    <     265.85812279 Ry

     iteration #  2     ecut=    40.00 Ry     beta=0.70
     CG style diagonalization
     ethr =  1.00E-02,  avg # of iterations =  6.1

     total cpu time spent up to now is      415.2 secs

     total energy              =   -1998.65799583 Ry
     Harris-Foulkes estimate   =   -2029.96520972 Ry
     estimated scf accuracy    <      45.82203144 Ry

     iteration #  3     ecut=    40.00 Ry     beta=0.70
     CG style diagonalization
     ethr =  1.00E-02,  avg # of iterations =  4.3

     total cpu time spent up to now is      423.5 secs

     total energy              =   -2006.65514516 Ry
     Harris-Foulkes estimate   =   -2023.00708659 Ry
     estimated scf accuracy    <      38.93523504 Ry

     iteration #  4     ecut=    40.00 Ry     beta=0.70
     CG style diagonalization
     ethr =  1.00E-02,  avg # of iterations =  3.5

     total cpu time spent up to now is      430.1 secs

     total energy              =   -2014.38113274 Ry
     Harris-Foulkes estimate   =   -2015.08540558 Ry
     estimated scf accuracy    <       1.47779328 Ry

     iteration #  5     ecut=    40.00 Ry     beta=0.70
     CG style diagonalization
     ethr =  7.39E-04,  avg # of iterations =  3.9

     total cpu time spent up to now is      437.5 secs

     total energy              =   -2014.67574755 Ry
     Harris-Foulkes estimate   =   -2015.09217369 Ry
     estimated scf accuracy    <       1.01302421 Ry

     iteration #  6     ecut=    40.00 Ry     beta=0.70
     CG style diagonalization
     ethr =  5.07E-04,  avg # of iterations =  3.4

     total cpu time spent up to now is      443.9 secs

     total energy              =   -2014.83206469 Ry
     Harris-Foulkes estimate   =   -2014.94500066 Ry
     estimated scf accuracy    <       0.29619958 Ry

     iteration #  7     ecut=    40.00 Ry     beta=0.70
     CG style diagonalization
     c_bands:  2 eigenvalues not converged
     ethr =  1.48E-04,  avg # of iterations =  3.4

     total cpu time spent up to now is      450.5 secs

     total energy              =   -2014.88140667 Ry
     Harris-Foulkes estimate   =   -2014.88612398 Ry
     estimated scf accuracy    <       0.01225057 Ry

     iteration #  8     ecut=    40.00 Ry     beta=0.70
     CG style diagonalization
     c_bands:  2 eigenvalues not converged
     c_bands:  1 eigenvalues not converged
     c_bands:  2 eigenvalues not converged
     c_bands:  1 eigenvalues not converged
     ethr =  6.13E-06,  avg # of iterations =  4.1

     total cpu time spent up to now is      458.2 secs

     total energy              =   -2014.88398340 Ry
     Harris-Foulkes estimate   =   -2014.88488811 Ry
     estimated scf accuracy    <       0.00210481 Ry

     iteration #  9     ecut=    40.00 Ry     beta=0.70
     CG style diagonalization
     ethr =  1.05E-06,  avg # of iterations =  3.7

     total cpu time spent up to now is      465.0 secs

     total energy              =   -2014.88433743 Ry
     Harris-Foulkes estimate   =   -2014.88453995 Ry
     estimated scf accuracy    <       0.00043644 Ry

     iteration # 10     ecut=    40.00 Ry     beta=0.70
     CG style diagonalization
     ethr =  2.18E-07,  avg # of iterations =  3.5

     total cpu time spent up to now is      471.5 secs

     End of self-consistent calculation

          k = 0.0000 0.0000 0.0000 (  3675 PWs)   bands (ev):

   -38.4708 -38.4679 -38.4588 -38.4499 -27.2516 -27.1938 -26.9975 -26.9961
   -26.9563 -26.9273 -26.9027 -26.8978  -9.7935  -9.7281  -9.7104  -9.7063
    -9.7025  -9.6518  -9.6450  -9.6353  -9.5740  -9.5656  -9.5032  -9.4478
    -3.3120  -3.1450  -2.8869  -2.7047  -2.7046  -2.6453  -2.4983  -2.3981
    -2.3445  -2.2635  -2.2102  -2.1987  -2.1700  -2.0678  -1.9396  -1.9145
    -1.9090  -1.8769  -1.8528  -1.7855  -1.6135  -1.5446  -1.4441  -1.3678
    21.6233  21.7761  21.7931  22.1948  22.2558  22.3202  22.3822  22.3993
    22.6136  22.6988  23.2153  23.2341  23.3732  23.5380  23.6035  23.7576
    23.8326  24.6693  24.8074  24.9744  25.0462  25.2439  25.3128  25.4630
    25.8779  25.9760  26.0388  26.5001  26.5157  26.6944  26.9180  26.9762
    27.0055  27.1377  27.3567  27.5176  28.0944  28.5315  28.6347  28.6825
    28.6914  28.8979  29.2229  29.5868  29.9371  30.1250  30.1659  30.2933
    30.9656  31.0921  31.3512  31.4097  31.4909  31.5114  31.8237  32.1039
    32.1144  32.1787  32.3274  32.6344  32.7324  33.2108  33.2932  33.2994
    34.9746  35.7024  35.8680  36.4682  38.2072  38.2213  39.0942  40.0376

          k = 0.0000 0.0000 0.1150 (  3675 PWs)   bands (ev):

   -38.4742 -38.4658 -38.4613 -38.4449 -27.2506 -27.2037 -26.9970 -26.9815
   -26.9552 -26.9194 -26.9141 -26.9006  -9.7703  -9.7383  -9.7079  -9.6973
    -9.6885  -9.6674  -9.6597  -9.6400  -9.5849  -9.5743  -9.4855  -9.4524
    -3.2943  -3.1720  -2.8362  -2.7137  -2.7066  -2.5997  -2.5816  -2.3690
    -2.3031  -2.2384  -2.2044  -2.1977  -2.1606  -2.0449  -2.0302  -1.9681
    -1.9449  -1.8269  -1.8049  -1.7529  -1.6224  -1.6032  -1.4373  -1.3847
    21.6735  21.7385  21.9096  21.9144  22.0721  22.3577  22.5715  22.6486
    22.6553  22.9045  22.9741  23.6115  23.6337  23.6579  23.7345  23.7760
[...]
     Harris-Foulkes estimate   =   -2017.05068626 Ry
     estimated scf accuracy    <       0.34516070 Ry

     iteration #  8     ecut=    40.00 Ry     beta=0.70
     CG style diagonalization
     ethr =  1.73E-04,  avg # of iterations =  3.5

     total cpu time spent up to now is      800.1 secs

     total energy              =   -2016.95747841 Ry
     Harris-Foulkes estimate   =   -2016.96171625 Ry
     estimated scf accuracy    <       0.00925804 Ry

     iteration #  9     ecut=    40.00 Ry     beta=0.70
     CG style diagonalization
     c_bands:  1 eigenvalues not converged
     c_bands:  1 eigenvalues not converged
     c_bands:  1 eigenvalues not converged
     c_bands:  1 eigenvalues not converged
     c_bands:  1 eigenvalues not converged
     c_bands:  1 eigenvalues not converged
     ethr =  4.63E-06,  avg # of iterations =  4.4

     total cpu time spent up to now is      815.2 secs

     total energy              =   -2016.95921578 Ry
     Harris-Foulkes estimate   =   -2016.96143063 Ry
     estimated scf accuracy    <       0.00450642 Ry

     iteration # 10     ecut=    40.00 Ry     beta=0.70
     CG style diagonalization
     c_bands:  1 eigenvalues not converged
     c_bands:  1 eigenvalues not converged
     ethr =  2.25E-06,  avg # of iterations =  3.6

     total cpu time spent up to now is      826.5 secs

     total energy              =   -2016.96034356 Ry
     Harris-Foulkes estimate   =   -2016.96038115 Ry
     estimated scf accuracy    <       0.00010050 Ry

     iteration # 11     ecut=    40.00 Ry     beta=0.70
     CG style diagonalization
     ethr =  5.02E-08,  avg # of iterations =  4.5

     total cpu time spent up to now is      840.8 secs

     End of self-consistent calculation

          k = 0.0000 0.0000 0.0000 (  5547 PWs)   bands (ev):

   -38.7255 -38.7158 -38.7128 -38.7095 -27.2998 -27.2244 -27.0449 -27.0241
   -27.0052 -26.9581 -26.9458 -26.9371 -10.0625  -9.9973  -9.9876  -9.9668
    -9.9650  -9.9516  -9.9258  -9.8970  -9.8397  -9.8246  -9.7621  -9.7365
    -3.4253  -3.2749  -3.0028  -2.8311  -2.8290  -2.7534  -2.6323  -2.5286
    -2.4680  -2.3995  -2.3428  -2.3380  -2.3028  -2.1990  -2.0669  -2.0629
    -2.0586  -2.0192  -2.0028  -1.9164  -1.7715  -1.6944  -1.5623  -1.5083
    21.6150  21.7677  21.7870  22.1780  22.1813  22.3097  22.3805  22.3906
    22.6064  22.6806  23.1758  23.2316  23.3677  23.5294  23.5970  23.7380
    23.8191  24.6165  24.7848  24.9517  25.0399  25.2382  25.2717  25.3871
    25.8469  25.9502  26.0168  26.4595  26.5119  26.6758  26.8560  26.9505
    26.9713  27.1267  27.3387  27.5060  28.0850  28.5029  28.6138  28.6668
    28.6714  28.8670  29.2207  29.5741  29.8787  30.1058  30.1607  30.2773
    30.9472  31.0660  31.3187  31.3936  31.4810  31.5049  31.8009  32.0766
    32.0980  32.1610  32.3169  32.6335  32.7195  33.1606  33.2127  33.2995
    34.8789  35.6194  35.7935  36.4004  38.0337  38.0516  38.8805  39.0135

          k = 0.0000 0.0000 0.1150 (  5537 PWs)   bands (ev):

   -38.7253 -38.7158 -38.7116 -38.7093 -27.2919 -27.2403 -27.0262 -27.0221
   -27.0092 -26.9589 -26.9528 -26.9375 -10.0538 -10.0150  -9.9747  -9.9604
    -9.9525  -9.9480  -9.9283  -9.9053  -9.8436  -9.8337  -9.7542  -9.7372
    -3.4084  -3.3034  -2.9435  -2.8333  -2.8306  -2.7097  -2.6971  -2.5008
    -2.4280  -2.3908  -2.3474  -2.3249  -2.2836  -2.1798  -2.1787  -2.1049
    -2.0813  -1.9543  -1.9473  -1.9227  -1.7880  -1.7499  -1.5588  -1.5179
    21.6641  21.7337  21.8926  21.9024  22.0652  22.3317  22.5147  22.6383
    22.6503  22.8841  22.9508  23.6017  23.6246  23.6484  23.7269  23.7583
    24.0012  24.1982  24.2373  24.7281  24.7393  24.7723  25.4651  25.5374
    25.8974  26.0229  26.1153  26.2346  26.3851  26.8150  26.9074  26.9129
    27.1734  27.5224  27.6150  27.7100  27.9612  28.1627  28.3515  28.5801
    28.8422  29.0510  29.2220  29.3194  29.5171  30.0638  30.2780  30.3152
    30.3219  30.7633  30.8750  31.1816  31.3327  31.4402  31.8587  32.0532
    32.1852  32.5932  32.7323  32.8075  32.8122  33.1425  33.4946  34.8080
    35.3390  35.4050  35.8626  36.2459  37.7379  38.2959  38.3844  39.3299

          k = 0.0000 0.0000-0.2300 (  5542 PWs)   bands (ev):

   -38.7218 -38.7218 -38.7097 -38.7097 -27.2696 -27.2696 -27.0168 -27.0168
   -26.9896 -26.9896 -26.9437 -26.9437 -10.0375 -10.0375  -9.9590  -9.9590
    -9.9469  -9.9469  -9.9277  -9.9277  -9.8428  -9.8428  -9.7459  -9.7459
    -3.3618  -3.3618  -2.8342  -2.8342  -2.8151  -2.8151  -2.6002  -2.6002
    -2.3775  -2.3775  -2.3096  -2.3096  -2.2663  -2.2663  -2.1227  -2.1227
    -2.0714  -2.0714  -1.8596  -1.8596  -1.8377  -1.8377  -1.5406  -1.5406
    21.6757  21.6757  21.7976  21.7976  22.2172  22.2173  22.8635  22.8635
    23.1516  23.1516  23.1694  23.1694  23.4140  23.4140  23.8662  23.8662
    24.0925  24.0925  24.2869  24.2869  24.3327  24.3327  25.5975  25.5975
    26.1405  26.1405  26.1579  26.1579  26.8182  26.8182  26.9462  26.9462
    27.1563  27.1563  27.7491  27.7491  27.8582  27.8582  28.3858  28.3858
    29.2550  29.2550  29.4861  29.4861  29.5057  29.5057  29.8415  29.8415
    30.2031  30.2031  31.1339  31.1339  31.2723  31.2723  31.8009  31.8009
    32.6160  32.6160  32.8214  32.8214  33.3185  33.3185  34.6654  34.6654
    35.7060  35.7060  36.3878  36.3878  37.5193  37.5193  38.4004  38.4005

          k = 0.0000 0.2239 0.0000 (  5501 PWs)   bands (ev):

   -38.7196 -38.7158 -38.7117 -38.7082 -27.2462 -27.1743 -27.1258 -27.0711
   -27.0083 -26.9842 -26.9184 -26.9181 -10.0357  -9.9928  -9.9813  -9.9639
    -9.9621  -9.9547  -9.8979  -9.8817  -9.8027  -9.7956  -9.7480  -9.7216
    -3.1800  -2.9367  -2.8598  -2.8439  -2.8268  -2.7743  -2.7214  -2.6775
    -2.5852  -2.4715  -2.4486  -2.3299  -2.2989  -2.1183  -2.1056  -2.0117
    -2.0035  -2.0002  -1.9627  -1.9334  -1.8860  -1.8484  -1.7639  -1.7394
    22.1244  22.1986  22.3564  22.3981  22.5567  22.7861  22.8224  22.8649
    23.1117  23.1726  23.2273  23.3463  23.5693  23.7513  23.7742  23.8587
    23.8947  24.2207  24.4105  24.4232  24.5845  25.1457  25.2459  25.3378
    25.7943  25.8738  25.9101  26.1253  26.3180  26.5323  26.9308  26.9863
    27.2772  27.5133  27.7302  28.0345  28.3000  28.3368  28.3517  28.5365
    28.6242  28.6488  29.1459  29.3255  29.4974  29.5231  29.6623  30.1837
    30.2646  30.4524  30.5818  30.9427  30.9715  31.0323  31.2081  31.3606
    31.8025  31.9346  31.9649  32.5853  32.8190  32.8759  32.8897  33.1535
    33.2684  33.3447  37.2730  38.3730  38.4047  39.0849  39.2089  39.7123

          k = 0.0000 0.2239 0.1150 (  5514 PWs)   bands (ev):

   -38.7197 -38.7162 -38.7128 -38.7091 -27.2392 -27.1914 -27.1166 -27.0809
   -26.9957 -26.9748 -26.9266 -26.9217 -10.0308 -10.0035  -9.9776  -9.9685
    -9.9526  -9.9486  -9.9067  -9.8962  -9.8055  -9.7994  -9.7417  -9.7256
    -3.1515  -2.9957  -2.8483  -2.8273  -2.7839  -2.7694  -2.7180  -2.6210
    -2.5894  -2.4934  -2.4169  -2.3571  -2.2785  -2.1299  -2.1153  -2.0637
    -2.0626  -2.0355  -1.9444  -1.9094  -1.8605  -1.8571  -1.7759  -1.7403
    22.0410  22.2283  22.2336  22.4402  22.4591  22.7216  23.0015  23.0674
    23.1136  23.2670  23.2877  23.4600  23.6476  23.6864  23.9198  23.9438
    24.0868  24.0890  24.1485  24.4662  24.6297  25.0635  25.3101  25.6092
    25.7612  25.8165  25.8841  25.9446  26.2157  26.3226  27.0917  27.2021
    27.3865  27.5005  27.5235  27.6026  27.9733  28.0644  28.2798  28.4765
    28.4939  28.6563  29.0657  29.3426  29.5960  29.7542  29.7848  30.0348
    30.0535  30.3070  30.6251  30.8242  30.9015  31.0994  31.1869  31.6325
    31.6547  31.8112  32.1494  32.1715  32.6920  32.7767  33.0978  33.3478
    34.0643  34.7091  37.6149  38.0864  38.3391  38.4172  39.1404  39.4371

          k = 0.0000 0.2239-0.2300 (  5502 PWs)   bands (ev):

   -38.7166 -38.7166 -38.7115 -38.7115 -27.2189 -27.2189 -27.0998 -27.0998
   -26.9727 -26.9727 -26.9319 -26.9319 -10.0180 -10.0180  -9.9711  -9.9711
    -9.9421  -9.9421  -9.9072  -9.9072  -9.8041  -9.8041  -9.7313  -9.7313
    -3.0779  -3.0779  -2.8185  -2.8185  -2.7832  -2.7832  -2.6267  -2.6267
    -2.5465  -2.5465  -2.3734  -2.3734  -2.2010  -2.2010  -2.1206  -2.1206
    -2.0991  -2.0991  -1.8927  -1.8927  -1.8680  -1.8680  -1.7612  -1.7612
    22.0088  22.0088  22.2814  22.2814  22.7955  22.7955  23.0570  23.0570
    23.3933  23.3933  23.4412  23.4412  23.5528  23.5528  23.8355  23.8355
    24.1719  24.1719  24.4876  24.4877  24.6937  24.6937  25.4839  25.4839
    25.6610  25.6610  25.8235  25.8235  26.7454  26.7454  26.8095  26.8095
    27.2869  27.2869  27.6648  27.6648  27.7583  27.7583  28.2019  28.2019
    28.7412  28.7412  28.9552  28.9552  29.5946  29.5946  29.9031  29.9031
    29.9594  29.9594  30.8577  30.8577  31.3338  31.3338  31.3345  31.3345
    31.7114  31.7114  32.3232  32.3232  32.4245  32.4245  33.2844  33.2844
    35.8505  35.8506  37.1528  37.1529  38.5323  38.5324  38.5521  38.5523

          k =-0.4322 0.0000 0.0000 (  5532 PWs)   bands (ev):

   -38.7161 -38.7161 -38.7127 -38.7127 -27.2329 -27.2329 -27.0233 -27.0233
   -26.9896 -26.9896 -26.9877 -26.9877 -10.0319 -10.0319 -10.0057 -10.0057
    -9.9452  -9.9452  -9.9407  -9.9407  -9.8088  -9.8088  -9.7552  -9.7552
    -3.3328  -3.3328  -2.9384  -2.9384  -2.8488  -2.8488  -2.5569  -2.5569
    -2.5565  -2.5565  -2.2298  -2.2298  -2.1696  -2.1696  -2.0808  -2.0808
    -1.9339  -1.9339  -1.8405  -1.8405  -1.8074  -1.8074  -1.5940  -1.5940
    21.8193  21.8193  22.4464  22.4464  22.7569  22.7569  23.0314  23.0314
    23.0490  23.0490  23.1974  23.1974  23.3904  23.3904  23.9655  23.9655
    24.3161  24.3161  24.3588  24.3588  24.8302  24.8302  25.0872  25.0872
    25.5479  25.5479  26.2155  26.2155  26.5054  26.5054  26.7686  26.7686
    27.7881  27.7881  27.8996  27.8996  28.0937  28.0937  28.2040  28.2040
    28.8826  28.8826  29.1450  29.1450  29.4634  29.4634  29.9300  29.9300
    30.2919  30.2919  30.9882  30.9882  31.2646  31.2646  31.8154  31.8154
    31.9377  31.9377  32.5579  32.5579  32.9156  32.9156  33.1743  33.1743
    33.2899  33.2900  33.7907  33.7908  38.1717  38.1718  38.5100  38.5103

          k =-0.4322 0.0000 0.1150 (  5540 PWs)   bands (ev):

   -38.7164 -38.7164 -38.7129 -38.7129 -27.2333 -27.2333 -27.0235 -27.0235
   -26.9895 -26.9895 -26.9872 -26.9872 -10.0305 -10.0305 -10.0057 -10.0057
    -9.9666  -9.9666  -9.9242  -9.9242  -9.8100  -9.8100  -9.7574  -9.7574
    -3.3410  -3.3410  -2.9276  -2.9276  -2.7797  -2.7797  -2.6159  -2.6159
    -2.4917  -2.4917  -2.2548  -2.2548  -2.2202  -2.2202  -2.1105  -2.1105
    -1.8988  -1.8988  -1.8620  -1.8620  -1.7955  -1.7955  -1.5953  -1.5953
    21.9332  21.9332  22.2648  22.2648  22.7898  22.7898  23.0479  23.0479
    23.0543  23.0543  23.2979  23.2979  23.5790  23.5790  23.7647  23.7647
    24.0739  24.0739  24.7357  24.7357  24.8800  24.8800  25.3131  25.3131
    25.5013  25.5013  26.1022  26.1022  26.5670  26.5670  26.7199  26.7199
    27.2968  27.2968  27.4674  27.4674  27.8533  27.8533  28.4588  28.4588
    28.7699  28.7699  29.1624  29.1624  29.5681  29.5681  30.3637  30.3637
    30.4536  30.4536  30.7702  30.7702  31.3096  31.3096  31.6219  31.6219
    32.1714  32.1714  32.6327  32.6327  32.6920  32.6920  33.0486  33.0486
    33.2212  33.2212  34.8031  34.8031  36.9345  36.9345  38.7850  38.7851

          k =-0.4322 0.0000-0.2300 (  5520 PWs)   bands (ev):

   -38.7165 -38.7165 -38.7106 -38.7106 -27.2336 -27.2336 -27.0236 -27.0236
   -26.9888 -26.9888 -26.9867 -26.9867 -10.0274 -10.0274  -9.9988  -9.9988
    -9.9755  -9.9755  -9.9169  -9.9169  -9.8091  -9.8091  -9.7558  -9.7558
    -3.3487  -3.3487  -2.9060  -2.9060  -2.6852  -2.6852  -2.6513  -2.6513
    -2.4891  -2.4891  -2.2663  -2.2663  -2.2534  -2.2534  -2.1548  -2.1548
    -1.8933  -1.8933  -1.8260  -1.8260  -1.8134  -1.8134  -1.5948  -1.5948
    21.9759  21.9759  22.3480  22.3480  22.6074  22.6074  22.9872  22.9872
    23.0624  23.0624  23.4944  23.4944  23.6856  23.6856  23.8815  23.8815
    23.9506  23.9506  24.5798  24.5798  25.2831  25.2831  25.4277  25.4277
    25.4943  25.4943  25.7804  25.7804  26.4624  26.4624  26.6887  26.6887
    27.2280  27.2280  27.4711  27.4711  27.6493  27.6493  28.3498  28.3498
    28.5427  28.5427  29.0832  29.0832  29.6266  29.6266  30.2269  30.2269
    30.6346  30.6346  31.2620  31.2620  31.4179  31.4179  31.4684  31.4684
    31.9994  31.9994  32.3133  32.3133  32.9296  32.9296  32.9854  32.9854
    33.9148  33.9148  35.2064  35.2065  35.9863  35.9864  39.1420  39.1422

          k =-0.4322 0.2239 0.0000 (  5514 PWs)   bands (ev):

   -38.7144 -38.7144 -38.7119 -38.7119 -27.1813 -27.1813 -27.0767 -27.0767
   -26.9902 -26.9902 -26.9893 -26.9893 -10.0023 -10.0023  -9.9971  -9.9971
    -9.9400  -9.9400  -9.9385  -9.9385  -9.7811  -9.7811  -9.7500  -9.7500
    -3.0942  -3.0942  -2.9743  -2.9743  -2.8693  -2.8693  -2.5195  -2.5195
    -2.5137  -2.5137  -2.3042  -2.3042  -2.2000  -2.2000  -2.1900  -2.1900
    -1.9231  -1.9231  -1.9017  -1.9017  -1.8176  -1.8176  -1.7609  -1.7609
    22.3717  22.3717  22.7552  22.7552  22.8817  22.8817  23.2489  23.2489
    23.2714  23.2714  23.5628  23.5628  23.9512  23.9512  24.0900  24.0900
    24.3470  24.3470  24.7041  24.7041  24.9782  24.9782  25.2580  25.2580
    25.4917  25.4917  25.9033  25.9033  26.2018  26.2018  27.0894  27.0894
    27.1507  27.1507  27.3388  27.3388  27.6888  27.6888  28.2702  28.2702
    28.3514  28.3514  29.0935  29.0935  29.1656  29.1656  29.8645  29.8645
    30.4014  30.4014  30.6042  30.6042  30.7715  30.7715  30.9587  30.9587
    31.4591  31.4591  31.6946  31.6946  31.9703  31.9703  33.0803  33.0803
    34.6475  34.6475  35.0198  35.0198  36.5125  36.5125  37.1471  37.1472

          k =-0.4322 0.2239 0.1150 (  5534 PWs)   bands (ev):

   -38.7153 -38.7153 -38.7130 -38.7130 -27.1819 -27.1819 -27.0773 -27.0773
   -26.9900 -26.9900 -26.9889 -26.9889 -10.0107 -10.0107  -9.9944  -9.9944
    -9.9487  -9.9487  -9.9326  -9.9326  -9.7845  -9.7845  -9.7525  -9.7525
    -3.0930  -3.0930  -2.9314  -2.9314  -2.8211  -2.8211  -2.6326  -2.6326
    -2.5264  -2.5264  -2.3074  -2.3074  -2.1878  -2.1878  -2.1154  -2.1154
    -1.9560  -1.9560  -1.9059  -1.9059  -1.8338  -1.8338  -1.7697  -1.7697
    22.4304  22.4304  22.6487  22.6487  22.9542  22.9542  23.1744  23.1744
    23.4135  23.4135  23.6017  23.6017  23.8295  23.8295  24.0150  24.0150
    24.5405  24.5405  24.7991  24.7991  24.9128  24.9128  25.3065  25.3065
    25.7925  25.7925  26.0188  26.0188  26.2272  26.2272  26.6508  26.6508
    26.9345  26.9345  27.1813  27.1813  27.8650  27.8650  28.0123  28.0123
    28.5978  28.5978  28.9191  28.9191  29.0513  29.0513  29.8013  29.8013
    29.9403  29.9403  30.1727  30.1727  30.8333  30.8333  31.1690  31.1690
    31.8120  31.8120  32.0561  32.0561  32.2036  32.2036  33.3233  33.3233
    34.3183  34.3184  35.1796  35.1796  36.1918  36.1919  38.0322  38.0323

          k =-0.4322 0.2239-0.2300 (  5528 PWs)   bands (ev):

   -38.7151 -38.7151 -38.7129 -38.7129 -27.1824 -27.1824 -27.0778 -27.0778
   -26.9895 -26.9895 -26.9884 -26.9884 -10.0124 -10.0124  -9.9894  -9.9894
    -9.9567  -9.9567  -9.9291  -9.9291  -9.7836  -9.7836  -9.7519  -9.7519
    -3.0934  -3.0934  -2.8418  -2.8418  -2.7687  -2.7687  -2.7164  -2.7164
    -2.6112  -2.6112  -2.3066  -2.3066  -2.1369  -2.1369  -2.0550  -2.0550
    -1.9772  -1.9772  -1.9633  -1.9633  -1.8216  -1.8216  -1.7873  -1.7873
    22.3743  22.3743  22.8089  22.8089  22.8983  22.8983  23.2673  23.2673
    23.2971  23.2971  23.6762  23.6762  23.7807  23.7807  23.9618  23.9618
    24.5268  24.5268  25.0355  25.0355  25.2581  25.2581  25.2786  25.2786
    25.8664  25.8664  26.0019  26.0019  26.0140  26.0140  26.3227  26.3227
    26.7723  26.7723  27.5439  27.5439  27.6281  27.6281  28.2398  28.2398
    28.5505  28.5505  28.6949  28.6949  28.8854  28.8854  29.4930  29.4930
    29.6649  29.6649  29.9732  29.9732  30.8274  30.8274  31.2787  31.2787
    32.0663  32.0663  32.3163  32.3163  33.0135  33.0135  33.0682  33.0682
    34.3493  34.3493  34.9032  34.9032  36.1707  36.1707  39.2293  39.2297

     the Fermi energy is    30.8772 ev

!    total energy              =   -2016.96039028 Ry
     Harris-Foulkes estimate   =   -2016.96040805 Ry
     estimated scf accuracy    <       0.00001972 Ry

     The total energy is the sum of the following terms:

     one-electron contribution =      39.95681334 Ry
     hartree contribution      =     180.63298069 Ry
     xc contribution           =    -215.24769855 Ry
     ewald contribution        =   -2021.63286713 Ry
     smearing contrib. (-TS)   =      -0.66961863 Ry

     convergence has been achieved in  11 iterations

     Forces acting on atoms (Ry/au):

     atom    1 type  1   force =     0.00000000   -0.03892189   -0.00866071
     atom    2 type  1   force =     0.00000000    0.03892189    0.00866071
     atom    3 type  1   force =     0.00000000   -0.03892189    0.00866071
     atom    4 type  1   force =     0.00000000    0.03892189   -0.00866071
     atom    5 type  1   force =     0.00000000    0.07438477   -0.06495112
     atom    6 type  1   force =     0.00000000   -0.07438477    0.06495112
     atom    7 type  1   force =     0.00000000    0.07438477    0.06495112
     atom    8 type  1   force =     0.00000000   -0.07438477   -0.06495112
     atom    9 type  2   force =     0.00000000   -0.05344876   -0.02465920
     atom   10 type  2   force =     0.00000000    0.05344876    0.02465920
     atom   11 type  2   force =     0.00000000   -0.05344876    0.02465920
     atom   12 type  2   force =     0.00000000    0.05344876   -0.02465920

     Total force =     0.243364     Total SCF correction =     0.000000


     entering subroutine stress ...

          total   stress  (Ry/bohr**3)                   (kbar)     P=  872.72
   0.00621542   0.00000000   0.00000000        914.32      0.00      0.00
   0.00000000   0.00554717   0.00000000          0.00    816.02      0.00
   0.00000000   0.00000000   0.00603538          0.00      0.00    887.84


     Writing output data file Prototype-La-oP12-Co2Si.save
 
     init_run     :      4.05s CPU      5.03s WALL (       2 calls)
     electrons    :    716.44s CPU    823.68s WALL (       5 calls)
     update_pot   :      1.94s CPU      1.97s WALL (       3 calls)
     forces       :      3.80s CPU      4.02s WALL (       5 calls)
     stress       :      8.79s CPU      9.01s WALL (       5 calls)

     Called by init_run:
     wfcinit      :      3.09s CPU      4.05s WALL (       2 calls)
     potinit      :      0.48s CPU      0.49s WALL (       2 calls)

     Called by electrons:
     c_bands      :    697.97s CPU    793.85s WALL (      51 calls)
     sum_band     :     18.11s CPU     24.52s WALL (      51 calls)
     v_of_rho     :      0.07s CPU      0.09s WALL (      56 calls)
     mix_rho      :      0.07s CPU      0.09s WALL (      51 calls)

     Called by c_bands:
     init_us_2    :      1.21s CPU      1.43s WALL (    1368 calls)
     ccgdiagg     :    631.10s CPU    707.36s WALL (     702 calls)
     wfcrot       :     68.66s CPU     88.20s WALL (     714 calls)

     Called by *cgdiagg:
     h_psi        :    442.09s CPU    521.28s WALL (  418800 calls)
     cdiaghg      :      3.82s CPU      4.26s WALL (     714 calls)

     Called by h_psi:
     add_vuspsi   :     64.09s CPU     72.69s WALL (  418800 calls)

     General routines
     calbec       :    193.75s CPU    200.84s WALL (  837006 calls)
     fft          :      0.18s CPU      0.20s WALL (     247 calls)
     fftw         :    269.27s CPU    321.86s WALL ( 1080972 calls)
     davcio       :      0.74s CPU      1.92s WALL (    1980 calls)
 
     Parallel routines
     fft_scatter  :    120.01s CPU    141.27s WALL ( 1081219 calls)
 
     PWSCF        : 12m15.41s CPU    14m 4.38s WALL

 
   This run was terminated on:  18:57:56  22Mar2018            

=------------------------------------------------------------------------------=
   JOB DONE.
=------------------------------------------------------------------------------=
