
     Program PWSCF v.5.0.2 starts on 22Mar2018 at 16:18:52 

     This program is part of the open-source Quantum ESPRESSO suite
     for quantum simulation of materials; please cite
         "P. Giannozzi et al., J. Phys.:Condens. Matter 21 395502 (2009);
          URL http://www.quantum-espresso.org", 
     in publications or presentations arising from this work. More details at
     http://www.quantum-espresso.org/quote.php

     Parallel version (MPI), running on     4 processors
     R & G space division:  proc/nbgrp/npool/nimage =       4

     Current dimensions of program PWSCF are:
     Max number of different atomic species (ntypx) = 10
     Max number of k-points (npk) =  40000
     Max angular momentum in pseudopotentials (lmaxx) =  3
     Waiting for input...
     Reading input from standard input

     Subspace diagonalization in iterative solution of the eigenvalue problem:
     a serial algorithm will be used

 
     Parallelization info
     --------------------
     sticks:   dense  smooth     PW     G-vecs:    dense   smooth      PW
     Min         256     256     78                 5240     5240     876
     Max         257     257     79                 5243     5243     879
     Sum        1027    1027    313                20965    20965    3509
 


     bravais-lattice index     =            0
     lattice parameter (alat)  =       9.6483  a.u.
     unit-cell volume          =     613.3683 (a.u.)^3
     number of atoms/cell      =            6
     number of atomic types    =            2
     number of electrons       =       103.00
     number of Kohn-Sham states=           62
     kinetic-energy cutoff     =      40.0000  Ry
     charge density cutoff     =     160.0000  Ry
     convergence threshold     =      1.0E-04
     mixing beta               =       0.7000
     number of iterations used =            8  plain     mixing
     Exchange-correlation      = SLA-PZ-NOGX-NOGC ( 1 1 0 0 0)
     EXX-fraction              =        0.00
     nstep                     =           50


     celldm(1)=   9.648295  celldm(2)=   0.000000  celldm(3)=   0.000000
     celldm(4)=   0.000000  celldm(5)=   0.000000  celldm(6)=   0.000000

     crystal axes: (cart. coord. in units of alat)
               a(1) = (   1.000000   0.000000   0.000000 )  
               a(2) = (  -0.500000   0.866025   0.000000 )  
               a(3) = (   0.000000   0.000000   0.788568 )  

     reciprocal axes: (cart. coord. in units 2 pi/alat)
               b(1) = (  1.000000  0.577350  0.000000 )  
               b(2) = (  0.000000  1.154701  0.000000 )  
               b(3) = (  0.000000  0.000000  1.268122 )  


     PseudoPot. # 1 for Pr read from file:
     /home/cwx6513/pp.La/Pr.UPF
     MD5 check sum: 70e2b4b153859e92c8c91247dfc63203
     Pseudo is Norm-conserving, Zval = 13.0
     Generated in analytical, separable form
     Using radial grid of 1255 points,  6 beta functions with: 
                l(1) =   0
                l(2) =   0
                l(3) =   1
                l(4) =   1
                l(5) =   2
                l(6) =   3

     PseudoPot. # 2 for Gd read from file:
     /home/cwx6513/pp.La/Gd.UPF
     MD5 check sum: 09a8be538722f05520810cb6aac0efd2
     Pseudo is Norm-conserving, Zval = 18.0
     Generated in analytical, separable form
     Using radial grid of 1263 points,  6 beta functions with: 
                l(1) =   0
                l(2) =   0
                l(3) =   1
                l(4) =   1
                l(5) =   2
                l(6) =   3

     atomic species   valence    mass     pseudopotential
        Ca            13.00    40.07800     Pr( 1.00)
        Cu            18.00    63.54600     Gd( 1.00)

     24 Sym. Ops., with inversion, found



   Cartesian axes

     site n.     atom                  positions (alat units)
         1           Ca  tau(   1) = (   0.0000000   0.0000000   0.0000000  )
         2           Cu  tau(   2) = (  -0.0000005   0.5773506   0.0000000  )
         3           Cu  tau(   3) = (   0.5000005   0.2886748   0.0000000  )
         4           Cu  tau(   4) = (   0.5000000   0.0000000   0.3942838  )
         5           Cu  tau(   5) = (   0.2500000   0.4330127   0.3942838  )
         6           Cu  tau(   6) = (  -0.2500000   0.4330127   0.3942838  )

     number of k points=   110  gaussian smearing, width (Ry)=  0.1000

     Number of k-points >= 100: set verbosity='high' to print them.

     Dense  grid:    20965 G-vectors     FFT dimensions: (  40,  40,  32)

     Largest allocated arrays     est. size (Mb)     dimensions
        Kohn-Sham Wavefunctions         0.63 Mb     (    670,   62)
        NL pseudopotentials             1.23 Mb     (    670,  120)
        Each V/rho on FFT grid          0.20 Mb     (  12800)
        Each G-vector array             0.04 Mb     (   5243)
        G-vector shells                 0.04 Mb     (   5243)
     Largest temporary arrays     est. size (Mb)     dimensions
        Each subspace H/S matrix        0.06 Mb     (  62,  62)
        Each <psi_i|beta_j> matrix      0.11 Mb     (    120,   62)
        Arrays for rho mixing           1.56 Mb     (  12800,   8)

     Initial potential from superposition of free atoms
     Check: negative starting charge=   -0.000147

     starting charge   12.99054, renormalised to  103.00000

     negative rho (up, down):  0.117E-02 0.000E+00
     Starting wfc are   20 randomized atomic wfcs

     total cpu time spent up to now is        6.5 secs

     Self-consistent Calculation

     iteration #  1     ecut=    40.00 Ry     beta=0.70
     CG style diagonalization
     c_bands:  3 eigenvalues not converged
     c_bands:  2 eigenvalues not converged
     c_bands:  1 eigenvalues not converged
     c_bands:  1 eigenvalues not converged
     c_bands:  2 eigenvalues not converged
     c_bands:  3 eigenvalues not converged
     c_bands:  1 eigenvalues not converged
     c_bands:  1 eigenvalues not converged
     c_bands:  2 eigenvalues not converged
     c_bands:  2 eigenvalues not converged
     c_bands:  1 eigenvalues not converged
     c_bands:  1 eigenvalues not converged
     c_bands:  2 eigenvalues not converged
     c_bands:  2 eigenvalues not converged
     c_bands:  1 eigenvalues not converged
     c_bands:  1 eigenvalues not converged
     c_bands:  2 eigenvalues not converged
     c_bands:  1 eigenvalues not converged
     c_bands:  1 eigenvalues not converged
     c_bands:  1 eigenvalues not converged
     c_bands:  2 eigenvalues not converged
     c_bands:  1 eigenvalues not converged
     c_bands:  1 eigenvalues not converged
     c_bands:  1 eigenvalues not converged
     c_bands:  1 eigenvalues not converged
     c_bands:  1 eigenvalues not converged
     c_bands:  1 eigenvalues not converged
     c_bands:  1 eigenvalues not converged
     c_bands:  1 eigenvalues not converged
     c_bands:  2 eigenvalues not converged
     c_bands:  2 eigenvalues not converged
     c_bands:  1 eigenvalues not converged
     c_bands:  2 eigenvalues not converged
     c_bands:  2 eigenvalues not converged
     c_bands:  1 eigenvalues not converged
     c_bands:  2 eigenvalues not converged
     c_bands:  1 eigenvalues not converged
     c_bands:  2 eigenvalues not converged
     c_bands:  1 eigenvalues not converged
     c_bands:  3 eigenvalues not converged
     c_bands:  2 eigenvalues not converged
     c_bands:  1 eigenvalues not converged
     c_bands:  1 eigenvalues not converged
     c_bands:  1 eigenvalues not converged
     c_bands:  1 eigenvalues not converged
     c_bands:  2 eigenvalues not converged
     c_bands:  2 eigenvalues not converged
     c_bands:  1 eigenvalues not converged
     c_bands:  1 eigenvalues not converged
     c_bands:  2 eigenvalues not converged
     c_bands:  1 eigenvalues not converged
     c_bands:  2 eigenvalues not converged
     c_bands:  2 eigenvalues not converged
     c_bands:  2 eigenvalues not converged
     c_bands:  2 eigenvalues not converged
     c_bands:  1 eigenvalues not converged
     c_bands:  1 eigenvalues not converged
     c_bands:  1 eigenvalues not converged
     c_bands:  1 eigenvalues not converged
     c_bands:  3 eigenvalues not converged
     c_bands:  1 eigenvalues not converged
     c_bands:  1 eigenvalues not converged
     c_bands:  1 eigenvalues not converged
     c_bands:  1 eigenvalues not converged
     c_bands:  2 eigenvalues not converged
     c_bands:  1 eigenvalues not converged
     c_bands:  1 eigenvalues not converged
     c_bands:  1 eigenvalues not converged
     c_bands:  1 eigenvalues not converged
     c_bands:  1 eigenvalues not converged
     c_bands:  2 eigenvalues not converged
     ethr =  1.00E-02,  avg # of iterations = 35.9

     negative rho (up, down):  0.350E-03 0.000E+00

     total cpu time spent up to now is      243.0 secs

     total energy              =   -1073.96639106 Ry
     Harris-Foulkes estimate   =   -4265.97761878 Ry
     estimated scf accuracy    <    3656.91111344 Ry

     iteration #  2     ecut=    40.00 Ry     beta=0.70
     CG style diagonalization
     ethr =  1.00E-02,  avg # of iterations = 17.4

     negative rho (up, down):  0.998E-04 0.000E+00

     total cpu time spent up to now is      335.4 secs

     total energy              =    -778.21528920 Ry
     Harris-Foulkes estimate   =   -1348.44594459 Ry
     estimated scf accuracy    <     674.58025547 Ry

     iteration #  3     ecut=    40.00 Ry     beta=0.70
     CG style diagonalization
     c_bands:  5 eigenvalues not converged
     c_bands:  5 eigenvalues not converged
     c_bands:  5 eigenvalues not converged
     c_bands:  5 eigenvalues not converged
     c_bands:  5 eigenvalues not converged
     c_bands:  4 eigenvalues not converged
     c_bands:  4 eigenvalues not converged
     c_bands:  4 eigenvalues not converged
     c_bands:  5 eigenvalues not converged
     c_bands:  5 eigenvalues not converged
     c_bands:  1 eigenvalues not converged
     c_bands:  3 eigenvalues not converged
     c_bands:  5 eigenvalues not converged
     c_bands:  3 eigenvalues not converged
     c_bands:  4 eigenvalues not converged
     c_bands:  4 eigenvalues not converged
     c_bands:  3 eigenvalues not converged
     c_bands:  4 eigenvalues not converged
     c_bands:  3 eigenvalues not converged
     c_bands:  4 eigenvalues not converged
     c_bands:  5 eigenvalues not converged
     c_bands:  5 eigenvalues not converged
     c_bands:  5 eigenvalues not converged
     c_bands:  5 eigenvalues not converged
     c_bands:  5 eigenvalues not converged
     c_bands:  4 eigenvalues not converged
     c_bands:  2 eigenvalues not converged
     c_bands:  5 eigenvalues not converged
     c_bands:  3 eigenvalues not converged
     c_bands:  4 eigenvalues not converged
     c_bands:  3 eigenvalues not converged
     c_bands:  4 eigenvalues not converged
     c_bands:  5 eigenvalues not converged
     c_bands:  5 eigenvalues not converged
     c_bands:  4 eigenvalues not converged
     c_bands:  5 eigenvalues not converged
     c_bands:  5 eigenvalues not converged
     c_bands:  4 eigenvalues not converged
     c_bands:  3 eigenvalues not converged
     c_bands:  5 eigenvalues not converged
     c_bands:  5 eigenvalues not converged
     c_bands:  3 eigenvalues not converged
     c_bands:  5 eigenvalues not converged
     c_bands:  5 eigenvalues not converged
     c_bands:  3 eigenvalues not converged
     c_bands:  3 eigenvalues not converged
     c_bands:  5 eigenvalues not converged
     c_bands:  5 eigenvalues not converged
     c_bands:  4 eigenvalues not converged
     c_bands:  4 eigenvalues not converged
     c_bands:  5 eigenvalues not converged
     c_bands:  2 eigenvalues not converged
     c_bands:  5 eigenvalues not converged
     c_bands:  3 eigenvalues not converged
     c_bands:  4 eigenvalues not converged
     c_bands:  4 eigenvalues not converged
     c_bands:  3 eigenvalues not converged
     c_bands:  5 eigenvalues not converged
     ethr =  1.00E-02,  avg # of iterations = 15.5

     negative rho (up, down):  0.443E-04 0.000E+00

     total cpu time spent up to now is      415.7 secs

     total energy              =   -1027.96323685 Ry
     Harris-Foulkes estimate   =   -1396.96309725 Ry
     estimated scf accuracy    <     751.04028560 Ry

     iteration #  4     ecut=    40.00 Ry     beta=0.70
     CG style diagonalization
     c_bands:  1 eigenvalues not converged
     c_bands:  1 eigenvalues not converged
     c_bands:  1 eigenvalues not converged
     c_bands:  1 eigenvalues not converged
     c_bands:  1 eigenvalues not converged
     c_bands:  2 eigenvalues not converged
     c_bands:  1 eigenvalues not converged
     c_bands:  1 eigenvalues not converged
     c_bands:  1 eigenvalues not converged
     c_bands:  1 eigenvalues not converged
     c_bands:  1 eigenvalues not converged
     c_bands:  1 eigenvalues not converged
     c_bands:  1 eigenvalues not converged
     c_bands:  1 eigenvalues not converged
     c_bands:  1 eigenvalues not converged
     c_bands:  1 eigenvalues not converged
     c_bands:  1 eigenvalues not converged
     ethr =  1.00E-02,  avg # of iterations = 10.2

     negative rho (up, down):  0.617E-05 0.000E+00

     total cpu time spent up to now is      468.7 secs

     total energy              =   -1080.09726629 Ry
     Harris-Foulkes estimate   =   -1112.52611781 Ry
     estimated scf accuracy    <      56.44278975 Ry

     iteration #  5     ecut=    40.00 Ry     beta=0.70
     CG style diagonalization
     ethr =  1.00E-02,  avg # of iterations =  5.9

     total cpu time spent up to now is      500.4 secs

     total energy              =   -1086.90172295 Ry
     Harris-Foulkes estimate   =   -1105.33549565 Ry
     estimated scf accuracy    <      21.05809378 Ry

     iteration #  6     ecut=    40.00 Ry     beta=0.70
     CG style diagonalization
     c_bands:  1 eigenvalues not converged
     ethr =  1.00E-02,  avg # of iterations =  7.3

     total cpu time spent up to now is      539.1 secs

     total energy              =   -1064.75589268 Ry
     Harris-Foulkes estimate   =   -1114.87490956 Ry
     estimated scf accuracy    <     134.78044218 Ry

     iteration #  7     ecut=    40.00 Ry     beta=0.70
     CG style diagonalization
     c_bands:  1 eigenvalues not converged
     ethr =  1.00E-02,  avg # of iterations =  5.8

     total cpu time spent up to now is      569.8 secs

     total energy              =   -1099.26304827 Ry
     Harris-Foulkes estimate   =   -1099.70400841 Ry
     estimated scf accuracy    <       6.86734308 Ry

     iteration #  8     ecut=    40.00 Ry     beta=0.70
     CG style diagonalization
     ethr =  6.67E-03,  avg # of iterations =  3.0

     total cpu time spent up to now is      585.0 secs

     total energy              =   -1097.44782683 Ry
     Harris-Foulkes estimate   =   -1099.45998299 Ry
     estimated scf accuracy    <       5.99881646 Ry

     iteration #  9     ecut=    40.00 Ry     beta=0.70
     CG style diagonalization
     ethr =  5.82E-03,  avg # of iterations =  3.1

     total cpu time spent up to now is      600.6 secs

     total energy              =   -1097.88287938 Ry
     Harris-Foulkes estimate   =   -1097.89274946 Ry
     estimated scf accuracy    <       1.06339841 Ry

     iteration # 10     ecut=    40.00 Ry     beta=0.70
     CG style diagonalization
     ethr =  1.03E-03,  avg # of iterations =  3.4

     total cpu time spent up to now is      618.5 secs

     total energy              =   -1097.98866926 Ry
     Harris-Foulkes estimate   =   -1097.93397385 Ry
     estimated scf accuracy    <       0.78417307 Ry

     iteration # 11     ecut=    40.00 Ry     beta=0.70
     CG style diagonalization
     ethr =  7.61E-04,  avg # of iterations =  3.0

     total cpu time spent up to now is      636.2 secs

     total energy              =   -1097.85669280 Ry
     Harris-Foulkes estimate   =   -1098.00007977 Ry
     estimated scf accuracy    <       0.92819499 Ry

     iteration # 12     ecut=    40.00 Ry     beta=0.70
     CG style diagonalization
     ethr =  7.61E-04,  avg # of iterations =  3.0

     negative rho (up, down):  0.546E-03 0.000E+00

     total cpu time spent up to now is      652.1 secs

     total energy              =   -1098.09194484 Ry
     Harris-Foulkes estimate   =   -1097.89282245 Ry
     estimated scf accuracy    <       0.39712928 Ry

     iteration # 13     ecut=    40.00 Ry     beta=0.70
     CG style diagonalization
     ethr =  3.86E-04,  avg # of iterations =  3.3

     negative rho (up, down):  0.592E-02 0.000E+00

     total cpu time spent up to now is      670.9 secs

     total energy              =   -1098.88451354 Ry
     Harris-Foulkes estimate   =   -1098.23979119 Ry
     estimated scf accuracy    <       1.91896591 Ry

     iteration # 14     ecut=    40.00 Ry     beta=0.70
     CG style diagonalization
     c_bands:  1 eigenvalues not converged
     ethr =  3.86E-04,  avg # of iterations =  3.9

     negative rho (up, down):  0.466E-02 0.000E+00

     total cpu time spent up to now is      691.6 secs

     total energy              =   -1098.75020821 Ry
     Harris-Foulkes estimate   =   -1099.07550265 Ry
     estimated scf accuracy    <       5.09278177 Ry

     iteration # 15     ecut=    40.00 Ry     beta=0.70
     CG style diagonalization
     ethr =  3.86E-04,  avg # of iterations =  3.0

     negative rho (up, down):  0.445E-02 0.000E+00

     total cpu time spent up to now is      707.1 secs

     total energy              =   -1098.71951158 Ry
     Harris-Foulkes estimate   =   -1098.76319628 Ry
     estimated scf accuracy    <       4.16456486 Ry

     iteration # 16     ecut=    40.00 Ry     beta=0.70
     CG style diagonalization
     ethr =  3.86E-04,  avg # of iterations =  3.0

     negative rho (up, down):  0.495E-02 0.000E+00

     total cpu time spent up to now is      722.4 secs

     total energy              =   -1098.60961619 Ry
     Harris-Foulkes estimate   =   -1098.72075291 Ry
     estimated scf accuracy    <       4.01025803 Ry

     iteration # 17     ecut=    40.00 Ry     beta=0.70
     CG style diagonalization
     ethr =  3.86E-04,  avg # of iterations =  3.0

     negative rho (up, down):  0.404E-02 0.000E+00

     total cpu time spent up to now is      740.5 secs

     total energy              =   -1098.12250110 Ry
     Harris-Foulkes estimate   =   -1098.61213339 Ry
     estimated scf accuracy    <       3.63824438 Ry

     iteration # 18     ecut=    40.00 Ry     beta=0.70
     CG style diagonalization
     ethr =  3.86E-04,  avg # of iterations =  3.2

     total cpu time spent up to now is      759.7 secs

     total energy              =   -1097.33875315 Ry
     Harris-Foulkes estimate   =   -1098.17102778 Ry
     estimated scf accuracy    <       1.96904046 Ry

     iteration # 19     ecut=    40.00 Ry     beta=0.70
     CG style diagonalization
     c_bands:  1 eigenvalues not converged
     c_bands:  1 eigenvalues not converged
     ethr =  3.86E-04,  avg # of iterations =  4.1

     negative rho (up, down):  0.252E-05 0.000E+00

     total cpu time spent up to now is      781.1 secs

     total energy              =   -1097.76741715 Ry
     Harris-Foulkes estimate   =   -1097.83835841 Ry
     estimated scf accuracy    <       0.22624359 Ry

     iteration # 20     ecut=    40.00 Ry     beta=0.70
     CG style diagonalization
     ethr =  2.20E-04,  avg # of iterations =  3.2

     negative rho (up, down):  0.325E-05 0.000E+00

     total cpu time spent up to now is      797.9 secs

     total energy              =   -1097.78517965 Ry
     Harris-Foulkes estimate   =   -1097.79017021 Ry
     estimated scf accuracy    <       0.01370851 Ry

     iteration # 21     ecut=    40.00 Ry     beta=0.70
     CG style diagonalization
     c_bands:  1 eigenvalues not converged
     c_bands:  1 eigenvalues not converged
     c_bands:  1 eigenvalues not converged
     c_bands:  1 eigenvalues not converged
     c_bands:  1 eigenvalues not converged
     c_bands:  1 eigenvalues not converged
     c_bands:  1 eigenvalues not converged
     c_bands:  1 eigenvalues not converged
     c_bands:  1 eigenvalues not converged
     c_bands:  1 eigenvalues not converged
     c_bands:  1 eigenvalues not converged
     c_bands:  1 eigenvalues not converged
     c_bands:  1 eigenvalues not converged
     c_bands:  2 eigenvalues not converged
     c_bands:  1 eigenvalues not converged
     c_bands:  1 eigenvalues not converged
     c_bands:  1 eigenvalues not converged
     c_bands:  1 eigenvalues not converged
     c_bands:  2 eigenvalues not converged
     c_bands:  1 eigenvalues not converged
     c_bands:  1 eigenvalues not converged
     ethr =  1.33E-05,  avg # of iterations =  4.2

     total cpu time spent up to now is      821.7 secs

     total energy              =   -1097.79104493 Ry
     Harris-Foulkes estimate   =   -1097.79099459 Ry
     estimated scf accuracy    <       0.00256701 Ry

     iteration # 22     ecut=    40.00 Ry     beta=0.70
     CG style diagonalization
     c_bands:  1 eigenvalues not converged
     c_bands:  1 eigenvalues not converged
     c_bands:  1 eigenvalues not converged
     c_bands:  1 eigenvalues not converged
     c_bands:  1 eigenvalues not converged
     c_bands:  1 eigenvalues not converged
     c_bands:  1 eigenvalues not converged
     c_bands:  1 eigenvalues not converged
     c_bands:  1 eigenvalues not converged
     c_bands:  1 eigenvalues not converged
     c_bands:  1 eigenvalues not converged
     c_bands:  1 eigenvalues not converged
     ethr =  2.49E-06,  avg # of iterations =  3.3

     total cpu time spent up to now is      838.5 secs

     total energy              =   -1097.79009882 Ry
     Harris-Foulkes estimate   =   -1097.79116961 Ry
     estimated scf accuracy    <       0.00359786 Ry

     iteration # 23     ecut=    40.00 Ry     beta=0.70
     CG style diagonalization
     c_bands:  1 eigenvalues not converged
     c_bands:  1 eigenvalues not converged
     c_bands:  1 eigenvalues not converged
     ethr =  2.49E-06,  avg # of iterations =  3.1

     total cpu time spent up to now is      856.0 secs

     End of self-consistent calculation

     Number of k-points >= 100: set verbosity='high' to print the bands.

     the Fermi energy is    33.3782 ev

!    total energy              =   -1097.79048992 Ry
     Harris-Foulkes estimate   =   -1097.79055334 Ry
     estimated scf accuracy    <       0.00007174 Ry

     The total energy is the sum of the following terms:

     one-electron contribution =     -84.75918645 Ry
     hartree contribution      =     151.60027374 Ry
     xc contribution           =    -115.33743727 Ry
     ewald contribution        =   -1049.04651247 Ry
     smearing contrib. (-TS)   =      -0.24762747 Ry

     convergence has been achieved in  23 iterations

     Forces acting on atoms (Ry/au):

     atom    1 type  1   force =     0.00000000    0.00000000    0.00000000
     atom    2 type  2   force =     0.00000000    0.00000000    0.00000000
     atom    3 type  2   force =     0.00000000    0.00000000    0.00000000
     atom    4 type  2   force =     0.00000000    0.00000000    0.00000000
     atom    5 type  2   force =     0.00000000    0.00000000    0.00000000
     atom    6 type  2   force =     0.00000000    0.00000000    0.00000000

     Total force =     0.000000     Total SCF correction =     0.000000


     entering subroutine stress ...

          total   stress  (Ry/bohr**3)                   (kbar)     P= 1943.45
   0.01119926   0.00000000   0.00000000       1647.47      0.00      0.00
   0.00000000   0.01119926   0.00000000          0.00   1647.47      0.00
   0.00000000   0.00000000   0.01723542          0.00      0.00   2535.42


     BFGS Geometry Optimization

     number of scf cycles    =   1
     number of bfgs steps    =   0

     enthalpy new            =   -1097.7904899204 Ry

     new trust radius        =       0.5000000000 bohr
     new conv_thr            =       0.0001000000 Ry

     new unit-cell volume =    766.77485 a.u.^3 (   113.62431 Ang^3 )

CELL_PARAMETERS (alat=  9.64829493)
   1.065591418   0.000000000   0.000000000
  -0.532795709   0.922829238   0.000000000
   0.000000000   0.000000000   0.868168629

ATOMIC_POSITIONS (crystal)
Ca       0.000000000   0.000000000   0.000000000
Cu       0.333333000   0.666667000   0.000000000
Cu       0.666667000   0.333333000   0.000000000
Cu       0.500000000   0.000000000   0.500000000
Cu       0.500000000   0.500000000   0.500000000
Cu       0.000000000   0.500000000   0.500000000



     Writing output data file Prototype-La-hP6-CaCu5.save
     Check: negative starting charge=   -0.000147
     NEW-OLD atomic charge density approx. for the potential
     NEW k-points: (use verbosity='high' to print them)
     Check: negative starting charge=   -0.001097

     negative rho (up, down):  0.975E-03 0.000E+00
     extrapolated charge  105.59898, renormalised to  103.00000

     total cpu time spent up to now is      861.2 secs

     Self-consistent Calculation

     iteration #  1     ecut=    40.00 Ry     beta=0.70
     CG style diagonalization
     c_bands:  5 eigenvalues not converged
     c_bands:  5 eigenvalues not converged
     c_bands:  3 eigenvalues not converged
     c_bands:  2 eigenvalues not converged
     c_bands:  3 eigenvalues not converged
     c_bands:  3 eigenvalues not converged
     c_bands:  1 eigenvalues not converged
     c_bands:  3 eigenvalues not converged
     c_bands:  1 eigenvalues not converged
     c_bands:  1 eigenvalues not converged
     c_bands:  2 eigenvalues not converged
     c_bands:  1 eigenvalues not converged
     c_bands:  2 eigenvalues not converged
     c_bands:  3 eigenvalues not converged
     c_bands:  3 eigenvalues not converged
     c_bands:  1 eigenvalues not converged
     c_bands:  1 eigenvalues not converged
     c_bands:  3 eigenvalues not converged
     c_bands:  3 eigenvalues not converged
     c_bands:  1 eigenvalues not converged
     c_bands:  1 eigenvalues not converged
     c_bands:  1 eigenvalues not converged
     c_bands:  2 eigenvalues not converged
     c_bands:  2 eigenvalues not converged
     c_bands:  1 eigenvalues not converged
     c_bands:  1 eigenvalues not converged
     c_bands:  1 eigenvalues not converged
     c_bands:  2 eigenvalues not converged
     c_bands:  1 eigenvalues not converged
     c_bands:  1 eigenvalues not converged
     c_bands:  3 eigenvalues not converged
     c_bands:  3 eigenvalues not converged
     c_bands:  2 eigenvalues not converged
     c_bands:  4 eigenvalues not converged
     c_bands:  1 eigenvalues not converged
     c_bands:  2 eigenvalues not converged
     c_bands:  4 eigenvalues not converged
     c_bands:  4 eigenvalues not converged
     c_bands:  3 eigenvalues not converged
     c_bands:  4 eigenvalues not converged
     c_bands:  1 eigenvalues not converged
     c_bands:  2 eigenvalues not converged
     c_bands:  1 eigenvalues not converged
     c_bands:  1 eigenvalues not converged
     c_bands:  1 eigenvalues not converged
     c_bands:  1 eigenvalues not converged
     c_bands:  2 eigenvalues not converged
     c_bands:  2 eigenvalues not converged
     c_bands:  1 eigenvalues not converged
     c_bands:  1 eigenvalues not converged
     c_bands:  1 eigenvalues not converged
     c_bands:  1 eigenvalues not converged
     c_bands:  3 eigenvalues not converged
     c_bands:  2 eigenvalues not converged
     c_bands:  1 eigenvalues not converged
     c_bands:  3 eigenvalues not converged
     c_bands:  2 eigenvalues not converged
     c_bands:  1 eigenvalues not converged
     c_bands:  1 eigenvalues not converged
     c_bands:  1 eigenvalues not converged
     c_bands:  2 eigenvalues not converged
     c_bands:  1 eigenvalues not converged
     c_bands:  1 eigenvalues not converged
     c_bands:  1 eigenvalues not converged
     c_bands:  1 eigenvalues not converged
     c_bands:  1 eigenvalues not converged
     c_bands:  2 eigenvalues not converged
     c_bands:  1 eigenvalues not converged
     c_bands:  1 eigenvalues not converged
     ethr =  1.00E-06,  avg # of iterations = 23.0

     negative rho (up, down):  0.285E-03 0.000E+00

     total cpu time spent up to now is      973.9 secs

     total energy              =   -1083.63022114 Ry
     Harris-Foulkes estimate   =   -1108.81010988 Ry
     estimated scf accuracy    <      36.95046709 Ry

     iteration #  2     ecut=    40.00 Ry     beta=0.70
     CG style diagonalization
     ethr =  1.00E-02,  avg # of iterations =  7.2

     negative rho (up, down):  0.198E-03 0.000E+00

     total cpu time spent up to now is     1011.6 secs

     total energy              =   -1069.72587681 Ry
     Harris-Foulkes estimate   =   -1116.81606091 Ry
     estimated scf accuracy    <     115.33965528 Ry

     iteration #  3     ecut=    40.00 Ry     beta=0.70
     CG style diagonalization
     c_bands:  1 eigenvalues not converged
     c_bands:  1 eigenvalues not converged
     ethr =  1.00E-02,  avg # of iterations =  6.0

     negative rho (up, down):  0.739E-04 0.000E+00

     total cpu time spent up to now is     1043.6 secs

     total energy              =   -1098.97108713 Ry
     Harris-Foulkes estimate   =   -1101.62231955 Ry
     estimated scf accuracy    <       8.94859244 Ry

     iteration #  4     ecut=    40.00 Ry     beta=0.70
     CG style diagonalization
     ethr =  8.69E-03,  avg # of iterations =  3.0

     negative rho (up, down):  0.499E-04 0.000E+00

     total cpu time spent up to now is     1059.9 secs

     total energy              =   -1098.90752571 Ry
     Harris-Foulkes estimate   =   -1099.44077971 Ry
     estimated scf accuracy    <       3.88023024 Ry

     iteration #  5     ecut=    40.00 Ry     beta=0.70
     CG style diagonalization
     ethr =  3.77E-03,  avg # of iterations =  3.1

     negative rho (up, down):  0.426E-04 0.000E+00

     total cpu time spent up to now is     1075.9 secs

     total energy              =   -1098.77036449 Ry
     Harris-Foulkes estimate   =   -1099.02666849 Ry
     estimated scf accuracy    <       2.19921619 Ry

     iteration #  6     ecut=    40.00 Ry     beta=0.70
     CG style diagonalization
     ethr =  2.14E-03,  avg # of iterations =  3.1

     negative rho (up, down):  0.165E-04 0.000E+00

     total cpu time spent up to now is     1093.3 secs

     total energy              =   -1098.57846374 Ry
     Harris-Foulkes estimate   =   -1098.84732921 Ry
     estimated scf accuracy    <       1.04664455 Ry

     iteration #  7     ecut=    40.00 Ry     beta=0.70
     CG style diagonalization
     ethr =  1.02E-03,  avg # of iterations =  3.5

     total cpu time spent up to now is     1111.4 secs

     total energy              =   -1098.72453572 Ry
     Harris-Foulkes estimate   =   -1098.73361932 Ry
     estimated scf accuracy    <       0.01656742 Ry

     iteration #  8     ecut=    40.00 Ry     beta=0.70
     CG style diagonalization
     c_bands:  1 eigenvalues not converged
     c_bands:  2 eigenvalues not converged
     c_bands:  1 eigenvalues not converged
     c_bands:  1 eigenvalues not converged
     c_bands:  2 eigenvalues not converged
     c_bands:  1 eigenvalues not converged
     c_bands:  2 eigenvalues not converged
     c_bands:  3 eigenvalues not converged
     c_bands:  1 eigenvalues not converged
     c_bands:  1 eigenvalues not converged
     c_bands:  2 eigenvalues not converged
     c_bands:  2 eigenvalues not converged
     c_bands:  2 eigenvalues not converged
     c_bands:  1 eigenvalues not converged
     c_bands:  2 eigenvalues not converged
     c_bands:  1 eigenvalues not converged
     c_bands:  1 eigenvalues not converged
     c_bands:  1 eigenvalues not converged
     c_bands:  1 eigenvalues not converged
     c_bands:  1 eigenvalues not converged
     c_bands:  2 eigenvalues not converged
     c_bands:  1 eigenvalues not converged
     c_bands:  1 eigenvalues not converged
     c_bands:  1 eigenvalues not converged
     c_bands:  2 eigenvalues not converged
     c_bands:  2 eigenvalues not converged
     c_bands:  2 eigenvalues not converged
     c_bands:  1 eigenvalues not converged
     c_bands:  1 eigenvalues not converged
     c_bands:  1 eigenvalues not converged
     c_bands:  1 eigenvalues not converged
     c_bands:  2 eigenvalues not converged
     c_bands:  3 eigenvalues not converged
     c_bands:  1 eigenvalues not converged
     c_bands:  1 eigenvalues not converged
     c_bands:  2 eigenvalues not converged
     c_bands:  1 eigenvalues not converged
     c_bands:  1 eigenvalues not converged
     c_bands:  2 eigenvalues not converged
     c_bands:  1 eigenvalues not converged
     c_bands:  1 eigenvalues not converged
     c_bands:  1 eigenvalues not converged
     c_bands:  1 eigenvalues not converged
     c_bands:  1 eigenvalues not converged
     c_bands:  2 eigenvalues not converged
     c_bands:  1 eigenvalues not converged
     c_bands:  2 eigenvalues not converged
     c_bands:  1 eigenvalues not converged
     c_bands:  2 eigenvalues not converged
     c_bands:  2 eigenvalues not converged
     c_bands:  1 eigenvalues not converged
     c_bands:  2 eigenvalues not converged
     c_bands:  2 eigenvalues not converged
     c_bands:  1 eigenvalues not converged
     c_bands:  1 eigenvalues not converged
     c_bands:  1 eigenvalues not converged
     c_bands:  1 eigenvalues not converged
     c_bands:  1 eigenvalues not converged
     c_bands:  2 eigenvalues not converged
     c_bands:  1 eigenvalues not converged
     c_bands:  1 eigenvalues not converged
     c_bands:  1 eigenvalues not converged
     c_bands:  2 eigenvalues not converged
     c_bands:  2 eigenvalues not converged
     c_bands:  1 eigenvalues not converged
     c_bands:  2 eigenvalues not converged
     c_bands:  1 eigenvalues not converged
     c_bands:  1 eigenvalues not converged
     c_bands:  1 eigenvalues not converged
     c_bands:  1 eigenvalues not converged
     ethr =  1.61E-05,  avg # of iterations =  5.1

     total cpu time spent up to now is     1138.3 secs

     total energy              =   -1098.76585496 Ry
     Harris-Foulkes estimate   =   -1098.77248385 Ry
     estimated scf accuracy    <       0.19593983 Ry

     iteration #  9     ecut=    40.00 Ry     beta=0.70
     CG style diagonalization
     c_bands:  1 eigenvalues not converged
     c_bands:  1 eigenvalues not converged
     c_bands:  1 eigenvalues not converged
     ethr =  1.61E-05,  avg # of iterations =  3.1

     total cpu time spent up to now is     1154.5 secs

     total energy              =   -1098.70597458 Ry
     Harris-Foulkes estimate   =   -1098.76627756 Ry
     estimated scf accuracy    <       0.15292735 Ry

     iteration # 10     ecut=    40.00 Ry     beta=0.70
     CG style diagonalization
     ethr =  1.61E-05,  avg # of iterations =  3.9

     total cpu time spent up to now is     1176.1 secs

     total energy              =   -1098.74028192 Ry
     Harris-Foulkes estimate   =   -1098.75935715 Ry
     estimated scf accuracy    <       0.08105486 Ry

     iteration # 11     ecut=    40.00 Ry     beta=0.70
     CG style diagonalization
     ethr =  1.61E-05,  avg # of iterations =  3.3

     total cpu time spent up to now is     1192.9 secs

     total energy              =   -1098.74722279 Ry
     Harris-Foulkes estimate   =   -1098.74747392 Ry
     estimated scf accuracy    <       0.00179164 Ry

     iteration # 12     ecut=    40.00 Ry     beta=0.70
     CG style diagonalization
     c_bands:  1 eigenvalues not converged
     c_bands:  1 eigenvalues not converged
     c_bands:  1 eigenvalues not converged
     c_bands:  1 eigenvalues not converged
     c_bands:  1 eigenvalues not converged
     c_bands:  1 eigenvalues not converged
     c_bands:  1 eigenvalues not converged
     ethr =  1.74E-06,  avg # of iterations =  3.4

     total cpu time spent up to now is     1213.2 secs

     total energy              =   -1098.74735813 Ry
     Harris-Foulkes estimate   =   -1098.74741096 Ry
     estimated scf accuracy    <       0.00022971 Ry

     iteration # 13     ecut=    40.00 Ry     beta=0.70
     CG style diagonalization
     ethr =  2.23E-07,  avg # of iterations =  3.4

     total cpu time spent up to now is     1231.9 secs

     End of self-consistent calculation

     Number of k-points >= 100: set verbosity='high' to print the bands.

     the Fermi energy is    25.4147 ev

!    total energy              =   -1098.74740200 Ry
     Harris-Foulkes estimate   =   -1098.74740494 Ry
     estimated scf accuracy    <       0.00000324 Ry

     The total energy is the sum of the following terms:

     one-electron contribution =    -184.88263131 Ry
     hartree contribution      =     175.40067053 Ry
     xc contribution           =    -112.78089159 Ry
     ewald contribution        =    -976.17917150 Ry
     smearing contrib. (-TS)   =      -0.30537813 Ry

     convergence has been achieved in  13 iterations

     Forces acting on atoms (Ry/au):

     atom    1 type  1   force =     0.00000000    0.00000000    0.00000000
     atom    2 type  2   force =     0.00000000    0.00000000    0.00000000
     atom    3 type  2   force =     0.00000000    0.00000000    0.00000000
     atom    4 type  2   force =     0.00000000    0.00000000    0.00000000
     atom    5 type  2   force =     0.00000000    0.00000000    0.00000000
     atom    6 type  2   force =     0.00000000    0.00000000    0.00000000

     Total force =     0.000000     Total SCF correction =     0.000000


     entering subroutine stress ...

          total   stress  (Ry/bohr**3)                   (kbar)     P=   85.18
   0.00005295   0.00000000   0.00000000          7.79      0.00      0.00
   0.00000000   0.00005295   0.00000000          0.00      7.79      0.00
   0.00000000   0.00000000   0.00163119          0.00      0.00    239.96


     number of scf cycles    =   2
     number of bfgs steps    =   1

     enthalpy old            =   -1097.7904899204 Ry
     enthalpy new            =   -1098.7474020009 Ry

     CASE: enthalpy_new < enthalpy_old

     small trust_radius: resetting bfgs history

     new trust radius        =       0.2258440735 bohr
     new conv_thr            =       0.0000010000 Ry

     new unit-cell volume =    800.15816 a.u.^3 (   118.57120 Ang^3 )

CELL_PARAMETERS (alat=  9.64829493)
   1.067002121   0.000000000   0.000000000
  -0.533501060   0.924050943   0.000000000
   0.000000000   0.000000000   0.903572346

ATOMIC_POSITIONS (crystal)
Ca       0.000000000   0.000000000   0.000000000
Cu       0.333333000   0.666667000   0.000000000
Cu       0.666667000   0.333333000   0.000000000
Cu       0.500000000   0.000000000   0.500000000
Cu       0.500000000   0.500000000   0.500000000
Cu       0.000000000   0.500000000   0.500000000



     Writing output data file Prototype-La-hP6-CaCu5.save
     Check: negative starting charge=   -0.001097
     NEW-OLD atomic charge density approx. for the potential
     NEW k-points: (use verbosity='high' to print them)
     Check: negative starting charge=   -0.001363

     negative rho (up, down):  0.310E-03 0.000E+00
     extrapolated charge  103.54198, renormalised to  103.00000

     total cpu time spent up to now is     1237.0 secs

     Self-consistent Calculation

     iteration #  1     ecut=    40.00 Ry     beta=0.70
     CG style diagonalization
     c_bands:  1 eigenvalues not converged
     c_bands:  2 eigenvalues not converged
     c_bands:  1 eigenvalues not converged
     c_bands:  2 eigenvalues not converged
     c_bands:  3 eigenvalues not converged
     c_bands:  1 eigenvalues not converged
     c_bands:  1 eigenvalues not converged
     c_bands:  5 eigenvalues not converged
     c_bands:  3 eigenvalues not converged
     c_bands:  2 eigenvalues not converged
     c_bands:  4 eigenvalues not converged
     c_bands:  4 eigenvalues not converged
     c_bands:  3 eigenvalues not converged
     c_bands:  1 eigenvalues not converged
     c_bands:  2 eigenvalues not converged
     c_bands:  3 eigenvalues not converged
     c_bands:  2 eigenvalues not converged
     c_bands:  3 eigenvalues not converged
     c_bands:  2 eigenvalues not converged
     c_bands:  1 eigenvalues not converged
     c_bands:  2 eigenvalues not converged
     c_bands:  5 eigenvalues not converged
     c_bands:  2 eigenvalues not converged
     c_bands:  2 eigenvalues not converged
     c_bands:  5 eigenvalues not converged
     c_bands:  1 eigenvalues not converged
     c_bands:  1 eigenvalues not converged
     c_bands:  5 eigenvalues not converged
     c_bands:  2 eigenvalues not converged
     c_bands:  2 eigenvalues not converged
     c_bands:  4 eigenvalues not converged
     c_bands:  4 eigenvalues not converged
     c_bands:  2 eigenvalues not converged
     c_bands:  4 eigenvalues not converged
     c_bands:  2 eigenvalues not converged
     c_bands:  1 eigenvalues not converged
     c_bands:  2 eigenvalues not converged
     c_bands:  2 eigenvalues not converged
     c_bands:  4 eigenvalues not converged
     c_bands:  1 eigenvalues not converged
     c_bands:  4 eigenvalues not converged
     c_bands:  4 eigenvalues not converged
     c_bands:  3 eigenvalues not converged
     c_bands:  2 eigenvalues not converged
     c_bands:  1 eigenvalues not converged
     c_bands:  3 eigenvalues not converged
     c_bands:  5 eigenvalues not converged
     c_bands:  2 eigenvalues not converged
     c_bands:  1 eigenvalues not converged
     c_bands:  2 eigenvalues not converged
     c_bands:  5 eigenvalues not converged
     c_bands:  3 eigenvalues not converged
     c_bands:  5 eigenvalues not converged
     c_bands:  2 eigenvalues not converged
     c_bands:  4 eigenvalues not converged
     c_bands:  4 eigenvalues not converged
     ethr =  1.00E-06,  avg # of iterations = 13.6

     negative rho (up, down):  0.908E-04 0.000E+00

     total cpu time spent up to now is     1304.5 secs

     total energy              =   -1096.65506810 Ry
     Harris-Foulkes estimate   =   -1098.54375738 Ry
     estimated scf accuracy    <       3.67330299 Ry

     iteration #  2     ecut=    40.00 Ry     beta=0.70
     CG style diagonalization
     ethr =  3.57E-03,  avg # of iterations =  4.1

     negative rho (up, down):  0.714E-04 0.000E+00

     total cpu time spent up to now is     1328.2 secs

     total energy              =   -1095.17266351 Ry
     Harris-Foulkes estimate   =   -1103.87197394 Ry
     estimated scf accuracy    <      28.16993774 Ry

     iteration #  3     ecut=    40.00 Ry     beta=0.70
     CG style diagonalization
     ethr =  3.57E-03,  avg # of iterations =  3.7

     negative rho (up, down):  0.366E-04 0.000E+00

     total cpu time spent up to now is     1347.3 secs

     total energy              =   -1098.66197906 Ry
     Harris-Foulkes estimate   =   -1098.81781462 Ry
     estimated scf accuracy    <       0.40334168 Ry

     iteration #  4     ecut=    40.00 Ry     beta=0.70
     CG style diagonalization
     ethr =  3.92E-04,  avg # of iterations =  3.7

     negative rho (up, down):  0.201E-04 0.000E+00

     total cpu time spent up to now is     1366.8 secs

     total energy              =   -1098.73689210 Ry
     Harris-Foulkes estimate   =   -1098.76563404 Ry
     estimated scf accuracy    <       0.08009143 Ry

     iteration #  5     ecut=    40.00 Ry     beta=0.70
     CG style diagonalization
     ethr =  7.78E-05,  avg # of iterations =  3.5

     negative rho (up, down):  0.223E-05 0.000E+00

     total cpu time spent up to now is     1387.8 secs

     total energy              =   -1098.75065005 Ry
     Harris-Foulkes estimate   =   -1098.75508633 Ry
     estimated scf accuracy    <       0.01089134 Ry

     iteration #  6     ecut=    40.00 Ry     beta=0.70
     CG style diagonalization
     c_bands:  1 eigenvalues not converged
     ethr =  1.06E-05,  avg # of iterations =  3.6

     total cpu time spent up to now is     1406.1 secs

     total energy              =   -1098.75291712 Ry
     Harris-Foulkes estimate   =   -1098.75312704 Ry
     estimated scf accuracy    <       0.00050967 Ry

     iteration #  7     ecut=    40.00 Ry     beta=0.70
     CG style diagonalization
     c_bands:  1 eigenvalues not converged
     ethr =  4.95E-07,  avg # of iterations =  4.0

     total cpu time spent up to now is     1426.5 secs

     total energy              =   -1098.75311155 Ry
     Harris-Foulkes estimate   =   -1098.75313115 Ry
     estimated scf accuracy    <       0.00006659 Ry

     iteration #  8     ecut=    40.00 Ry     beta=0.70
     CG style diagonalization
     ethr =  6.47E-08,  avg # of iterations =  3.5

     total cpu time spent up to now is     1444.2 secs

     total energy              =   -1098.75312518 Ry
     Harris-Foulkes estimate   =   -1098.75312566 Ry
     estimated scf accuracy    <       0.00000154 Ry

     iteration #  9     ecut=    40.00 Ry     beta=0.70
     CG style diagonalization
     ethr =  1.50E-09,  avg # of iterations =  4.6

     total cpu time spent up to now is     1467.2 secs

     End of self-consistent calculation

     Number of k-points >= 100: set verbosity='high' to print the bands.

     the Fermi energy is    24.0617 ev

!    total energy              =   -1098.75312630 Ry
     Harris-Foulkes estimate   =   -1098.75312653 Ry
     estimated scf accuracy    <       0.00000027 Ry

     The total energy is the sum of the following terms:

     one-electron contribution =    -199.64664058 Ry
     hartree contribution      =     178.38890989 Ry
     xc contribution           =    -112.36096563 Ry
     ewald contribution        =    -964.81799455 Ry
     smearing contrib. (-TS)   =      -0.31643542 Ry

     convergence has been achieved in   9 iterations

     Forces acting on atoms (Ry/au):

     atom    1 type  1   force =     0.00000000    0.00000000    0.00000000
     atom    2 type  2   force =     0.00000000    0.00000000    0.00000000
     atom    3 type  2   force =     0.00000000    0.00000000    0.00000000
     atom    4 type  2   force =     0.00000000    0.00000000    0.00000000
     atom    5 type  2   force =     0.00000000    0.00000000    0.00000000
     atom    6 type  2   force =     0.00000000    0.00000000    0.00000000

     Total force =     0.000000     Total SCF correction =     0.000000


     entering subroutine stress ...

          total   stress  (Ry/bohr**3)                   (kbar)     P= -148.57
  -0.00094779   0.00000000   0.00000000       -139.42      0.00      0.00
   0.00000000  -0.00094779   0.00000000          0.00   -139.42      0.00
   0.00000000   0.00000000  -0.00113425          0.00      0.00   -166.85


     number of scf cycles    =   3
     number of bfgs steps    =   2

     enthalpy old            =   -1098.7474020009 Ry
     enthalpy new            =   -1098.7531262993 Ry

     CASE: enthalpy_new < enthalpy_old

     Message from routine bfgs:
     history already reset at previous step: stopping
     small trust_radius: resetting bfgs history

     new trust radius        =       0.1604223345 bohr
     new conv_thr            =       0.0000010000 Ry

     new unit-cell volume =    741.06145 a.u.^3 (   109.81398 Ang^3 )

CELL_PARAMETERS (alat=  9.64829493)
   1.041719795   0.000000000   0.000000000
  -0.520859897   0.902155806   0.000000000
   0.000000000   0.000000000   0.877950533

ATOMIC_POSITIONS (crystal)
Ca       0.000000000   0.000000000   0.000000000
Cu       0.333333000   0.666667000   0.000000000
Cu       0.666667000   0.333333000   0.000000000
Cu       0.500000000   0.000000000   0.500000000
Cu       0.500000000   0.500000000   0.500000000
Cu       0.000000000   0.500000000   0.500000000



     Writing output data file Prototype-La-hP6-CaCu5.save
     Check: negative starting charge=   -0.001363
     NEW-OLD atomic charge density approx. for the potential
     NEW k-points: (use verbosity='high' to print them)
     Check: negative starting charge=   -0.000922

     negative rho (up, down):  0.131E-01 0.000E+00
     extrapolated charge  101.96406, renormalised to  103.00000

     total cpu time spent up to now is     1472.3 secs

     Self-consistent Calculation

     iteration #  1     ecut=    40.00 Ry     beta=0.70
     CG style diagonalization
     c_bands:  1 eigenvalues not converged
     c_bands:  1 eigenvalues not converged
     c_bands:  3 eigenvalues not converged
     c_bands:  2 eigenvalues not converged
     c_bands:  4 eigenvalues not converged
     c_bands:  1 eigenvalues not converged
     c_bands:  4 eigenvalues not converged
     c_bands:  1 eigenvalues not converged
     c_bands:  4 eigenvalues not converged
     c_bands:  1 eigenvalues not converged
     c_bands:  2 eigenvalues not converged
     c_bands:  2 eigenvalues not converged
     c_bands:  4 eigenvalues not converged
     c_bands:  1 eigenvalues not converged
     c_bands:  1 eigenvalues not converged
     c_bands:  4 eigenvalues not converged
     c_bands:  3 eigenvalues not converged
     c_bands:  1 eigenvalues not converged
     c_bands:  1 eigenvalues not converged
     c_bands:  1 eigenvalues not converged
     c_bands:  1 eigenvalues not converged
     c_bands:  1 eigenvalues not converged
     c_bands:  1 eigenvalues not converged
     c_bands:  4 eigenvalues not converged
     c_bands:  1 eigenvalues not converged
     c_bands:  1 eigenvalues not converged
     c_bands:  1 eigenvalues not converged
     c_bands:  1 eigenvalues not converged
     c_bands:  1 eigenvalues not converged
     c_bands:  1 eigenvalues not converged
     ethr =  1.00E-06,  avg # of iterations = 17.0

     total cpu time spent up to now is     1556.2 secs

     total energy              =   -1085.63805926 Ry
     Harris-Foulkes estimate   =   -1104.26725684 Ry
     estimated scf accuracy    <      20.01799443 Ry

     iteration #  2     ecut=    40.00 Ry     beta=0.70
     CG style diagonalization
     c_bands:  1 eigenvalues not converged
     ethr =  1.00E-02,  avg # of iterations =  4.9

     total cpu time spent up to now is     1582.7 secs

     total energy              =   -1089.47371166 Ry
     Harris-Foulkes estimate   =   -1115.40789603 Ry
     estimated scf accuracy    <      61.66345403 Ry

     iteration #  3     ecut=    40.00 Ry     beta=0.70
     CG style diagonalization
     ethr =  1.00E-02,  avg # of iterations =  4.0

     total cpu time spent up to now is     1606.0 secs

     total energy              =   -1098.29584083 Ry
     Harris-Foulkes estimate   =   -1099.25820972 Ry
     estimated scf accuracy    <       3.62212440 Ry

     iteration #  4     ecut=    40.00 Ry     beta=0.70
     CG style diagonalization
     ethr =  3.52E-03,  avg # of iterations =  3.2

     total cpu time spent up to now is     1623.3 secs

     total energy              =   -1098.58542357 Ry
     Harris-Foulkes estimate   =   -1098.72439263 Ry
     estimated scf accuracy    <       0.36849950 Ry

     iteration #  5     ecut=    40.00 Ry     beta=0.70
     CG style diagonalization
     c_bands:  1 eigenvalues not converged
     ethr =  3.58E-04,  avg # of iterations =  4.1

     total cpu time spent up to now is     1644.7 secs

     total energy              =   -1098.70308444 Ry
     Harris-Foulkes estimate   =   -1098.75358185 Ry
     estimated scf accuracy    <       0.13666806 Ry

     iteration #  6     ecut=    40.00 Ry     beta=0.70
     CG style diagonalization
     c_bands:  1 eigenvalues not converged
     c_bands:  1 eigenvalues not converged
     c_bands:  1 eigenvalues not converged
     c_bands:  1 eigenvalues not converged
     ethr =  1.33E-04,  avg # of iterations =  3.3

     total cpu time spent up to now is     1664.7 secs

     total energy              =   -1098.73088998 Ry
     Harris-Foulkes estimate   =   -1098.73726372 Ry
     estimated scf accuracy    <       0.02502113 Ry

     iteration #  7     ecut=    40.00 Ry     beta=0.70
     CG style diagonalization
     c_bands:  1 eigenvalues not converged
     c_bands:  1 eigenvalues not converged
     c_bands:  1 eigenvalues not converged
     c_bands:  1 eigenvalues not converged
     c_bands:  1 eigenvalues not converged
     c_bands:  1 eigenvalues not converged
     ethr =  2.43E-05,  avg # of iterations =  3.3

     total cpu time spent up to now is     1681.8 secs

     total energy              =   -1098.73275279 Ry
     Harris-Foulkes estimate   =   -1098.73389440 Ry
     estimated scf accuracy    <       0.00342750 Ry

     iteration #  8     ecut=    40.00 Ry     beta=0.70
     CG style diagonalization
     c_bands:  1 eigenvalues not converged
     c_bands:  1 eigenvalues not converged
     c_bands:  1 eigenvalues not converged
     c_bands:  1 eigenvalues not converged
     c_bands:  1 eigenvalues not converged
     ethr =  3.33E-06,  avg # of iterations =  3.9

     total cpu time spent up to now is     1701.6 secs

     total energy              =   -1098.73366385 Ry
     Harris-Foulkes estimate   =   -1098.73379876 Ry
     estimated scf accuracy    <       0.00033663 Ry

     iteration #  9     ecut=    40.00 Ry     beta=0.70
     CG style diagonalization
     ethr =  3.27E-07,  avg # of iterations =  3.5

     total cpu time spent up to now is     1721.4 secs

     total energy              =   -1098.73371878 Ry
     Harris-Foulkes estimate   =   -1098.73375014 Ry
     estimated scf accuracy    <       0.00005826 Ry

     iteration # 10     ecut=    40.00 Ry     beta=0.70
     CG style diagonalization
     ethr =  5.66E-08,  avg # of iterations =  3.9

     total cpu time spent up to now is     1741.2 secs

     total energy              =   -1098.73374087 Ry
     Harris-Foulkes estimate   =   -1098.73374679 Ry
     estimated scf accuracy    <       0.00001962 Ry

     iteration # 11     ecut=    40.00 Ry     beta=0.70
     CG style diagonalization
     ethr =  1.90E-08,  avg # of iterations =  3.1

     total cpu time spent up to now is     1756.8 secs

     total energy              =   -1098.73374283 Ry
     Harris-Foulkes estimate   =   -1098.73374327 Ry
     estimated scf accuracy    <       0.00000121 Ry

     iteration # 12     ecut=    40.00 Ry     beta=0.70
     CG style diagonalization
     ethr =  1.18E-09,  avg # of iterations =  4.2

     total cpu time spent up to now is     1780.5 secs

     End of self-consistent calculation

     Number of k-points >= 100: set verbosity='high' to print the bands.

     the Fermi energy is    26.5063 ev

!    total energy              =   -1098.73374328 Ry
     Harris-Foulkes estimate   =   -1098.73374343 Ry
     estimated scf accuracy    <       0.00000016 Ry

     The total energy is the sum of the following terms:

     one-electron contribution =    -164.95522829 Ry
     hartree contribution      =     169.14065643 Ry
     xc contribution           =    -113.09900964 Ry
     ewald contribution        =    -989.52806663 Ry
     smearing contrib. (-TS)   =      -0.29209515 Ry

     convergence has been achieved in  12 iterations

     Forces acting on atoms (Ry/au):

     atom    1 type  1   force =     0.00000000    0.00000000    0.00000000
     atom    2 type  2   force =     0.00000000    0.00000000    0.00000000
     atom    3 type  2   force =     0.00000000    0.00000000    0.00000000
     atom    4 type  2   force =     0.00000000    0.00000000    0.00000000
     atom    5 type  2   force =     0.00000000    0.00000000    0.00000000
     atom    6 type  2   force =     0.00000000    0.00000000    0.00000000

     Total force =     0.000000     Total SCF correction =     0.000000


     entering subroutine stress ...

          total   stress  (Ry/bohr**3)                   (kbar)     P=  266.76
   0.00169231   0.00000000   0.00000000        248.95      0.00      0.00
   0.00000000   0.00169231   0.00000000          0.00    248.95      0.00
   0.00000000   0.00000000   0.00205549          0.00      0.00    302.37


     The maximum number of steps has been reached.

     End of BFGS Geometry Optimization
Begin final coordinates
     new unit-cell volume =    741.06145 a.u.^3 (   109.81398 Ang^3 )

CELL_PARAMETERS (alat=  9.64829493)
   1.041719795   0.000000000   0.000000000
  -0.520859897   0.902155806   0.000000000
   0.000000000   0.000000000   0.877950533

ATOMIC_POSITIONS (crystal)
Ca       0.000000000   0.000000000   0.000000000
Cu       0.333333000   0.666667000   0.000000000
Cu       0.666667000   0.333333000   0.000000000
Cu       0.500000000   0.000000000   0.500000000
Cu       0.500000000   0.500000000   0.500000000
Cu       0.000000000   0.500000000   0.500000000
End final coordinates



     A final scf calculation at the relaxed structure.
     The G-vectors are recalculated for the final unit cell
     Results may differ from those at the preceding step.
 
     Parallelization info
     --------------------
     sticks:   dense  smooth     PW     G-vecs:    dense   smooth      PW
     Min         280     280     84                 6319     6319    1042
     Max         281     281     85                 6320     6320    1045
     Sum        1123    1123    337                25277    25277    4171
 


     bravais-lattice index     =            0
     lattice parameter (alat)  =       9.6483  a.u.
     unit-cell volume          =     741.0615 (a.u.)^3
     number of atoms/cell      =            6
     number of atomic types    =            2
     number of electrons       =       103.00
     number of Kohn-Sham states=           62
     kinetic-energy cutoff     =      40.0000  Ry
     charge density cutoff     =     160.0000  Ry
     convergence threshold     =      1.0E-06
     mixing beta               =       0.7000
     number of iterations used =            8  plain     mixing
     Exchange-correlation      = SLA-PZ-NOGX-NOGC ( 1 1 0 0 0)
     EXX-fraction              =        0.00

     celldm(1)=   9.648295  celldm(2)=   0.000000  celldm(3)=   0.000000
     celldm(4)=   0.000000  celldm(5)=   0.000000  celldm(6)=   0.000000

     crystal axes: (cart. coord. in units of alat)
               a(1) = (   1.041720   0.000000   0.000000 )  
               a(2) = (  -0.520860   0.902156   0.000000 )  
               a(3) = (   0.000000   0.000000   0.877951 )  

     reciprocal axes: (cart. coord. in units 2 pi/alat)
               b(1) = (  0.959951  0.554228  0.000000 )  
               b(2) = (  0.000000  1.108456  0.000000 )  
               b(3) = (  0.000000  0.000000  1.139016 )  


     PseudoPot. # 1 for Pr read from file:
     /home/cwx6513/pp.La/Pr.UPF
     MD5 check sum: 70e2b4b153859e92c8c91247dfc63203
     Pseudo is Norm-conserving, Zval = 13.0
     Generated in analytical, separable form
     Using radial grid of 1255 points,  6 beta functions with: 
                l(1) =   0
                l(2) =   0
                l(3) =   1
                l(4) =   1
                l(5) =   2
                l(6) =   3

     PseudoPot. # 2 for Gd read from file:
     /home/cwx6513/pp.La/Gd.UPF
     MD5 check sum: 09a8be538722f05520810cb6aac0efd2
     Pseudo is Norm-conserving, Zval = 18.0
     Generated in analytical, separable form
     Using radial grid of 1263 points,  6 beta functions with: 
                l(1) =   0
                l(2) =   0
                l(3) =   1
                l(4) =   1
                l(5) =   2
                l(6) =   3

     atomic species   valence    mass     pseudopotential
        Ca            13.00    40.07800     Pr( 1.00)
        Cu            18.00    63.54600     Gd( 1.00)

     24 Sym. Ops., with inversion, found



   Cartesian axes

     site n.     atom                  positions (alat units)
         1           Ca  tau(   1) = (   0.0000000   0.0000000   0.0000000  )
         2           Cu  tau(   2) = (  -0.0000005   0.6014375   0.0000000  )
         3           Cu  tau(   3) = (   0.5208604   0.3007183   0.0000000  )
         4           Cu  tau(   4) = (   0.5208599   0.0000000   0.4389753  )
         5           Cu  tau(   5) = (   0.2604299   0.4510779   0.4389753  )
         6           Cu  tau(   6) = (  -0.2604299   0.4510779   0.4389753  )

     number of k points=   110  gaussian smearing, width (Ry)=  0.1000

     Number of k-points >= 100: set verbosity='high' to print them.

     Dense  grid:    25277 G-vectors     FFT dimensions: (  45,  45,  36)

     Largest allocated arrays     est. size (Mb)     dimensions
        Kohn-Sham Wavefunctions         0.77 Mb     (    813,   62)
        NL pseudopotentials             1.49 Mb     (    813,  120)
        Each V/rho on FFT grid          0.28 Mb     (  18225)
        Each G-vector array             0.05 Mb     (   6320)
        G-vector shells                 0.01 Mb     (   1110)
     Largest temporary arrays     est. size (Mb)     dimensions
        Each subspace H/S matrix        0.06 Mb     (  62,  62)
        Each <psi_i|beta_j> matrix      0.11 Mb     (    120,   62)
        Arrays for rho mixing           2.22 Mb     (  18225,   8)

     Initial potential from superposition of free atoms
     Check: negative starting charge=   -0.000132

     starting charge   12.99054, renormalised to  103.00000

     negative rho (up, down):  0.105E-02 0.000E+00
     Starting wfc are   20 randomized atomic wfcs

     Writing output data file Prototype-La-hP6-CaCu5.save

     total cpu time spent up to now is     1791.2 secs

     Self-consistent Calculation

     iteration #  1     ecut=    40.00 Ry     beta=0.70
     CG style diagonalization

 %%%%%%%%%%%%%%%%%%%%%%%%%%%%%%%%%%%%%%%%%%%%%%%%%%%%%%%%%%%%%%%%%%%%%%%%%%%%%%
     Error in routine c_bands (1):
     too many bands are not converged
 %%%%%%%%%%%%%%%%%%%%%%%%%%%%%%%%%%%%%%%%%%%%%%%%%%%%%%%%%%%%%%%%%%%%%%%%%%%%%%

     stopping ...

 %%%%%%%%%%%%%%%%%%%%%%%%%%%%%%%%%%%%%%%%%%%%%%%%%%%%%%%%%%%%%%%%%%%%%%%%%%%%%%
     Error in routine c_bands (1):
     too many bands are not converged
 %%%%%%%%%%%%%%%%%%%%%%%%%%%%%%%%%%%%%%%%%%%%%%%%%%%%%%%%%%%%%%%%%%%%%%%%%%%%%%

     stopping ...

 %%%%%%%%%%%%%%%%%%%%%%%%%%%%%%%%%%%%%%%%%%%%%%%%%%%%%%%%%%%%%%%%%%%%%%%%%%%%%%
     Error in routine c_bands (1):
     too many bands are not converged
 %%%%%%%%%%%%%%%%%%%%%%%%%%%%%%%%%%%%%%%%%%%%%%%%%%%%%%%%%%%%%%%%%%%%%%%%%%%%%%

     stopping ...

 %%%%%%%%%%%%%%%%%%%%%%%%%%%%%%%%%%%%%%%%%%%%%%%%%%%%%%%%%%%%%%%%%%%%%%%%%%%%%%
     Error in routine c_bands (1):
     too many bands are not converged
 %%%%%%%%%%%%%%%%%%%%%%%%%%%%%%%%%%%%%%%%%%%%%%%%%%%%%%%%%%%%%%%%%%%%%%%%%%%%%%

     stopping ...
