
     Program PWSCF v.5.0.2 starts on 22Mar2018 at 16:18:53 

     This program is part of the open-source Quantum ESPRESSO suite
     for quantum simulation of materials; please cite
         "P. Giannozzi et al., J. Phys.:Condens. Matter 21 395502 (2009);
          URL http://www.quantum-espresso.org", 
     in publications or presentations arising from this work. More details at
     http://www.quantum-espresso.org/quote.php

     Parallel version (MPI), running on     4 processors
     R & G space division:  proc/nbgrp/npool/nimage =       4

     Current dimensions of program PWSCF are:
     Max number of different atomic species (ntypx) = 10
     Max number of k-points (npk) =  40000
     Max angular momentum in pseudopotentials (lmaxx) =  3
     Waiting for input...
     Reading input from standard input

     Subspace diagonalization in iterative solution of the eigenvalue problem:
     a serial algorithm will be used

 
     Parallelization info
     --------------------
     sticks:   dense  smooth     PW     G-vecs:    dense   smooth      PW
     Min          93      93     30                 1717     1717     310
     Max          94      94     31                 1720     1720     313
     Sum         373     373    121                 6871     6871    1247
 


     bravais-lattice index     =            0
     lattice parameter (alat)  =       5.4125  a.u.
     unit-cell volume          =     202.7222 (a.u.)^3
     number of atoms/cell      =            2
     number of atomic types    =            2
     number of electrons       =        31.00
     number of Kohn-Sham states=           20
     kinetic-energy cutoff     =      40.0000  Ry
     charge density cutoff     =     160.0000  Ry
     convergence threshold     =      1.0E-04
     mixing beta               =       0.7000
     number of iterations used =            8  plain     mixing
     Exchange-correlation      = SLA-PZ-NOGX-NOGC ( 1 1 0 0 0)
     EXX-fraction              =        0.00
     nstep                     =           50


     celldm(1)=   5.412493  celldm(2)=   0.000000  celldm(3)=   0.000000
     celldm(4)=   0.000000  celldm(5)=   0.000000  celldm(6)=   0.000000

     crystal axes: (cart. coord. in units of alat)
               a(1) = (   1.000000   0.000000   0.000000 )  
               a(2) = (   0.000000   1.000000   0.000000 )  
               a(3) = (   0.000000   0.000000   1.278525 )  

     reciprocal axes: (cart. coord. in units 2 pi/alat)
               b(1) = (  1.000000  0.000000  0.000000 )  
               b(2) = (  0.000000  1.000000  0.000000 )  
               b(3) = (  0.000000  0.000000  0.782151 )  


     PseudoPot. # 1 for Pr read from file:
     /home/cwx6513/pp.La/Pr.UPF
     MD5 check sum: 70e2b4b153859e92c8c91247dfc63203
     Pseudo is Norm-conserving, Zval = 13.0
     Generated in analytical, separable form
     Using radial grid of 1255 points,  6 beta functions with: 
                l(1) =   0
                l(2) =   0
                l(3) =   1
                l(4) =   1
                l(5) =   2
                l(6) =   3

     PseudoPot. # 2 for Gd read from file:
     /home/cwx6513/pp.La/Gd.UPF
     MD5 check sum: 09a8be538722f05520810cb6aac0efd2
     Pseudo is Norm-conserving, Zval = 18.0
     Generated in analytical, separable form
     Using radial grid of 1263 points,  6 beta functions with: 
                l(1) =   0
                l(2) =   0
                l(3) =   1
                l(4) =   1
                l(5) =   2
                l(6) =   3

     atomic species   valence    mass     pseudopotential
        Cu            13.00    63.54600     Pr( 1.00)
        Au            18.00   196.96600     Gd( 1.00)

     16 Sym. Ops., with inversion, found



   Cartesian axes

     site n.     atom                  positions (alat units)
         1           Cu  tau(   1) = (   0.5000000   0.5000000   0.6392626  )
         2           Au  tau(   2) = (   0.0000000   0.0000000   0.0000000  )

     number of k points=   100  gaussian smearing, width (Ry)=  0.1000

     Number of k-points >= 100: set verbosity='high' to print them.

     Dense  grid:     6871 G-vectors     FFT dimensions: (  24,  24,  27)

     Largest allocated arrays     est. size (Mb)     dimensions
        Kohn-Sham Wavefunctions         0.07 Mb     (    228,   20)
        NL pseudopotentials             0.14 Mb     (    228,   40)
        Each V/rho on FFT grid          0.06 Mb     (   4032)
        Each G-vector array             0.01 Mb     (   1720)
        G-vector shells                 0.01 Mb     (   1720)
     Largest temporary arrays     est. size (Mb)     dimensions
        Each subspace H/S matrix        0.01 Mb     (  20,  20)
        Each <psi_i|beta_j> matrix      0.01 Mb     (     40,   20)
        Arrays for rho mixing           0.49 Mb     (   4032,   8)

     Initial potential from superposition of free atoms
     Check: negative starting charge=   -0.000305

     starting charge   12.99054, renormalised to   31.00000

     negative rho (up, down):  0.728E-03 0.000E+00
     Starting wfc are   20 randomized atomic wfcs

     total cpu time spent up to now is        1.5 secs

     Self-consistent Calculation

     iteration #  1     ecut=    40.00 Ry     beta=0.70
     CG style diagonalization
     c_bands:  4 eigenvalues not converged
     c_bands:  5 eigenvalues not converged
     c_bands:  2 eigenvalues not converged
     c_bands:  1 eigenvalues not converged
     c_bands:  3 eigenvalues not converged
     c_bands:  5 eigenvalues not converged
     c_bands:  4 eigenvalues not converged
     c_bands:  5 eigenvalues not converged
     c_bands:  4 eigenvalues not converged
     c_bands:  3 eigenvalues not converged
     c_bands:  5 eigenvalues not converged
     c_bands:  5 eigenvalues not converged
     c_bands:  3 eigenvalues not converged
     c_bands:  4 eigenvalues not converged
     c_bands:  5 eigenvalues not converged
     c_bands:  4 eigenvalues not converged
     c_bands:  5 eigenvalues not converged
     ethr =  1.00E-02,  avg # of iterations = 20.3

     negative rho (up, down):  0.213E-03 0.000E+00

     total cpu time spent up to now is       10.5 secs

     total energy              =    -117.35683162 Ry
     Harris-Foulkes estimate   =    -586.05797158 Ry
     estimated scf accuracy    <     563.02470716 Ry

     iteration #  2     ecut=    40.00 Ry     beta=0.70
     CG style diagonalization
     c_bands:  1 eigenvalues not converged
     c_bands:  1 eigenvalues not converged
     c_bands:  1 eigenvalues not converged
     c_bands:  1 eigenvalues not converged
     c_bands:  1 eigenvalues not converged
     c_bands:  1 eigenvalues not converged
     c_bands:  1 eigenvalues not converged
     c_bands:  1 eigenvalues not converged
     c_bands:  1 eigenvalues not converged
     c_bands:  1 eigenvalues not converged
     c_bands:  1 eigenvalues not converged
     c_bands:  1 eigenvalues not converged
     c_bands:  1 eigenvalues not converged
     c_bands:  1 eigenvalues not converged
     c_bands:  1 eigenvalues not converged
     c_bands:  1 eigenvalues not converged
     c_bands:  1 eigenvalues not converged
     c_bands:  1 eigenvalues not converged
     ethr =  1.00E-02,  avg # of iterations = 12.9

     negative rho (up, down):  0.923E-04 0.000E+00

     total cpu time spent up to now is       16.2 secs

     total energy              =    -229.81845712 Ry
     Harris-Foulkes estimate   =    -386.33947689 Ry
     estimated scf accuracy    <     250.70622125 Ry

     iteration #  3     ecut=    40.00 Ry     beta=0.70
     CG style diagonalization
     c_bands:  1 eigenvalues not converged
     c_bands:  1 eigenvalues not converged
     c_bands:  1 eigenvalues not converged
     ethr =  1.00E-02,  avg # of iterations = 11.0

     negative rho (up, down):  0.806E-04 0.000E+00

     total cpu time spent up to now is       21.1 secs

     total energy              =    -301.51690119 Ry
     Harris-Foulkes estimate   =    -304.33576293 Ry
     estimated scf accuracy    <      26.81579623 Ry

     iteration #  4     ecut=    40.00 Ry     beta=0.70
     CG style diagonalization
     ethr =  1.00E-02,  avg # of iterations =  3.0

     total cpu time spent up to now is       22.5 secs

     total energy              =    -288.62858894 Ry
     Harris-Foulkes estimate   =    -301.68169672 Ry
     estimated scf accuracy    <      20.63033181 Ry

     iteration #  5     ecut=    40.00 Ry     beta=0.70
     CG style diagonalization
     ethr =  1.00E-02,  avg # of iterations =  5.4

     total cpu time spent up to now is       24.9 secs

     total energy              =    -293.74147717 Ry
     Harris-Foulkes estimate   =    -294.05161984 Ry
     estimated scf accuracy    <       0.76726877 Ry

     iteration #  6     ecut=    40.00 Ry     beta=0.70
     CG style diagonalization
     ethr =  2.48E-03,  avg # of iterations =  3.8

     total cpu time spent up to now is       26.4 secs

     total energy              =    -293.87761312 Ry
     Harris-Foulkes estimate   =    -293.93289799 Ry
     estimated scf accuracy    <       0.07426628 Ry

     iteration #  7     ecut=    40.00 Ry     beta=0.70
     CG style diagonalization
     c_bands:  1 eigenvalues not converged
     c_bands:  1 eigenvalues not converged
     c_bands:  2 eigenvalues not converged
     c_bands:  1 eigenvalues not converged
     ethr =  2.40E-04,  avg # of iterations =  4.6

     total cpu time spent up to now is       28.6 secs

     total energy              =    -293.90275055 Ry
     Harris-Foulkes estimate   =    -293.91007753 Ry
     estimated scf accuracy    <       0.01773585 Ry

     iteration #  8     ecut=    40.00 Ry     beta=0.70
     CG style diagonalization
     c_bands:  1 eigenvalues not converged
     c_bands:  1 eigenvalues not converged
     c_bands:  1 eigenvalues not converged
     c_bands:  1 eigenvalues not converged
     c_bands:  1 eigenvalues not converged
     ethr =  5.72E-05,  avg # of iterations =  3.6

     total cpu time spent up to now is       30.2 secs

     total energy              =    -293.90523316 Ry
     Harris-Foulkes estimate   =    -293.90620697 Ry
     estimated scf accuracy    <       0.00175235 Ry

     iteration #  9     ecut=    40.00 Ry     beta=0.70
     CG style diagonalization
     c_bands:  1 eigenvalues not converged
     c_bands:  1 eigenvalues not converged
     c_bands:  1 eigenvalues not converged
     c_bands:  1 eigenvalues not converged
     c_bands:  1 eigenvalues not converged
     ethr =  5.65E-06,  avg # of iterations =  4.3

     total cpu time spent up to now is       32.2 secs

     total energy              =    -293.90565627 Ry
     Harris-Foulkes estimate   =    -293.90571640 Ry
     estimated scf accuracy    <       0.00010706 Ry

     iteration # 10     ecut=    40.00 Ry     beta=0.70
     CG style diagonalization
     c_bands:  1 eigenvalues not converged
     ethr =  3.45E-07,  avg # of iterations =  4.3

     total cpu time spent up to now is       34.1 secs

     End of self-consistent calculation

     Number of k-points >= 100: set verbosity='high' to print the bands.

     the Fermi energy is    32.9843 ev

!    total energy              =    -293.90569466 Ry
     Harris-Foulkes estimate   =    -293.90570300 Ry
     estimated scf accuracy    <       0.00001042 Ry

     The total energy is the sum of the following terms:

     one-electron contribution =      14.49935349 Ry
     hartree contribution      =      26.09575345 Ry
     xc contribution           =     -32.71448487 Ry
     ewald contribution        =    -301.70612758 Ry
     smearing contrib. (-TS)   =      -0.08018915 Ry

     convergence has been achieved in  10 iterations

     Forces acting on atoms (Ry/au):

     atom    1 type  1   force =     0.00000000    0.00000000    0.00000000
     atom    2 type  2   force =     0.00000000    0.00000000    0.00000000

     Total force =     0.000000     Total SCF correction =     0.000000


     entering subroutine stress ...

          total   stress  (Ry/bohr**3)                   (kbar)     P= 1502.03
   0.00934015   0.00000000   0.00000000       1373.98      0.00      0.00
   0.00000000   0.00934015   0.00000000          0.00   1373.98      0.00
   0.00000000   0.00000000   0.01195140          0.00      0.00   1758.11


     BFGS Geometry Optimization

     number of scf cycles    =   1
     number of bfgs steps    =   0

     enthalpy new            =    -293.9056946615 Ry

     new trust radius        =       0.5000000000 bohr
     new conv_thr            =       0.0001000000 Ry

     new unit-cell volume =    308.20959 a.u.^3 (    45.67195 Ang^3 )

CELL_PARAMETERS (alat=  5.41249258)
   1.137222125   0.000000000   0.000000000
   0.000000000   1.137222125   0.000000000
   0.000000000   0.000000000   1.503015978

ATOMIC_POSITIONS (crystal)
Cu       0.500000000   0.500000000   0.500000000
Au       0.000000000   0.000000000   0.000000000



     Writing output data file Prototype-La-tP2-AuCu.save
     Check: negative starting charge=   -0.000305
     NEW-OLD atomic charge density approx. for the potential
     NEW k-points: (use verbosity='high' to print them)
     Check: negative starting charge=   -0.003108

     negative rho (up, down):  0.288E-02 0.000E+00
     extrapolated charge   35.44613, renormalised to   31.00000

     total cpu time spent up to now is       37.2 secs

     Self-consistent Calculation

     iteration #  1     ecut=    40.00 Ry     beta=0.70
     CG style diagonalization
     c_bands:  3 eigenvalues not converged
     c_bands:  5 eigenvalues not converged
     c_bands:  3 eigenvalues not converged
     c_bands:  5 eigenvalues not converged
     c_bands:  3 eigenvalues not converged
     c_bands:  5 eigenvalues not converged
     c_bands:  5 eigenvalues not converged
     c_bands:  2 eigenvalues not converged
     c_bands:  1 eigenvalues not converged
     c_bands:  1 eigenvalues not converged
     c_bands:  5 eigenvalues not converged
     c_bands:  1 eigenvalues not converged
     c_bands:  3 eigenvalues not converged
     c_bands:  4 eigenvalues not converged
     c_bands:  2 eigenvalues not converged
     c_bands:  1 eigenvalues not converged
     c_bands:  1 eigenvalues not converged
     c_bands:  2 eigenvalues not converged
     c_bands:  3 eigenvalues not converged
     c_bands:  4 eigenvalues not converged
     c_bands:  2 eigenvalues not converged
     c_bands:  1 eigenvalues not converged
     c_bands:  1 eigenvalues not converged
     c_bands:  1 eigenvalues not converged
     c_bands:  1 eigenvalues not converged
     c_bands:  1 eigenvalues not converged
     c_bands:  2 eigenvalues not converged
     c_bands:  4 eigenvalues not converged
     c_bands:  1 eigenvalues not converged
     c_bands:  1 eigenvalues not converged
     c_bands:  5 eigenvalues not converged
     c_bands:  1 eigenvalues not converged
     c_bands:  4 eigenvalues not converged
     c_bands:  1 eigenvalues not converged
     c_bands:  4 eigenvalues not converged
     c_bands:  5 eigenvalues not converged
     c_bands:  5 eigenvalues not converged
     c_bands:  1 eigenvalues not converged
     c_bands:  1 eigenvalues not converged
     c_bands:  1 eigenvalues not converged
     c_bands:  2 eigenvalues not converged
     c_bands:  2 eigenvalues not converged
     c_bands:  2 eigenvalues not converged
     c_bands:  1 eigenvalues not converged
     c_bands:  1 eigenvalues not converged
     c_bands:  1 eigenvalues not converged
     c_bands:  2 eigenvalues not converged
     c_bands:  4 eigenvalues not converged
     c_bands:  1 eigenvalues not converged
     c_bands:  1 eigenvalues not converged
     c_bands:  2 eigenvalues not converged
     c_bands:  4 eigenvalues not converged
     c_bands:  1 eigenvalues not converged
     c_bands:  1 eigenvalues not converged
     c_bands:  3 eigenvalues not converged
     c_bands:  1 eigenvalues not converged
     c_bands:  1 eigenvalues not converged
     c_bands:  3 eigenvalues not converged
     c_bands:  2 eigenvalues not converged
     c_bands:  1 eigenvalues not converged
     c_bands:  4 eigenvalues not converged
     c_bands:  1 eigenvalues not converged
     c_bands:  1 eigenvalues not converged
     c_bands:  2 eigenvalues not converged
     c_bands:  4 eigenvalues not converged
     c_bands:  5 eigenvalues not converged
     ethr =  1.00E-06,  avg # of iterations = 21.8

     negative rho (up, down):  0.734E-03 0.000E+00

     total cpu time spent up to now is       45.1 secs

     total energy              =    -277.66640468 Ry
     Harris-Foulkes estimate   =    -306.01327343 Ry
     estimated scf accuracy    <      38.38386620 Ry

     iteration #  2     ecut=    40.00 Ry     beta=0.70
     CG style diagonalization
     c_bands:  1 eigenvalues not converged
     ethr =  1.00E-02,  avg # of iterations =  7.7

     negative rho (up, down):  0.450E-03 0.000E+00

     total cpu time spent up to now is       48.0 secs

     total energy              =    -280.33164715 Ry
     Harris-Foulkes estimate   =    -311.21387415 Ry
     estimated scf accuracy    <      63.58510469 Ry

     iteration #  3     ecut=    40.00 Ry     beta=0.70
     CG style diagonalization
     ethr =  1.00E-02,  avg # of iterations =  7.2

     negative rho (up, down):  0.137E-03 0.000E+00

     total cpu time spent up to now is       50.6 secs

     total energy              =    -293.75759147 Ry
     Harris-Foulkes estimate   =    -295.11065757 Ry
     estimated scf accuracy    <       3.76636117 Ry

     iteration #  4     ecut=    40.00 Ry     beta=0.70
     CG style diagonalization
     ethr =  1.00E-02,  avg # of iterations =  3.2

     negative rho (up, down):  0.469E-04 0.000E+00

     total cpu time spent up to now is       51.8 secs

     total energy              =    -293.95338811 Ry
     Harris-Foulkes estimate   =    -294.09170372 Ry
     estimated scf accuracy    <       0.58469794 Ry

     iteration #  5     ecut=    40.00 Ry     beta=0.70
     CG style diagonalization
     ethr =  1.89E-03,  avg # of iterations =  3.7

     total cpu time spent up to now is       53.2 secs

     total energy              =    -294.00115549 Ry
     Harris-Foulkes estimate   =    -294.02756783 Ry
     estimated scf accuracy    <       0.11046580 Ry

     iteration #  6     ecut=    40.00 Ry     beta=0.70
     CG style diagonalization
     ethr =  3.56E-04,  avg # of iterations =  3.6

     total cpu time spent up to now is       54.7 secs

     total energy              =    -294.00974693 Ry
     Harris-Foulkes estimate   =    -294.01929668 Ry
     estimated scf accuracy    <       0.01813060 Ry

     iteration #  7     ecut=    40.00 Ry     beta=0.70
     CG style diagonalization
     ethr =  5.85E-05,  avg # of iterations =  4.2

     total cpu time spent up to now is       57.1 secs

     total energy              =    -294.01745745 Ry
     Harris-Foulkes estimate   =    -294.02033966 Ry
     estimated scf accuracy    <       0.01057417 Ry

     iteration #  8     ecut=    40.00 Ry     beta=0.70
     CG style diagonalization
     ethr =  3.41E-05,  avg # of iterations =  3.1

     total cpu time spent up to now is       59.2 secs

     total energy              =    -294.01770079 Ry
     Harris-Foulkes estimate   =    -294.01823787 Ry
     estimated scf accuracy    <       0.00149141 Ry

     iteration #  9     ecut=    40.00 Ry     beta=0.70
     CG style diagonalization
     c_bands:  1 eigenvalues not converged
     c_bands:  1 eigenvalues not converged
     c_bands:  1 eigenvalues not converged
     ethr =  4.81E-06,  avg # of iterations =  3.7

     total cpu time spent up to now is       60.8 secs

     End of self-consistent calculation

     Number of k-points >= 100: set verbosity='high' to print the bands.

     the Fermi energy is    20.1576 ev

!    total energy              =    -294.01803273 Ry
     Harris-Foulkes estimate   =    -294.01803835 Ry
     estimated scf accuracy    <       0.00000715 Ry

     The total energy is the sum of the following terms:

     one-electron contribution =     -39.94390155 Ry
     hartree contribution      =      39.74693609 Ry
     xc contribution           =     -31.37318296 Ry
     ewald contribution        =    -262.32409805 Ry
     smearing contrib. (-TS)   =      -0.12378626 Ry

     convergence has been achieved in   9 iterations

     Forces acting on atoms (Ry/au):

     atom    1 type  1   force =     0.00000000    0.00000000    0.00000000
     atom    2 type  2   force =     0.00000000    0.00000000    0.00000000

     Total force =     0.000000     Total SCF correction =     0.000000


     entering subroutine stress ...

          total   stress  (Ry/bohr**3)                   (kbar)     P= -622.29
  -0.00423744   0.00000000   0.00000000       -623.35      0.00      0.00
   0.00000000  -0.00423744   0.00000000          0.00   -623.35      0.00
   0.00000000   0.00000000  -0.00421575          0.00      0.00   -620.16


     number of scf cycles    =   2
     number of bfgs steps    =   1

     enthalpy old            =    -293.9056946615 Ry
     enthalpy new            =    -294.0180327298 Ry

     CASE: enthalpy_new < enthalpy_old

     small trust_radius: resetting bfgs history

     new trust radius        =       0.3719607812 bohr
     new conv_thr            =       0.0000010000 Ry

     new unit-cell volume =    220.40180 a.u.^3 (    32.66018 Ang^3 )

CELL_PARAMETERS (alat=  5.41249258)
   1.016749218   0.000000000   0.000000000
   0.000000000   1.016749218   0.000000000
   0.000000000   0.000000000   1.344607402

ATOMIC_POSITIONS (crystal)
Cu       0.500000000   0.500000000   0.500000000
Au       0.000000000   0.000000000   0.000000000



     Writing output data file Prototype-La-tP2-AuCu.save
     Check: negative starting charge=   -0.003108
     NEW-OLD atomic charge density approx. for the potential
     NEW k-points: (use verbosity='high' to print them)
     Check: negative starting charge=   -0.000617

     negative rho (up, down):  0.597E+00 0.000E+00
     extrapolated charge   25.82458, renormalised to   31.00000

     total cpu time spent up to now is       61.8 secs

     Self-consistent Calculation

     iteration #  1     ecut=    40.00 Ry     beta=0.70
     CG style diagonalization
     c_bands:  5 eigenvalues not converged
     c_bands:  3 eigenvalues not converged
     c_bands:  1 eigenvalues not converged
     c_bands:  5 eigenvalues not converged
     c_bands:  4 eigenvalues not converged
     c_bands:  3 eigenvalues not converged
     c_bands:  5 eigenvalues not converged
     c_bands:  3 eigenvalues not converged
     c_bands:  1 eigenvalues not converged
     c_bands:  1 eigenvalues not converged
     c_bands:  1 eigenvalues not converged
     c_bands:  4 eigenvalues not converged
     c_bands:  3 eigenvalues not converged
     c_bands:  1 eigenvalues not converged
     c_bands:  3 eigenvalues not converged
     c_bands:  2 eigenvalues not converged
     c_bands:  1 eigenvalues not converged
     c_bands:  1 eigenvalues not converged
     c_bands:  2 eigenvalues not converged
     c_bands:  1 eigenvalues not converged
     c_bands:  2 eigenvalues not converged
     c_bands:  1 eigenvalues not converged
     c_bands:  1 eigenvalues not converged
     c_bands:  2 eigenvalues not converged
     c_bands:  3 eigenvalues not converged
     c_bands:  4 eigenvalues not converged
     c_bands:  1 eigenvalues not converged
     c_bands:  1 eigenvalues not converged
     c_bands:  1 eigenvalues not converged
     c_bands:  1 eigenvalues not converged
     c_bands:  1 eigenvalues not converged
     c_bands:  5 eigenvalues not converged
     c_bands:  2 eigenvalues not converged
     c_bands:  1 eigenvalues not converged
     c_bands:  3 eigenvalues not converged
     c_bands:  1 eigenvalues not converged
     c_bands:  3 eigenvalues not converged
     c_bands:  2 eigenvalues not converged
     c_bands:  1 eigenvalues not converged
     c_bands:  2 eigenvalues not converged
     c_bands:  1 eigenvalues not converged
     c_bands:  3 eigenvalues not converged
     c_bands:  4 eigenvalues not converged
     c_bands:  3 eigenvalues not converged
     c_bands:  1 eigenvalues not converged
     c_bands:  2 eigenvalues not converged
     c_bands:  2 eigenvalues not converged
     c_bands:  3 eigenvalues not converged
     c_bands:  3 eigenvalues not converged
     c_bands:  1 eigenvalues not converged
     c_bands:  1 eigenvalues not converged
     c_bands:  2 eigenvalues not converged
     c_bands:  1 eigenvalues not converged
     c_bands:  3 eigenvalues not converged
     c_bands:  2 eigenvalues not converged
     c_bands:  3 eigenvalues not converged
     c_bands:  2 eigenvalues not converged
     c_bands:  2 eigenvalues not converged
     c_bands:  1 eigenvalues not converged
     c_bands:  4 eigenvalues not converged
     ethr =  1.00E-06,  avg # of iterations = 22.8

     negative rho (up, down):  0.333E-01 0.000E+00

     total cpu time spent up to now is       70.7 secs

     total energy              =    -246.72692285 Ry
     Harris-Foulkes estimate   =    -329.24815114 Ry
     estimated scf accuracy    <     104.08155943 Ry

     iteration #  2     ecut=    40.00 Ry     beta=0.70
     CG style diagonalization
     c_bands:  1 eigenvalues not converged
     c_bands:  1 eigenvalues not converged
     c_bands:  1 eigenvalues not converged
     c_bands:  1 eigenvalues not converged
     c_bands:  1 eigenvalues not converged
     c_bands:  1 eigenvalues not converged
     c_bands:  1 eigenvalues not converged
     c_bands:  3 eigenvalues not converged
     c_bands:  1 eigenvalues not converged
     c_bands:  1 eigenvalues not converged
     c_bands:  1 eigenvalues not converged
     c_bands:  1 eigenvalues not converged
     c_bands:  1 eigenvalues not converged
     c_bands:  1 eigenvalues not converged
     c_bands:  1 eigenvalues not converged
     c_bands:  1 eigenvalues not converged
     c_bands:  1 eigenvalues not converged
     c_bands:  1 eigenvalues not converged
     c_bands:  1 eigenvalues not converged
     c_bands:  1 eigenvalues not converged
     c_bands:  1 eigenvalues not converged
     c_bands:  1 eigenvalues not converged
     c_bands:  1 eigenvalues not converged
     c_bands:  1 eigenvalues not converged
     c_bands:  1 eigenvalues not converged
     c_bands:  1 eigenvalues not converged
     c_bands:  1 eigenvalues not converged
     c_bands:  1 eigenvalues not converged
     c_bands:  1 eigenvalues not converged
     c_bands:  1 eigenvalues not converged
     c_bands:  1 eigenvalues not converged
     c_bands:  1 eigenvalues not converged
     c_bands:  1 eigenvalues not converged
     c_bands:  1 eigenvalues not converged
     c_bands:  1 eigenvalues not converged
     c_bands:  2 eigenvalues not converged
     c_bands:  1 eigenvalues not converged
     c_bands:  1 eigenvalues not converged
     ethr =  1.00E-02,  avg # of iterations = 11.7

     negative rho (up, down):  0.205E-01 0.000E+00

     total cpu time spent up to now is       75.4 secs

     total energy              =    -266.16349760 Ry
     Harris-Foulkes estimate   =    -331.50465829 Ry
     estimated scf accuracy    <     125.37005127 Ry

     iteration #  3     ecut=    40.00 Ry     beta=0.70
     CG style diagonalization
     ethr =  1.00E-02,  avg # of iterations =  8.3

     negative rho (up, down):  0.421E-02 0.000E+00

     total cpu time spent up to now is       78.9 secs

     total energy              =    -293.87884098 Ry
     Harris-Foulkes estimate   =    -294.63117797 Ry
     estimated scf accuracy    <       1.67754917 Ry

     iteration #  4     ecut=    40.00 Ry     beta=0.70
     CG style diagonalization
     ethr =  5.41E-03,  avg # of iterations =  3.3

     total cpu time spent up to now is       80.2 secs

     total energy              =    -293.96949100 Ry
     Harris-Foulkes estimate   =    -294.11073303 Ry
     estimated scf accuracy    <       0.21998016 Ry

     iteration #  5     ecut=    40.00 Ry     beta=0.70
     CG style diagonalization
     c_bands:  1 eigenvalues not converged
     ethr =  7.10E-04,  avg # of iterations =  4.6

     total cpu time spent up to now is       82.0 secs

     total energy              =    -294.04992312 Ry
     Harris-Foulkes estimate   =    -294.05525080 Ry
     estimated scf accuracy    <       0.00780445 Ry

     iteration #  6     ecut=    40.00 Ry     beta=0.70
     CG style diagonalization
     c_bands:  2 eigenvalues not converged
     c_bands:  1 eigenvalues not converged
     c_bands:  1 eigenvalues not converged
     c_bands:  1 eigenvalues not converged
     c_bands:  1 eigenvalues not converged
     c_bands:  1 eigenvalues not converged
     c_bands:  1 eigenvalues not converged
     c_bands:  1 eigenvalues not converged
     c_bands:  1 eigenvalues not converged
     ethr =  2.52E-05,  avg # of iterations =  4.9

     total cpu time spent up to now is       84.0 secs

     total energy              =    -294.05384503 Ry
     Harris-Foulkes estimate   =    -294.05447129 Ry
     estimated scf accuracy    <       0.00130587 Ry

     iteration #  7     ecut=    40.00 Ry     beta=0.70
     CG style diagonalization
     c_bands:  1 eigenvalues not converged
     c_bands:  1 eigenvalues not converged
     c_bands:  1 eigenvalues not converged
     ethr =  4.21E-06,  avg # of iterations =  3.8

     total cpu time spent up to now is       85.5 secs

     total energy              =    -294.05416231 Ry
     Harris-Foulkes estimate   =    -294.05437052 Ry
     estimated scf accuracy    <       0.00036802 Ry

     iteration #  8     ecut=    40.00 Ry     beta=0.70
     CG style diagonalization
     ethr =  1.19E-06,  avg # of iterations =  3.7

     total cpu time spent up to now is       87.1 secs

     total energy              =    -294.05425905 Ry
     Harris-Foulkes estimate   =    -294.05427403 Ry
     estimated scf accuracy    <       0.00002708 Ry

     iteration #  9     ecut=    40.00 Ry     beta=0.70
     CG style diagonalization
     ethr =  8.74E-08,  avg # of iterations =  3.9

     total cpu time spent up to now is       88.6 secs

     total energy              =    -294.05426569 Ry
     Harris-Foulkes estimate   =    -294.05426815 Ry
     estimated scf accuracy    <       0.00000585 Ry

     iteration # 10     ecut=    40.00 Ry     beta=0.70
     CG style diagonalization
     ethr =  1.89E-08,  avg # of iterations =  3.3

     total cpu time spent up to now is       89.9 secs

     End of self-consistent calculation

     Number of k-points >= 100: set verbosity='high' to print the bands.

     the Fermi energy is    29.9924 ev

!    total energy              =    -294.05426627 Ry
     Harris-Foulkes estimate   =    -294.05426659 Ry
     estimated scf accuracy    <       0.00000037 Ry

     The total energy is the sum of the following terms:

     one-electron contribution =       3.10185340 Ry
     hartree contribution      =      28.66470892 Ry
     xc contribution           =     -32.39125906 Ry
     ewald contribution        =    -293.34583847 Ry
     smearing contrib. (-TS)   =      -0.08373107 Ry

     convergence has been achieved in  10 iterations

     Forces acting on atoms (Ry/au):

     atom    1 type  1   force =     0.00000000    0.00000000    0.00000000
     atom    2 type  2   force =     0.00000000    0.00000000    0.00000000

     Total force =     0.000000     Total SCF correction =     0.000000


     entering subroutine stress ...

          total   stress  (Ry/bohr**3)                   (kbar)     P=  838.57
   0.00521617   0.00000000   0.00000000        767.33      0.00      0.00
   0.00000000   0.00521617   0.00000000          0.00    767.33      0.00
   0.00000000   0.00000000   0.00666913          0.00      0.00    981.06


     number of scf cycles    =   3
     number of bfgs steps    =   2

     enthalpy old            =    -294.0180327298 Ry
     enthalpy new            =    -294.0542662732 Ry

     CASE: enthalpy_new < enthalpy_old

     Message from routine bfgs:
     history already reset at previous step: stopping
     small trust_radius: resetting bfgs history

     new trust radius        =       0.4950474089 bohr
     new conv_thr            =       0.0000010000 Ry

     new unit-cell volume =    328.58862 a.u.^3 (    48.69181 Ang^3 )

CELL_PARAMETERS (alat=  5.41249258)
   1.149337767   0.000000000   0.000000000
   0.000000000   1.149337767   0.000000000
   0.000000000   0.000000000   1.568791463

ATOMIC_POSITIONS (crystal)
Cu       0.500000000   0.500000000   0.500000000
Au       0.000000000   0.000000000   0.000000000



     Writing output data file Prototype-La-tP2-AuCu.save
     Check: negative starting charge=   -0.000617
     NEW-OLD atomic charge density approx. for the potential
     NEW k-points: (use verbosity='high' to print them)
     Check: negative starting charge=   -0.003489

     negative rho (up, down):  0.304E-02 0.000E+00
     extrapolated charge   35.27710, renormalised to   31.00000

     total cpu time spent up to now is       90.9 secs

     Self-consistent Calculation

     iteration #  1     ecut=    40.00 Ry     beta=0.70
     CG style diagonalization
     c_bands:  2 eigenvalues not converged
     c_bands:  5 eigenvalues not converged
     c_bands:  3 eigenvalues not converged
     c_bands:  3 eigenvalues not converged
     c_bands:  2 eigenvalues not converged
     c_bands:  4 eigenvalues not converged
     c_bands:  5 eigenvalues not converged
     c_bands:  5 eigenvalues not converged
     c_bands:  2 eigenvalues not converged
     c_bands:  1 eigenvalues not converged
     c_bands:  1 eigenvalues not converged
     c_bands:  1 eigenvalues not converged
     c_bands:  3 eigenvalues not converged
     c_bands:  5 eigenvalues not converged
     c_bands:  5 eigenvalues not converged
     c_bands:  2 eigenvalues not converged
     c_bands:  1 eigenvalues not converged
     c_bands:  2 eigenvalues not converged
     c_bands:  3 eigenvalues not converged
     c_bands:  4 eigenvalues not converged
     c_bands:  5 eigenvalues not converged
     c_bands:  5 eigenvalues not converged
     c_bands:  1 eigenvalues not converged
     c_bands:  1 eigenvalues not converged
     c_bands:  1 eigenvalues not converged
     c_bands:  4 eigenvalues not converged
     c_bands:  4 eigenvalues not converged
     c_bands:  1 eigenvalues not converged
     c_bands:  4 eigenvalues not converged
     c_bands:  2 eigenvalues not converged
     c_bands:  5 eigenvalues not converged
     c_bands:  4 eigenvalues not converged
     c_bands:  1 eigenvalues not converged
     c_bands:  1 eigenvalues not converged
     c_bands:  1 eigenvalues not converged
     c_bands:  1 eigenvalues not converged
     c_bands:  2 eigenvalues not converged
     c_bands:  1 eigenvalues not converged
     c_bands:  1 eigenvalues not converged
     c_bands:  1 eigenvalues not converged
     c_bands:  1 eigenvalues not converged
     c_bands:  4 eigenvalues not converged
     c_bands:  5 eigenvalues not converged
     c_bands:  5 eigenvalues not converged
     c_bands:  5 eigenvalues not converged
     c_bands:  2 eigenvalues not converged
     c_bands:  5 eigenvalues not converged
     c_bands:  5 eigenvalues not converged
     c_bands:  5 eigenvalues not converged
     c_bands:  4 eigenvalues not converged
     c_bands:  5 eigenvalues not converged
     c_bands:  1 eigenvalues not converged
     c_bands:  2 eigenvalues not converged
     c_bands:  2 eigenvalues not converged
     c_bands:  1 eigenvalues not converged
     c_bands:  1 eigenvalues not converged
     c_bands:  5 eigenvalues not converged
     c_bands:  5 eigenvalues not converged
     ethr =  1.00E-06,  avg # of iterations = 20.6

     negative rho (up, down):  0.771E-03 0.000E+00

     total cpu time spent up to now is       99.0 secs

     total energy              =    -277.85728430 Ry
     Harris-Foulkes estimate   =    -304.87976298 Ry
     estimated scf accuracy    <      37.49652279 Ry

     iteration #  2     ecut=    40.00 Ry     beta=0.70
     CG style diagonalization
     ethr =  1.00E-02,  avg # of iterations =  7.8

     negative rho (up, down):  0.466E-03 0.000E+00

     total cpu time spent up to now is      101.7 secs

     total energy              =    -280.00163771 Ry
     Harris-Foulkes estimate   =    -312.24473339 Ry
     estimated scf accuracy    <      67.60477609 Ry

     iteration #  3     ecut=    40.00 Ry     beta=0.70
     CG style diagonalization
     ethr =  1.00E-02,  avg # of iterations =  7.3

     negative rho (up, down):  0.126E-03 0.000E+00

     total cpu time spent up to now is      104.4 secs

     total energy              =    -293.63876201 Ry
     Harris-Foulkes estimate   =    -295.07068451 Ry
     estimated scf accuracy    <       4.08081063 Ry

     iteration #  4     ecut=    40.00 Ry     beta=0.70
     CG style diagonalization
     ethr =  1.00E-02,  avg # of iterations =  3.3

     negative rho (up, down):  0.371E-04 0.000E+00

     total cpu time spent up to now is      105.5 secs

     total energy              =    -293.86989380 Ry
     Harris-Foulkes estimate   =    -294.00266757 Ry
     estimated scf accuracy    <       0.61500276 Ry

     iteration #  5     ecut=    40.00 Ry     beta=0.70
     CG style diagonalization
     ethr =  1.98E-03,  avg # of iterations =  3.6

     total cpu time spent up to now is      106.8 secs

     total energy              =    -293.90000815 Ry
     Harris-Foulkes estimate   =    -293.93272833 Ry
     estimated scf accuracy    <       0.14437892 Ry

     iteration #  6     ecut=    40.00 Ry     beta=0.70
     CG style diagonalization
     ethr =  4.66E-04,  avg # of iterations =  3.5

     total cpu time spent up to now is      108.1 secs

     total energy              =    -293.90819031 Ry
     Harris-Foulkes estimate   =    -293.92080733 Ry
     estimated scf accuracy    <       0.02434467 Ry

     iteration #  7     ecut=    40.00 Ry     beta=0.70
     CG style diagonalization
     c_bands:  1 eigenvalues not converged
     c_bands:  1 eigenvalues not converged
     ethr =  7.85E-05,  avg # of iterations =  4.1

     total cpu time spent up to now is      109.5 secs

     total energy              =    -293.91811488 Ry
     Harris-Foulkes estimate   =    -293.92304623 Ry
     estimated scf accuracy    <       0.01803078 Ry

     iteration #  8     ecut=    40.00 Ry     beta=0.70
     CG style diagonalization
     ethr =  5.82E-05,  avg # of iterations =  3.1

     total cpu time spent up to now is      110.6 secs

     total energy              =    -293.91926854 Ry
     Harris-Foulkes estimate   =    -293.91970967 Ry
     estimated scf accuracy    <       0.00131386 Ry

     iteration #  9     ecut=    40.00 Ry     beta=0.70
     CG style diagonalization
     c_bands:  1 eigenvalues not converged
     c_bands:  1 eigenvalues not converged
     ethr =  4.24E-06,  avg # of iterations =  3.9

     total cpu time spent up to now is      112.0 secs

     total energy              =    -293.91959388 Ry
     Harris-Foulkes estimate   =    -293.91959815 Ry
     estimated scf accuracy    <       0.00000854 Ry

     iteration # 10     ecut=    40.00 Ry     beta=0.70
     CG style diagonalization
     c_bands:  1 eigenvalues not converged
     ethr =  2.75E-08,  avg # of iterations =  4.6

     total cpu time spent up to now is      113.7 secs

     total energy              =    -293.91960655 Ry
     Harris-Foulkes estimate   =    -293.91960728 Ry
     estimated scf accuracy    <       0.00000111 Ry

     iteration # 11     ecut=    40.00 Ry     beta=0.70
     CG style diagonalization
     ethr =  3.59E-09,  avg # of iterations =  4.0

     total cpu time spent up to now is      115.1 secs

     End of self-consistent calculation

     Number of k-points >= 100: set verbosity='high' to print the bands.

     the Fermi energy is    18.5874 ev

!    total energy              =    -293.91960676 Ry
     Harris-Foulkes estimate   =    -293.91960704 Ry
     estimated scf accuracy    <       0.00000034 Ry

     The total energy is the sum of the following terms:

     one-electron contribution =     -47.94098805 Ry
     hartree contribution      =      42.09258969 Ry
     xc contribution           =     -31.22080038 Ry
     ewald contribution        =    -256.71971192 Ry
     smearing contrib. (-TS)   =      -0.13069610 Ry

     convergence has been achieved in  11 iterations

     Forces acting on atoms (Ry/au):

     atom    1 type  1   force =     0.00000000    0.00000000    0.00000000
     atom    2 type  2   force =     0.00000000    0.00000000    0.00000000

     Total force =     0.000000     Total SCF correction =     0.000000


     entering subroutine stress ...

          total   stress  (Ry/bohr**3)                   (kbar)     P= -761.02
  -0.00494795   0.00000000   0.00000000       -727.87      0.00      0.00
   0.00000000  -0.00494795   0.00000000          0.00   -727.87      0.00
   0.00000000   0.00000000  -0.00562412          0.00      0.00   -827.34


     The maximum number of steps has been reached.

     End of BFGS Geometry Optimization
Begin final coordinates
     new unit-cell volume =    328.58862 a.u.^3 (    48.69181 Ang^3 )

CELL_PARAMETERS (alat=  5.41249258)
   1.149337767   0.000000000   0.000000000
   0.000000000   1.149337767   0.000000000
   0.000000000   0.000000000   1.568791463

ATOMIC_POSITIONS (crystal)
Cu       0.500000000   0.500000000   0.500000000
Au       0.000000000   0.000000000   0.000000000
End final coordinates



     A final scf calculation at the relaxed structure.
     The G-vectors are recalculated for the final unit cell
     Results may differ from those at the preceding step.
 
     Parallelization info
     --------------------
     sticks:   dense  smooth     PW     G-vecs:    dense   smooth      PW
     Min         122     122     36                 2812     2812     484
     Max         123     123     37                 2815     2815     487
     Sum         489     489    145                11251    11251    1939
 


     bravais-lattice index     =            0
     lattice parameter (alat)  =       5.4125  a.u.
     unit-cell volume          =     328.5886 (a.u.)^3
     number of atoms/cell      =            2
     number of atomic types    =            2
     number of electrons       =        31.00
     number of Kohn-Sham states=           20
     kinetic-energy cutoff     =      40.0000  Ry
     charge density cutoff     =     160.0000  Ry
     convergence threshold     =      1.0E-06
     mixing beta               =       0.7000
     number of iterations used =            8  plain     mixing
     Exchange-correlation      = SLA-PZ-NOGX-NOGC ( 1 1 0 0 0)
     EXX-fraction              =        0.00

     celldm(1)=   5.412493  celldm(2)=   0.000000  celldm(3)=   0.000000
     celldm(4)=   0.000000  celldm(5)=   0.000000  celldm(6)=   0.000000

     crystal axes: (cart. coord. in units of alat)
               a(1) = (   1.149338   0.000000   0.000000 )  
               a(2) = (   0.000000   1.149338   0.000000 )  
               a(3) = (   0.000000   0.000000   1.568791 )  

     reciprocal axes: (cart. coord. in units 2 pi/alat)
               b(1) = (  0.870066  0.000000  0.000000 )  
               b(2) = (  0.000000  0.870066  0.000000 )  
               b(3) = (  0.000000  0.000000  0.637433 )  


     PseudoPot. # 1 for Pr read from file:
     /home/cwx6513/pp.La/Pr.UPF
     MD5 check sum: 70e2b4b153859e92c8c91247dfc63203
     Pseudo is Norm-conserving, Zval = 13.0
     Generated in analytical, separable form
     Using radial grid of 1255 points,  6 beta functions with: 
                l(1) =   0
                l(2) =   0
                l(3) =   1
                l(4) =   1
                l(5) =   2
                l(6) =   3

     PseudoPot. # 2 for Gd read from file:
     /home/cwx6513/pp.La/Gd.UPF
     MD5 check sum: 09a8be538722f05520810cb6aac0efd2
     Pseudo is Norm-conserving, Zval = 18.0
     Generated in analytical, separable form
     Using radial grid of 1263 points,  6 beta functions with: 
                l(1) =   0
                l(2) =   0
                l(3) =   1
                l(4) =   1
                l(5) =   2
                l(6) =   3

     atomic species   valence    mass     pseudopotential
        Cu            13.00    63.54600     Pr( 1.00)
        Au            18.00   196.96600     Gd( 1.00)

     16 Sym. Ops., with inversion, found



   Cartesian axes

     site n.     atom                  positions (alat units)
         1           Cu  tau(   1) = (   0.5746689   0.5746689   0.7843957  )
         2           Au  tau(   2) = (   0.0000000   0.0000000   0.0000000  )

     number of k points=   100  gaussian smearing, width (Ry)=  0.1000

     Number of k-points >= 100: set verbosity='high' to print them.

     Dense  grid:    11251 G-vectors     FFT dimensions: (  25,  25,  36)

     Largest allocated arrays     est. size (Mb)     dimensions
        Kohn-Sham Wavefunctions         0.11 Mb     (    356,   20)
        NL pseudopotentials             0.22 Mb     (    356,   40)
        Each V/rho on FFT grid          0.09 Mb     (   5625)
        Each G-vector array             0.02 Mb     (   2812)
        G-vector shells                 0.01 Mb     (    700)
     Largest temporary arrays     est. size (Mb)     dimensions
        Each subspace H/S matrix        0.01 Mb     (  20,  20)
        Each <psi_i|beta_j> matrix      0.01 Mb     (     40,   20)
        Arrays for rho mixing           0.69 Mb     (   5625,   8)

     Initial potential from superposition of free atoms
     Check: negative starting charge=   -0.000501

     starting charge   12.99054, renormalised to   31.00000

     negative rho (up, down):  0.119E-02 0.000E+00
     Starting wfc are   20 randomized atomic wfcs

     Writing output data file Prototype-La-tP2-AuCu.save

     total cpu time spent up to now is      117.3 secs

     Self-consistent Calculation

     iteration #  1     ecut=    40.00 Ry     beta=0.70
     CG style diagonalization
     c_bands:  5 eigenvalues not converged
     c_bands:  1 eigenvalues not converged
     c_bands:  1 eigenvalues not converged
     c_bands:  1 eigenvalues not converged
     c_bands:  3 eigenvalues not converged
     c_bands:  2 eigenvalues not converged
     c_bands:  1 eigenvalues not converged
     c_bands:  2 eigenvalues not converged
     c_bands:  1 eigenvalues not converged
     c_bands:  5 eigenvalues not converged
     c_bands:  2 eigenvalues not converged
     c_bands:  4 eigenvalues not converged
     c_bands:  5 eigenvalues not converged
     c_bands:  1 eigenvalues not converged
     c_bands:  1 eigenvalues not converged
     c_bands:  2 eigenvalues not converged
     c_bands:  1 eigenvalues not converged
     c_bands:  1 eigenvalues not converged
     c_bands:  2 eigenvalues not converged
     c_bands:  1 eigenvalues not converged
     c_bands:  1 eigenvalues not converged
     c_bands:  2 eigenvalues not converged
     c_bands:  1 eigenvalues not converged
     c_bands:  2 eigenvalues not converged
     c_bands:  1 eigenvalues not converged
     c_bands:  2 eigenvalues not converged
     c_bands:  1 eigenvalues not converged
     c_bands:  5 eigenvalues not converged
     c_bands:  1 eigenvalues not converged
     c_bands:  1 eigenvalues not converged
     c_bands:  1 eigenvalues not converged
     c_bands:  1 eigenvalues not converged
     c_bands:  4 eigenvalues not converged
     c_bands:  2 eigenvalues not converged
     c_bands:  1 eigenvalues not converged
     c_bands:  1 eigenvalues not converged
     c_bands:  2 eigenvalues not converged
     c_bands:  1 eigenvalues not converged
     c_bands:  1 eigenvalues not converged
     c_bands:  2 eigenvalues not converged
     c_bands:  3 eigenvalues not converged
     c_bands:  2 eigenvalues not converged
     c_bands:  2 eigenvalues not converged
     c_bands:  2 eigenvalues not converged
     ethr =  1.00E-06,  avg # of iterations = 50.3

     negative rho (up, down):  0.355E-03 0.000E+00

     total cpu time spent up to now is      144.9 secs

     total energy              =    -101.59200411 Ry
     Harris-Foulkes estimate   =    -667.27491933 Ry
     estimated scf accuracy    <     675.54745225 Ry

     iteration #  2     ecut=    40.00 Ry     beta=0.70
     CG style diagonalization
     c_bands:  1 eigenvalues not converged
     c_bands:  1 eigenvalues not converged
     c_bands:  1 eigenvalues not converged
     c_bands:  1 eigenvalues not converged
     c_bands:  1 eigenvalues not converged
     c_bands:  1 eigenvalues not converged
     c_bands:  1 eigenvalues not converged
     c_bands:  1 eigenvalues not converged
     c_bands:  1 eigenvalues not converged
     c_bands:  1 eigenvalues not converged
     c_bands:  1 eigenvalues not converged
     c_bands:  1 eigenvalues not converged
     c_bands:  1 eigenvalues not converged
     c_bands:  1 eigenvalues not converged
     c_bands:  1 eigenvalues not converged
     c_bands:  1 eigenvalues not converged
     c_bands:  1 eigenvalues not converged
     c_bands:  1 eigenvalues not converged
     ethr =  1.00E-02,  avg # of iterations = 12.8

     negative rho (up, down):  0.904E-04 0.000E+00

     total cpu time spent up to now is      152.6 secs

     total energy              =    -211.68035811 Ry
     Harris-Foulkes estimate   =    -408.63940561 Ry
     estimated scf accuracy    <     314.17395058 Ry

     iteration #  3     ecut=    40.00 Ry     beta=0.70
     CG style diagonalization
     c_bands:  1 eigenvalues not converged
     c_bands:  1 eigenvalues not converged
     c_bands:  1 eigenvalues not converged
     c_bands:  1 eigenvalues not converged
     ethr =  1.00E-02,  avg # of iterations = 11.8

     negative rho (up, down):  0.749E-04 0.000E+00

     total cpu time spent up to now is      159.7 secs

     total energy              =    -309.01625971 Ry
     Harris-Foulkes estimate   =    -314.20004941 Ry
     estimated scf accuracy    <      66.43851057 Ry

     iteration #  4     ecut=    40.00 Ry     beta=0.70
     CG style diagonalization
     ethr =  1.00E-02,  avg # of iterations =  3.2

     total cpu time spent up to now is      162.0 secs

     total energy              =    -287.55372934 Ry
     Harris-Foulkes estimate   =    -309.32523588 Ry
     estimated scf accuracy    <      48.95857761 Ry

     iteration #  5     ecut=    40.00 Ry     beta=0.70
     CG style diagonalization
     ethr =  1.00E-02,  avg # of iterations =  5.2

     total cpu time spent up to now is      164.8 secs

     total energy              =    -294.31212367 Ry
     Harris-Foulkes estimate   =    -295.00938726 Ry
     estimated scf accuracy    <       2.55445407 Ry

     iteration #  6     ecut=    40.00 Ry     beta=0.70
     CG style diagonalization
     ethr =  8.24E-03,  avg # of iterations =  3.1

     total cpu time spent up to now is      166.4 secs

     total energy              =    -294.08547681 Ry
     Harris-Foulkes estimate   =    -294.52756115 Ry
     estimated scf accuracy    <       0.63944595 Ry

     iteration #  7     ecut=    40.00 Ry     beta=0.70
     CG style diagonalization
     ethr =  2.06E-03,  avg # of iterations =  4.5

     total cpu time spent up to now is      168.9 secs

     total energy              =    -294.19663697 Ry
     Harris-Foulkes estimate   =    -294.52914653 Ry
     estimated scf accuracy    <       0.88026709 Ry

     iteration #  8     ecut=    40.00 Ry     beta=0.70
     CG style diagonalization
     ethr =  2.06E-03,  avg # of iterations =  3.3

     total cpu time spent up to now is      170.8 secs

     total energy              =    -294.37758646 Ry
     Harris-Foulkes estimate   =    -294.39458841 Ry
     estimated scf accuracy    <       0.06495866 Ry

     iteration #  9     ecut=    40.00 Ry     beta=0.70
     CG style diagonalization
     ethr =  2.10E-04,  avg # of iterations =  3.3

     total cpu time spent up to now is      172.7 secs

     total energy              =    -294.37538918 Ry
     Harris-Foulkes estimate   =    -294.38401916 Ry
     estimated scf accuracy    <       0.01509094 Ry

     iteration # 10     ecut=    40.00 Ry     beta=0.70
     CG style diagonalization
     ethr =  4.87E-05,  avg # of iterations =  4.0

     total cpu time spent up to now is      175.0 secs

     total energy              =    -294.38020820 Ry
     Harris-Foulkes estimate   =    -294.38197240 Ry
     estimated scf accuracy    <       0.00373307 Ry

     iteration # 11     ecut=    40.00 Ry     beta=0.70
     CG style diagonalization
     c_bands:  1 eigenvalues not converged
     c_bands:  1 eigenvalues not converged
     ethr =  1.20E-05,  avg # of iterations =  3.6

     total cpu time spent up to now is      176.9 secs

     total energy              =    -294.38078672 Ry
     Harris-Foulkes estimate   =    -294.38084952 Ry
     estimated scf accuracy    <       0.00009043 Ry

     iteration # 12     ecut=    40.00 Ry     beta=0.70
     CG style diagonalization
     c_bands:  1 eigenvalues not converged
     ethr =  2.92E-07,  avg # of iterations =  4.9

     total cpu time spent up to now is      179.6 secs

     total energy              =    -294.38084478 Ry
     Harris-Foulkes estimate   =    -294.38090478 Ry
     estimated scf accuracy    <       0.00020979 Ry

     iteration # 13     ecut=    40.00 Ry     beta=0.70
     CG style diagonalization
     ethr =  2.92E-07,  avg # of iterations =  3.3

     total cpu time spent up to now is      181.4 secs

     total energy              =    -294.38086442 Ry
     Harris-Foulkes estimate   =    -294.38086684 Ry
     estimated scf accuracy    <       0.00000761 Ry

     iteration # 14     ecut=    40.00 Ry     beta=0.70
     CG style diagonalization
     ethr =  2.46E-08,  avg # of iterations =  3.5

     total cpu time spent up to now is      183.4 secs

     End of self-consistent calculation

     Number of k-points >= 100: set verbosity='high' to print the bands.

     the Fermi energy is    18.5622 ev

!    total energy              =    -294.38086590 Ry
     Harris-Foulkes estimate   =    -294.38086603 Ry
     estimated scf accuracy    <       0.00000016 Ry

     The total energy is the sum of the following terms:

     one-electron contribution =     -48.55337145 Ry
     hartree contribution      =      42.29136942 Ry
     xc contribution           =     -31.26854597 Ry
     ewald contribution        =    -256.71969772 Ry
     smearing contrib. (-TS)   =      -0.13062019 Ry

     convergence has been achieved in  14 iterations

     Forces acting on atoms (Ry/au):

     atom    1 type  1   force =     0.00000000    0.00000000    0.00000000
     atom    2 type  2   force =     0.00000000    0.00000000    0.00000000

     Total force =     0.000000     Total SCF correction =     0.000000


     entering subroutine stress ...

          total   stress  (Ry/bohr**3)                   (kbar)     P= -256.59
  -0.00180852   0.00000000   0.00000000       -266.04      0.00      0.00
   0.00000000  -0.00180852   0.00000000          0.00   -266.04      0.00
   0.00000000   0.00000000  -0.00161577          0.00      0.00   -237.69


     Writing output data file Prototype-La-tP2-AuCu.save
 
     init_run     :      1.64s CPU      2.53s WALL (       2 calls)
     electrons    :    161.31s CPU    174.63s WALL (       5 calls)
     update_pot   :      0.47s CPU      0.59s WALL (       3 calls)
     forces       :      0.61s CPU      0.62s WALL (       5 calls)
     stress       :      1.63s CPU      1.67s WALL (       5 calls)

     Called by init_run:
     wfcinit      :      1.22s CPU      1.52s WALL (       2 calls)
     potinit      :      0.11s CPU      0.11s WALL (       2 calls)

     Called by electrons:
     c_bands      :    153.83s CPU    164.85s WALL (      54 calls)
     sum_band     :      7.29s CPU      7.74s WALL (      54 calls)
     v_of_rho     :      0.02s CPU      0.03s WALL (      59 calls)
     mix_rho      :      0.03s CPU      0.03s WALL (      54 calls)

     Called by c_bands:
     init_us_2    :      1.67s CPU      1.75s WALL (   12000 calls)
     ccgdiagg     :    135.10s CPU    143.21s WALL (    5890 calls)
     wfcrot       :     18.44s CPU     20.71s WALL (    5990 calls)

     Called by *cgdiagg:
     h_psi        :    104.40s CPU    114.15s WALL (  652636 calls)
     cdiaghg      :      0.93s CPU      1.26s WALL (    5990 calls)

     Called by h_psi:
     add_vuspsi   :      5.18s CPU      6.73s WALL (  652636 calls)

     General routines
     calbec       :     20.88s CPU     24.14s WALL ( 1300282 calls)
     fft          :      0.04s CPU      0.04s WALL (     259 calls)
     fftw         :     83.80s CPU     87.50s WALL ( 1640892 calls)
     davcio       :      0.90s CPU      1.69s WALL (   17400 calls)
 
     Parallel routines
     fft_scatter  :     31.54s CPU     33.40s WALL ( 1641151 calls)
 
     PWSCF        :  2m46.49s CPU     3m 4.84s WALL

 
   This run was terminated on:  16:21:58  22Mar2018            

=------------------------------------------------------------------------------=
   JOB DONE.
=------------------------------------------------------------------------------=
