
     Program PWSCF v.5.0.2 starts on 22Mar2018 at 16: 5:48 

     This program is part of the open-source Quantum ESPRESSO suite
     for quantum simulation of materials; please cite
         "P. Giannozzi et al., J. Phys.:Condens. Matter 21 395502 (2009);
          URL http://www.quantum-espresso.org", 
     in publications or presentations arising from this work. More details at
     http://www.quantum-espresso.org/quote.php

     Parallel version (MPI), running on     4 processors
     R & G space division:  proc/nbgrp/npool/nimage =       4

     Current dimensions of program PWSCF are:
     Max number of different atomic species (ntypx) = 10
     Max number of k-points (npk) =  40000
     Max angular momentum in pseudopotentials (lmaxx) =  3
     Waiting for input...
     Reading input from standard input

     Subspace diagonalization in iterative solution of the eigenvalue problem:
     a serial algorithm will be used

 
     Parallelization info
     --------------------
     sticks:   dense  smooth     PW     G-vecs:    dense   smooth      PW
     Min         233     233     69                 5311     5311     851
     Max         234     234     70                 5314     5314     854
     Sum         933     933    277                21247    21247    3407
 


     bravais-lattice index     =            0
     lattice parameter (alat)  =       8.5346  a.u.
     unit-cell volume          =     621.6493 (a.u.)^3
     number of atoms/cell      =            8
     number of atomic types    =            2
     number of electrons       =       174.00
     number of Kohn-Sham states=          104
     kinetic-energy cutoff     =      40.0000  Ry
     charge density cutoff     =     160.0000  Ry
     convergence threshold     =      1.0E-04
     mixing beta               =       0.7000
     number of iterations used =            8  plain     mixing
     Exchange-correlation      = SLA-PZ-NOGX-NOGC ( 1 1 0 0 0)
     EXX-fraction              =        0.00
     nstep                     =           50


     celldm(1)=   8.534573  celldm(2)=   0.000000  celldm(3)=   0.000000
     celldm(4)=   0.000000  celldm(5)=   0.000000  celldm(6)=   0.000000

     crystal axes: (cart. coord. in units of alat)
               a(1) = (   1.000000   0.000000   0.000000 )  
               a(2) = (   0.000000   1.000000   0.000000 )  
               a(3) = (   0.000000   0.000000   1.000000 )  

     reciprocal axes: (cart. coord. in units 2 pi/alat)
               b(1) = (  1.000000  0.000000  0.000000 )  
               b(2) = (  0.000000  1.000000  0.000000 )  
               b(3) = (  0.000000  0.000000  1.000000 )  


     PseudoPot. # 1 for Tm read from file:
     /home/cwx6513/pp.La/Tm.UPF
     MD5 check sum: 245516e0878b5372ceeb9443ded2c4e1
     Pseudo is Norm-conserving, Zval = 23.0
     Generated in analytical, separable form
     Using radial grid of 1269 points,  6 beta functions with: 
                l(1) =   0
                l(2) =   0
                l(3) =   1
                l(4) =   1
                l(5) =   2
                l(6) =   3

     PseudoPot. # 2 for Gd read from file:
     /home/cwx6513/pp.La/Gd.UPF
     MD5 check sum: 09a8be538722f05520810cb6aac0efd2
     Pseudo is Norm-conserving, Zval = 18.0
     Generated in analytical, separable form
     Using radial grid of 1263 points,  6 beta functions with: 
                l(1) =   0
                l(2) =   0
                l(3) =   1
                l(4) =   1
                l(5) =   2
                l(6) =   3

     atomic species   valence    mass     pseudopotential
        Cr            23.00    51.99610     Tm( 1.00)
        Si            18.00    28.08550     Gd( 1.00)

     48 Sym. Ops., with inversion, found (24 have fractional translation)



   Cartesian axes

     site n.     atom                  positions (alat units)
         1           Cr  tau(   1) = (   0.0000000   0.5000000   0.2500000  )
         2           Cr  tau(   2) = (   0.0000000   0.5000000   0.7500000  )
         3           Cr  tau(   3) = (   0.5000000   0.7500000   0.0000000  )
         4           Cr  tau(   4) = (   0.5000000   0.2500000   0.0000000  )
         5           Cr  tau(   5) = (   0.7500000   0.0000000   0.5000000  )
         6           Cr  tau(   6) = (   0.2500000   0.0000000   0.5000000  )
         7           Si  tau(   7) = (   0.5000000   0.5000000   0.5000000  )
         8           Si  tau(   8) = (   0.0000000   0.0000000   0.0000000  )

     number of k points=    48  gaussian smearing, width (Ry)=  0.1000
                       cart. coord. in units 2pi/alat
        k(    1) = (   0.0000000   0.0000000   0.0000000), wk =   0.0095238
        k(    2) = (   0.0000000   0.0000000   0.1428571), wk =   0.0190476
        k(    3) = (   0.0000000   0.0000000   0.2857143), wk =   0.0190476
        k(    4) = (   0.0000000   0.0000000   0.4285714), wk =   0.0190476
        k(    5) = (   0.0000000   0.1666667   0.0000000), wk =   0.0190476
        k(    6) = (   0.0000000   0.1666667   0.1428571), wk =   0.0380952
        k(    7) = (   0.0000000   0.1666667   0.2857143), wk =   0.0380952
        k(    8) = (   0.0000000   0.1666667   0.4285714), wk =   0.0380952
        k(    9) = (   0.0000000   0.3333333   0.0000000), wk =   0.0190476
        k(   10) = (   0.0000000   0.3333333   0.1428571), wk =   0.0380952
        k(   11) = (   0.0000000   0.3333333   0.2857143), wk =   0.0380952
        k(   12) = (   0.0000000   0.3333333   0.4285714), wk =   0.0380952
        k(   13) = (   0.0000000  -0.5000000   0.0000000), wk =   0.0095238
        k(   14) = (   0.0000000  -0.5000000   0.1428571), wk =   0.0190476
        k(   15) = (   0.0000000  -0.5000000   0.2857143), wk =   0.0190476
        k(   16) = (   0.0000000  -0.5000000   0.4285714), wk =   0.0190476
        k(   17) = (   0.2000000   0.0000000   0.0000000), wk =   0.0190476
        k(   18) = (   0.2000000   0.0000000   0.1428571), wk =   0.0380952
        k(   19) = (   0.2000000   0.0000000   0.2857143), wk =   0.0380952
        k(   20) = (   0.2000000   0.0000000   0.4285714), wk =   0.0380952
        k(   21) = (   0.2000000   0.1666667   0.0000000), wk =   0.0380952
        k(   22) = (   0.2000000   0.1666667   0.1428571), wk =   0.0761905
        k(   23) = (   0.2000000   0.1666667   0.2857143), wk =   0.0761905
        k(   24) = (   0.2000000   0.1666667   0.4285714), wk =   0.0761905
        k(   25) = (   0.2000000   0.3333333   0.0000000), wk =   0.0380952
        k(   26) = (   0.2000000   0.3333333   0.1428571), wk =   0.0761905
        k(   27) = (   0.2000000   0.3333333   0.2857143), wk =   0.0761905
        k(   28) = (   0.2000000   0.3333333   0.4285714), wk =   0.0761905
        k(   29) = (   0.2000000  -0.5000000   0.0000000), wk =   0.0190476
        k(   30) = (   0.2000000  -0.5000000   0.1428571), wk =   0.0380952
        k(   31) = (   0.2000000  -0.5000000   0.2857143), wk =   0.0380952
        k(   32) = (   0.2000000  -0.5000000   0.4285714), wk =   0.0380952
        k(   33) = (   0.4000000   0.0000000   0.0000000), wk =   0.0190476
        k(   34) = (   0.4000000   0.0000000   0.1428571), wk =   0.0380952
        k(   35) = (   0.4000000   0.0000000   0.2857143), wk =   0.0380952
        k(   36) = (   0.4000000   0.0000000   0.4285714), wk =   0.0380952
        k(   37) = (   0.4000000   0.1666667   0.0000000), wk =   0.0380952
        k(   38) = (   0.4000000   0.1666667   0.1428571), wk =   0.0761905
        k(   39) = (   0.4000000   0.1666667   0.2857143), wk =   0.0761905
        k(   40) = (   0.4000000   0.1666667   0.4285714), wk =   0.0761905
        k(   41) = (   0.4000000   0.3333333   0.0000000), wk =   0.0380952
        k(   42) = (   0.4000000   0.3333333   0.1428571), wk =   0.0761905
        k(   43) = (   0.4000000   0.3333333   0.2857143), wk =   0.0761905
        k(   44) = (   0.4000000   0.3333333   0.4285714), wk =   0.0761905
        k(   45) = (   0.4000000  -0.5000000   0.0000000), wk =   0.0190476
        k(   46) = (   0.4000000  -0.5000000   0.1428571), wk =   0.0380952
        k(   47) = (   0.4000000  -0.5000000   0.2857143), wk =   0.0380952
        k(   48) = (   0.4000000  -0.5000000   0.4285714), wk =   0.0380952

     Dense  grid:    21247 G-vectors     FFT dimensions: (  36,  36,  36)

     Largest allocated arrays     est. size (Mb)     dimensions
        Kohn-Sham Wavefunctions         1.08 Mb     (    683,  104)
        NL pseudopotentials             1.67 Mb     (    683,  160)
        Each V/rho on FFT grid          0.18 Mb     (  11664)
        Each G-vector array             0.04 Mb     (   5314)
        G-vector shells                 0.04 Mb     (   5314)
     Largest temporary arrays     est. size (Mb)     dimensions
        Each subspace H/S matrix        0.17 Mb     ( 104, 104)
        Each <psi_i|beta_j> matrix      0.25 Mb     (    160,  104)
        Arrays for rho mixing           1.42 Mb     (  11664,   8)

     Initial potential from superposition of free atoms

     Starting from uniform charge
     Starting wfc are    0 randomized atomic wfcs

     total cpu time spent up to now is        4.1 secs

     Self-consistent Calculation

     iteration #  1     ecut=    40.00 Ry     beta=0.70
     CG style diagonalization
     c_bands:  5 eigenvalues not converged
     c_bands:  3 eigenvalues not converged
     c_bands:  3 eigenvalues not converged
     c_bands:  2 eigenvalues not converged
     c_bands:  2 eigenvalues not converged
     c_bands:  1 eigenvalues not converged
     c_bands:  1 eigenvalues not converged
     c_bands:  1 eigenvalues not converged
     c_bands:  2 eigenvalues not converged
     c_bands:  4 eigenvalues not converged
     c_bands:  3 eigenvalues not converged
     c_bands:  4 eigenvalues not converged
     c_bands:  4 eigenvalues not converged
     c_bands:  1 eigenvalues not converged
     c_bands:  1 eigenvalues not converged
     c_bands:  3 eigenvalues not converged
     c_bands:  2 eigenvalues not converged
     c_bands:  3 eigenvalues not converged
     c_bands:  1 eigenvalues not converged
     c_bands:  2 eigenvalues not converged
     c_bands:  2 eigenvalues not converged
     c_bands:  2 eigenvalues not converged
     c_bands:  2 eigenvalues not converged
     c_bands:  5 eigenvalues not converged
     c_bands:  2 eigenvalues not converged
     c_bands:  3 eigenvalues not converged
     c_bands:  5 eigenvalues not converged
     c_bands:  1 eigenvalues not converged
     c_bands:  1 eigenvalues not converged
     c_bands:  4 eigenvalues not converged
     c_bands:  1 eigenvalues not converged
     c_bands:  2 eigenvalues not converged
     c_bands:  2 eigenvalues not converged
     c_bands:  1 eigenvalues not converged
     c_bands:  4 eigenvalues not converged
     c_bands:  3 eigenvalues not converged
     c_bands:  1 eigenvalues not converged
     ethr =  1.00E-02,  avg # of iterations = 13.6

     total cpu time spent up to now is       72.4 secs

     total energy              =   -2204.34748667 Ry
     Harris-Foulkes estimate   =   -3058.73816239 Ry
     estimated scf accuracy    <    1062.21786650 Ry

     iteration #  2     ecut=    40.00 Ry     beta=0.70
     CG style diagonalization
     c_bands:  1 eigenvalues not converged
     c_bands:  3 eigenvalues not converged
     c_bands:  1 eigenvalues not converged
     c_bands:  5 eigenvalues not converged
     c_bands:  1 eigenvalues not converged
     c_bands:  1 eigenvalues not converged
     c_bands:  2 eigenvalues not converged
     c_bands:  2 eigenvalues not converged
     c_bands:  2 eigenvalues not converged
     c_bands:  3 eigenvalues not converged
     c_bands:  3 eigenvalues not converged
     c_bands:  1 eigenvalues not converged
     c_bands:  3 eigenvalues not converged
     c_bands:  5 eigenvalues not converged
     c_bands:  1 eigenvalues not converged
     ethr =  1.00E-02,  avg # of iterations = 12.5

     total cpu time spent up to now is      132.1 secs

     total energy              =   -2328.88486652 Ry
     Harris-Foulkes estimate   =   -2794.58267896 Ry
     estimated scf accuracy    <     799.06024053 Ry

     iteration #  3     ecut=    40.00 Ry     beta=0.70
     CG style diagonalization
     c_bands:  1 eigenvalues not converged
     c_bands:  1 eigenvalues not converged
     c_bands:  1 eigenvalues not converged
     c_bands:  1 eigenvalues not converged
     ethr =  1.00E-02,  avg # of iterations =  8.9

     total cpu time spent up to now is      176.2 secs

     total energy              =   -2579.85851255 Ry
     Harris-Foulkes estimate   =   -2639.70471865 Ry
     estimated scf accuracy    <     127.13275754 Ry

     iteration #  4     ecut=    40.00 Ry     beta=0.70
     CG style diagonalization
     ethr =  1.00E-02,  avg # of iterations =  4.7

     total cpu time spent up to now is      198.3 secs

     total energy              =   -2595.40954676 Ry
     Harris-Foulkes estimate   =   -2597.04426885 Ry
     estimated scf accuracy    <       4.04596450 Ry

     iteration #  5     ecut=    40.00 Ry     beta=0.70
     CG style diagonalization
     ethr =  2.33E-03,  avg # of iterations =  3.8

     total cpu time spent up to now is      216.9 secs

     total energy              =   -2595.68320188 Ry
     Harris-Foulkes estimate   =   -2596.02049633 Ry
     estimated scf accuracy    <       0.53548886 Ry

     iteration #  6     ecut=    40.00 Ry     beta=0.70
     CG style diagonalization
     c_bands:  1 eigenvalues not converged
     c_bands:  1 eigenvalues not converged
     c_bands:  1 eigenvalues not converged
     c_bands:  1 eigenvalues not converged
     c_bands:  1 eigenvalues not converged
     c_bands:  1 eigenvalues not converged
     ethr =  3.08E-04,  avg # of iterations =  4.3

     total cpu time spent up to now is      237.9 secs

     total energy              =   -2595.87734897 Ry
     Harris-Foulkes estimate   =   -2595.93206938 Ry
     estimated scf accuracy    <       0.11188283 Ry

     iteration #  7     ecut=    40.00 Ry     beta=0.70
     CG style diagonalization
     c_bands:  1 eigenvalues not converged
     c_bands:  1 eigenvalues not converged
     c_bands:  1 eigenvalues not converged
     c_bands:  1 eigenvalues not converged
     c_bands:  1 eigenvalues not converged
     c_bands:  1 eigenvalues not converged
     c_bands:  1 eigenvalues not converged
     ethr =  6.43E-05,  avg # of iterations =  3.6

     total cpu time spent up to now is      254.6 secs

     total energy              =   -2595.89855819 Ry
     Harris-Foulkes estimate   =   -2595.90001925 Ry
     estimated scf accuracy    <       0.00200414 Ry

     iteration #  8     ecut=    40.00 Ry     beta=0.70
     CG style diagonalization
     c_bands:  2 eigenvalues not converged
     c_bands:  1 eigenvalues not converged
     c_bands:  1 eigenvalues not converged
     c_bands:  1 eigenvalues not converged
     c_bands:  1 eigenvalues not converged
     c_bands:  1 eigenvalues not converged
     c_bands:  1 eigenvalues not converged
     c_bands:  1 eigenvalues not converged
     ethr =  1.15E-06,  avg # of iterations =  5.1

     total cpu time spent up to now is      278.7 secs

     total energy              =   -2595.90025668 Ry
     Harris-Foulkes estimate   =   -2595.90116474 Ry
     estimated scf accuracy    <       0.00216305 Ry

     iteration #  9     ecut=    40.00 Ry     beta=0.70
     CG style diagonalization
     c_bands:  1 eigenvalues not converged
     c_bands:  1 eigenvalues not converged
     ethr =  1.15E-06,  avg # of iterations =  3.3

     total cpu time spent up to now is      294.8 secs

     total energy              =   -2595.90047086 Ry
     Harris-Foulkes estimate   =   -2595.90053611 Ry
     estimated scf accuracy    <       0.00013980 Ry

     iteration # 10     ecut=    40.00 Ry     beta=0.70
     CG style diagonalization
     ethr =  8.03E-08,  avg # of iterations =  3.7

     total cpu time spent up to now is      312.6 secs

     End of self-consistent calculation

          k = 0.0000 0.0000 0.0000 (  2601 PWs)   bands (ev):

   -61.2697 -61.2697 -61.1438 -60.8722 -60.8722 -60.8722 -21.5867 -21.5499
   -21.5499 -20.6237 -20.4758 -20.1828 -20.1828 -20.1828 -19.8477 -19.8477
   -19.8477 -19.7633 -19.7633 -19.7633 -19.6844 -19.6844 -19.6844 -19.4116
   -19.4116 -19.4116   7.6336   7.6336   7.6336   7.6449   7.6449   7.6449
    23.1350  23.1350  23.1535  24.7898  24.7898  24.7898  26.5828  26.7692
    26.7692  26.7692  27.4291  27.4291  27.5102  27.5102  27.5102  27.6655
    29.0547  29.0547  29.0547  29.0859  30.0086  30.0086  30.1401  30.1401
    30.1401  30.1724  30.1724  30.1724  31.0151  31.0151  31.0151  35.5194
    35.5194  40.5607  40.5607  40.8971  40.8971  40.8971  40.9200  40.9200
    40.9200  41.3149  41.3149  41.3149  45.9457  48.2284  48.2284  48.4549
    48.4549  48.4549  51.5190  51.5190  51.5190  51.5581  51.5581  51.8825
    54.7929  54.7929  54.7929  54.9798  54.9798  54.9798  55.0888  55.3231
    55.3231  55.3231  56.4761  56.4762  56.4762  58.2185  60.3994  60.3971

          k = 0.0000 0.0000 0.1429 (  2657 PWs)   bands (ev):

   -61.2829 -61.2440 -61.1692 -60.9952 -60.9718 -60.9718 -21.6051 -21.5854
   -21.5137 -20.6633 -20.5257 -20.1825 -20.1825 -20.1238 -19.8736 -19.8736
   -19.8160 -19.8032 -19.7969 -19.7969 -19.7354 -19.7354 -19.7296 -19.5200
   -19.4276 -19.4276   7.6084   7.6179   7.6179   7.6372   7.6464   7.6464
    23.1379  23.1553  23.5108  24.7220  24.8764  24.8764  26.4971  26.6408
    26.7615  26.7615  27.4550  27.4804  27.4804  27.5008  27.5228  27.8153
    28.9869  29.0237  29.0237  29.3317  29.7748  29.8411  29.8532  29.8532
    30.1622  30.1622  30.2705  30.3451  30.6386  31.1488  31.1488  35.4498
    35.6794  40.0518  40.0518  40.1577  40.3337  40.8769  40.9539  40.9637
    41.0191  41.0191  42.3919  42.3919  46.3059  47.7754  47.8917  48.7386
    48.7386  48.9489  49.8996  51.6321  51.6321  51.8732  52.5941  52.9213
    53.2026  53.2026  54.5929  54.5929  54.7839  55.1059  55.2327  55.9308
    56.2765  56.2766  56.3966  56.8642  56.8643  58.0104  59.5237  60.7109

          k = 0.0000 0.0000 0.2857 (  2677 PWs)   bands (ev):

   -61.2840 -61.2350 -61.2209 -61.0306 -60.9896 -60.9896 -21.6057 -21.5851
   -21.2504 -20.7273 -20.5951 -20.1690 -20.1690 -20.0106 -19.9023 -19.9023
   -19.8989 -19.7941 -19.7874 -19.7874 -19.7873 -19.7585 -19.7585 -19.7463
   -19.4386 -19.4386   7.5927   7.6081   7.6223   7.6223   7.6528   7.6528
    23.1496  23.1671  24.5567  24.6752  25.0923  25.0923  25.9176  26.7605
    26.7605  26.8167  27.4462  27.4684  27.4684  27.5230  27.6438  28.1179
    28.8342  28.9565  28.9565  29.1957  29.1957  29.5141  29.5802  29.6223
    30.1165  30.1947  30.1947  30.4113  30.4892  31.3700  31.3700  34.7033
    36.1023  38.9165  39.2612  39.2612  39.9061  41.0729  41.0882  41.2478
    41.2478  41.6554  43.9559  43.9559  45.8983  46.2186  47.8096  48.8543
    49.4741  49.4741  50.6985  50.6985  50.7816  52.2653  52.7666  52.7666
    53.4752  53.4752  53.7260  53.9261  54.5321  55.4441  55.5658  55.9585
    56.4759  56.4759  57.1980  57.9628  58.2448  58.2449  58.8123  60.4161

          k = 0.0000 0.0000 0.4286 (  2658 PWs)   bands (ev):

   -61.2478 -61.2284 -61.1407 -61.0753 -60.9751 -60.9751 -21.5974 -21.5904
   -20.9177 -20.7708 -20.5675 -20.2649 -20.1596 -20.1596 -19.9011 -19.9011
   -19.8821 -19.8258 -19.7768 -19.7768 -19.7751 -19.7562 -19.7447 -19.7447
   -19.4333 -19.4333   7.5886   7.6003   7.6273   7.6273   7.6617   7.6617
    23.1670  23.1746  24.8381  25.2479  25.2776  25.2776  26.1793  26.7426
    26.7426  27.0630  27.2982  27.5763  27.6824  27.7075  27.7075  27.9656
    28.3577  28.3577  28.4558  28.6454  29.0225  29.0225  29.3938  29.4500
    30.2304  30.2304  30.5066  30.5378  31.4485  31.5114  31.5114  33.1124
    36.7571  37.6916  38.8165  38.8165  40.8677  41.1743  41.1851  41.4084
    41.4084  42.0003  44.8586  45.1815  45.7326  45.7326  47.9864  48.3424
    48.4195  48.4195  50.9883  50.9883  52.3046  52.3046  52.6624  53.0573
    53.0959  53.0959  53.8965  54.0137  54.6233  55.1729  55.2783  55.3654
    56.6850  56.6851  58.5110  58.5201  59.1157  59.4271  59.5168  59.5168

          k = 0.0000 0.1667 0.0000 (  2653 PWs)   bands (ev):

   -61.2683 -61.2375 -61.1630 -61.0002 -60.9728 -60.9728 -21.6048 -21.5848
   -21.4803 -20.6708 -20.5365 -20.1761 -20.1761 -20.0965 -19.8779 -19.8779
   -19.8163 -19.8018 -19.7919 -19.7919 -19.7377 -19.7377 -19.7314 -19.5504
   -19.4252 -19.4252   7.6084   7.6200   7.6200   7.6349   7.6476   7.6476
    23.1403  23.1578  23.6421  24.7068  24.9069  24.9069  26.4133  26.6630
    26.7612  26.7612  27.4649  27.4732  27.4732  27.4963  27.5472  27.8620
    28.9661  29.0163  29.0163  29.4249  29.7267  29.7577  29.7577  29.8047
    30.1669  30.1669  30.2965  30.3755  30.5073  31.1865  31.1865  35.3993
    35.7344  39.9027  39.9027  40.0280  40.1190  40.9739  40.9793  40.9871
    41.0557  41.0557  42.6295  42.6295  46.2976  47.5906  47.8547  48.8472
    48.8472  49.1932  49.6636  51.6144  51.6144  51.9079  52.8391  52.9831
    52.9831  53.1206  54.4194  54.4194  54.7342  55.1562  55.3402  56.1238
    56.3483  56.3484  56.3655  57.0691  57.0691  57.9653  59.3797  60.8337

          k = 0.0000 0.1667 0.1429 (  2662 PWs)   bands (ev):

   -61.2535 -61.2359 -61.2106 -60.9965 -60.9940 -60.9780 -21.5998 -21.5094
   -21.4723 -20.7036 -20.5701 -20.1668 -20.1522 -20.0767 -19.8945 -19.8582
   -19.8345 -19.8096 -19.7940 -19.7740 -19.7567 -19.7463 -19.7194 -19.5732
   -19.5372 -19.4285   7.6066   7.6141   7.6230   7.6355   7.6397   7.6505
    23.1538  23.5180  23.6470  24.7924  24.8573  25.0056  26.4329  26.5337
    26.7141  26.7775  27.2830  27.3769  27.5711  27.5796  27.6555  28.0015
    28.8377  28.9618  29.0466  29.4430  29.4706  29.7204  29.8640  29.9279
    29.9344  30.1088  30.1690  30.4014  30.5389  30.9364  31.2872  35.5175
    35.7372  39.3464  39.4852  39.6154  40.3706  40.8690  40.9796  41.0272
    41.3393  41.7573  42.1043  43.0616  46.6785  47.5469  47.9124  48.4146
    48.7148  49.1225  50.4019  51.1214  51.3053  52.0180  52.8088  53.2194
    53.3105  53.6494  54.2669  54.3369  55.0077  55.4313  55.5991  55.6211
    55.8427  56.4782  56.8193  57.2205  57.2937  57.8431  59.4072  60.2674

          k = 0.0000 0.1667 0.2857 (  2666 PWs)   bands (ev):

   -61.2526 -61.2294 -61.1928 -61.0351 -61.0018 -60.9829 -21.5984 -21.4727
   -21.2489 -20.7564 -20.6319 -20.1488 -20.1281 -19.9863 -19.9125 -19.8898
   -19.8665 -19.8148 -19.7912 -19.7737 -19.7658 -19.7608 -19.7577 -19.7244
   -19.5809 -19.4313   7.5964   7.6169   7.6191   7.6334   7.6422   7.6525
    23.1669  23.6572  24.5612  24.7981  25.0258  25.2454  25.9890  26.5451
    26.7536  26.8666  27.2050  27.2717  27.6326  27.6737  27.7541  28.2842
    28.7162  28.8388  28.8943  28.9852  29.1366  29.5239  29.5613  29.6605
    29.9199  30.1197  30.1992  30.4901  30.5721  30.9092  31.4415  34.9468
    36.0121  38.5069  38.8466  39.1421  40.3720  41.0449  41.2188  41.2437
    41.6819  41.7729  43.0250  44.2345  46.0003  46.4729  47.1340  48.7457
    49.6906  49.8213  50.1686  50.5555  51.3798  52.6286  53.1392  53.2273
    53.2565  53.5773  54.1863  54.6618  54.7986  55.3914  55.4572  56.0050
    56.1600  56.8270  57.1793  57.4506  57.8979  58.2869  59.0744  60.1258

          k = 0.0000 0.1667 0.4286 (  2658 PWs)   bands (ev):

   -61.2343 -61.2198 -61.1376 -61.0707 -60.9943 -60.9920 -21.5991 -21.4692
   -20.9209 -20.7987 -20.5945 -20.2701 -20.1339 -20.1047 -19.9172 -19.8893
   -19.8655 -19.8306 -19.8110 -19.7914 -19.7635 -19.7506 -19.7499 -19.7344
   -19.5833 -19.4219   7.5896   7.6057   7.6204   7.6370   7.6530   7.6619
    23.1798  23.6668  24.9341  25.2025  25.3661  25.4560  26.1650  26.6752
    26.7081  27.0428  27.2604  27.3115  27.5587  27.8050  27.8860  27.9826
    28.3445  28.3927  28.5696  28.6961  28.7378  29.0146  29.2571  29.6095
    29.8190  30.1614  30.2672  30.5246  30.9799  31.5346  31.8291  33.4161
    36.6054  37.4693  38.8379  38.9185  40.8379  41.1068  41.3289  41.3939
    41.8587  42.0102  44.1894  44.8867  45.5598  45.8086  46.4934  48.1444
    49.0094  50.0100  50.9577  51.0846  52.0063  52.3093  53.0547  53.2270
    53.5335  53.6695  54.1325  54.5467  54.6827  55.2770  55.4908  55.6406
    56.6042  57.3336  57.3602  58.2109  58.2598  58.8693  59.3714  59.9268

          k = 0.0000 0.3333 0.0000 (  2677 PWs)   bands (ev):

   -61.2833 -61.2623 -61.1758 -61.0776 -60.9744 -60.9744 -21.5985 -21.5871
   -21.1509 -20.7427 -20.6127 -20.1687 -20.1687 -19.9997 -19.9654 -19.9061
   -19.9061 -19.8014 -19.7880 -19.7877 -19.7877 -19.7555 -19.7555 -19.7431
   -19.4471 -19.4471   7.5876   7.6076   7.6231   7.6231   7.6540   7.6540
    23.1549  23.1699  24.7016  25.0146  25.1665  25.1665  25.7227  26.7569
    26.7569  26.8944  27.4094  27.5084  27.5084  27.5502  27.6685  28.2115
    28.7735  28.8270  28.8270  29.0604  29.0604  29.1047  29.4534  29.5558
    30.2072  30.2072  30.4488  30.5105  30.5148  31.4296  31.4296  34.2224
    36.2938  38.4829  39.0679  39.0679  40.1074  41.1119  41.1302  41.3154
    41.3154  41.9012  44.5458  44.5458  45.6223  45.6688  47.8417  48.6512
    49.4583  49.4583  50.4442  50.4442  51.4572  52.4993  52.8264  52.8264
    53.1471  53.1471  53.9032  54.1056  54.5168  55.4821  55.4825  55.7011
    56.5572  56.5572  57.5965  58.0430  58.7055  58.7056  58.8157  60.1260

          k = 0.0000 0.3333 0.1429 (  2660 PWs)   bands (ev):

   -61.2385 -61.2171 -61.1747 -61.0446 -60.9983 -60.9864 -21.5995 -21.5095
   -21.1346 -20.7628 -20.6321 -20.1461 -20.1290 -19.9971 -19.9432 -19.9115
   -19.8760 -19.8132 -19.7901 -19.7831 -19.7670 -19.7556 -19.7525 -19.7300
   -19.5402 -19.4240   7.5923   7.6154   7.6214   7.6341   7.6473   7.6565
    23.1701  23.5320  24.7910  25.0141  25.1163  25.2874  25.7832  26.6454
    26.7416  26.9238  27.2332  27.2819  27.6442  27.6974  27.7437  28.3235
    28.6977  28.7489  28.7795  28.8737  29.0426  29.2005  29.4287  29.6072
    29.9146  30.1955  30.2478  30.5044  30.8359  31.0757  31.4710  34.4234
    36.2400  38.2446  38.8763  39.0252  40.3679  41.0716  41.2460  41.2668
    41.6628  41.9249  43.5912  44.6875  45.5675  46.1871  47.1330  48.7713
    49.3499  49.8218  50.3458  50.5599  51.6902  52.7717  53.0535  53.1333
    53.1657  53.2528  54.1455  54.6547  54.8915  55.3035  55.3961  55.8124
    56.3445  57.1296  57.3809  57.5218  58.1451  58.5712  59.0695  60.1400

          k = 0.0000 0.3333 0.2857 (  2658 PWs)   bands (ev):

   -61.2234 -61.1916 -61.1650 -61.0440 -61.0289 -61.0018 -21.5948 -21.2454
   -21.1299 -20.8050 -20.6793 -20.1171 -20.0667 -20.0035 -19.9377 -19.9249
   -19.8726 -19.8551 -19.7999 -19.7915 -19.7682 -19.7620 -19.7584 -19.7520
   -19.7255 -19.4245   7.5899   7.6119   7.6179   7.6411   7.6469   7.6565
    23.1859  24.5608  24.9785  24.9893  25.0811  25.6019  26.0244  26.2932
    26.5860  26.9711  27.1275  27.3853  27.5121  27.8026  27.9188  28.4090
    28.5241  28.5712  28.5971  28.6316  28.9826  29.1964  29.3015  29.5825
    29.6537  29.7854  30.1038  30.2283  30.5084  31.5311  31.5789  34.8719
    35.5742  37.4903  38.9407  39.0772  40.9771  41.0834  41.4257  41.5517
    41.8153  42.2955  43.0620  45.1103  45.1392  45.5259  45.7509  48.5549
    49.5751  50.6912  50.9432  51.3982  51.7517  52.7283  53.0410  53.2889
    53.7049  54.0700  54.5773  54.7976  55.1227  55.1511  55.5163  55.6701
    56.3587  56.9238  57.3742  57.7145  58.1262  58.8056  59.4415  59.9704

          k = 0.0000 0.3333 0.4286 (  2654 PWs)   bands (ev):

   -61.2176 -61.1705 -61.1423 -61.0679 -61.0408 -60.9895 -21.5878 -21.1284
   -20.9463 -20.8129 -20.6389 -20.2801 -20.0951 -20.0143 -19.9993 -19.9428
   -19.8989 -19.8615 -19.8287 -19.7961 -19.7719 -19.7527 -19.7447 -19.7391
   -19.7291 -19.4349   7.5859   7.6098   7.6189   7.6413   7.6514   7.6595
    23.1981  24.9656  25.0813  25.0968  25.8232  25.9151  26.1849  26.4199
    26.5455  27.0057  27.1514  27.2582  27.6048  27.8484  27.9123  27.9674
    28.1511  28.1837  28.4849  28.6802  28.8680  28.9069  28.9693  29.3648
    29.4148  29.6112  29.8848  30.2653  30.4578  31.5598  32.6897  34.0485
    35.7240  36.5997  38.8825  39.8636  41.0479  41.1119  41.6293  41.8279
    41.8974  42.7393  43.5131  44.3633  44.5194  44.8239  45.9886  47.3424
    50.2991  51.3968  51.4504  51.9616  52.1460  52.6144  52.7497  53.5534
    53.6486  54.3636  54.4462  55.0705  55.1701  55.2873  55.3198  56.1959
    56.2631  57.1121  57.3874  58.1832  58.6041  58.9886  59.3887  59.7027

          k = 0.0000-0.5000 0.0000 (  2666 PWs)   bands (ev):

   -61.2495 -61.2495 -61.1143 -61.1143 -60.9784 -60.9784 -21.5990 -21.5990
   -20.8160 -20.8160 -20.4564 -20.4564 -20.1585 -20.1585 -19.9037 -19.9037
   -19.8586 -19.8586 -19.7888 -19.7888 -19.7672 -19.7672 -19.7399 -19.7399
   -19.4341 -19.4341   7.5901   7.5901   7.6258   7.6258   7.6615   7.6615
    23.1712  23.1712  25.0177  25.0177  25.3050  25.3050  26.7353  26.7353
    27.0321  27.0321  27.1872  27.1872  27.6782  27.6782  27.8796  27.8796
    28.1146  28.1146  28.5439  28.5439  29.0211  29.0211  29.4017  29.4017
    30.2361  30.2361  30.5314  30.5314  31.5305  31.5305  32.2530  32.2530
    37.1851  37.1851  38.7573  38.7573  41.1945  41.1945  41.4289  41.4289
    41.5380  41.5380  44.8711  44.8711  46.2469  46.2469  47.8930  47.8930
    48.1427  48.1427  51.3840  51.3840  51.9071  51.9071  53.1130  53.1130
    53.2943  53.2943  53.6872  53.6872  54.8441  54.8441  55.2743  55.2743
    56.7038  56.7038  58.9378  58.9378  59.0376  59.0377  59.8608  59.8610

          k = 0.0000-0.5000 0.1429 (  2666 PWs)   bands (ev):

   -61.2425 -61.2423 -61.1159 -61.1128 -60.9909 -60.9859 -21.5958 -21.5029
   -20.8426 -20.8208 -20.4763 -20.4644 -20.1377 -20.1187 -19.9129 -19.8942
   -19.8484 -19.8425 -19.8277 -19.7897 -19.7653 -19.7545 -19.7518 -19.7350
   -19.5500 -19.4300   7.5898   7.5972   7.6210   7.6347   7.6552   7.6629
    23.1778  23.5381  25.0221  25.1755  25.2477  25.4402  26.6725  26.6858
    27.0292  27.0453  27.0910  27.2963  27.4145  27.6497  27.8484  28.0351
    28.0762  28.2473  28.6096  28.6130  28.7796  29.0049  29.2681  29.5659
    29.9106  30.2166  30.3096  30.5296  31.1273  31.5434  32.5084  32.5161
    36.9883  37.1480  38.7872  38.8537  41.0672  41.1227  41.3639  41.5830
    41.6793  41.7777  44.5846  44.8377  45.4557  46.2903  46.6121  47.6980
    48.8203  49.7031  51.1333  51.5664  51.7762  51.8590  53.2253  53.4438
    53.4887  53.7499  53.8122  54.3228  54.5790  55.1906  55.4748  55.4972
    56.7635  57.2037  57.4951  58.3685  58.8315  59.0016  59.2287  60.0955

          k = 0.0000-0.5000 0.2857 (  2658 PWs)   bands (ev):

   -61.2139 -61.1901 -61.1114 -61.1082 -61.0242 -61.0015 -21.5948 -21.2318
   -20.8989 -20.8202 -20.4987 -20.4646 -20.1044 -20.0339 -19.9403 -19.8941
   -19.8878 -19.8400 -19.8245 -19.7878 -19.7804 -19.7536 -19.7497 -19.7428
   -19.7428 -19.4357   7.5872   7.6119   7.6130   7.6455   7.6463   7.6600
    23.1956  24.5655  25.0395  25.1335  25.6323  25.8108  26.4706  26.5868
    26.9347  26.9891  27.0679  27.1451  27.5624  27.6270  27.9436  27.9924
    28.0554  28.1270  28.5059  28.6707  28.8302  28.9331  28.9562  29.4053
    29.6501  29.8151  30.0585  30.2736  30.4780  31.5598  33.1116  33.1206
    36.2845  36.5775  38.8532  39.6975  40.8420  41.1093  41.6464  41.7462
    41.8995  42.5160  44.1661  44.1897  44.6154  45.0385  46.3553  47.1486
    50.0659  51.1622  51.5954  51.6932  52.0437  52.0765  52.9353  53.7312
    53.9815  54.2698  54.2861  54.7466  54.9544  55.2484  55.4465  55.9346
    56.6101  56.7631  57.9696  58.1461  58.2038  59.1816  59.2191  60.0238

          k = 0.0000-0.5000 0.4286 (  2662 PWs)   bands (ev):

   -61.2362 -61.1520 -61.1188 -61.1120 -61.0681 -60.9846 -21.5753 -20.9776
   -20.9458 -20.7036 -20.5190 -20.4694 -20.2845 -20.0624 -19.9617 -19.9507
   -19.9463 -19.8578 -19.8536 -19.8233 -19.7588 -19.7533 -19.7399 -19.7301
   -19.7246 -19.4440   7.5775   7.6046   7.6189   7.6370   7.6587   7.6602
    23.2062  25.0367  25.0514  25.9579  26.2563  26.2876  26.2911  26.5942
    26.7656  26.8328  27.0447  27.3742  27.4263  27.5218  27.5554  27.7993
    27.9603  28.2799  28.5671  28.6777  28.6994  28.7216  28.7836  28.8541
    28.9294  29.3951  30.0633  30.2824  30.3405  31.5645  33.7905  33.7962
    35.4493  35.7800  38.9069  40.8522  41.0436  41.1275  41.8271  41.9173
    42.0514  43.2798  43.4139  43.7240  43.9853  44.0556  46.3654  46.4907
    51.0710  51.4239  51.8782  52.0743  52.6580  53.0788  53.3444  53.3991
    53.4555  53.6047  54.4046  54.4136  55.4150  55.9948  56.2765  56.4148
    56.6109  57.5543  57.5867  57.9002  58.9038  59.0003  59.0725  59.5087

          k = 0.2000 0.0000 0.0000 (  2661 PWs)   bands (ev):

   -61.2689 -61.2363 -61.2011 -61.0080 -60.9737 -60.9737 -21.6042 -21.5837
   -21.4258 -20.6894 -20.5528 -20.1739 -20.1739 -20.0705 -19.8891 -19.8891
   -19.8281 -19.7994 -19.7883 -19.7883 -19.7412 -19.7412 -19.7344 -19.6228
   -19.4340 -19.4340   7.6017   7.6195   7.6195   7.6313   7.6494   7.6494
    23.1424  23.1600  23.8567  24.6884  24.9547  24.9547  26.2838  26.6993
    26.7613  26.7613  27.4622  27.4622  27.4784  27.4873  27.5789  27.9322
    28.9332  29.0052  29.0052  29.5759  29.6075  29.6075  29.6611  29.7531
    30.1729  30.1729  30.2917  30.3314  30.4138  31.2401  31.2401  35.2842
    35.8220  39.7040  39.7040  39.7326  39.9555  41.0037  41.0043  41.1104
    41.1104  41.1603  42.9777  42.9777  46.2300  47.2673  47.8143  49.0120
    49.0120  49.3750  49.5957  51.4863  51.4863  51.9740  52.7788  52.7788
    53.1469  53.3814  54.1606  54.1606  54.6656  55.2281  55.4621  56.2961
    56.3992  56.3992  56.4139  57.3916  57.3916  57.9220  59.1659  60.9332

          k = 0.2000 0.0000 0.1429 (  2667 PWs)   bands (ev):

   -61.2555 -61.2325 -61.2210 -61.0079 -60.9910 -60.9895 -21.6021 -21.5050
   -21.4225 -20.7162 -20.5855 -20.1641 -20.1507 -20.0549 -19.9034 -19.8638
   -19.8338 -19.8103 -19.7932 -19.7773 -19.7634 -19.7456 -19.7225 -19.6398
   -19.5423 -19.4290   7.6059   7.6154   7.6252   7.6272   7.6390   7.6499
    23.1570  23.5203  23.8609  24.7787  24.9020  25.0569  26.3140  26.5458
    26.7390  26.7869  27.2518  27.3542  27.5915  27.6003  27.6762  28.0682
    28.8063  28.9389  29.0325  29.3447  29.4237  29.6865  29.8277  29.8330
    30.0078  30.1318  30.1727  30.3767  30.4278  30.9494  31.3285  35.4292
    35.8042  39.1640  39.2630  39.4846  40.3225  40.9877  40.9934  41.0654
    41.4158  41.6792  42.3865  43.3294  46.5907  47.2684  47.7557  48.4239
    49.0863  49.2841  50.3604  51.0396  51.1467  52.1488  52.8543  53.1647
    53.3589  53.8685  54.1896  54.2552  54.8341  55.4896  55.5491  55.7700
    56.1183  56.3926  56.8500  57.3172  57.5641  57.8288  59.2559  60.3375

          k = 0.2000 0.0000 0.2857 (  2659 PWs)   bands (ev):

   -61.2380 -61.2144 -61.1851 -61.0267 -61.0079 -60.9870 -21.5976 -21.4167
   -21.2437 -20.7660 -20.6413 -20.1417 -20.1150 -19.9754 -19.9202 -19.8866
   -19.8476 -19.8150 -19.7903 -19.7649 -19.7647 -19.7598 -19.7586 -19.7239
   -19.6366 -19.4271   7.5970   7.6163   7.6220   7.6387   7.6415   7.6522
    23.1713  23.8706  24.5626  24.8446  25.0085  25.3080  26.0251  26.4520
    26.7397  26.8720  27.2087  27.2404  27.6189  27.6998  27.7991  28.3474
    28.6925  28.7912  28.8420  28.9101  29.1074  29.5046  29.5237  29.6901
    29.8867  30.0029  30.2005  30.4997  30.7057  30.7380  31.4631  35.0484
    35.8984  38.3307  38.7927  39.1009  40.5249  41.0499  41.2515  41.2765
    41.8117  41.8168  42.8827  44.3611  45.9052  46.3933  46.8071  48.9044
    49.6408  49.9734  50.1073  50.7786  51.4067  52.6687  53.0979  53.3759
    53.4290  53.6478  54.3447  54.5912  54.9034  55.2875  55.5638  55.9995
    56.1392  56.8032  57.3538  57.4438  57.7750  58.3489  59.1757  59.9945

          k = 0.2000 0.0000 0.4286 (  2660 PWs)   bands (ev):

   -61.2248 -61.2222 -61.1387 -61.0773 -60.9984 -60.9977 -21.5985 -21.4161
   -20.9260 -20.8052 -20.6090 -20.2724 -20.1272 -20.0889 -19.9234 -19.8848
   -19.8597 -19.8441 -19.8141 -19.7946 -19.7630 -19.7506 -19.7481 -19.7303
   -19.6449 -19.4211   7.5903   7.6071   7.6161   7.6399   7.6495   7.6612
    23.1829  23.8786  24.9614  25.1771  25.4304  25.5309  26.1607  26.6323
    26.6873  27.0431  27.1850  27.3609  27.5029  27.8231  27.9200  27.9977
    28.3326  28.3650  28.6075  28.6593  28.7297  29.0032  29.1958  29.6621
    29.6907  30.0412  30.2590  30.5193  30.7619  31.5413  31.9694  33.5327
    36.4841  37.3360  38.8461  39.0413  40.8206  41.1016  41.3741  41.4758
    42.0031  42.0181  44.0114  44.8155  45.3917  45.8387  46.1194  48.0220
    49.2721  50.4105  51.0193  51.1333  51.9859  52.3319  53.0762  53.2764
    53.7225  53.8685  54.2571  54.4327  54.7743  55.3377  55.5556  55.7425
    56.4497  57.1744  57.5502  58.0836  58.2376  58.7889  59.3755  59.8705

          k = 0.2000 0.1667 0.0000 (  2672 PWs)   bands (ev):

   -61.2603 -61.2351 -61.2163 -61.0173 -61.0092 -60.9898 -21.6046 -21.4825
   -21.4204 -20.7250 -20.5969 -20.1583 -20.1467 -20.0447 -19.9087 -19.8571
   -19.8364 -19.8147 -19.7918 -19.7810 -19.7648 -19.7603 -19.7223 -19.6434
   -19.5778 -19.4335   7.6034   7.6151   7.6280   7.6283   7.6342   7.6459
    23.1583  23.6507  23.8631  24.8065  24.8912  25.0910  26.3250  26.4741
    26.7499  26.7938  27.2247  27.3351  27.6062  27.6091  27.7024  28.1111
    28.7822  28.9171  29.0249  29.2844  29.3812  29.6696  29.8103  29.8423
    30.0672  30.0684  30.1741  30.3637  30.4411  30.8664  31.3518  35.4699
    35.7744  39.0452  39.1278  39.4207  40.3923  40.9822  40.9998  41.0908
    41.4897  41.7880  42.3098  43.4552  46.5703  47.1601  47.6332  48.5276
    49.0888  49.3822  50.4735  50.8647  51.1212  52.2061  52.9289  53.2393
    53.3313  54.0362  54.1855  54.2688  54.8028  55.3658  55.6541  55.8874
    56.0775  56.3263  56.9200  57.3199  57.6464  57.7894  59.2671  60.2950

          k = 0.2000 0.1667 0.1429 (  2665 PWs)   bands (ev):

   -61.2432 -61.2304 -61.2166 -61.0137 -61.0080 -60.9778 -21.5101 -21.4667
   -21.4151 -20.7488 -20.6249 -20.1442 -20.1387 -20.0253 -19.8762 -19.8609
   -19.8504 -19.7866 -19.7851 -19.7798 -19.7762 -19.7487 -19.7338 -19.6403
   -19.5809 -19.5376   7.6074   7.6193   7.6225   7.6317   7.6375   7.6417
    23.5273  23.6562  23.8677  24.9055  24.9946  25.0479  26.3595  26.4981
    26.5795  26.8174  27.1820  27.2332  27.6372  27.6541  27.7478  28.2297
    28.6784  28.6818  29.1321  29.2789  29.3717  29.6433  29.7005  29.7993
    29.8848  30.0619  30.1567  30.4262  30.4924  30.9262  31.0758  35.6304
    35.8329  38.4342  39.1110  39.3224  40.5465  40.6782  41.1393  41.3954
    41.4467  42.2271  42.4895  42.8071  47.1563  47.3711  47.6627  48.6343
    48.6595  48.9680  49.1192  51.7073  52.2238  52.3964  53.0964  53.2620
    53.3084  53.8143  54.1775  54.5641  55.4158  55.4645  55.5990  55.7016
    56.1133  56.2867  56.6637  57.6006  57.6840  58.2128  59.4453  60.3353

          k = 0.2000 0.1667 0.2857 (  2655 PWs)   bands (ev):

   -61.2220 -61.2054 -61.1761 -61.0328 -61.0000 -60.9950 -21.4679 -21.4073
   -21.2402 -20.7952 -20.6756 -20.1188 -20.1038 -19.9597 -19.8856 -19.8728
   -19.8608 -19.8052 -19.7972 -19.7716 -19.7691 -19.7602 -19.7443 -19.7338
   -19.6332 -19.5750   7.6028   7.6221   7.6248   7.6277   7.6415   7.6494
    23.6692  23.8787  24.5696  24.9922  25.1677  25.2555  26.0777  26.4878
    26.6073  26.8941  27.0517  27.1876  27.6195  27.7229  27.8518  28.4073
    28.4637  28.4904  28.9890  29.1159  29.1397  29.4597  29.4697  29.5158
    29.8075  29.9795  30.0085  30.1456  30.7550  31.0221  31.2162  35.3228
    36.0656  37.9476  38.4151  39.0372  40.7768  40.8738  41.3627  41.4947
    41.8068  42.2931  42.9389  43.2945  46.1548  46.6610  47.5083  47.7733
    48.9930  49.2164  49.9592  52.0811  52.7813  53.0053  53.1990  53.3049
    53.4549  53.6207  54.0802  54.6918  55.4361  55.7542  55.8570  56.1241
    56.2409  56.7074  57.1087  57.5088  57.6693  58.9107  59.3900  59.7670

          k = 0.2000 0.1667 0.4286 (  2655 PWs)   bands (ev):

   -61.2157 -61.2103 -61.1274 -61.0814 -61.0028 -60.9889 -21.4597 -21.4056
   -20.9275 -20.8354 -20.6320 -20.2818 -20.0957 -20.0854 -19.9021 -19.8903
   -19.8528 -19.8257 -19.8036 -19.7891 -19.7615 -19.7574 -19.7422 -19.7341
   -19.6384 -19.5787   7.5994   7.6061   7.6252   7.6312   7.6516   7.6535
    23.6802  23.8887  25.1285  25.3707  25.4655  25.4883  26.1544  26.6727
    26.7894  26.9625  27.0191  27.2481  27.4156  27.6875  27.9767  27.9844
    28.1551  28.4008  28.6361  28.7627  28.8679  28.9699  29.2886  29.4197
    29.6882  29.8179  30.0468  30.1739  30.8039  31.0437  32.3993  33.8915
    36.6463  37.4338  38.3304  38.7745  41.0662  41.2311  41.3499  41.7194
    42.0648  42.0957  43.9790  44.2039  45.0071  45.6661  46.6889  47.0089
    49.5612  49.7623  51.2111  51.9404  52.3323  52.4058  53.6305  53.6376
    53.9146  54.0593  54.6115  54.8341  54.9401  55.5872  55.8099  55.9784
    56.7174  56.8801  57.2327  57.7039  58.2223  59.1846  59.2633  59.5401

          k = 0.2000 0.3333 0.0000 (  2656 PWs)   bands (ev):

   -61.2355 -61.2169 -61.1642 -61.0435 -60.9978 -60.9831 -21.5944 -21.4117
   -21.1330 -20.7821 -20.6499 -20.1368 -20.1049 -20.0001 -19.9369 -19.9204
   -19.8518 -19.8250 -19.7917 -19.7795 -19.7587 -19.7561 -19.7551 -19.7231
   -19.6393 -19.4272   7.5927   7.6159   7.6195   7.6389   7.6461   7.6571
    23.1760  23.8739  24.8639  25.0079  25.0916  25.3974  25.8512  26.5256
    26.7020  26.9272  27.2053  27.2553  27.6051  27.7404  27.8290  28.4213
    28.6427  28.6772  28.7199  28.7459  29.0348  29.2176  29.3768  29.6670
    29.7583  30.0213  30.2198  30.5117  30.7314  31.0932  31.4976  34.5937
    36.0713  37.9881  38.8600  38.9924  40.5822  41.0715  41.3008  41.3560
    41.9090  41.9149  43.2556  44.8268  45.4456  46.0877  46.5375  49.0660
    49.1235  50.1943  50.4100  50.8454  51.7331  52.7875  53.0412  53.1882
    53.5402  53.5587  54.3654  54.5895  55.1787  55.2972  55.3743  56.0127
    56.0334  57.2297  57.4088  57.5346  57.8739  58.5867  59.2284  59.8811

          k = 0.2000 0.3333 0.1429 (  2657 PWs)   bands (ev):

   -61.2205 -61.2165 -61.1629 -61.0526 -60.9959 -60.9942 -21.4992 -21.4073
   -21.1290 -20.8029 -20.6773 -20.1216 -20.1011 -19.9887 -19.9313 -19.8899
   -19.8623 -19.8140 -19.7998 -19.7859 -19.7709 -19.7605 -19.7441 -19.7340
   -19.6395 -19.5398   7.5977   7.6180   7.6216   7.6321   7.6449   7.6516
    23.5435  23.8803  24.9772  25.0231  25.2088  25.3543  25.8889  26.5486
    26.7101  26.8748  27.0448  27.2360  27.5740  27.7489  27.8870  28.3321
    28.4178  28.5306  28.8772  28.9726  29.0728  29.2177  29.3778  29.4846
    29.7685  29.9518  30.0154  30.2290  30.7659  31.1495  31.4571  34.8238
    36.2117  38.0536  38.1808  39.0258  40.8045  40.9568  41.3908  41.4596
    41.9700  42.1588  43.2752  43.7489  45.6814  46.4356  47.0607  47.7521
    49.2320  49.4087  50.4899  51.8295  52.5228  52.8777  53.2199  53.3110
    53.4917  53.8157  54.1810  54.8559  55.2683  55.5495  55.7836  56.1647
    56.3869  56.7901  57.2228  57.5005  57.7074  59.1361  59.3358  59.6852

          k = 0.2000 0.3333 0.2857 (  2656 PWs)   bands (ev):

   -61.2101 -61.1909 -61.1693 -61.0414 -61.0166 -61.0034 -21.4031 -21.2292
   -21.1140 -20.8481 -20.7307 -20.0953 -20.0622 -19.9913 -19.9150 -19.8908
   -19.8731 -19.8263 -19.8056 -19.7989 -19.7781 -19.7658 -19.7615 -19.7494
   -19.7399 -19.6385   7.6030   7.6205   7.6224   7.6338   7.6368   7.6464
    23.8957  24.5775  25.0358  25.2292  25.3038  25.5480  26.0705  26.3339
    26.6534  26.8071  27.0301  27.2121  27.5569  27.6847  27.9603  28.0489
    28.1488  28.6822  28.8612  28.8711  29.0040  29.1465  29.3534  29.3730
    29.5566  29.6829  29.8076  29.9889  30.1628  30.8466  32.2520  35.3925
    35.9757  37.6571  37.7949  38.8096  41.0616  41.3046  41.6833  41.7385
    42.0046  42.5985  42.9885  43.4597  45.3111  45.7271  46.4697  47.1515
    49.2534  50.0247  50.4219  52.8021  53.0837  53.2024  53.5157  53.5847
    53.8698  54.0764  54.5326  54.9104  55.3854  55.7697  56.0731  56.2758
    56.5982  56.8077  57.5433  57.6928  58.1506  58.9070  59.2538  59.3902

          k = 0.2000 0.3333 0.4286 (  2643 PWs)   bands (ev):

   -61.1810 -61.1717 -61.1230 -61.0633 -61.0129 -61.0048 -21.3903 -21.1098
   -20.9408 -20.8556 -20.6708 -20.2886 -20.0643 -20.0068 -19.9832 -19.8969
   -19.8798 -19.8273 -19.8134 -19.7975 -19.7736 -19.7657 -19.7569 -19.7455
   -19.7347 -19.6337   7.6019   7.6195   7.6204   7.6392   7.6428   7.6512
    23.9090  25.0362  25.3358  25.3867  25.8430  25.8858  26.1763  26.5481
    26.6674  26.8775  27.0097  27.2175  27.3634  27.5309  27.7063  27.8501
    28.0796  28.4459  28.5711  28.6951  28.8870  28.9833  29.0730  29.2304
    29.4734  29.4810  29.6532  29.7401  29.9722  30.8669  33.3751  34.6994
    36.1566  36.9674  38.0619  38.9066  41.2471  41.5578  41.7242  42.0209
    42.1170  42.7449  43.4057  43.9514  44.2179  45.1302  45.7088  46.2293
    49.8969  50.3632  51.3699  52.6797  53.0578  53.2671  53.6165  53.9809
    54.4109  54.6356  54.9146  55.0562  55.2589  55.7605  56.1906  56.4276
    56.6131  57.0028  57.5260  57.8082  58.5750  58.7339  58.9366  59.0681

          k = 0.2000-0.5000 0.0000 (  2658 PWs)   bands (ev):

   -61.2282 -61.2140 -61.1084 -61.1078 -61.0016 -60.9856 -21.5945 -21.4157
   -20.8619 -20.8194 -20.4856 -20.4654 -20.1256 -20.0829 -19.9178 -19.8838
   -19.8487 -19.8423 -19.8284 -19.7906 -19.7558 -19.7554 -19.7461 -19.7263
   -19.6396 -19.4233   7.5886   7.6030   7.6189   7.6410   7.6525   7.6637
    23.1837  23.8802  25.0269  25.2018  25.3267  25.5657  26.6141  26.6313
    27.0229  27.0237  27.0827  27.2576  27.3943  27.6310  27.8726  28.0418
    28.1182  28.2380  28.6368  28.6430  28.6968  28.9864  29.1555  29.6639
    29.6817  30.0451  30.2702  30.5196  30.7701  31.5517  32.7277  32.7289
    36.7670  36.9926  38.8116  39.0900  40.9060  41.1107  41.5067  41.6034
    41.7789  42.0404  44.4128  44.7052  45.0119  45.9948  46.3217  47.5175
    49.3024  50.4592  51.1205  51.7070  51.7285  51.8861  53.1854  53.6309
    53.7788  53.9600  54.1280  54.3633  54.5418  55.3587  55.5943  55.6662
    56.7575  56.9270  57.5942  58.1600  58.7120  58.8524  59.1364  60.0431

          k = 0.2000-0.5000 0.1429 (  2658 PWs)   bands (ev):

   -61.2195 -61.2121 -61.1077 -61.1072 -61.0012 -60.9933 -21.4958 -21.4099
   -20.8658 -20.8484 -20.4842 -20.4779 -20.1063 -20.0862 -19.9087 -19.8903
   -19.8354 -19.8346 -19.8089 -19.7961 -19.7560 -19.7558 -19.7413 -19.7381
   -19.6392 -19.5415   7.5972   7.6041   7.6232   7.6319   7.6519   7.6561
    23.5518  23.8872  25.1845  25.3228  25.3567  25.5209  26.6559  26.6616
    26.9894  27.0506  27.1002  27.1529  27.2495  27.4184  27.9531  28.0179
    28.1146  28.1723  28.6646  28.6752  28.8329  28.9326  29.2664  29.4713
    29.6775  29.8996  30.0643  30.2620  30.8075  31.1757  33.0205  33.0238
    36.9565  37.0319  38.5443  38.7553  41.1220  41.1339  41.5749  41.7628
    41.8440  42.0084  44.3809  44.4994  44.9354  45.3728  46.4993  47.0597
    49.5546  49.9793  51.5243  51.6790  52.1022  52.1107  53.7360  53.8796
    53.9045  53.9777  54.5155  54.6374  55.1031  55.1099  55.7941  55.9597
    56.7988  56.9681  57.2789  57.5997  58.7291  58.8399  59.3905  59.5924

          k = 0.2000-0.5000 0.2857 (  2648 PWs)   bands (ev):

   -61.1922 -61.1906 -61.1021 -61.0979 -61.0011 -61.0006 -21.3922 -21.2205
   -20.9010 -20.8652 -20.5045 -20.4905 -20.0659 -20.0308 -19.9049 -19.9030
   -19.8489 -19.8290 -19.8057 -19.7878 -19.7866 -19.7618 -19.7607 -19.7409
   -19.7311 -19.6366   7.6024   7.6132   7.6211   7.6381   7.6440   7.6525
    23.9049  24.5845  25.3439  25.4300  25.6432  25.7605  26.6403  26.6485
    26.8989  27.0039  27.0132  27.1215  27.1653  27.2342  27.8193  27.8925
    28.1114  28.2083  28.6214  28.6860  28.9235  28.9574  29.0716  29.2361
    29.5190  29.6497  29.6883  30.0074  30.1296  30.8568  33.7338  33.7368
    36.7696  36.8214  38.1917  38.6866  41.2901  41.4431  41.6749  41.9597
    42.1159  42.4494  43.9879  43.9943  44.4175  44.8833  45.8675  46.4268
    49.8640  50.0251  51.9973  52.0240  52.8094  52.9731  53.9175  54.1252
    54.2961  54.6290  54.7625  54.9365  54.9864  55.5354  56.2083  56.5827
    56.7175  56.7885  57.4804  57.8766  58.6190  58.8262  58.8333  59.1945

          k = 0.2000-0.5000 0.4286 (  2646 PWs)   bands (ev):

   -61.1809 -61.1267 -61.1084 -61.0960 -61.0533 -61.0077 -21.3885 -20.9729
   -20.9496 -20.7265 -20.5215 -20.4941 -20.2878 -20.0148 -19.9570 -19.9092
   -19.9043 -19.8231 -19.8197 -19.8146 -19.7674 -19.7562 -19.7480 -19.7419
   -19.7408 -19.6355   7.5980   7.6156   7.6239   7.6363   7.6468   7.6492
    23.9172  25.3511  25.3637  25.9946  26.2815  26.2921  26.5361  26.6213
    26.7297  26.8996  26.9021  27.2056  27.2140  27.3163  27.3385  27.5520
    28.0528  28.2615  28.4891  28.5800  28.6420  28.8342  28.8688  28.9257
    29.2649  29.3104  29.6121  29.6518  29.8480  30.8856  34.5841  34.5958
    35.9021  36.0841  38.2483  39.3173  41.3775  41.4180  41.9754  42.0652
    42.2510  43.3034  43.5463  43.6042  44.0793  44.7903  45.0009  45.2697
    50.3838  51.2007  52.0415  52.0861  52.8141  53.6138  53.6777  54.0515
    54.3797  55.1040  55.4682  55.4826  55.7466  55.9196  56.1088  56.2290
    56.5275  57.0688  57.6646  57.7614  58.2420  58.3618  59.2294  59.2336

          k = 0.4000 0.0000 0.0000 (  2657 PWs)   bands (ev):

   -61.2462 -61.2387 -61.1545 -61.0634 -60.9677 -60.9677 -21.5943 -21.5865
   -20.9744 -20.7598 -20.5880 -20.1802 -20.1606 -20.1606 -19.9049 -19.9049
   -19.8989 -19.8154 -19.7778 -19.7778 -19.7741 -19.7480 -19.7480 -19.7470
   -19.4360 -19.4360   7.5881   7.6059   7.6266   7.6266   7.6613   7.6613
    23.1645  23.1731  24.7849  25.2523  25.2523  25.3331  25.8651  26.7473
    26.7473  27.0121  27.3371  27.5808  27.6323  27.6323  27.6815  28.2105
    28.4876  28.4987  28.4987  28.6846  29.0259  29.0259  29.4034  29.4779
    30.2253  30.2253  30.4923  30.5354  31.1514  31.4932  31.4932  33.4578
    36.6064  37.9166  38.8717  38.8717  40.6071  41.1616  41.1752  41.3874
    41.3874  42.0542  44.9980  45.3286  45.3901  45.3901  47.9343  48.4261
    48.7655  48.7655  50.7780  50.7780  52.3290  52.5196  52.5196  52.8814
    53.0677  53.0677  53.9522  54.1215  54.5707  55.3195  55.3330  55.4240
    56.6547  56.6548  58.2371  58.3735  59.0241  59.2933  59.2933  59.6563

          k = 0.4000 0.0000 0.1429 (  2659 PWs)   bands (ev):

   -61.2344 -61.2251 -61.1460 -61.0669 -60.9944 -60.9876 -21.6008 -21.5016
   -20.9774 -20.7836 -20.6165 -20.1844 -20.1392 -20.1175 -19.9136 -19.8959
   -19.8763 -19.8201 -19.8080 -19.7909 -19.7649 -19.7549 -19.7517 -19.7355
   -19.5462 -19.4217   7.5900   7.6069   7.6211   7.6347   7.6536   7.6611
    23.1759  23.5360  24.8664  25.1946  25.3811  25.3989  25.8732  26.7003
    26.7099  27.0145  27.2726  27.2991  27.6215  27.7650  27.8074  28.2159
    28.4806  28.5131  28.5442  28.7180  28.8104  29.0341  29.3244  29.5795
    29.9092  30.2085  30.2864  30.5225  31.0970  31.4589  31.5166  33.6753
    36.5294  37.7433  38.8641  38.8757  40.6888  41.1028  41.2817  41.3195
    41.7355  42.0595  44.1356  45.0415  45.4647  45.8061  46.8583  48.5560
    48.8394  49.7515  50.8115  50.8282  52.0740  52.5480  52.8249  53.1510
    53.3754  53.4005  54.1313  54.6302  54.7434  55.2584  55.3822  55.6280
    56.5729  57.2082  57.5205  58.0124  58.2992  58.8516  59.3055  60.0314

          k = 0.4000 0.0000 0.2857 (  2657 PWs)   bands (ev):

   -61.2193 -61.1872 -61.1464 -61.0697 -61.0267 -60.9977 -21.5955 -21.2406
   -20.9820 -20.8163 -20.6628 -20.1920 -20.1115 -20.0443 -19.9407 -19.9022
   -19.8760 -19.8669 -19.8075 -19.7917 -19.7731 -19.7534 -19.7513 -19.7481
   -19.7283 -19.4307   7.5882   7.6118   7.6169   7.6425   7.6461   7.6582
    23.1916  24.5641  25.0053  25.0964  25.6218  25.7285  25.9605  26.5023
    26.5146  27.0594  27.0693  27.4109  27.4912  27.8577  27.9524  28.1240
    28.3132  28.3938  28.5344  28.6571  28.8781  28.9611  29.1063  29.4525
    29.6398  29.8067  30.0632  30.2519  30.4944  31.5499  32.1414  34.1793
    35.8792  37.0600  38.8851  39.4014  40.9563  41.1000  41.4930  41.6694
    41.9302  42.4388  43.4499  44.6646  45.0589  45.3654  45.6803  47.8905
    49.8615  51.1158  51.2699  51.3554  52.0205  52.7206  52.8256  53.3069
    53.8308  54.2753  54.4983  54.8116  55.0639  55.1768  55.4465  56.0134
    56.1338  57.1659  57.3568  57.9471  58.4171  58.8399  59.4701  59.9276

          k = 0.4000 0.0000 0.4286 (  2657 PWs)   bands (ev):

   -61.2221 -61.1475 -61.1334 -61.0866 -61.0616 -60.9927 -21.5828 -21.0071
   -20.9585 -20.7713 -20.6436 -20.2883 -20.1918 -20.0814 -19.9714 -19.9539
   -19.9242 -19.8667 -19.8271 -19.8129 -19.7567 -19.7562 -19.7420 -19.7331
   -19.7287 -19.4408   7.5810   7.6079   7.6190   7.6401   7.6557   7.6597
    23.2043  25.0381  25.0562  25.6845  25.9921  26.1095  26.3322  26.3394
    26.4912  26.9884  27.1372  27.2487  27.5858  27.6252  27.8931  27.9428
    28.0650  28.1664  28.4607  28.6967  28.8102  28.8847  28.9087  29.0280
    29.1014  29.3682  29.9836  30.2704  30.4035  31.5634  33.1247  34.1699
    35.4233  36.1967  38.8962  40.3320  41.1194  41.1970  41.7518  41.8463
    41.9649  43.0598  43.4025  44.0243  44.2025  44.3574  46.1055  46.9422
    50.7012  51.5257  51.7135  52.0501  52.6315  52.8013  52.8806  53.2888
    53.6606  53.9515  54.4409  54.8520  55.3277  55.7242  55.7597  56.2082
    56.7073  57.1048  57.3169  58.5037  58.7094  59.0209  59.1520  59.2647

          k = 0.4000 0.1667 0.0000 (  2659 PWs)   bands (ev):

   -61.2304 -61.2215 -61.1457 -61.0679 -60.9981 -60.9917 -21.6005 -21.4688
   -20.9775 -20.7895 -20.6238 -20.1849 -20.1354 -20.1067 -19.9173 -19.8941
   -19.8713 -19.8293 -19.8070 -19.7892 -19.7650 -19.7542 -19.7532 -19.7325
   -19.5846 -19.4208   7.5900   7.6077   7.6201   7.6368   7.6515   7.6606
    23.1782  23.6657  24.8907  25.1777  25.4256  25.4265  25.8769  26.6791
    26.6888  27.0106  27.2468  27.2907  27.5952  27.7800  27.8418  28.2234
    28.4705  28.4988  28.5622  28.7394  28.7548  29.0307  29.2891  29.6134
    29.8229  30.1571  30.2566  30.5218  30.9685  31.5230  31.5466  33.7485
    36.4711  37.6630  38.8768  38.9035  40.7072  41.0980  41.2895  41.3693
    41.8374  42.0527  43.9785  45.0053  45.4913  45.7433  46.5979  48.4772
    48.9915  49.9975  50.8549  50.8613  52.0397  52.5602  52.8810  53.1622
    53.4978  53.5466  54.1931  54.5842  54.8522  55.2817  55.4231  55.7024
    56.4825  57.3667  57.3813  57.9661  58.1703  58.8016  59.3358  59.9131

          k = 0.4000 0.1667 0.1429 (  2662 PWs)   bands (ev):

   -61.2278 -61.2238 -61.1426 -61.0825 -61.0027 -60.9900 -21.4999 -21.4613
   -20.9776 -20.8114 -20.6489 -20.1928 -20.1129 -20.1060 -19.9064 -19.8917
   -19.8703 -19.8220 -19.8062 -19.7941 -19.7655 -19.7621 -19.7496 -19.7348
   -19.5841 -19.5463   7.5948   7.6080   7.6252   7.6287   7.6514   7.6525
    23.5453  23.6723  25.0003  25.3143  25.3787  25.4657  25.8841  26.6678
    26.7667  26.9811  27.0270  27.2850  27.5031  27.7952  27.9085  28.1141
    28.3175  28.5411  28.6178  28.7718  28.8943  28.9934  29.3591  29.4488
    29.8251  29.9186  30.1724  30.2581  30.9964  31.1602  31.8710  33.9921
    36.5515  37.6875  38.4180  38.8797  40.9734  41.0365  41.2577  41.5580
    41.9646  42.0918  43.9787  44.1697  45.2697  46.1321  46.8421  47.5072
    49.3460  49.5955  50.9495  51.6029  52.2627  52.4242  53.3415  53.3580
    53.6588  53.8120  54.5123  54.7687  55.0192  55.3277  55.7388  55.8708
    56.8169  57.0152  57.0705  57.5512  58.0022  59.2998  59.3516  59.6504

          k = 0.4000 0.1667 0.2857 (  2650 PWs)   bands (ev):

   -61.2029 -61.1869 -61.1461 -61.0551 -61.0119 -60.9962 -21.4564 -21.2254
   -20.9741 -20.8482 -20.6911 -20.2025 -20.0833 -20.0385 -19.9071 -19.9005
   -19.8643 -19.8325 -19.8086 -19.7957 -19.7755 -19.7679 -19.7553 -19.7394
   -19.7322 -19.5748   7.5994   7.6168   7.6200   7.6394   7.6428   7.6515
    23.6887  24.5779  25.1960  25.2978  25.6378  25.6886  25.9665  26.5206
    26.6794  26.8687  27.0318  27.2856  27.4374  27.6810  27.8995  28.0372
    28.0645  28.5921  28.6414  28.7363  28.9249  28.9950  29.1676  29.3948
    29.5208  29.6578  29.8481  30.0937  30.1564  31.0631  32.6218  34.5859
    36.1763  37.2919  38.1450  38.9983  41.0496  41.3808  41.5655  41.8233
    42.0734  42.5020  43.4059  44.0071  44.7811  45.4111  46.2808  46.7812
    49.6976  50.1688  51.1031  52.5376  52.6735  52.8193  53.5610  53.7955
    54.0200  54.3542  54.5658  54.9697  55.1570  55.8082  55.9288  56.2315
    56.5833  56.7313  57.2562  57.9539  58.3881  59.0308  59.2559  59.3348

          k = 0.4000 0.1667 0.4286 (  2652 PWs)   bands (ev):

   -61.1919 -61.1482 -61.1348 -61.0715 -61.0535 -61.0108 -21.4499 -21.0027
   -20.9517 -20.7947 -20.6679 -20.2936 -20.2039 -20.0448 -19.9771 -19.9143
   -19.9089 -19.8320 -19.8232 -19.8103 -19.7635 -19.7561 -19.7525 -19.7460
   -19.7398 -19.5781   7.5932   7.6144   7.6214   7.6371   7.6475   7.6503
    23.7018  25.2537  25.2731  25.7042  25.9993  26.1062  26.3117  26.4771
    26.5342  26.9390  27.1083  27.1513  27.4337  27.4613  27.6088  27.7690
    28.0461  28.3800  28.4711  28.6750  28.7913  28.9485  28.9925  29.0764
    29.2611  29.3022  29.6454  29.8465  30.0264  31.0867  33.6540  34.7376
    35.6847  36.4687  38.3362  39.4799  41.1800  41.4415  41.8796  42.0101
    42.1052  43.0770  43.4576  44.0122  44.0468  44.7801  45.5890  45.8002
    50.4432  51.0154  51.3542  52.5924  53.0652  53.1820  53.2859  53.7483
    54.1721  54.7636  54.9688  55.3740  55.6156  55.8947  56.0867  56.1629
    56.2870  57.1550  57.6784  57.7360  58.4610  58.7621  58.9764  59.1070

          k = 0.4000 0.3333 0.0000 (  2652 PWs)   bands (ev):

   -61.2205 -61.1612 -61.1475 -61.0620 -61.0410 -60.9864 -21.5871 -21.1315
   -20.9855 -20.8162 -20.6725 -20.1911 -20.0991 -20.0153 -19.9984 -19.9420
   -19.8915 -19.8712 -19.8192 -19.8020 -19.7676 -19.7526 -19.7434 -19.7397
   -19.7255 -19.4347   7.5872   7.6107   7.6200   7.6407   7.6521   7.6589
    23.1964  24.9641  25.0673  25.0939  25.6845  25.8682  26.0731  26.4231
    26.4425  27.0362  27.1112  27.3291  27.5808  27.8622  27.9613  27.9921
    28.2182  28.3630  28.4813  28.6780  28.8906  28.9407  29.0545  29.3834
    29.4241  29.6295  29.8697  30.2567  30.4696  31.5568  32.4421  34.3242
    35.5926  36.7701  38.8900  39.6975  41.1076  41.1292  41.5944  41.7890
    41.8464  42.6834  43.3676  44.4631  44.6781  45.0044  45.7907  47.5892
    50.1865  51.2815  51.4881  51.8198  52.0679  52.7060  52.8334  53.4309
    53.5831  54.4400  54.5020  55.0945  55.1890  55.2099  55.2832  56.0588
    56.3798  57.1502  57.1828  58.0742  58.6660  58.9230  59.4354  59.7051

          k = 0.4000 0.3333 0.1429 (  2654 PWs)   bands (ev):

   -61.2003 -61.1698 -61.1456 -61.0637 -61.0373 -61.0064 -21.4905 -21.1251
   -20.9788 -20.8420 -20.6943 -20.2021 -20.0841 -20.0174 -19.9903 -19.9128
   -19.8952 -19.8465 -19.8220 -19.7992 -19.7733 -19.7628 -19.7524 -19.7483
   -19.7337 -19.5394   7.5954   7.6136   7.6204   7.6378   7.6452   7.6519
    23.5642  25.0173  25.1939  25.2262  25.6923  25.8446  26.0725  26.4274
    26.5741  26.9274  27.0666  27.3092  27.4778  27.6850  27.7828  28.0060
    28.0682  28.5301  28.5742  28.6878  28.8983  28.9926  29.1536  29.3304
    29.4475  29.6118  29.6681  29.9607  30.1842  31.2008  32.8213  34.6753
    35.8100  36.9637  38.3388  39.3423  41.0112  41.3963  41.6915  41.8947
    41.9961  42.7130  43.3474  44.1483  44.5432  45.0657  46.0843  46.6012
    50.1017  50.5264  51.1998  52.6335  52.7029  52.8220  53.3018  53.6246
    54.1377  54.4495  54.6457  55.0272  55.2053  55.8261  55.9673  56.1408
    56.3862  56.7812  57.2852  58.0104  58.6541  58.9455  59.1377  59.2727

          k = 0.4000 0.3333 0.2857 (  2651 PWs)   bands (ev):

   -61.1776 -61.1622 -61.1451 -61.0597 -61.0376 -61.0166 -21.2102 -21.1019
   -20.9575 -20.8988 -20.7446 -20.2164 -20.0583 -20.0124 -19.9577 -19.8954
   -19.8791 -19.8365 -19.8193 -19.8080 -19.7944 -19.7783 -19.7751 -19.7648
   -19.7594 -19.7464   7.6122   7.6201   7.6252   7.6322   7.6339   7.6387
    24.5989  25.0513  25.5869  25.6524  25.7177  25.8253  26.0966  26.4578
    26.6080  26.8499  26.9385  27.1811  27.3901  27.4971  27.6729  27.7227
    28.0526  28.6178  28.6634  28.7208  28.7750  28.9708  29.0903  29.1385
    29.2473  29.4780  29.5452  29.6429  29.7293  30.1772  33.6931  35.4946
    36.3577  37.3360  37.4627  38.2196  41.5784  41.7506  41.9224  42.0639
    42.2250  42.8177  42.8900  43.4849  43.9463  45.1496  45.5236  46.2953
    49.5518  50.2547  51.0246  53.1595  53.4984  53.7431  54.0644  54.2465
    54.6816  54.8673  54.9559  55.2397  55.3716  55.5997  56.4133  56.7342
    56.9425  57.3498  57.5340  58.0508  58.3536  58.4728  58.5410  58.6982

          k = 0.4000 0.3333 0.4286 (  2646 PWs)   bands (ev):

   -61.1613 -61.1376 -61.1258 -61.0656 -61.0489 -61.0261 -21.0814 -20.9745
   -20.9417 -20.8312 -20.7196 -20.3116 -20.2263 -20.0454 -19.9606 -19.9221
   -19.8881 -19.8456 -19.8327 -19.8159 -19.7883 -19.7802 -19.7748 -19.7648
   -19.7507 -19.7390   7.6164   7.6232   7.6272   7.6325   7.6331   7.6347
    25.0654  25.7384  25.8499  25.8752  26.0335  26.1286  26.2956  26.4698
    26.6328  26.8734  26.9197  27.1246  27.2484  27.2700  27.4082  27.4441
    28.1176  28.4296  28.4482  28.5166  28.5728  28.7626  28.9723  29.0613
    29.1041  29.2002  29.3766  29.4009  29.4756  29.7482  34.8018  35.9628
    36.3582  37.1413  37.3839  37.9268  41.7760  41.8589  42.0655  42.1789
    42.3534  42.4398  42.9903  43.2763  43.5979  44.7697  45.1056  45.5890
    49.9636  50.7357  51.3029  53.1227  53.4168  54.0198  54.5193  54.7978
    54.8506  55.2693  55.2950  55.5237  55.6547  55.9317  56.3883  56.7106
    57.0573  57.1979  57.4154  57.7320  58.1977  58.3391  58.5880  59.0029

          k = 0.4000-0.5000 0.0000 (  2650 PWs)   bands (ev):

   -61.2143 -61.1397 -61.1085 -61.1009 -61.0568 -60.9848 -21.5767 -21.0033
   -20.9356 -20.7506 -20.5161 -20.4677 -20.1849 -20.0696 -19.9617 -19.9478
   -19.9364 -19.8514 -19.8350 -19.8144 -19.7491 -19.7483 -19.7380 -19.7303
   -19.7260 -19.4412   7.5820   7.6088   7.6205   7.6409   7.6580   7.6609
    23.2067  25.0337  25.0627  25.7016  26.1519  26.1803  26.3149  26.5960
    26.8089  26.8132  27.0333  27.3224  27.5633  27.5641  27.6022  27.8700
    27.9938  28.1778  28.5526  28.6990  28.7347  28.7964  28.8039  28.9903
    29.0706  29.3778  30.0172  30.2813  30.3738  31.5646  33.6716  33.6828
    35.5893  35.9230  38.8996  40.6584  41.0027  41.1247  41.7782  41.9272
    42.0099  43.1584  43.5284  43.9214  44.0166  44.1442  46.3667  46.5995
    50.9048  51.3885  51.9638  52.0371  52.5412  52.8139  53.1611  53.4678
    53.6382  53.6827  54.4739  54.6335  55.3615  55.8381  56.0928  56.3252
    56.4390  57.3992  57.7258  58.0445  58.7217  59.0933  59.1127  59.5721

          k = 0.4000-0.5000 0.1429 (  2650 PWs)   bands (ev):

   -61.1918 -61.1458 -61.1038 -61.1015 -61.0526 -61.0034 -21.4808 -20.9983
   -20.9389 -20.7670 -20.5204 -20.4865 -20.2008 -20.0499 -19.9660 -19.9221
   -19.9180 -19.8308 -19.8271 -19.8138 -19.7601 -19.7493 -19.7474 -19.7440
   -19.7328 -19.5378   7.5894   7.6123   7.6203   7.6382   7.6519   7.6555
    23.5739  25.1954  25.2225  25.7135  26.1527  26.1829  26.4443  26.6073
    26.7839  26.8603  26.9651  27.2540  27.3783  27.4433  27.4712  27.7505
    28.0171  28.1947  28.5174  28.6732  28.7365  28.8514  28.9053  29.0506
    29.2047  29.3320  29.7782  29.9198  30.0895  31.2160  34.0870  34.0894
    35.8454  36.0843  38.4957  39.8160  41.2232  41.2637  41.8564  42.0154
    42.1165  43.1498  43.6864  43.8635  44.1391  44.5230  45.4929  45.8889
    50.8746  50.9581  51.9733  51.9815  52.9311  53.0711  53.2380  53.7108
    54.1604  54.3831  55.1589  55.2038  55.7800  55.8618  55.9223  56.1428
    56.3829  57.3758  57.6829  57.9156  58.0212  58.8171  59.1399  59.3457

          k = 0.4000-0.5000 0.2857 (  2640 PWs)   bands (ev):

   -61.1588 -61.1396 -61.0890 -61.0888 -61.0391 -61.0195 -21.1969 -20.9816
   -20.9407 -20.8067 -20.5235 -20.5112 -20.2151 -19.9749 -19.9703 -19.8972
   -19.8843 -19.8306 -19.8129 -19.8089 -19.7936 -19.7843 -19.7653 -19.7599
   -19.7431 -19.7401   7.6108   7.6238   7.6259   7.6362   7.6377   7.6398
    24.6087  25.6581  25.6793  25.7427  26.1783  26.1922  26.6489  26.7051
    26.7331  26.8481  26.9395  26.9537  27.1055  27.1801  27.4004  27.4987
    28.2093  28.2349  28.4440  28.5477  28.6422  28.7280  28.9299  29.0754
    29.1325  29.3268  29.3840  29.4071  29.5810  30.1934  35.0222  35.0429
    36.5224  36.5366  37.7999  38.3375  41.6187  41.7039  42.0073  42.1584
    42.4679  42.8431  43.0685  43.2573  44.0998  44.3760  45.2132  45.4783
    49.8795  50.7408  52.1708  52.2156  53.2523  54.0825  54.3689  54.6629
    54.7776  55.2679  55.3158  55.4423  55.6131  55.7805  56.4294  56.6961
    56.8238  57.2236  57.7149  57.8606  57.9860  58.2795  58.4432  59.0265

          k = 0.4000-0.5000 0.4286 (  2640 PWs)   bands (ev):

   -61.1271 -61.1174 -61.0924 -61.0846 -61.0521 -61.0508 -20.9648 -20.9622
   -20.8514 -20.7609 -20.5356 -20.5351 -20.3160 -20.2287 -19.9157 -19.9023
   -19.8661 -19.8637 -19.8350 -19.8281 -19.7876 -19.7837 -19.7796 -19.7786
   -19.7345 -19.7318   7.6216   7.6244   7.6305   7.6308   7.6332   7.6342
    25.7602  26.0497  26.1902  26.1920  26.3274  26.3385  26.6446  26.6745
    26.6969  26.7075  26.9545  26.9632  27.0035  27.0212  27.1924  27.2052
    28.1850  28.1855  28.2566  28.2684  28.4035  28.4123  28.7414  28.9472
    29.0631  29.1315  29.2251  29.2600  29.3377  29.3480  36.0675  36.0706
    36.8875  36.9301  37.3603  37.4837  41.3893  41.3903  42.2035  42.2305
    42.2499  42.2754  43.2096  43.4187  44.0745  44.1097  44.7831  44.9979
    50.7350  51.1306  52.3235  52.3672  53.4158  53.8056  54.3587  54.4734
    55.2168  55.3211  55.5146  55.5433  56.0584  56.1330  56.6304  56.6500
    56.8909  57.1198  57.6185  57.7408  58.4131  58.4883  58.9254  58.9914

     the Fermi energy is    53.2874 ev

!    total energy              =   -2595.90050908 Ry
     Harris-Foulkes estimate   =   -2595.90050968 Ry
     estimated scf accuracy    <       0.00000086 Ry

     The total energy is the sum of the following terms:

     one-electron contribution =     -73.63959564 Ry
     hartree contribution      =     276.72215683 Ry
     xc contribution           =    -230.00830990 Ry
     ewald contribution        =   -2568.62030191 Ry
     smearing contrib. (-TS)   =      -0.35445846 Ry

     convergence has been achieved in  10 iterations

     Forces acting on atoms (Ry/au):

     atom    1 type  1   force =     0.00000000    0.00000000    0.00000000
     atom    2 type  1   force =     0.00000000    0.00000000    0.00000000
     atom    3 type  1   force =     0.00000000    0.00000000    0.00000000
     atom    4 type  1   force =     0.00000000    0.00000000    0.00000000
     atom    5 type  1   force =     0.00000000    0.00000000    0.00000000
     atom    6 type  1   force =     0.00000000    0.00000000    0.00000000
     atom    7 type  2   force =     0.00000000    0.00000000    0.00000000
     atom    8 type  2   force =     0.00000000    0.00000000    0.00000000

     Total force =     0.000000     Total SCF correction =     0.000000


     entering subroutine stress ...

          total   stress  (Ry/bohr**3)                   (kbar)     P= 5703.99
   0.03877495   0.00000000   0.00000000       5703.99      0.00      0.00
   0.00000000   0.03877495   0.00000000          0.00   5703.99      0.00
   0.00000000   0.00000000   0.03877495          0.00      0.00   5703.99


     BFGS Geometry Optimization

     number of scf cycles    =   1
     number of bfgs steps    =   0

     enthalpy new            =   -2595.9005090798 Ry

     new trust radius        =       0.5000000000 bohr
     new conv_thr            =       0.0001000000 Ry

     new unit-cell volume =    828.02266 a.u.^3 (   122.70030 Ang^3 )

CELL_PARAMETERS (alat=  8.53457320)
   1.100269143   0.000000000   0.000000000
   0.000000000   1.100269143   0.000000000
   0.000000000   0.000000000   1.100269143

ATOMIC_POSITIONS (crystal)
Cr       0.000000000   0.500000000   0.250000000
Cr       0.000000000   0.500000000   0.750000000
Cr       0.500000000   0.750000000   0.000000000
Cr       0.500000000   0.250000000   0.000000000
Cr       0.750000000   0.000000000   0.500000000
Cr       0.250000000   0.000000000   0.500000000
Si       0.500000000   0.500000000   0.500000000
Si       0.000000000   0.000000000   0.000000000



     Writing output data file Prototype-La-cP8-Cr3Si.save
     NEW-OLD atomic charge density approx. for the potential
     NEW k-points:
        k(    1) = (   0.0000000   0.0000000   0.0000000), wk =   0.0095238
        k(    2) = (   0.0000000   0.0000000   0.1298384), wk =   0.0190476
        k(    3) = (   0.0000000   0.0000000   0.2596767), wk =   0.0190476
        k(    4) = (   0.0000000   0.0000000   0.3895151), wk =   0.0190476
        k(    5) = (   0.0000000   0.1514781   0.0000000), wk =   0.0190476
        k(    6) = (   0.0000000   0.1514781   0.1298384), wk =   0.0380952
        k(    7) = (   0.0000000   0.1514781   0.2596767), wk =   0.0380952
        k(    8) = (   0.0000000   0.1514781   0.3895151), wk =   0.0380952
        k(    9) = (   0.0000000   0.3029562   0.0000000), wk =   0.0190476
        k(   10) = (   0.0000000   0.3029562   0.1298384), wk =   0.0380952
        k(   11) = (   0.0000000   0.3029562   0.2596767), wk =   0.0380952
        k(   12) = (   0.0000000   0.3029562   0.3895151), wk =   0.0380952
        k(   13) = (   0.0000000  -0.4544343   0.0000000), wk =   0.0095238
        k(   14) = (   0.0000000  -0.4544343   0.1298384), wk =   0.0190476
        k(   15) = (   0.0000000  -0.4544343   0.2596767), wk =   0.0190476
        k(   16) = (   0.0000000  -0.4544343   0.3895151), wk =   0.0190476
        k(   17) = (   0.1817737   0.0000000   0.0000000), wk =   0.0190476
        k(   18) = (   0.1817737   0.0000000   0.1298384), wk =   0.0380952
        k(   19) = (   0.1817737   0.0000000   0.2596767), wk =   0.0380952
        k(   20) = (   0.1817737   0.0000000   0.3895151), wk =   0.0380952
        k(   21) = (   0.1817737   0.1514781   0.0000000), wk =   0.0380952
        k(   22) = (   0.1817737   0.1514781   0.1298384), wk =   0.0761905
        k(   23) = (   0.1817737   0.1514781   0.2596767), wk =   0.0761905
        k(   24) = (   0.1817737   0.1514781   0.3895151), wk =   0.0761905
        k(   25) = (   0.1817737   0.3029562   0.0000000), wk =   0.0380952
        k(   26) = (   0.1817737   0.3029562   0.1298384), wk =   0.0761905
        k(   27) = (   0.1817737   0.3029562   0.2596767), wk =   0.0761905
        k(   28) = (   0.1817737   0.3029562   0.3895151), wk =   0.0761905
        k(   29) = (   0.1817737  -0.4544343   0.0000000), wk =   0.0190476
        k(   30) = (   0.1817737  -0.4544343   0.1298384), wk =   0.0380952
        k(   31) = (   0.1817737  -0.4544343   0.2596767), wk =   0.0380952
        k(   32) = (   0.1817737  -0.4544343   0.3895151), wk =   0.0380952
        k(   33) = (   0.3635474   0.0000000   0.0000000), wk =   0.0190476
        k(   34) = (   0.3635474   0.0000000   0.1298384), wk =   0.0380952
        k(   35) = (   0.3635474   0.0000000   0.2596767), wk =   0.0380952
        k(   36) = (   0.3635474   0.0000000   0.3895151), wk =   0.0380952
        k(   37) = (   0.3635474   0.1514781   0.0000000), wk =   0.0380952
        k(   38) = (   0.3635474   0.1514781   0.1298384), wk =   0.0761905
        k(   39) = (   0.3635474   0.1514781   0.2596767), wk =   0.0761905
        k(   40) = (   0.3635474   0.1514781   0.3895151), wk =   0.0761905
        k(   41) = (   0.3635474   0.3029562   0.0000000), wk =   0.0380952
        k(   42) = (   0.3635474   0.3029562   0.1298384), wk =   0.0761905
        k(   43) = (   0.3635474   0.3029562   0.2596767), wk =   0.0761905
        k(   44) = (   0.3635474   0.3029562   0.3895151), wk =   0.0761905
        k(   45) = (   0.3635474  -0.4544343   0.0000000), wk =   0.0190476
        k(   46) = (   0.3635474  -0.4544343   0.1298384), wk =   0.0380952
        k(   47) = (   0.3635474  -0.4544343   0.2596767), wk =   0.0380952
        k(   48) = (   0.3635474  -0.4544343   0.3895151), wk =   0.0380952

     total cpu time spent up to now is      317.1 secs

     Self-consistent Calculation

     iteration #  1     ecut=    40.00 Ry     beta=0.70
     CG style diagonalization
     c_bands:  1 eigenvalues not converged
     c_bands:  1 eigenvalues not converged
     c_bands:  1 eigenvalues not converged
     c_bands:  1 eigenvalues not converged
     c_bands:  2 eigenvalues not converged
     c_bands:  1 eigenvalues not converged
     c_bands:  1 eigenvalues not converged
     c_bands:  1 eigenvalues not converged
     c_bands:  2 eigenvalues not converged
     c_bands:  2 eigenvalues not converged
     c_bands:  1 eigenvalues not converged
     c_bands:  1 eigenvalues not converged
     c_bands:  1 eigenvalues not converged
     c_bands:  1 eigenvalues not converged
     c_bands:  1 eigenvalues not converged
     c_bands:  1 eigenvalues not converged
     c_bands:  1 eigenvalues not converged
     c_bands:  2 eigenvalues not converged
     c_bands:  1 eigenvalues not converged
     c_bands:  1 eigenvalues not converged
     c_bands:  1 eigenvalues not converged
     c_bands:  1 eigenvalues not converged
     c_bands:  1 eigenvalues not converged
     ethr =  1.00E-06,  avg # of iterations = 22.4

     total cpu time spent up to now is      418.9 secs

     total energy              =   -2585.38094080 Ry
     Harris-Foulkes estimate   =   -2621.37369375 Ry
     estimated scf accuracy    <      45.33860617 Ry

     iteration #  2     ecut=    40.00 Ry     beta=0.70
     CG style diagonalization
     ethr =  1.00E-02,  avg # of iterations =  4.1

     total cpu time spent up to now is      437.1 secs

     total energy              =   -2597.76550983 Ry
     Harris-Foulkes estimate   =   -2602.36580811 Ry
     estimated scf accuracy    <       6.78209749 Ry

     iteration #  3     ecut=    40.00 Ry     beta=0.70
     CG style diagonalization
     ethr =  3.90E-03,  avg # of iterations =  3.7

     total cpu time spent up to now is      453.7 secs

     total energy              =   -2599.70410182 Ry
     Harris-Foulkes estimate   =   -2600.34173199 Ry
     estimated scf accuracy    <       1.27255906 Ry

     iteration #  4     ecut=    40.00 Ry     beta=0.70
     CG style diagonalization
     ethr =  7.31E-04,  avg # of iterations =  3.3

     total cpu time spent up to now is      468.3 secs

     total energy              =   -2599.93787035 Ry
     Harris-Foulkes estimate   =   -2599.94536542 Ry
     estimated scf accuracy    <       0.01545597 Ry

     iteration #  5     ecut=    40.00 Ry     beta=0.70
     CG style diagonalization
     c_bands:  1 eigenvalues not converged
     c_bands:  1 eigenvalues not converged
     c_bands:  1 eigenvalues not converged
     c_bands:  1 eigenvalues not converged
     c_bands:  1 eigenvalues not converged
     c_bands:  1 eigenvalues not converged
     c_bands:  1 eigenvalues not converged
     c_bands:  1 eigenvalues not converged
     ethr =  8.88E-06,  avg # of iterations =  4.6

     total cpu time spent up to now is      489.5 secs

     total energy              =   -2599.94607947 Ry
     Harris-Foulkes estimate   =   -2599.94802261 Ry
     estimated scf accuracy    <       0.00271491 Ry

     iteration #  6     ecut=    40.00 Ry     beta=0.70
     CG style diagonalization
     c_bands:  1 eigenvalues not converged
     c_bands:  2 eigenvalues not converged
     ethr =  1.56E-06,  avg # of iterations =  3.9

     total cpu time spent up to now is      507.6 secs

     total energy              =   -2599.94711263 Ry
     Harris-Foulkes estimate   =   -2599.94736067 Ry
     estimated scf accuracy    <       0.00063693 Ry

     iteration #  7     ecut=    40.00 Ry     beta=0.70
     CG style diagonalization
     ethr =  3.66E-07,  avg # of iterations =  3.2

     total cpu time spent up to now is      522.0 secs

     End of self-consistent calculation

          k = 0.0000 0.0000 0.0000 (  2601 PWs)   bands (ev):

   -72.8815 -72.8815 -72.5208 -72.4705 -72.4705 -72.4705 -32.8118 -32.8118
   -32.8084 -32.2231 -32.2231 -32.2231 -32.1494 -32.1494 -32.1494 -32.0576
   -32.0576 -32.0576 -32.0458 -32.0458 -32.0458 -32.0315 -32.0315 -32.0315
   -31.6481 -31.6302  -2.9254  -2.9254  -2.9254  -2.9034  -2.9034  -2.9034
    13.2730  13.3198  13.3198  14.5797  14.5797  14.5797  15.5264  15.5264
    15.5264  15.6797  16.1185  16.1185  16.1758  16.1888  16.1888  16.1888
    16.8428  16.8428  16.8428  17.2851  17.2851  17.3581  17.3581  17.3581
    17.4084  17.4084  17.4084  18.0969  18.0969  18.0969  19.6381  24.9192
    24.9192  28.8000  28.8000  28.8000  29.4548  29.4548  29.8500  29.8500
    29.8500  30.7126  30.7126  30.7126  31.8768  34.7770  34.7770  34.7770
    34.9513  34.9513  36.7536  36.7536  38.1642  38.1642  38.1642  39.7011
    40.8689  40.8689  40.8689  41.0676  42.6897  42.6897  42.6897  42.8516
    42.8516  42.8516  44.0688  44.3170  44.3170  44.3170  46.6713  47.4481

          k = 0.0000 0.0000 0.1298 (  2657 PWs)   bands (ev):

   -72.9068 -72.8387 -72.7072 -72.6813 -72.6813 -72.5872 -32.8478 -32.8465
   -32.8157 -32.2252 -32.2252 -32.2234 -32.1516 -32.1516 -32.1319 -32.1092
   -32.1092 -32.0971 -32.0878 -32.0878 -32.0868 -32.0842 -32.0482 -32.0482
   -31.6687 -31.6487  -2.9445  -2.9445  -2.9422  -2.9282  -2.9275  -2.9275
    13.2909  13.3114  13.5215  14.5349  14.6072  14.6072  15.3863  15.5260
    15.5260  15.6875  16.1293  16.1568  16.1568  16.1644  16.1803  16.2367
    16.7913  16.8163  16.8163  17.1705  17.1852  17.2494  17.2494  17.3838
    17.3838  17.4101  17.4619  17.8287  18.1134  18.1134  19.8039  24.5957
    25.0487  28.4419  28.6609  28.6609  28.9790  29.6592  29.7610  29.7610
    29.9139  30.6934  31.0712  31.0712  32.3996  34.5042  34.7402  35.0500
    35.0500  35.3526  35.4851  37.6534  37.6995  37.6995  38.8168  40.2591
    40.8376  40.8767  40.8767  40.9476  41.9662  41.9662  42.4637  42.7405
    43.4350  43.4350  44.3168  44.3169  44.4240  44.6235  46.7072  46.7874

          k = 0.0000 0.0000 0.2597 (  2677 PWs)   bands (ev):

   -72.9010 -72.8435 -72.7499 -72.7179 -72.7179 -72.7176 -32.8498 -32.8494
   -32.7116 -32.2517 -32.2219 -32.2173 -32.2173 -32.1721 -32.1587 -32.1587
   -32.1162 -32.1162 -32.0987 -32.0987 -32.0963 -32.0905 -32.0666 -32.0666
   -31.6548 -31.6544  -2.9545  -2.9486  -2.9475  -2.9475  -2.9318  -2.9318
    13.2949  13.3104  14.1308  14.5387  14.7290  14.7290  15.1355  15.6173
    15.6173  15.7842  16.0933  16.0933  16.1486  16.1635  16.2287  16.3669
    16.7283  16.7988  16.7988  16.9101  16.9101  17.0430  17.0776  17.1525
    17.3798  17.3798  17.4770  17.5218  18.1842  18.1842  20.3032  23.6022
    25.4056  27.9145  28.4663  28.4663  28.6083  29.5610  29.5610  30.0907
    30.2095  30.6280  31.9935  31.9935  32.4863  33.1150  34.6033  34.9934
    35.6149  35.6149  36.6577  36.8258  36.8258  39.0687  39.1196  40.5600
    40.5600  40.8189  40.9027  41.2452  41.2452  41.2880  41.8195  42.4474
    44.1293  44.1293  44.6383  44.6384  45.1107  45.4633  46.6562  46.8383

          k = 0.0000 0.0000 0.3895 (  2658 PWs)   bands (ev):

   -72.7958 -72.7702 -72.7585 -72.7178 -72.6864 -72.6864 -32.8512 -32.8495
   -32.5550 -32.3810 -32.2132 -32.2132 -32.1931 -32.1848 -32.1404 -32.1404
   -32.1039 -32.1039 -32.0920 -32.0920 -32.0906 -32.0868 -32.0703 -32.0703
   -31.6408 -31.6377  -2.9422  -2.9396  -2.9396  -2.9354  -2.9309  -2.9309
    13.3134  13.3166  14.6431  14.8225  14.8309  14.8309  15.1074  15.7359
    15.7359  15.9342  16.0644  16.1014  16.1529  16.1529  16.2644  16.2696
    16.4713  16.4713  16.5580  16.6462  16.8364  16.8364  16.9869  17.0144
    17.3862  17.3862  17.5248  17.5357  18.2320  18.2320  21.1763  22.3331
    26.0124  26.8576  28.3528  28.3528  29.4258  29.4258  29.5850  30.3092
[...]
     6.5907   6.5956   7.5227   7.5340   7.6015   7.6015   7.6866   8.1183
     8.1184   8.2476   8.3427   8.3541   8.3541   8.3978   8.4414   8.4596
     8.5706   8.5706   8.5788   8.6277   8.7154   8.7154   8.7779   8.7952
     8.9929   8.9929   9.0699   9.0795   9.5514   9.5514  14.4632  15.6990
    18.5812  19.6444  21.3072  21.3072  21.8123  21.8123  21.8701  23.1038
    23.2701  23.5746  23.6605  24.0543  25.1585  25.1585  26.1361  26.3046
    26.3807  26.3807  28.0104  28.0104  28.9830  29.7317  29.8589  30.2985
    30.2985  31.5174  31.7054  31.8246  31.9625  32.9081  32.9081  33.2938
    35.4866  35.4866  36.4141  36.4143  36.9003  36.9327  37.2018  37.4121

          k = 0.3360 0.0000 0.1200 (  4480 PWs)   bands (ev):

   -81.8824 -81.8740 -81.8673 -81.8635 -81.8562 -81.8502 -40.8476 -40.8290
   -40.7247 -40.6143 -40.5243 -40.5232 -40.5190 -40.5067 -40.5060 -40.5012
   -40.5004 -40.4960 -40.4935 -40.4902 -40.4863 -40.4842 -40.4774 -40.4707
   -39.4048 -39.4040 -10.5242 -10.5233 -10.5197 -10.5178 -10.5168 -10.5153
     6.5944   6.7279   7.5346   7.5506   7.6022   7.6491   7.7163   8.0995
     8.1297   8.2415   8.2873   8.3231   8.3941   8.4082   8.4531   8.4672
     8.5659   8.5749   8.6006   8.6300   8.6668   8.7170   8.7644   8.8270
     8.9332   8.9963   9.0164   9.0691   9.4048   9.5555  14.5972  15.8186
    18.3068  19.3524  20.7518  21.3067  21.6496  21.7749  22.5434  23.3662
    23.3796  23.7198  23.8072  24.1531  24.9535  25.1072  25.5691  26.3681
    26.4959  26.8337  27.7912  27.8702  28.9212  29.6126  29.9116  30.4359
    30.7835  31.7258  31.7594  32.0473  32.2454  33.0200  33.0974  33.2630
    35.4071  35.5291  36.1131  36.1483  36.4393  36.7119  37.0163  37.4322

          k = 0.3360 0.0000 0.2400 (  4474 PWs)   bands (ev):

   -81.8890 -81.8709 -81.8675 -81.8589 -81.8525 -81.8407 -40.8480 -40.7842
   -40.7278 -40.6187 -40.5563 -40.5179 -40.5177 -40.5094 -40.5063 -40.5052
   -40.5032 -40.4976 -40.4890 -40.4862 -40.4851 -40.4785 -40.4714 -40.4700
   -39.4044 -39.4031 -10.5242 -10.5230 -10.5210 -10.5175 -10.5158 -10.5126
     6.5957   7.1064   7.5375   7.5905   7.6068   7.7747   7.8326   8.0483
     8.1621   8.2046   8.2239   8.3470   8.3643   8.4323   8.4613   8.4987
     8.5212   8.5707   8.5996   8.6027   8.6576   8.7117   8.7269   8.8072
     8.8656   8.8867   9.0014   9.0076   9.0525   9.5624  14.9874  16.1702
    17.5183  18.5472  20.6681  21.3023  21.6985  21.8223  23.0264  23.3069
    23.6643  24.0082  24.1122  24.2098  24.5051  24.8383  24.9627  26.1516
    27.0501  27.6879  27.7201  28.0606  28.6827  29.2897  29.8559  30.1406
    32.0289  32.0910  32.3888  32.5124  32.6570  32.8257  33.5535  33.7323
    34.4813  35.1950  35.5896  35.9413  36.0818  36.7361  36.7379  37.7048

          k = 0.3360 0.0000 0.3600 (  4477 PWs)   bands (ev):

   -81.8897 -81.8867 -81.8702 -81.8540 -81.8499 -81.8428 -40.8544 -40.7330
   -40.7158 -40.6310 -40.6137 -40.5135 -40.5113 -40.5098 -40.5052 -40.5043
   -40.4990 -40.4986 -40.4965 -40.4928 -40.4845 -40.4776 -40.4765 -40.4716
   -39.4043 -39.4032 -10.5269 -10.5229 -10.5194 -10.5178 -10.5169 -10.5140
     6.5969   7.5334   7.6086   7.6129   7.6626   7.9112   7.9695   8.0634
     8.1608   8.1751   8.2211   8.2589   8.3454   8.3693   8.4119   8.4664
     8.4821   8.5007   8.5598   8.5836   8.6628   8.6747   8.6787   8.7154
     8.7348   8.7567   8.9291   9.0035   9.0294   9.5664  15.6132  16.3690
    16.9475  17.6403  20.9954  21.2980  21.6423  22.1406  22.9224  23.4613
    23.5688  23.7525  24.0257  24.4086  24.5808  24.6519  24.9900  25.5930
    27.5019  27.7290  27.8119  28.6430  28.8280  29.5333  29.9418  30.4524
    31.7668  31.8859  32.3721  32.5144  32.8468  33.3781  34.1117  34.2109
    34.5163  34.8806  35.1172  35.9453  35.9718  36.7885  37.0759  37.2152

          k = 0.3360 0.1400 0.0000 (  4476 PWs)   bands (ev):

   -81.8827 -81.8736 -81.8654 -81.8609 -81.8548 -81.8439 -40.8494 -40.8240
   -40.7220 -40.6166 -40.5250 -40.5209 -40.5164 -40.5093 -40.5088 -40.5004
   -40.4995 -40.4952 -40.4927 -40.4862 -40.4832 -40.4800 -40.4786 -40.4692
   -39.4045 -39.4036 -10.5227 -10.5216 -10.5192 -10.5182 -10.5167 -10.5157
     6.5946   6.7753   7.5348   7.5579   7.6026   7.6654   7.7285   8.0934
     8.1338   8.2371   8.2748   8.3262   8.3989   8.4007   8.4570   8.4747
     8.5625   8.5754   8.6034   8.6331   8.6556   8.7170   8.7582   8.8366
     8.9140   8.9961   8.9984   9.0670   9.3532   9.5564  14.6454  15.8637
    18.2040  19.2447  20.6882  21.3067  21.6442  21.7631  22.6584  23.3788
    23.4167  23.7712  23.8669  24.1811  24.8762  25.0889  25.4292  26.3550
    26.5699  26.9764  27.7670  27.8320  28.8738  29.6192  29.8083  30.4482
    31.0160  31.7826  31.8183  32.1262  32.3124  33.0247  33.1715  33.2718
    35.3735  35.4659  36.0308  36.0926  36.3427  36.7000  36.9173  37.4957

          k = 0.3360 0.1400 0.1200 (  4466 PWs)   bands (ev):

   -81.8778 -81.8705 -81.8563 -81.8523 -81.8480 -81.8433 -40.8301 -40.8204
   -40.7220 -40.6131 -40.5206 -40.5189 -40.5125 -40.5098 -40.5052 -40.5018
   -40.4986 -40.4971 -40.4872 -40.4855 -40.4844 -40.4830 -40.4730 -40.4685
   -39.4033 -39.4032 -10.5215 -10.5210 -10.5206 -10.5160 -10.5152 -10.5128
     6.7284   6.7760   7.5375   7.5947   7.6509   7.6679   7.7485   8.1031
     8.1143   8.2295   8.2800   8.2948   8.3769   8.4332   8.4429   8.4937
     8.5514   8.5628   8.6098   8.6362   8.6679   8.7054   8.7904   8.8078
     8.9145   8.9356   8.9928   9.0103   9.3573   9.4100  14.7768  15.9854
    18.1222  19.1622  19.9788  20.6188  22.0391  22.4873  22.7803  23.3570
    23.4471  23.8116  24.0804  24.3050  24.8675  24.9295  25.3940  25.6693
    26.7161  26.8094  28.0062  28.0371  29.3116  29.7253  30.3290  30.4961
    30.7681  31.5861  31.6484  32.4035  32.8300  32.9346  33.2435  33.4237
    35.4009  35.4481  35.7573  35.8931  36.1878  36.5680  36.9033  37.4579

          k = 0.3360 0.1400 0.2400 (  4476 PWs)   bands (ev):

   -81.8887 -81.8738 -81.8686 -81.8598 -81.8557 -81.8433 -40.8235 -40.7814
   -40.7281 -40.6182 -40.5583 -40.5199 -40.5181 -40.5138 -40.5092 -40.5043
   -40.5004 -40.4984 -40.4971 -40.4920 -40.4890 -40.4868 -40.4750 -40.4713
   -39.4036 -39.4034 -10.5240 -10.5236 -10.5201 -10.5177 -10.5171 -10.5139
     6.7767   7.1069   7.5391   7.6565   7.6759   7.7809   7.8450   8.0570
     8.1326   8.1998   8.2363   8.3192   8.3678   8.4179   8.4615   8.4819
     8.5013   8.5621   8.6155   8.6362   8.6608   8.7174   8.7432   8.8005
     8.8341   8.8714   8.9140   8.9764   9.0158   9.3646  15.1638  16.3254
    17.6012  18.6234  19.5918  20.1614  22.4291  22.8567  23.0884  23.3041
    23.5670  23.8902  24.2288  24.3633  24.4941  24.7207  24.9386  25.3123
    27.0037  27.5088  27.9217  28.7045  29.4299  30.1216  30.1531  30.3641
    31.4832  31.8480  32.1177  32.6038  32.9690  33.0477  33.3167  33.8796
    34.6440  35.1788  35.4630  35.7303  35.9686  36.1754  36.5686  37.0085

          k = 0.3360 0.1400 0.3600 (  4487 PWs)   bands (ev):

   -81.8867 -81.8827 -81.8724 -81.8673 -81.8658 -81.8548 -40.8269 -40.7325
   -40.7150 -40.6363 -40.6160 -40.5181 -40.5174 -40.5153 -40.5116 -40.5094
   -40.5055 -40.5042 -40.4993 -40.4959 -40.4930 -40.4830 -40.4807 -40.4789
   -39.4043 -39.4039 -10.5260 -10.5235 -10.5214 -10.5207 -10.5175 -10.5167
     6.7778   7.5357   7.6577   7.6840   7.6882   7.9202   7.9775   8.0660
     8.1554   8.1929   8.1975   8.2725   8.3254   8.3450   8.3890   8.4351
     8.4835   8.5133   8.5678   8.5971   8.6577   8.6613   8.6874   8.7267
     8.7538   8.7636   8.8731   8.9130   8.9546   9.3697  15.7839  16.5125
    17.1006  17.7718  19.7724  20.0747  22.6204  22.8372  23.1284  23.4992
    23.7670  23.7915  23.9309  24.0920  24.3950  24.5928  24.9396  25.1125
    27.5651  28.0867  28.1902  29.0178  29.2590  29.9669  30.2128  30.8575
    31.6021  31.9492  32.3944  32.8721  32.9692  33.2749  33.4968  34.0220
    34.4693  34.5844  35.1866  35.4687  35.8433  36.1373  36.2712  37.1488

          k = 0.3360 0.2800 0.0000 (  4479 PWs)   bands (ev):

   -81.9007 -81.8755 -81.8680 -81.8574 -81.8529 -81.8442 -40.8478 -40.7657
   -40.7329 -40.6169 -40.5797 -40.5189 -40.5176 -40.5110 -40.5084 -40.5069
   -40.5017 -40.4978 -40.4944 -40.4916 -40.4855 -40.4819 -40.4718 -40.4667
   -39.4044 -39.4037 -10.5260 -10.5243 -10.5208 -10.5169 -10.5159 -10.5147
     6.5960   7.2753   7.5387   7.5987   7.6094   7.8251   7.8908   8.0304
     8.1771   8.1926   8.2092   8.3242   8.3762   8.4479   8.4546   8.4891
     8.4983   8.5585   8.5822   8.5954   8.6633   8.7042   8.7179   8.7779
     8.8118   8.8527   8.9011   9.0026   9.0441   9.5645  15.1727  16.3185
    17.2178  18.2384  20.7597  21.3007  21.6749  21.9526  23.0060  23.3296
    23.7838  23.9236  24.0527  24.2625  24.5086  24.7236  24.9135  25.9943
    27.2442  27.7183  27.7312  28.3916  28.8465  29.1056  29.9381  30.0481
    32.1146  32.2045  32.4167  32.5314  32.6549  33.2576  33.6780  34.0083
    34.0705  35.1511  35.4026  35.8998  35.9341  36.7655  36.9101  37.5935

          k = 0.3360 0.2800 0.1200 (  4482 PWs)   bands (ev):

   -81.8870 -81.8763 -81.8710 -81.8647 -81.8582 -81.8532 -40.8300 -40.7664
   -40.7293 -40.6195 -40.5826 -40.5198 -40.5172 -40.5128 -40.5087 -40.5078
   -40.5005 -40.4990 -40.4964 -40.4945 -40.4914 -40.4853 -40.4787 -40.4739
   -39.4043 -39.4035 -10.5247 -10.5239 -10.5226 -10.5191 -10.5166 -10.5144
     6.7299   7.2760   7.5395   7.6506   7.6615   7.8302   7.8983   8.0357
     8.1558   8.1943   8.2151   8.3201   8.3684   8.4179   8.4551   8.4741
     8.4879   8.5595   8.6040   8.6104   8.6664   8.7001   8.7352   8.7706
     8.8200   8.8542   8.8634   8.9372   8.9889   9.4181  15.2994  16.4295
    17.3104  18.3179  19.8129  20.3364  22.3526  22.8234  23.0840  23.3467
    23.6577  23.9853  24.0651  24.2596  24.4056  24.6507  24.9256  25.3674
    27.1829  27.7745  27.9881  28.8150  29.1413  29.8226  30.1529  30.2775
    31.8204  31.9917  32.3579  32.6464  32.9162  33.1216  33.3768  34.0696
    34.2900  34.9924  35.5028  35.7487  35.9807  36.1387  36.5483  37.0967

          k = 0.3360 0.2800 0.2400 (  4482 PWs)   bands (ev):

   -81.8858 -81.8780 -81.8762 -81.8687 -81.8568 -81.8493 -40.7798 -40.7601
   -40.7260 -40.6211 -40.5853 -40.5621 -40.5161 -40.5144 -40.5132 -40.5085
   -40.5041 -40.5025 -40.4986 -40.4921 -40.4886 -40.4850 -40.4838 -40.4765
   -39.4037 -39.4034 -10.5234 -10.5231 -10.5202 -10.5199 -10.5177 -10.5174
     7.1082   7.2779   7.5405   7.7859   7.8043   7.8513   7.9277   8.0516
     8.0894   8.1887   8.2265   8.3198   8.3625   8.3779   8.4318   8.4440
     8.4744   8.5623   8.6223   8.6365   8.6764   8.6974   8.7284   8.7473
     8.7627   8.8031   8.8277   8.8561   8.8766   9.0237  15.6771  16.7517
    17.4533  18.4682  18.8155  19.1820  22.6892  22.8669  23.2311  23.3990
    23.5346  23.6276  24.4429  24.5114  24.5541  24.6212  24.8378  24.9099
    27.4858  27.6666  28.0686  29.5906  30.2961  30.6069  30.8880  31.0224
    31.5482  31.8361  31.9902  32.5274  32.8045  33.0017  33.4799  33.7845
    34.2578  34.5530  35.1553  35.4372  35.5951  35.7945  36.1347  36.2955

          k = 0.3360 0.2800 0.3600 (  4486 PWs)   bands (ev):

   -81.8864 -81.8790 -81.8727 -81.8679 -81.8653 -81.8578 -40.7565 -40.7304
   -40.7150 -40.6351 -40.6187 -40.5847 -40.5146 -40.5125 -40.5100 -40.5082
   -40.5051 -40.5020 -40.5000 -40.4993 -40.4948 -40.4868 -40.4841 -40.4817
   -39.4037 -39.4028 -10.5238 -10.5227 -10.5221 -10.5199 -10.5196 -10.5172
     7.2786   7.5398   7.6595   7.8786   7.8852   7.9522   8.0029   8.0706
     8.1156   8.1568   8.2035   8.2856   8.3067   8.3127   8.3641   8.3740
     8.4852   8.5182   8.5799   8.5912   8.6251   8.6570   8.6810   8.6959
     8.7245   8.7493   8.7790   8.7865   8.8275   8.8684  16.2680  16.9429
    17.3948  18.0656  18.5862  18.7292  22.2282  22.3373  23.5097  23.5738
    23.6188  23.6617  24.5045  24.5619  24.6044  24.6283  24.8241  24.8404
    27.9071  28.1164  28.5031  29.8535  30.3342  30.7868  31.1986  31.5940
    31.8564  31.9346  32.2751  32.6735  32.7870  32.8005  33.3032  33.7311
    33.8439  34.0570  34.8098  34.9451  35.3459  35.6457  35.8673  35.9253

          k = 0.3360-0.4200 0.0000 (  4472 PWs)   bands (ev):

   -81.8797 -81.8738 -81.8633 -81.8615 -81.8529 -81.8454 -40.8517 -40.7257
   -40.6724 -40.6717 -40.6169 -40.5093 -40.5080 -40.5075 -40.5062 -40.5009
   -40.4996 -40.4977 -40.4954 -40.4925 -40.4808 -40.4776 -40.4773 -40.4752
   -39.4035 -39.4034 -10.5233 -10.5221 -10.5199 -10.5187 -10.5155 -10.5154
     6.5970   7.5362   7.6122   7.6144   7.9233   7.9335   7.9365   8.0252
     8.1714   8.1748   8.1768   8.2507   8.2776   8.3083   8.3839   8.4713
     8.4810   8.5032   8.5818   8.5849   8.6308   8.6636   8.6726   8.7061
     8.7286   8.7539   8.9378   9.0029   9.0243   9.5672  15.9515  16.0479
    17.2159  17.2661  21.0843  21.2986  21.6350  22.1437  23.0275  23.3029
    23.6084  23.6164  24.1284  24.3715  24.6118  24.6343  25.2190  25.3115
    27.5638  27.7154  27.8482  28.7461  28.7516  29.4673  30.3664  30.6955
    31.4594  31.5855  32.4178  32.5003  32.7489  33.4883  34.3514  34.4326
    34.5227  34.6833  35.1132  35.9448  36.1971  36.7857  36.7949  37.1791

          k = 0.3360-0.4200 0.1200 (  4486 PWs)   bands (ev):

   -81.8936 -81.8861 -81.8703 -81.8702 -81.8564 -81.8491 -40.8348 -40.7333
   -40.6755 -40.6749 -40.6183 -40.5186 -40.5142 -40.5116 -40.5084 -40.5082
   -40.5078 -40.5014 -40.4990 -40.4975 -40.4930 -40.4840 -40.4832 -40.4702
   -39.4042 -39.4039 -10.5244 -10.5234 -10.5217 -10.5207 -10.5174 -10.5174
     6.7306   7.5368   7.6665   7.6687   7.9271   7.9349   7.9439   8.0177
     8.1607   8.1849   8.2068   8.2461   8.2591   8.2888   8.3671   8.4457
     8.4921   8.5009   8.5719   8.5795   8.6449   8.6645   8.6738   8.7104
     8.7493   8.7563   8.8973   8.9347   8.9665   9.4214  16.0774  16.1580
    17.3292  17.3661  20.0403  20.2576  22.6413  22.6753  23.0826  23.5251
    23.6808  23.8078  23.9790  24.0268  24.4185  24.5880  25.0166  25.0724
    27.6077  28.1882  28.4515  28.5193  29.1292  29.8000  30.4478  31.0699
    31.4916  31.4997  32.5212  32.8110  32.8195  33.4189  33.8546  34.1377
    34.4182  34.6685  34.9774  35.7610  35.9175  36.0962  36.4438  37.2355

          k = 0.3360-0.4200 0.2400 (  4496 PWs)   bands (ev):

   -81.8946 -81.8879 -81.8794 -81.8756 -81.8653 -81.8612 -40.7807 -40.7349
   -40.6805 -40.6802 -40.6159 -40.5644 -40.5170 -40.5134 -40.5124 -40.5107
   -40.5097 -40.5064 -40.5037 -40.5019 -40.4990 -40.4917 -40.4835 -40.4804
   -39.4042 -39.4040 -10.5257 -10.5254 -10.5220 -10.5216 -10.5191 -10.5191
     7.1086   7.5394   7.8203   7.8222   7.9364   7.9446   7.9623   8.0051
     8.1472   8.1886   8.2138   8.2343   8.2545   8.2577   8.3549   8.3869
     8.4979   8.5048   8.5623   8.5813   8.6236   8.6794   8.6850   8.7152
     8.7215   8.7795   8.7822   8.7851   8.8593   9.0267  16.4409  16.4785
    17.6043  17.6175  18.9510  19.0228  22.4249  22.4389  23.5028  23.5588
    23.6558  23.6680  24.3135  24.4541  24.4561  24.6379  24.8526  24.8720
    27.8823  28.0118  28.8970  29.1807  30.2439  30.5967  30.8477  31.5464
    31.7811  31.9566  32.4722  32.5805  32.8746  33.1126  33.4665  33.8304
    33.8980  34.1739  34.5921  34.8063  35.2727  35.8145  36.2008  36.3940

          k = 0.3360-0.4200 0.3600 (  4498 PWs)   bands (ev):

   -81.8839 -81.8800 -81.8772 -81.8763 -81.8759 -81.8724 -40.7267 -40.7133
   -40.6798 -40.6798 -40.6375 -40.6215 -40.5140 -40.5127 -40.5090 -40.5062
   -40.5048 -40.5039 -40.5036 -40.5026 -40.4989 -40.4975 -40.4932 -40.4902
   -39.4035 -39.4035 -10.5239 -10.5239 -10.5226 -10.5226 -10.5201 -10.5200
     7.5409   7.6581   7.9447   7.9472   7.9917   7.9982   8.0242   8.0376
     8.1308   8.1367   8.1861   8.2163   8.2303   8.2419   8.2989   8.3021
     8.4736   8.4736   8.5514   8.5596   8.5644   8.5826   8.6084   8.6455
     8.7171   8.7274   8.7527   8.7551   8.7727   8.7842  16.9733  16.9812
    17.6806  17.6820  18.2568  18.2656  21.8226  21.8227  23.6548  23.6556
    23.6816  23.6820  24.5997  24.6365  24.7306  24.7445  24.7688  24.7903
    28.3816  28.5794  29.3053  29.3850  30.3197  30.7220  31.5821  31.6238
    31.9854  31.9891  32.4678  32.6661  33.0575  33.0901  33.5858  33.6017
    33.7421  33.7820  34.4838  34.4951  35.0965  35.2846  35.3327  35.3944

     the Fermi energy is    30.4639 ev

!    total energy              =   -2605.91825715 Ry
     Harris-Foulkes estimate   =   -2605.91825749 Ry
     estimated scf accuracy    <       0.00000040 Ry

     The total energy is the sum of the following terms:

     one-electron contribution =    -667.90898599 Ry
     hartree contribution      =     441.00800577 Ry
     xc contribution           =    -221.07898170 Ry
     ewald contribution        =   -2157.66723134 Ry
     smearing contrib. (-TS)   =      -0.27106390 Ry

     convergence has been achieved in  11 iterations

     Forces acting on atoms (Ry/au):

     atom    1 type  1   force =     0.00000000    0.00000000    0.00000000
     atom    2 type  1   force =     0.00000000    0.00000000    0.00000000
     atom    3 type  1   force =     0.00000000    0.00000000    0.00000000
     atom    4 type  1   force =     0.00000000    0.00000000    0.00000000
     atom    5 type  1   force =     0.00000000    0.00000000    0.00000000
     atom    6 type  1   force =     0.00000000    0.00000000    0.00000000
     atom    7 type  2   force =     0.00000000    0.00000000    0.00000000
     atom    8 type  2   force =     0.00000000    0.00000000    0.00000000

     Total force =     0.000000     Total SCF correction =     0.000000


     entering subroutine stress ...

          total   stress  (Ry/bohr**3)                   (kbar)     P=  196.08
   0.00133294   0.00000000   0.00000000        196.08      0.00      0.00
   0.00000000   0.00133294   0.00000000          0.00    196.08      0.00
   0.00000000   0.00000000   0.00133294          0.00      0.00    196.08


     Writing output data file Prototype-La-cP8-Cr3Si.save
 
     init_run     :      8.43s CPU     11.64s WALL (       2 calls)
     electrons    :   1655.16s CPU   1893.09s WALL (       5 calls)
     update_pot   :      1.20s CPU      1.23s WALL (       3 calls)
     forces       :      5.75s CPU      6.32s WALL (       5 calls)
     stress       :     14.78s CPU     15.36s WALL (       5 calls)

     Called by init_run:
     wfcinit      :      7.88s CPU     10.08s WALL (       2 calls)
     potinit      :      0.22s CPU      0.22s WALL (       2 calls)

     Called by electrons:
     c_bands      :   1603.25s CPU   1821.46s WALL (      45 calls)
     sum_band     :     51.58s CPU     61.81s WALL (      45 calls)
     v_of_rho     :      0.05s CPU      0.06s WALL (      50 calls)
     mix_rho      :      0.07s CPU      0.08s WALL (      45 calls)

     Called by c_bands:
     init_us_2    :      2.33s CPU      3.17s WALL (    4896 calls)
     ccgdiagg     :   1446.44s CPU   1616.27s WALL (    2436 calls)
     wfcrot       :    161.48s CPU    208.74s WALL (    2484 calls)

     Called by *cgdiagg:
     h_psi        :   1059.03s CPU   1247.92s WALL ( 1303615 calls)
     cdiaghg      :      9.82s CPU     10.65s WALL (    2484 calls)

     Called by h_psi:
     add_vuspsi   :     96.28s CPU    125.94s WALL ( 1303615 calls)

     General routines
     calbec       :    373.30s CPU    368.84s WALL ( 2605226 calls)
     fft          :      0.09s CPU      0.10s WALL (     223 calls)
     fftw         :    735.43s CPU    862.56s WALL ( 3343574 calls)
     davcio       :      2.34s CPU      5.76s WALL (    7056 calls)
 
     Parallel routines
     fft_scatter  :    346.86s CPU    391.51s WALL ( 3343797 calls)
 
     PWSCF        : 28m 5.98s CPU    32m 9.70s WALL

 
   This run was terminated on:  16:37:58  22Mar2018            

=------------------------------------------------------------------------------=
   JOB DONE.
=------------------------------------------------------------------------------=
