
     Program PWSCF v.5.0.2 starts on 22Mar2018 at 16: 5:51 

     This program is part of the open-source Quantum ESPRESSO suite
     for quantum simulation of materials; please cite
         "P. Giannozzi et al., J. Phys.:Condens. Matter 21 395502 (2009);
          URL http://www.quantum-espresso.org", 
     in publications or presentations arising from this work. More details at
     http://www.quantum-espresso.org/quote.php

     Parallel version (MPI), running on     4 processors
     R & G space division:  proc/nbgrp/npool/nimage =       4

     Current dimensions of program PWSCF are:
     Max number of different atomic species (ntypx) = 10
     Max number of k-points (npk) =  40000
     Max angular momentum in pseudopotentials (lmaxx) =  3
     Waiting for input...
     Reading input from standard input

     Subspace diagonalization in iterative solution of the eigenvalue problem:
     a serial algorithm will be used

 
     Parallelization info
     --------------------
     sticks:   dense  smooth     PW     G-vecs:    dense   smooth      PW
     Min         207     207     61                 7381     7381    1191
     Max         208     208     62                 7386     7386    1192
     Sum         829     829    247                29529    29529    4767
 


     bravais-lattice index     =            0
     lattice parameter (alat)  =       7.0151  a.u.
     unit-cell volume          =     862.2778 (a.u.)^3
     number of atoms/cell      =           12
     number of atomic types    =            2
     number of electrons       =       256.00
     number of Kohn-Sham states=          154
     kinetic-energy cutoff     =      40.0000  Ry
     charge density cutoff     =     160.0000  Ry
     convergence threshold     =      1.0E-04
     mixing beta               =       0.7000
     number of iterations used =            8  plain     mixing
     Exchange-correlation      = SLA-PZ-NOGX-NOGC ( 1 1 0 0 0)
     EXX-fraction              =        0.00
     nstep                     =           50


     celldm(1)=   7.015105  celldm(2)=   0.000000  celldm(3)=   0.000000
     celldm(4)=   0.000000  celldm(5)=   0.000000  celldm(6)=   0.000000

     crystal axes: (cart. coord. in units of alat)
               a(1) = (   1.000000   0.000000   0.000000 )  
               a(2) = (   0.000000   1.315963   0.000000 )  
               a(3) = (   0.000000   0.000000   1.898020 )  

     reciprocal axes: (cart. coord. in units 2 pi/alat)
               b(1) = (  1.000000  0.000000  0.000000 )  
               b(2) = (  0.000000  0.759900  0.000000 )  
               b(3) = (  0.000000  0.000000  0.526865 )  


     PseudoPot. # 1 for Tm read from file:
     /home/cwx6513/pp.La/Tm.UPF
     MD5 check sum: 245516e0878b5372ceeb9443ded2c4e1
     Pseudo is Norm-conserving, Zval = 23.0
     Generated in analytical, separable form
     Using radial grid of 1269 points,  6 beta functions with: 
                l(1) =   0
                l(2) =   0
                l(3) =   1
                l(4) =   1
                l(5) =   2
                l(6) =   3

     PseudoPot. # 2 for Gd read from file:
     /home/cwx6513/pp.La/Gd.UPF
     MD5 check sum: 09a8be538722f05520810cb6aac0efd2
     Pseudo is Norm-conserving, Zval = 18.0
     Generated in analytical, separable form
     Using radial grid of 1263 points,  6 beta functions with: 
                l(1) =   0
                l(2) =   0
                l(3) =   1
                l(4) =   1
                l(5) =   2
                l(6) =   3

     atomic species   valence    mass     pseudopotential
        Co            23.00    58.93320     Tm( 1.00)
        Si            18.00    28.08550     Gd( 1.00)

      8 Sym. Ops., with inversion, found ( 6 have fractional translation)



   Cartesian axes

     site n.     atom                  positions (alat units)
         1           Co  tau(   1) = (   0.7500000   1.0875135   0.8270358  )
         2           Co  tau(   2) = (   0.2500000   0.2284499   1.0709846  )
         3           Co  tau(   3) = (   0.7500000   0.4295318   0.1219744  )
         4           Co  tau(   4) = (   0.2500000   0.8864316   1.7760460  )
         5           Co  tau(   5) = (   0.2500000   0.7067855   0.5358966  )
         6           Co  tau(   6) = (   0.7500000   0.6091779   1.3621238  )
         7           Co  tau(   7) = (   0.2500000   0.0488038   0.4131136  )
         8           Co  tau(   8) = (   0.7500000   1.2671596   1.4849068  )
         9           Si  tau(   9) = (   0.2500000   0.2669484   1.6960710  )
        10           Si  tau(  10) = (   0.7500000   1.0490149   0.2019494  )
        11           Si  tau(  11) = (   0.2500000   0.9249301   1.1509596  )
        12           Si  tau(  12) = (   0.7500000   0.3910333   0.7470608  )

     number of k points=    12  gaussian smearing, width (Ry)=  0.1000
                       cart. coord. in units 2pi/alat
        k(    1) = (   0.0000000   0.0000000   0.0000000), wk =   0.0833333
        k(    2) = (   0.0000000   0.0000000   0.1317162), wk =   0.1666667
        k(    3) = (   0.0000000   0.0000000  -0.2634324), wk =   0.0833333
        k(    4) = (   0.0000000   0.2532999   0.0000000), wk =   0.1666667
        k(    5) = (   0.0000000   0.2532999   0.1317162), wk =   0.3333333
        k(    6) = (   0.0000000   0.2532999  -0.2634324), wk =   0.1666667
        k(    7) = (  -0.5000000   0.0000000   0.0000000), wk =   0.0833333
        k(    8) = (  -0.5000000   0.0000000   0.1317162), wk =   0.1666667
        k(    9) = (  -0.5000000   0.0000000  -0.2634324), wk =   0.0833333
        k(   10) = (  -0.5000000   0.2532999   0.0000000), wk =   0.1666667
        k(   11) = (  -0.5000000   0.2532999   0.1317162), wk =   0.3333333
        k(   12) = (  -0.5000000   0.2532999  -0.2634324), wk =   0.1666667

     Dense  grid:    29529 G-vectors     FFT dimensions: (  30,  40,  54)

     Largest allocated arrays     est. size (Mb)     dimensions
        Kohn-Sham Wavefunctions         2.17 Mb     (    922,  154)
        NL pseudopotentials             3.38 Mb     (    922,  240)
        Each V/rho on FFT grid          0.26 Mb     (  16800)
        Each G-vector array             0.06 Mb     (   7386)
        G-vector shells                 0.06 Mb     (   7386)
     Largest temporary arrays     est. size (Mb)     dimensions
        Each subspace H/S matrix        0.36 Mb     ( 154, 154)
        Each <psi_i|beta_j> matrix      0.56 Mb     (    240,  154)
        Arrays for rho mixing           2.05 Mb     (  16800,   8)

     Initial potential from superposition of free atoms

     Starting from uniform charge
     Starting wfc are    0 randomized atomic wfcs

     total cpu time spent up to now is        4.2 secs

     Self-consistent Calculation

     iteration #  1     ecut=    40.00 Ry     beta=0.70
     CG style diagonalization
     c_bands:  4 eigenvalues not converged
     c_bands:  4 eigenvalues not converged
     c_bands:  4 eigenvalues not converged
     c_bands:  2 eigenvalues not converged
     c_bands:  1 eigenvalues not converged
     c_bands:  1 eigenvalues not converged
     c_bands:  4 eigenvalues not converged
     c_bands:  3 eigenvalues not converged
     c_bands:  5 eigenvalues not converged
     c_bands:  1 eigenvalues not converged
     c_bands:  2 eigenvalues not converged
     c_bands:  1 eigenvalues not converged
     ethr =  1.00E-02,  avg # of iterations = 12.5

     total cpu time spent up to now is       74.4 secs

     total energy              =   -3083.79468111 Ry
     Harris-Foulkes estimate   =   -4313.90813434 Ry
     estimated scf accuracy    <    1531.26144699 Ry

     iteration #  2     ecut=    40.00 Ry     beta=0.70
     CG style diagonalization
     c_bands:  4 eigenvalues not converged
     c_bands:  1 eigenvalues not converged
     c_bands:  2 eigenvalues not converged
     c_bands:  3 eigenvalues not converged
     c_bands:  5 eigenvalues not converged
     c_bands:  1 eigenvalues not converged
     c_bands:  2 eigenvalues not converged
     c_bands:  1 eigenvalues not converged
     ethr =  1.00E-02,  avg # of iterations = 12.5

     total cpu time spent up to now is      132.3 secs

     total energy              =   -3299.83449489 Ry
     Harris-Foulkes estimate   =   -4100.57842880 Ry
     estimated scf accuracy    <    1446.00444635 Ry

     iteration #  3     ecut=    40.00 Ry     beta=0.70
     CG style diagonalization
     c_bands:  1 eigenvalues not converged
     ethr =  1.00E-02,  avg # of iterations = 10.0

     total cpu time spent up to now is      180.9 secs

     total energy              =   -3692.20917911 Ry
     Harris-Foulkes estimate   =   -3777.77802039 Ry
     estimated scf accuracy    <     172.32207685 Ry

     iteration #  4     ecut=    40.00 Ry     beta=0.70
     CG style diagonalization
     ethr =  1.00E-02,  avg # of iterations =  4.7

     total cpu time spent up to now is      202.0 secs

     total energy              =   -3722.83339421 Ry
     Harris-Foulkes estimate   =   -3728.59687230 Ry
     estimated scf accuracy    <      12.24061568 Ry

     iteration #  5     ecut=    40.00 Ry     beta=0.70
     CG style diagonalization
     ethr =  4.78E-03,  avg # of iterations =  3.6

     total cpu time spent up to now is      217.4 secs

     total energy              =   -3724.99098735 Ry
     Harris-Foulkes estimate   =   -3725.51185743 Ry
     estimated scf accuracy    <       1.01710350 Ry

     iteration #  6     ecut=    40.00 Ry     beta=0.70
     CG style diagonalization
     ethr =  3.97E-04,  avg # of iterations =  4.1

     total cpu time spent up to now is      234.6 secs

     total energy              =   -3725.19390104 Ry
     Harris-Foulkes estimate   =   -3725.28280798 Ry
     estimated scf accuracy    <       0.15472057 Ry

     iteration #  7     ecut=    40.00 Ry     beta=0.70
     CG style diagonalization
     c_bands:  1 eigenvalues not converged
     c_bands:  1 eigenvalues not converged
     c_bands:  1 eigenvalues not converged
     ethr =  6.04E-05,  avg # of iterations =  4.2

     total cpu time spent up to now is      252.0 secs

     total energy              =   -3725.23496240 Ry
     Harris-Foulkes estimate   =   -3725.25403972 Ry
     estimated scf accuracy    <       0.03378882 Ry

     iteration #  8     ecut=    40.00 Ry     beta=0.70
     CG style diagonalization
     ethr =  1.32E-05,  avg # of iterations =  3.7

     total cpu time spent up to now is      267.0 secs

     total energy              =   -3725.24091584 Ry
     Harris-Foulkes estimate   =   -3725.24210332 Ry
     estimated scf accuracy    <       0.00182682 Ry

     iteration #  9     ecut=    40.00 Ry     beta=0.70
     CG style diagonalization
     c_bands:  1 eigenvalues not converged
     ethr =  7.14E-07,  avg # of iterations =  4.2

     total cpu time spent up to now is      286.1 secs

     total energy              =   -3725.24156521 Ry
     Harris-Foulkes estimate   =   -3725.24162128 Ry
     estimated scf accuracy    <       0.00010183 Ry

     iteration # 10     ecut=    40.00 Ry     beta=0.70
     CG style diagonalization
     ethr =  3.98E-08,  avg # of iterations =  3.9

     total cpu time spent up to now is      304.1 secs

     total energy              =   -3725.24032837 Ry
     Harris-Foulkes estimate   =   -3725.24160762 Ry
     estimated scf accuracy    <       0.08234903 Ry

     iteration # 11     ecut=    40.00 Ry     beta=0.70
     CG style diagonalization
     c_bands:  5 eigenvalues not converged
     c_bands:  4 eigenvalues not converged
     c_bands:  3 eigenvalues not converged
     c_bands:  1 eigenvalues not converged
     c_bands:  1 eigenvalues not converged
     c_bands:  1 eigenvalues not converged
     ethr =  3.98E-08,  avg # of iterations = 26.0

     total cpu time spent up to now is      414.2 secs

     total energy              =   -3725.26770224 Ry
     Harris-Foulkes estimate   =   -3725.24161315 Ry
     estimated scf accuracy    <      25.62372319 Ry

     iteration # 12     ecut=    40.00 Ry     beta=0.70
     CG style diagonalization
     c_bands:  2 eigenvalues not converged
     c_bands:  2 eigenvalues not converged
     c_bands:  3 eigenvalues not converged
     c_bands:  1 eigenvalues not converged
     ethr =  3.98E-08,  avg # of iterations = 24.8

     total cpu time spent up to now is      509.3 secs

     total energy              =   -3725.24238049 Ry
     Harris-Foulkes estimate   =   -3725.24161244 Ry
     estimated scf accuracy    <       8.56092703 Ry

     iteration # 13     ecut=    40.00 Ry     beta=0.70
     CG style diagonalization
     ethr =  3.98E-08,  avg # of iterations = 23.2

     total cpu time spent up to now is      598.8 secs

     total energy              =   -3725.24858480 Ry
     Harris-Foulkes estimate   =   -3725.24161524 Ry
     estimated scf accuracy    <       6.42000177 Ry

     iteration # 14     ecut=    40.00 Ry     beta=0.70
     CG style diagonalization
     ethr =  3.98E-08,  avg # of iterations = 23.2

     total cpu time spent up to now is      688.3 secs

     total energy              =   -3725.24293238 Ry
     Harris-Foulkes estimate   =   -3725.24161299 Ry
     estimated scf accuracy    <       8.30250731 Ry

     iteration # 15     ecut=    40.00 Ry     beta=0.70
     CG style diagonalization
     ethr =  3.98E-08,  avg # of iterations = 23.3

     total cpu time spent up to now is      776.9 secs

     total energy              =   -3725.23604376 Ry
     Harris-Foulkes estimate   =   -3725.24161758 Ry
     estimated scf accuracy    <       8.29971831 Ry

     iteration # 16     ecut=    40.00 Ry     beta=0.70
     CG style diagonalization
     ethr =  3.98E-08,  avg # of iterations = 23.3

     total cpu time spent up to now is      856.0 secs

     total energy              =   -3725.23555978 Ry
     Harris-Foulkes estimate   =   -3725.24160743 Ry
     estimated scf accuracy    <       6.17383204 Ry

     iteration # 17     ecut=    40.00 Ry     beta=0.70
     CG style diagonalization
     ethr =  3.98E-08,  avg # of iterations = 23.2

     total cpu time spent up to now is      932.1 secs

     total energy              =   -3725.22117034 Ry
     Harris-Foulkes estimate   =   -3725.24161869 Ry
     estimated scf accuracy    <       7.59401511 Ry

     iteration # 18     ecut=    40.00 Ry     beta=0.70
     CG style diagonalization
     ethr =  3.98E-08,  avg # of iterations = 23.2

     total cpu time spent up to now is     1008.5 secs

     total energy              =   -3725.17769680 Ry
     Harris-Foulkes estimate   =   -3725.24175987 Ry
     estimated scf accuracy    <       7.88126882 Ry

     iteration # 19     ecut=    40.00 Ry     beta=0.70
     CG style diagonalization
     c_bands:  1 eigenvalues not converged
     ethr =  3.98E-08,  avg # of iterations = 23.2

     total cpu time spent up to now is     1084.4 secs

     total energy              =   -3725.28797473 Ry
     Harris-Foulkes estimate   =   -3725.24345813 Ry
     estimated scf accuracy    <       7.86966321 Ry

     iteration # 20     ecut=    40.00 Ry     beta=0.70
     CG style diagonalization
     ethr =  3.98E-08,  avg # of iterations = 23.1

     total cpu time spent up to now is     1160.3 secs

     total energy              =   -3725.28473483 Ry
     Harris-Foulkes estimate   =   -3725.24761022 Ry
     estimated scf accuracy    <       7.85701502 Ry

     iteration # 21     ecut=    40.00 Ry     beta=0.70
     CG style diagonalization
     ethr =  3.98E-08,  avg # of iterations = 23.2

     total cpu time spent up to now is     1236.7 secs

     total energy              =   -3725.33709420 Ry
     Harris-Foulkes estimate   =   -3725.25075937 Ry
     estimated scf accuracy    <       7.87069060 Ry

     iteration # 22     ecut=    40.00 Ry     beta=0.70
     CG style diagonalization
     ethr =  3.98E-08,  avg # of iterations = 23.2

     total cpu time spent up to now is     1312.7 secs

     total energy              =   -3725.22919313 Ry
     Harris-Foulkes estimate   =   -3725.25112734 Ry
     estimated scf accuracy    <       6.64112959 Ry

     iteration # 23     ecut=    40.00 Ry     beta=0.70
     CG style diagonalization
     c_bands:  1 eigenvalues not converged
     ethr =  3.98E-08,  avg # of iterations = 23.3

     total cpu time spent up to now is     1389.1 secs

     total energy              =   -3725.21391646 Ry
     Harris-Foulkes estimate   =   -3725.24816171 Ry
     estimated scf accuracy    <       8.58817412 Ry

     iteration # 24     ecut=    40.00 Ry     beta=0.70
     CG style diagonalization
     ethr =  3.98E-08,  avg # of iterations = 23.3

     total cpu time spent up to now is     1461.4 secs

     total energy              =   -3725.17743871 Ry
     Harris-Foulkes estimate   =   -3725.24669402 Ry
     estimated scf accuracy    <       6.98831081 Ry

     iteration # 25     ecut=    40.00 Ry     beta=0.70
     CG style diagonalization
     ethr =  3.98E-08,  avg # of iterations = 23.3

     total cpu time spent up to now is     1533.2 secs

     total energy              =   -3725.23433677 Ry
     Harris-Foulkes estimate   =   -3725.24619358 Ry
     estimated scf accuracy    <       6.85454401 Ry

     iteration # 26     ecut=    40.00 Ry     beta=0.70
     CG style diagonalization
     c_bands:  1 eigenvalues not converged
     ethr =  3.98E-08,  avg # of iterations = 23.3

     total cpu time spent up to now is     1604.8 secs

     total energy              =   -3725.23818332 Ry
     Harris-Foulkes estimate   =   -3725.24478212 Ry
     estimated scf accuracy    <       8.83776406 Ry

     iteration # 27     ecut=    40.00 Ry     beta=0.70
     CG style diagonalization
     c_bands:  2 eigenvalues not converged
     ethr =  3.98E-08,  avg # of iterations = 23.4

     total cpu time spent up to now is     1676.0 secs

     total energy              =   -3725.24454421 Ry
     Harris-Foulkes estimate   =   -3725.24583485 Ry
     estimated scf accuracy    <       8.76147536 Ry

     iteration # 28     ecut=    40.00 Ry     beta=0.70
     CG style diagonalization
     ethr =  3.98E-08,  avg # of iterations = 23.3

     total cpu time spent up to now is     1747.6 secs

     total energy              =   -3725.23343816 Ry
     Harris-Foulkes estimate   =   -3725.24517305 Ry
     estimated scf accuracy    <       6.68219519 Ry

     iteration # 29     ecut=    40.00 Ry     beta=0.70
     CG style diagonalization
     ethr =  3.98E-08,  avg # of iterations = 23.3

     total cpu time spent up to now is     1820.7 secs

     total energy              =   -3725.30962694 Ry
     Harris-Foulkes estimate   =   -3725.24519949 Ry
     estimated scf accuracy    <       8.38384374 Ry

     iteration # 30     ecut=    40.00 Ry     beta=0.70
     CG style diagonalization
     c_bands:  1 eigenvalues not converged
     ethr =  3.98E-08,  avg # of iterations = 23.2

     total cpu time spent up to now is     1891.0 secs

     total energy              =   -3725.17398490 Ry
     Harris-Foulkes estimate   =   -3725.24415799 Ry
     estimated scf accuracy    <       8.33384126 Ry

     iteration # 31     ecut=    40.00 Ry     beta=0.70
     CG style diagonalization
     ethr =  3.98E-08,  avg # of iterations = 23.2

     total cpu time spent up to now is     1957.0 secs

     total energy              =   -3724.48637915 Ry
     Harris-Foulkes estimate   =   -3725.24497180 Ry
     estimated scf accuracy    <       7.83026334 Ry

     iteration # 32     ecut=    40.00 Ry     beta=0.70
     CG style diagonalization
     ethr =  3.98E-08,  avg # of iterations = 23.2

     total cpu time spent up to now is     2022.7 secs

     total energy              =   -3725.27238063 Ry
     Harris-Foulkes estimate   =   -3725.29636225 Ry
     estimated scf accuracy    <       6.74420621 Ry

     iteration # 33     ecut=    40.00 Ry     beta=0.70
     CG style diagonalization
     c_bands:  1 eigenvalues not converged
     ethr =  3.98E-08,  avg # of iterations = 23.3

     total cpu time spent up to now is     2088.6 secs

     total energy              =   -3724.09409747 Ry
     Harris-Foulkes estimate   =   -3725.30051999 Ry
     estimated scf accuracy    <       6.76504253 Ry

     iteration # 34     ecut=    40.00 Ry     beta=0.70
     CG style diagonalization
     c_bands:  2 eigenvalues not converged
     ethr =  3.98E-08,  avg # of iterations = 23.6

     total cpu time spent up to now is     2155.6 secs

     total energy              =   -3725.68397331 Ry
     Harris-Foulkes estimate   =   -3725.59823764 Ry
     estimated scf accuracy    <       5.06916363 Ry

     iteration # 35     ecut=    40.00 Ry     beta=0.70
     CG style diagonalization
     ethr =  3.98E-08,  avg # of iterations = 23.6

     total cpu time spent up to now is     2222.6 secs

     total energy              =   -3726.63754020 Ry
     Harris-Foulkes estimate   =   -3725.63355782 Ry
     estimated scf accuracy    <       8.73444005 Ry

     iteration # 36     ecut=    40.00 Ry     beta=0.70
     CG style diagonalization
     c_bands:  2 eigenvalues not converged
     ethr =  3.98E-08,  avg # of iterations = 23.5

     total cpu time spent up to now is     2342.7 secs

     total energy              =   -3724.46715801 Ry
     Harris-Foulkes estimate   =   -3725.53992231 Ry
     estimated scf accuracy    <       9.96399726 Ry

     iteration # 37     ecut=    40.00 Ry     beta=0.70
     CG style diagonalization
     ethr =  3.98E-08,  avg # of iterations = 23.5

     total cpu time spent up to now is     2409.9 secs

     total energy              =   -3722.32904196 Ry
     Harris-Foulkes estimate   =   -3725.67916629 Ry
     estimated scf accuracy    <       5.12254096 Ry

     iteration # 38     ecut=    40.00 Ry     beta=0.70
     CG style diagonalization
     c_bands:  1 eigenvalues not converged
     ethr =  3.98E-08,  avg # of iterations = 24.3

     total cpu time spent up to now is     2480.1 secs

     total energy              =   -3729.32087713 Ry
     Harris-Foulkes estimate   =   -3729.22269989 Ry
     estimated scf accuracy    <       0.83284588 Ry

     iteration # 39     ecut=    40.00 Ry     beta=0.70
     CG style diagonalization
     c_bands:  1 eigenvalues not converged
     ethr =  3.98E-08,  avg # of iterations = 24.2

     total cpu time spent up to now is     2549.0 secs

     total energy              =   -3728.56014984 Ry
     Harris-Foulkes estimate   =   -3728.90311910 Ry
     estimated scf accuracy    <       3.30638467 Ry

     iteration # 40     ecut=    40.00 Ry     beta=0.70
     CG style diagonalization
     c_bands:  2 eigenvalues not converged
     ethr =  3.98E-08,  avg # of iterations = 24.3

     total cpu time spent up to now is     2619.3 secs

     total energy              =   -3729.31360514 Ry
     Harris-Foulkes estimate   =   -3729.45860734 Ry
     estimated scf accuracy    <       0.72164011 Ry

     iteration # 41     ecut=    40.00 Ry     beta=0.70
     CG style diagonalization
     c_bands:  1 eigenvalues not converged
     ethr =  3.98E-08,  avg # of iterations = 24.3

     total cpu time spent up to now is     2688.8 secs

     total energy              =   -3729.70853262 Ry
     Harris-Foulkes estimate   =   -3730.00927005 Ry
     estimated scf accuracy    <       0.52146822 Ry

     iteration # 42     ecut=    40.00 Ry     beta=0.70
     CG style diagonalization
     c_bands:  2 eigenvalues not converged
     c_bands:  1 eigenvalues not converged
     c_bands:  2 eigenvalues not converged
     ethr =  3.98E-08,  avg # of iterations = 24.6

     total cpu time spent up to now is     2756.2 secs

     total energy              =   -3731.71482938 Ry
     Harris-Foulkes estimate   =   -3731.81867436 Ry
     estimated scf accuracy    <       0.12455766 Ry

     iteration # 43     ecut=    40.00 Ry     beta=0.70
     CG style diagonalization
     c_bands:  2 eigenvalues not converged
     c_bands:  2 eigenvalues not converged
     ethr =  3.98E-08,  avg # of iterations = 24.7

     total cpu time spent up to now is     2821.8 secs

     total energy              =   -3733.81469562 Ry
     Harris-Foulkes estimate   =   -3733.81445429 Ry
     estimated scf accuracy    <       0.00024804 Ry

     iteration # 44     ecut=    40.00 Ry     beta=0.70
     CG style diagonalization
     c_bands:  2 eigenvalues not converged
     c_bands:  2 eigenvalues not converged
     c_bands:  2 eigenvalues not converged
     ethr =  3.98E-08,  avg # of iterations = 24.8

     total cpu time spent up to now is     2888.1 secs

     total energy              =   -3733.96106275 Ry
     Harris-Foulkes estimate   =   -3733.94414452 Ry
     estimated scf accuracy    <       0.86147324 Ry

     iteration # 45     ecut=    40.00 Ry     beta=0.70
     CG style diagonalization
     c_bands:  1 eigenvalues not converged
     c_bands:  2 eigenvalues not converged
     c_bands:  2 eigenvalues not converged
     ethr =  3.98E-08,  avg # of iterations = 24.7

     total cpu time spent up to now is     2954.4 secs

     total energy              =   -3733.87019729 Ry
     Harris-Foulkes estimate   =   -3733.86686836 Ry
     estimated scf accuracy    <       0.00024736 Ry

     iteration # 46     ecut=    40.00 Ry     beta=0.70
     CG style diagonalization
     c_bands:  1 eigenvalues not converged
     c_bands:  2 eigenvalues not converged
     ethr =  3.98E-08,  avg # of iterations = 24.8

     total cpu time spent up to now is     3019.8 secs

     total energy              =   -3734.26160468 Ry
     Harris-Foulkes estimate   =   -3734.26765162 Ry
     estimated scf accuracy    <       0.30525646 Ry

     iteration # 47     ecut=    40.00 Ry     beta=0.70
     CG style diagonalization
     c_bands:  1 eigenvalues not converged
     c_bands:  1 eigenvalues not converged
     c_bands:  2 eigenvalues not converged
     ethr =  3.98E-08,  avg # of iterations = 24.8

     total cpu time spent up to now is     3083.8 secs

     total energy              =   -3734.22013919 Ry
     Harris-Foulkes estimate   =   -3734.21986104 Ry
     estimated scf accuracy    <       0.00446956 Ry

     iteration # 48     ecut=    40.00 Ry     beta=0.70
     CG style diagonalization
     c_bands:  3 eigenvalues not converged
     c_bands:  2 eigenvalues not converged
     ethr =  3.98E-08,  avg # of iterations = 24.8

     total cpu time spent up to now is     3145.1 secs

     total energy              =   -3734.23749481 Ry
     Harris-Foulkes estimate   =   -3734.23765124 Ry
     estimated scf accuracy    <       0.78571008 Ry

     iteration # 49     ecut=    40.00 Ry     beta=0.70
     CG style diagonalization
     c_bands:  4 eigenvalues not converged
     c_bands:  2 eigenvalues not converged
     ethr =  3.98E-08,  avg # of iterations = 24.9

     total cpu time spent up to now is     3206.5 secs

     total energy              =   -3734.23857353 Ry
     Harris-Foulkes estimate   =   -3734.23836080 Ry
     estimated scf accuracy    <       0.00486848 Ry

     iteration # 50     ecut=    40.00 Ry     beta=0.70
     CG style diagonalization
     c_bands:  4 eigenvalues not converged
     c_bands:  1 eigenvalues not converged
     c_bands:  2 eigenvalues not converged
     ethr =  3.98E-08,  avg # of iterations = 24.8

     total cpu time spent up to now is     3268.5 secs

     total energy              =   -3734.25161034 Ry
     Harris-Foulkes estimate   =   -3734.25145099 Ry
     estimated scf accuracy    <       0.00515993 Ry

     iteration # 51     ecut=    40.00 Ry     beta=0.70
     CG style diagonalization
     c_bands:  1 eigenvalues not converged
     c_bands:  1 eigenvalues not converged
     c_bands:  2 eigenvalues not converged
     ethr =  3.98E-08,  avg # of iterations = 24.8

     total cpu time spent up to now is     3330.6 secs

     total energy              =   -3734.26100774 Ry
     Harris-Foulkes estimate   =   -3734.26103365 Ry
     estimated scf accuracy    <       0.00537689 Ry

     iteration # 52     ecut=    40.00 Ry     beta=0.70
     CG style diagonalization
     c_bands:  1 eigenvalues not converged
     c_bands:  5 eigenvalues not converged
     c_bands:  1 eigenvalues not converged
     c_bands:  2 eigenvalues not converged
     ethr =  3.98E-08,  avg # of iterations = 25.0

     total cpu time spent up to now is     3393.0 secs

     total energy              =   -3734.25951999 Ry
     Harris-Foulkes estimate   =   -3734.25946548 Ry
     estimated scf accuracy    <       0.00532012 Ry

     iteration # 53     ecut=    40.00 Ry     beta=0.70
     CG style diagonalization
     c_bands:  2 eigenvalues not converged
     c_bands:  2 eigenvalues not converged
     c_bands:  2 eigenvalues not converged
     c_bands:  1 eigenvalues not converged
     c_bands:  2 eigenvalues not converged
     ethr =  3.98E-08,  avg # of iterations = 24.9

     total cpu time spent up to now is     3457.2 secs

     total energy              =   -3734.26280607 Ry
     Harris-Foulkes estimate   =   -3734.26271374 Ry
     estimated scf accuracy    <       0.00537643 Ry

     iteration # 54     ecut=    40.00 Ry     beta=0.70
     CG style diagonalization
     c_bands:  2 eigenvalues not converged
     c_bands:  3 eigenvalues not converged
     c_bands:  1 eigenvalues not converged
     c_bands:  2 eigenvalues not converged
     ethr =  3.98E-08,  avg # of iterations = 24.9

     total cpu time spent up to now is     3521.1 secs

     total energy              =   -3734.26478361 Ry
     Harris-Foulkes estimate   =   -3734.26819067 Ry
     estimated scf accuracy    <       0.30499191 Ry

     iteration # 55     ecut=    40.00 Ry     beta=0.70
     CG style diagonalization
     c_bands:  2 eigenvalues not converged
     c_bands:  1 eigenvalues not converged
     c_bands:  1 eigenvalues not converged
     c_bands:  2 eigenvalues not converged
     ethr =  3.98E-08,  avg # of iterations = 24.9

     total cpu time spent up to now is     3580.4 secs

     total energy              =   -3734.24116218 Ry
     Harris-Foulkes estimate   =   -3734.24130349 Ry
     estimated scf accuracy    <       0.00488868 Ry

     iteration # 56     ecut=    40.00 Ry     beta=0.70
     CG style diagonalization
     c_bands:  1 eigenvalues not converged
     c_bands:  2 eigenvalues not converged
     c_bands:  1 eigenvalues not converged
     c_bands:  2 eigenvalues not converged
     ethr =  3.98E-08,  avg # of iterations = 24.9

     total cpu time spent up to now is     3639.1 secs

     total energy              =   -3734.23250007 Ry
     Harris-Foulkes estimate   =   -3734.23247837 Ry
     estimated scf accuracy    <       0.00471026 Ry

     iteration # 57     ecut=    40.00 Ry     beta=0.70
     CG style diagonalization
     c_bands:  3 eigenvalues not converged
     c_bands:  2 eigenvalues not converged
     ethr =  3.98E-08,  avg # of iterations = 24.9

     total cpu time spent up to now is     3697.6 secs

     total energy              =   -3734.23346175 Ry
     Harris-Foulkes estimate   =   -3734.23385124 Ry
     estimated scf accuracy    <       0.00473305 Ry

     iteration # 58     ecut=    40.00 Ry     beta=0.70
     CG style diagonalization
     c_bands:  2 eigenvalues not converged
     ethr =  3.98E-08,  avg # of iterations = 24.9

     total cpu time spent up to now is     3755.7 secs

     total energy              =   -3734.20839168 Ry
     Harris-Foulkes estimate   =   -3734.20865726 Ry
     estimated scf accuracy    <       0.00419788 Ry

     iteration # 59     ecut=    40.00 Ry     beta=0.70
     CG style diagonalization
     c_bands:  1 eigenvalues not converged
     c_bands:  2 eigenvalues not converged
     ethr =  3.98E-08,  avg # of iterations = 24.8

     total cpu time spent up to now is     3814.2 secs

     total energy              =   -3734.19046463 Ry
     Harris-Foulkes estimate   =   -3734.19061130 Ry
     estimated scf accuracy    <       0.00383104 Ry

     iteration # 60     ecut=    40.00 Ry     beta=0.70
     CG style diagonalization
     c_bands:  2 eigenvalues not converged
     c_bands:  1 eigenvalues not converged
     c_bands:  1 eigenvalues not converged
     c_bands:  2 eigenvalues not converged
     c_bands:  1 eigenvalues not converged
     ethr =  3.98E-08,  avg # of iterations = 24.8

     total cpu time spent up to now is     3872.9 secs

     total energy              =   -3734.18036955 Ry
     Harris-Foulkes estimate   =   -3734.18026979 Ry
     estimated scf accuracy    <       0.00362661 Ry

     iteration # 61     ecut=    40.00 Ry     beta=0.70
     CG style diagonalization
     c_bands:  2 eigenvalues not converged
     c_bands:  2 eigenvalues not converged
     ethr =  3.98E-08,  avg # of iterations = 24.8

     total cpu time spent up to now is     3931.8 secs

     total energy              =   -3734.18708913 Ry
     Harris-Foulkes estimate   =   -3734.18737413 Ry
     estimated scf accuracy    <       0.00371703 Ry

     iteration # 62     ecut=    40.00 Ry     beta=0.70
     CG style diagonalization
     c_bands:  2 eigenvalues not converged
     c_bands:  1 eigenvalues not converged
     c_bands:  2 eigenvalues not converged
     c_bands:  1 eigenvalues not converged
     ethr =  3.98E-08,  avg # of iterations = 24.9

     total cpu time spent up to now is     3992.2 secs

     total energy              =   -3734.17014216 Ry
     Harris-Foulkes estimate   =   -3734.16671655 Ry
     estimated scf accuracy    <      18.68424402 Ry

     iteration # 63     ecut=    40.00 Ry     beta=0.70
     CG style diagonalization
     ethr =  3.98E-08,  avg # of iterations =  3.0

     total cpu time spent up to now is     4001.8 secs

     total energy              =   -3734.16110631 Ry
     Harris-Foulkes estimate   =   -3734.17014345 Ry
     estimated scf accuracy    <      18.69051837 Ry

     iteration # 64     ecut=    40.00 Ry     beta=0.70
     CG style diagonalization
     ethr =  3.98E-08,  avg # of iterations =  3.0

     total cpu time spent up to now is     4009.4 secs

     total energy              =   -3734.15327418 Ry
     Harris-Foulkes estimate   =   -3734.16110867 Ry
     estimated scf accuracy    <      18.67285155 Ry

     iteration # 65     ecut=    40.00 Ry     beta=0.70
     CG style diagonalization
     ethr =  3.98E-08,  avg # of iterations =  3.0

     total cpu time spent up to now is     4016.2 secs

     total energy              =   -3734.15646187 Ry
     Harris-Foulkes estimate   =   -3734.15327535 Ry
     estimated scf accuracy    <      18.65742553 Ry

     iteration # 66     ecut=    40.00 Ry     beta=0.70
     CG style diagonalization
     ethr =  3.98E-08,  avg # of iterations =  3.0

     total cpu time spent up to now is     4022.8 secs

     total energy              =   -3734.10189840 Ry
     Harris-Foulkes estimate   =   -3734.15646232 Ry
     estimated scf accuracy    <      18.66231294 Ry

     iteration # 67     ecut=    40.00 Ry     beta=0.70
     CG style diagonalization
     ethr =  3.98E-08,  avg # of iterations =  3.9

     total cpu time spent up to now is     4031.4 secs

     total energy              =   -3734.11174857 Ry
     Harris-Foulkes estimate   =   -3734.10193560 Ry
     estimated scf accuracy    <      18.54865499 Ry

     iteration # 68     ecut=    40.00 Ry     beta=0.70
     CG style diagonalization
     ethr =  3.98E-08,  avg # of iterations =  3.0

     total cpu time spent up to now is     4038.0 secs

     total energy              =   -3734.10029984 Ry
     Harris-Foulkes estimate   =   -3734.11175001 Ry
     estimated scf accuracy    <      18.56755953 Ry

     iteration # 69     ecut=    40.00 Ry     beta=0.70
     CG style diagonalization
     ethr =  3.98E-08,  avg # of iterations =  3.0

     total cpu time spent up to now is     4044.6 secs

     total energy              =   -3734.02447243 Ry
     Harris-Foulkes estimate   =   -3734.10030097 Ry
     estimated scf accuracy    <      18.54757081 Ry

     iteration # 70     ecut=    40.00 Ry     beta=0.70
     CG style diagonalization
     ethr =  3.98E-08,  avg # of iterations =  3.9

     total cpu time spent up to now is     4053.5 secs

     total energy              =   -3721.42828959 Ry
     Harris-Foulkes estimate   =   -3734.02454770 Ry
     estimated scf accuracy    <      18.38823098 Ry

     iteration # 71     ecut=    40.00 Ry     beta=0.70
     CG style diagonalization
     ethr =  3.98E-08,  avg # of iterations = 19.9

     total cpu time spent up to now is     4100.8 secs

     total energy              =   -3725.24291329 Ry
     Harris-Foulkes estimate   =   -3725.24659270 Ry
     estimated scf accuracy    <       0.01379181 Ry

     iteration # 72     ecut=    40.00 Ry     beta=0.70
     CG style diagonalization
     ethr =  3.98E-08,  avg # of iterations =  5.2

     total cpu time spent up to now is     4114.7 secs

     total energy              =   -3725.24169443 Ry
     Harris-Foulkes estimate   =   -3725.24365060 Ry
     estimated scf accuracy    <       0.00495841 Ry

     iteration # 73     ecut=    40.00 Ry     beta=0.70
     CG style diagonalization
     ethr =  3.98E-08,  avg # of iterations =  4.7

     total cpu time spent up to now is     4127.1 secs

     total energy              =   -3725.24139030 Ry
     Harris-Foulkes estimate   =   -3725.24208123 Ry
     estimated scf accuracy    <       0.00139369 Ry

     iteration # 74     ecut=    40.00 Ry     beta=0.70
     CG style diagonalization
     ethr =  3.98E-08,  avg # of iterations =  4.9

     total cpu time spent up to now is     4139.8 secs

     total energy              =   -3725.24163894 Ry
     Harris-Foulkes estimate   =   -3725.24179048 Ry
     estimated scf accuracy    <       0.00043170 Ry

     iteration # 75     ecut=    40.00 Ry     beta=0.70
     CG style diagonalization
     ethr =  3.98E-08,  avg # of iterations =  3.6

     total cpu time spent up to now is     4149.0 secs

     total energy              =   -3725.24159821 Ry
     Harris-Foulkes estimate   =   -3725.24166651 Ry
     estimated scf accuracy    <       0.00014267 Ry

     iteration # 76     ecut=    40.00 Ry     beta=0.70
     CG style diagonalization
     ethr =  3.98E-08,  avg # of iterations =  3.4

     total cpu time spent up to now is     4157.5 secs

     End of self-consistent calculation

          k = 0.0000 0.0000 0.0000 (  3675 PWs)   bands (ev):

   -57.6498 -57.6372 -57.6189 -57.6027 -57.5860 -57.5621 -57.5193 -57.5077
   -18.4241 -18.3638 -18.2383 -18.0423 -17.0666 -16.9866 -16.9643 -16.8839
   -16.8547 -16.8449 -16.7811 -16.7718 -16.6721 -16.6435 -16.6226 -16.6166
   -16.5542 -16.5434 -16.4662 -16.4395 -16.4237 -16.4089 -16.3716 -16.3654
   -16.3451 -16.2553 -16.1960 -16.1405   9.6233   9.8078   9.8843   9.8848
     9.8867   9.9106   9.9918  10.0528  10.3050  10.5022  10.5126  10.7306
    27.9935  28.2432  28.2475  28.2548  28.3825  28.6408  28.6469  28.8451
    29.2643  29.4584  29.4919  29.7205  29.9155  30.3225  30.3564  30.8825
    30.9103  30.9330  30.9857  31.0242  31.1254  31.1752  31.4431  31.5088
    31.5316  31.7558  31.8383  31.9591  32.1913  32.4275  32.4400  32.4504
    32.6072  32.6389  32.7634  33.3034  33.5360  33.5738  33.8404  33.8555
    34.0215  37.4401  37.6406  37.8951  41.0159  41.6857  41.8863  42.2730
    42.3930  43.2658  43.6759  43.9477  44.3360  44.4211  44.4601  44.9033
    44.9225  45.6906  46.2432  46.4511  46.8830  46.8952  46.9352  47.2442
    47.3056  49.6909  50.2288  50.4638  50.8451  51.5516  52.4869  54.4828
    54.7314  55.6497  55.7884  55.9619  56.2120  56.5615  56.7681  57.3255
    57.3696  57.6679  57.7719  58.0018  58.0148  58.3295  58.4150  58.5890
    58.5947  58.6887  59.1251  59.1745  59.2065  59.2453  59.6427  59.6997
    60.2768  60.4056  60.7181  61.9765  62.0192  62.4292  62.8195  62.9844
    63.2324  63.4126

          k = 0.0000 0.0000 0.1317 (  3675 PWs)   bands (ev):

   -57.6579 -57.6328 -57.6300 -57.5988 -57.5884 -57.5776 -57.5204 -57.4838
   -18.4125 -18.3081 -18.2726 -18.0833 -17.0455 -16.9793 -16.9728 -16.9368
   -16.8471 -16.8280 -16.7509 -16.7446 -16.7405 -16.6395 -16.6315 -16.6181
   -16.5664 -16.5637 -16.4921 -16.4287 -16.4148 -16.4021 -16.4000 -16.3994
   -16.2315 -16.2310 -16.1923 -16.1561   9.6485   9.7682   9.8913   9.8941
     9.8984   9.9043   9.9998  10.0403  10.3203  10.4297  10.5842  10.7056
    27.9927  28.0422  28.1854  28.2033  28.5135  28.5415  28.7121  28.9580
    29.3797  29.5907  29.6437  29.9034  30.0891  30.3595  30.4016  30.7185
    30.7674  30.9746  30.9907  31.0870  31.1204  31.1815  31.3070  31.3315
    31.5999  31.7149  31.7698  31.9488  31.9978  32.1649  32.3436  32.5828
    32.8288  32.9080  32.9798  33.2196  33.4342  33.5651  33.7698  33.9230
    34.0563  35.8408  37.9671  39.0424  40.6255  40.7908  42.5357  42.6400
    42.7232  43.4022  43.6036  43.6301  43.6624  44.3513  44.6025  44.6980
    44.8889  45.2655  46.4099  46.5795  46.7921  46.9527  47.1278  47.5585
    49.2632  49.8962  50.1560  50.4730  50.9309  51.8444  52.5440  53.6900
    54.4625  55.1103  55.1842  55.7020  55.8905  56.2613  56.2903  57.1112
    57.1279  57.1601  57.6186  57.6329  57.9709  58.0448  58.4101  58.5834
    58.6504  58.9365  59.1938  59.4836  59.6027  59.8074  59.8190  60.0967
    60.1618  61.0002  61.5558  61.6208  61.8933  62.2456  62.2632  62.5716
    62.8969  62.9772

          k = 0.0000 0.0000-0.2634 (  3690 PWs)   bands (ev):

   -57.6605 -57.6605 -57.6327 -57.6327 -57.5845 -57.5845 -57.5048 -57.5048
   -18.3548 -18.3548 -18.1922 -18.1922 -16.9957 -16.9957 -16.9742 -16.9742
   -16.8205 -16.8205 -16.7448 -16.7448 -16.6776 -16.6776 -16.6611 -16.6611
   -16.6017 -16.6017 -16.4578 -16.4578 -16.4108 -16.4108 -16.4080 -16.4080
   -16.2204 -16.2204 -16.1813 -16.1813   9.7049   9.7049   9.9006   9.9006
     9.9027   9.9027  10.0092  10.0092  10.3608  10.3608  10.6489  10.6489
    27.9940  27.9940  28.0711  28.0711  28.4610  28.4610  29.2900  29.2900
    29.3533  29.3533  29.8927  29.8927  30.2821  30.2821  30.6189  30.6189
    30.8111  30.8111  30.8909  30.8909  31.0293  31.0293  31.3789  31.3789
    31.6282  31.6282  31.8950  31.8950  32.1249  32.1249  32.2839  32.2839
    33.0297  33.0297  33.1487  33.1487  33.5547  33.5547  34.0414  34.0414
    34.2091  34.2091  38.9184  38.9184  40.2738  40.2738  42.9143  42.9143
    43.2372  43.2372  43.5284  43.5284  43.8509  43.8509  44.2916  44.2916
    44.8983  44.8983  46.5856  46.5856  46.8224  46.8224  48.6289  48.6289
    49.3558  49.3558  50.8894  50.8894  51.6028  51.6028  52.3366  52.3366
    54.4597  54.4597  55.2443  55.2443  55.7467  55.7467  56.1303  56.1303
    56.9919  56.9919  57.3504  57.3504  57.9945  57.9945  58.7290  58.7290
    59.1311  59.1311  59.2516  59.2516  59.6439  59.6439  60.4605  60.4605
    60.9875  60.9875  61.1177  61.1177  61.8768  61.8768  62.2482  62.2482
    63.3997  63.3997

          k = 0.0000 0.2533 0.0000 (  3664 PWs)   bands (ev):

   -57.6341 -57.6137 -57.6020 -57.5974 -57.5791 -57.5467 -57.5280 -57.5236
   -18.4664 -18.4384 -18.1727 -18.0785 -16.9987 -16.9504 -16.8656 -16.8644
   -16.8619 -16.8581 -16.8253 -16.7673 -16.7602 -16.6682 -16.6055 -16.5714
   -16.5038 -16.4858 -16.4383 -16.4376 -16.3978 -16.3914 -16.3685 -16.3386
   -16.3227 -16.2732 -16.2468 -16.2157   9.6531   9.7517   9.8665   9.8826
     9.9174   9.9304   9.9365   9.9758  10.2674  10.3298  10.5569  10.6436
    28.3277  28.4611  28.5817  28.5990  28.8783  29.0301  29.0550  29.1381
    29.3344  29.5314  29.5489  29.8896  29.9021  29.9773  30.3687  30.4501
    30.5666  30.7432  30.7520  30.9162  31.2377  31.2574  31.4562  31.6818
    31.8341  31.8405  31.8527  31.9070  32.0940  32.1438  32.5282  32.7137
    32.7532  32.7810  33.1774  33.2142  33.2965  33.7120  33.9152  33.9475
    34.1471  36.6328  37.9856  38.1607  40.4249  41.2800  41.2923  42.1126
    42.3188  42.6487  42.6697  43.2364  43.4071  44.2950  44.5888  44.6316
    45.0596  45.1822  45.7998  45.8850  45.9863  46.2692  46.5485  46.8450
    47.9429  48.5212  50.9174  51.2800  51.4633  53.2254  53.5754  54.3147
    54.9521  55.2254  55.7372  55.8377  56.2378  56.3862  56.6512  57.2276
    57.2716  57.5784  57.7434  58.0626  58.4151  58.4711  58.5311  58.9157
    58.9849  59.1237  59.2595  59.4484  59.5026  59.8390  60.0130  60.1597
    60.7657  60.8279  60.9875  61.6037  62.0455  62.1493  62.2870  62.8825
    63.0724  63.5078

          k = 0.0000 0.2533 0.1317 (  3669 PWs)   bands (ev):

   -57.6323 -57.6208 -57.6137 -57.5919 -57.5789 -57.5693 -57.5300 -57.5221
   -18.4478 -18.4118 -18.2006 -18.1193 -16.9869 -16.9344 -16.9113 -16.9077
   -16.8453 -16.8110 -16.7935 -16.7672 -16.7449 -16.6689 -16.6174 -16.5493
   -16.5461 -16.5123 -16.4962 -16.4919 -16.4283 -16.3862 -16.3499 -16.3127
   -16.2744 -16.2531 -16.2386 -16.2124   9.6672   9.7402   9.8751   9.8849
     9.9158   9.9235   9.9336   9.9648  10.2711  10.3122  10.5710  10.6342
    28.3123  28.3623  28.4172  28.6380  28.8959  28.9290  29.1408  29.2661
    29.3826  29.6652  29.7635  29.8927  29.9831  30.0182  30.2316  30.4068
    30.7506  30.8298  30.9012  31.0364  31.2075  31.3265  31.4224  31.5312
    31.5332  31.6782  31.8112  32.0121  32.0812  32.1331  32.2624  32.5580
    32.8058  32.9155  33.1728  33.1800  33.3832  33.6756  33.9581  34.1132
    34.2331  36.5402  37.0130  38.6451  40.0085  40.8875  42.0410  42.3317
    42.3962  42.4549  42.6891  43.2132  43.2292  43.9314  44.4074  44.7208
    45.1208  45.3367  45.7835  46.0237  46.2646  46.3856  46.5392  47.1443
    48.4288  49.0997  51.0002  51.5871  51.6946  53.0494  53.4308  53.6861
    54.3912  54.5222  55.2048  55.2660  56.1735  56.5954  56.7932  57.2002
    57.2159  57.3162  57.6879  57.9282  58.4268  58.4917  58.7841  58.9052
    59.1625  59.3126  59.3281  59.7658  59.9775  60.0135  60.2924  60.4860
    60.7889  60.8441  61.1569  61.1888  61.7542  62.0648  62.4063  62.7824
    63.2438  63.6688

          k = 0.0000 0.2533-0.2634 (  3666 PWs)   bands (ev):

   -57.6212 -57.6212 -57.6090 -57.6090 -57.5612 -57.5612 -57.5319 -57.5319
   -18.3971 -18.3971 -18.1981 -18.1981 -16.9492 -16.9492 -16.9174 -16.9174
   -16.7927 -16.7927 -16.7878 -16.7878 -16.6829 -16.6829 -16.6436 -16.6436
   -16.5197 -16.5197 -16.5179 -16.5179 -16.4094 -16.4094 -16.3312 -16.3312
   -16.2470 -16.2470 -16.2045 -16.2045   9.7040   9.7040   9.8985   9.8985
     9.9028   9.9028   9.9447   9.9447  10.2875  10.2875  10.6061  10.6061
    28.2800  28.2800  28.4205  28.4205  29.0603  29.0603  29.1712  29.1712
    29.5501  29.5501  30.0150  30.0150  30.0816  30.0816  30.3524  30.3524
    30.8416  30.8416  31.0299  31.0299  31.1834  31.1834  31.3125  31.3125
    31.6507  31.6507  31.8427  31.8427  31.9965  31.9965  32.3637  32.3637
    32.9851  32.9851  33.0413  33.0413  33.5764  33.5764  34.0290  34.0290
    35.1703  35.1703  37.7780  37.7780  40.3356  40.3356  42.2910  42.2910
    42.7406  42.7406  42.9139  42.9139  43.1981  43.1981  44.5468  44.5468
    45.5641  45.5641  45.6133  45.6133  46.5645  46.5645  46.9348  46.9348
    49.7896  49.7896  51.0363  51.0363  52.7237  52.7237  52.7940  52.7940
    53.7886  53.7886  55.5917  55.5917  55.8599  55.8599  56.7234  56.7234
    57.4924  57.4924  57.9541  57.9541  58.3196  58.3196  58.8118  58.8118
    59.1931  59.1931  59.7151  59.7151  59.8302  59.8302  60.7932  60.7932
    60.9949  60.9949  61.6994  61.6994  61.8173  61.8173  62.9317  62.9317
    63.0537  63.0537

          k =-0.5000 0.0000 0.0000 (  3722 PWs)   bands (ev):

   -57.6427 -57.6427 -57.6345 -57.6345 -57.6268 -57.6268 -57.5631 -57.5631
   -18.4598 -18.4598 -18.3037 -18.3037 -17.2067 -17.2067 -16.9214 -16.9214
   -16.8651 -16.8651 -16.8212 -16.8212 -16.6850 -16.6850 -16.5775 -16.5775
   -16.5353 -16.5353 -16.3954 -16.3954 -16.3206 -16.3206 -16.2642 -16.2642
   -16.2637 -16.2637 -16.2061 -16.2061   9.6825   9.6825   9.8472   9.8472
    10.0356  10.0356  10.1100  10.1100  10.4690  10.4690  10.5510  10.5510
    28.5844  28.5844  28.6690  28.6690  28.9262  28.9262  29.3197  29.3197
    29.7331  29.7331  29.8807  29.8807  30.0647  30.0647  30.1500  30.1500
    30.3482  30.3482  30.6933  30.6933  30.8439  30.8439  30.8732  30.8732
    31.1680  31.1680  31.5339  31.5339  31.9226  31.9226  32.0886  32.0886
    32.1339  32.1339  33.1335  33.1335  33.8162  33.8162  33.8868  33.8868
    37.5425  37.5425  40.0507  40.0507  40.2086  40.2086  42.3507  42.3507
    42.9680  42.9680  43.1978  43.1978  43.6951  43.6951  44.4769  44.4769
    44.7134  44.7134  46.0213  46.0213  46.3437  46.3437  46.9997  46.9997
    47.1021  47.1021  47.5870  47.5870  52.0878  52.0878  52.8032  52.8032
    53.7425  53.7425  54.7186  54.7186  55.3003  55.3003  56.9670  56.9670
    57.0863  57.0863  58.2794  58.2794  58.3270  58.3270  58.8922  58.8922
    59.0877  59.0877  59.1080  59.1080  60.2469  60.2469  60.6660  60.6660
    61.7172  61.7172  62.6522  62.6523  62.9731  62.9731  63.1063  63.1063
    63.7937  63.7937

          k =-0.5000 0.0000 0.1317 (  3710 PWs)   bands (ev):

   -57.6423 -57.6423 -57.6268 -57.6268 -57.6079 -57.6079 -57.5576 -57.5576
   -18.4628 -18.4628 -18.2829 -18.2829 -17.1790 -17.1790 -17.0103 -17.0103
   -16.8914 -16.8914 -16.7720 -16.7720 -16.6637 -16.6637 -16.5680 -16.5680
   -16.5110 -16.5110 -16.3967 -16.3967 -16.3269 -16.3269 -16.2644 -16.2644
   -16.2546 -16.2546 -16.1954 -16.1954   9.6802   9.6802   9.8646   9.8646
    10.0388  10.0388  10.0992  10.0992  10.4693  10.4693  10.5478  10.5478
    28.5347  28.5347  28.7682  28.7682  28.8988  28.8988  29.3797  29.3797
    29.6871  29.6871  29.8304  29.8304  30.0233  30.0233  30.2655  30.2655
    30.3334  30.3334  30.7466  30.7466  30.8191  30.8191  31.0163  31.0163
    31.1510  31.1510  31.4975  31.4975  31.8799  31.8799  31.9882  31.9882
    32.3732  32.3732  33.0806  33.0806  33.6902  33.6902  33.8752  33.8752
    37.5037  37.5037  39.0703  39.0703  40.7174  40.7174  42.4978  42.4978
    43.2020  43.2020  43.3174  43.3174  43.8058  43.8058  44.1502  44.1502
    44.8968  44.8968  45.9454  45.9454  46.3466  46.3466  46.9400  46.9400
    47.2271  47.2271  48.2358  48.2358  51.0205  51.0205  52.8700  52.8700
    54.5728  54.5728  54.8713  54.8713  55.6098  55.6098  56.3689  56.3689
    56.7543  56.7543  57.6736  57.6736  58.2703  58.2703  58.8134  58.8134
    59.1531  59.1531  59.8852  59.8852  60.2711  60.2711  60.6809  60.6809
    61.6860  61.6860  62.0042  62.0042  62.8330  62.8330  63.2682  63.2682
    63.8380  63.8380

          k =-0.5000 0.0000-0.2634 (  3680 PWs)   bands (ev):

   -57.6074 -57.6074 -57.5986 -57.5986 -57.5967 -57.5967 -57.5576 -57.5576
   -18.4617 -18.4617 -18.2621 -18.2621 -17.1531 -17.1531 -17.0536 -17.0536
   -16.9066 -16.9066 -16.7646 -16.7646 -16.6497 -16.6497 -16.5405 -16.5405
   -16.4771 -16.4771 -16.3959 -16.3959 -16.3275 -16.3275 -16.2497 -16.2497
   -16.2401 -16.2401 -16.1835 -16.1835   9.6803   9.6803   9.8826   9.8826
    10.0418  10.0418  10.0924  10.0924  10.4721  10.4721  10.5455  10.5455
    28.4830  28.4830  28.7611  28.7611  29.1032  29.1032  29.3543  29.3543
    29.6112  29.6112  29.6956  29.6956  30.1327  30.1327  30.2005  30.2005
    30.4369  30.4369  30.7743  30.7743  30.8107  30.8107  31.0219  31.0219
    31.4391  31.4391  31.5986  31.5986  31.6366  31.6366  31.7831  31.7831
    32.5781  32.5781  33.2098  33.2098  33.4248  33.4248  33.8631  33.8631
    37.4966  37.4966  38.4876  38.4876  41.0413  41.0413  42.2965  42.2965
    43.3266  43.3266  43.5411  43.5411  43.8303  43.8303  43.8340  43.8340
    45.5817  45.5817  45.7921  45.7921  46.1250  46.1250  46.9650  46.9650
    47.6020  47.6020  49.1646  49.1646  49.5228  49.5228  53.2292  53.2292
    54.9336  54.9336  54.9769  54.9769  55.5480  55.5480  56.1012  56.1012
    56.9838  56.9838  57.6127  57.6127  57.6454  57.6454  58.7675  58.7675
    58.9720  58.9720  60.0679  60.0679  60.5232  60.5232  61.3779  61.3779
    61.5725  61.5725  61.9935  61.9935  62.3193  62.3193  62.7365  62.7365
    63.4863  63.4863

          k =-0.5000 0.2533 0.0000 (  3686 PWs)   bands (ev):

   -57.6169 -57.6169 -57.6078 -57.6078 -57.5963 -57.5963 -57.5622 -57.5622
   -18.4668 -18.4668 -18.3919 -18.3919 -17.0639 -17.0639 -16.9059 -16.9059
   -16.7767 -16.7767 -16.7003 -16.7003 -16.6846 -16.6846 -16.5804 -16.5804
   -16.5265 -16.5265 -16.4196 -16.4196 -16.3623 -16.3623 -16.3209 -16.3209
   -16.2447 -16.2447 -16.2415 -16.2415   9.7082   9.7082   9.7875   9.7875
    10.0501  10.0501  10.0756  10.0756  10.4394  10.4394  10.4650  10.4650
    28.7468  28.7468  29.0844  29.0844  29.2742  29.2742  29.3821  29.3821
    29.6618  29.6618  29.8617  29.8617  30.3417  30.3417  30.3846  30.3846
    30.5184  30.5184  30.7541  30.7541  30.8914  30.8914  31.1089  31.1089
    31.3525  31.3525  31.4558  31.4558  31.7719  31.7719  32.1696  32.1696
    32.4335  32.4335  32.6975  32.6975  33.3315  33.3315  33.5804  33.5804
    37.9939  37.9939  39.5116  39.5116  40.4761  40.4761  41.3179  41.3179
    42.4298  42.4298  42.5505  42.5505  44.1765  44.1765  44.2822  44.2822
    44.8378  44.8378  45.3035  45.3035  45.5319  45.5319  45.9315  45.9315
    48.2619  48.2619  48.6165  48.6165  50.6798  50.6798  51.2069  51.2069
    54.3173  54.3173  55.5647  55.5647  56.5940  56.5940  56.9876  56.9876
    57.7587  57.7587  58.2864  58.2864  58.6021  58.6021  58.9002  58.9002
    59.8917  59.8917  59.9486  59.9486  61.0932  61.0932  61.2385  61.2385
    62.0321  62.0321  62.0353  62.0354  62.9238  62.9239  62.9781  62.9781
    64.1032  64.1136

          k =-0.5000 0.2533 0.1317 (  3692 PWs)   bands (ev):

   -57.6253 -57.6253 -57.6139 -57.6139 -57.5981 -57.5981 -57.5601 -57.5601
   -18.4640 -18.4640 -18.3838 -18.3838 -17.0621 -17.0621 -16.9472 -16.9472
   -16.8175 -16.8175 -16.7331 -16.7331 -16.6049 -16.6049 -16.5770 -16.5770
   -16.5141 -16.5141 -16.4198 -16.4198 -16.3678 -16.3678 -16.3133 -16.3133
   -16.2639 -16.2639 -16.2376 -16.2376   9.7097   9.7097   9.7965   9.7965
    10.0457  10.0457  10.0650  10.0650  10.4345  10.4345  10.4650  10.4650
    28.6893  28.6893  29.1821  29.1821  29.2255  29.2255  29.4492  29.4492
    29.6884  29.6884  29.8971  29.8971  30.1270  30.1270  30.4434  30.4434
    30.5832  30.5832  30.7896  30.7896  30.9711  30.9711  31.1742  31.1742
    31.2965  31.2965  31.5592  31.5592  31.7677  31.7677  32.0381  32.0381
    32.4694  32.4694  32.6923  32.6923  33.2622  33.2622  33.5722  33.5722
    37.9546  37.9546  38.8468  38.8468  40.6209  40.6209  41.4795  41.4795
    42.5878  42.5878  42.8798  42.8798  43.6795  43.6795  44.5986  44.5986
    44.7574  44.7574  45.2812  45.2812  45.5061  45.5061  45.9054  45.9054
    48.4810  48.4810  48.9984  48.9984  50.2393  50.2393  51.7567  51.7567
    54.4255  54.4255  55.2272  55.2272  56.4856  56.4856  56.7929  56.7929
    57.5252  57.5252  58.3239  58.3239  58.6182  58.6182  59.3518  59.3518
    59.6096  59.6096  60.0165  60.0165  60.8627  60.8627  61.3428  61.3428
    61.6634  61.6634  62.0878  62.0878  62.3894  62.3894  63.0615  63.0615
    63.6202  63.6202

          k =-0.5000 0.2533-0.2634 (  3704 PWs)   bands (ev):

   -57.6321 -57.6321 -57.6198 -57.6198 -57.6081 -57.6081 -57.5685 -57.5685
   -18.4643 -18.4643 -18.3770 -18.3770 -17.0695 -17.0695 -16.9283 -16.9283
   -16.9133 -16.9133 -16.7431 -16.7431 -16.5677 -16.5677 -16.5581 -16.5581
   -16.5013 -16.5013 -16.4532 -16.4532 -16.3487 -16.3487 -16.3104 -16.3104
   -16.2688 -16.2688 -16.2465 -16.2465   9.7072   9.7072   9.8057   9.8057
    10.0410  10.0410  10.0545  10.0545  10.4322  10.4322  10.4610  10.4610
    28.6339  28.6339  29.1585  29.1585  29.3564  29.3564  29.5377  29.5377
    29.6712  29.6712  29.8708  29.8708  29.9960  29.9960  30.5025  30.5025
    30.6454  30.6454  30.8131  30.8131  30.9016  30.9016  31.3607  31.3607
    31.4017  31.4017  31.5665  31.5665  31.6788  31.6788  31.9702  31.9702
    32.2781  32.2781  32.9547  32.9547  33.1043  33.1043  33.5464  33.5464
    38.1025  38.1025  38.1728  38.1728  40.7506  40.7506  41.4438  41.4438
    42.8703  42.8703  42.9631  42.9631  43.6223  43.6223  44.2820  44.2820
    45.1022  45.1022  45.1169  45.1169  45.7070  45.7070  45.8386  45.8386
    48.6551  48.6551  49.0938  49.0938  50.0548  50.0548  52.8440  52.8440
    53.6377  53.6377  55.3963  55.3963  56.0083  56.0083  56.8011  56.8011
    56.9686  56.9686  58.6224  58.6224  59.1600  59.1600  59.3382  59.3382
    59.7620  59.7620  59.9095  59.9095  60.2444  60.2444  61.0655  61.0655
    61.8030  61.8030  62.1115  62.1115  62.6712  62.6712  62.7694  62.7694
    63.2974  63.2974

     the Fermi energy is    56.9938 ev

!    total energy              =   -3725.24158910 Ry
     Harris-Foulkes estimate   =   -3725.24161018 Ry
     estimated scf accuracy    <       0.00002430 Ry

     The total energy is the sum of the following terms:

     one-electron contribution =      71.17918859 Ry
     hartree contribution      =     355.89161962 Ry
     xc contribution           =    -337.73023961 Ry
     ewald contribution        =   -3814.12785299 Ry
     smearing contrib. (-TS)   =      -0.45430472 Ry

     convergence has been achieved in  76 iterations

     Forces acting on atoms (Ry/au):

     atom    1 type  1   force =     0.00000000   -0.08135183   -0.09598822
     atom    2 type  1   force =     0.00000000    0.08135183    0.09598822
     atom    3 type  1   force =     0.00000000   -0.08135183    0.09598822
     atom    4 type  1   force =     0.00000000    0.08135183   -0.09598822
     atom    5 type  1   force =     0.00000000    0.10466024   -0.09174777
     atom    6 type  1   force =     0.00000000   -0.10466024    0.09174777
     atom    7 type  1   force =     0.00000000    0.10466024    0.09174777
     atom    8 type  1   force =     0.00000000   -0.10466024   -0.09174777
     atom    9 type  2   force =     0.00000000   -0.20406905    0.05554005
     atom   10 type  2   force =     0.00000000    0.20406905   -0.05554005
     atom   11 type  2   force =     0.00000000   -0.20406905   -0.05554005
     atom   12 type  2   force =     0.00000000    0.20406905    0.05554005

     Total force =     0.565446     Total SCF correction =     0.000000


     entering subroutine stress ...

          total   stress  (Ry/bohr**3)                   (kbar)     P= 7505.36
   0.05276547   0.00000000   0.00000000       7762.07      0.00      0.00
   0.00000000   0.04957057   0.00000000          0.00   7292.08      0.00
   0.00000000   0.00000000   0.05072512          0.00      0.00   7461.92


     number of scf cycles    =   2
     number of bfgs steps    =   1

     enthalpy old            =   -3725.2415419666 Ry
     enthalpy new            =   -3725.2415891048 Ry

     CASE: enthalpy_new < enthalpy_old

     small trust_radius: resetting bfgs history

     new trust radius        =       7.7471761926 bohr
     new conv_thr            =       0.0000010000 Ry

     new unit-cell volume =  10156.55717 a.u.^3 (  1505.04647 Ang^3 )

CELL_PARAMETERS (alat=  7.01510508)
   2.319136783   0.000000000   0.000000000
   0.000000000   2.946789846   0.000000000
   0.000000000   0.000000000   4.304953319

ATOMIC_POSITIONS (crystal)
Co       0.750000000   0.817588699   0.428526869
Co       0.250000000   0.182411301   0.571473131
Co       0.750000000   0.317588699   0.071473131
Co       0.250000000   0.682411301   0.928526869
Co       0.250000000   0.548423146   0.275454346
Co       0.750000000   0.451576854   0.724545654
Co       0.250000000   0.048423146   0.224545654
Co       0.750000000   0.951576854   0.775454346
Si       0.250000000   0.180748560   0.897771298
Si       0.750000000   0.819251440   0.102228702
Si       0.250000000   0.680748560   0.602228702
Si       0.750000000   0.319251440   0.397771298



     Writing output data file Prototype-La-oP12-Co2Si.save
     NEW-OLD atomic charge density approx. for the potential
     NEW k-points:
        k(    1) = (   0.0000000   0.0000000   0.0000000), wk =   0.0833333
        k(    2) = (   0.0000000   0.0000000   0.0580726), wk =   0.1666667
        k(    3) = (   0.0000000   0.0000000  -0.1161453), wk =   0.0833333
        k(    4) = (   0.0000000   0.1131174   0.0000000), wk =   0.1666667
        k(    5) = (   0.0000000   0.1131174   0.0580726), wk =   0.3333333
        k(    6) = (   0.0000000   0.1131174  -0.1161453), wk =   0.1666667
        k(    7) = (  -0.2155975   0.0000000   0.0000000), wk =   0.0833333
        k(    8) = (  -0.2155975   0.0000000   0.0580726), wk =   0.1666667
        k(    9) = (  -0.2155975   0.0000000  -0.1161453), wk =   0.0833333
        k(   10) = (  -0.2155975   0.1131174   0.0000000), wk =   0.1666667
        k(   11) = (  -0.2155975   0.1131174   0.0580726), wk =   0.3333333
        k(   12) = (  -0.2155975   0.1131174  -0.1161453), wk =   0.1666667

     total cpu time spent up to now is     4161.1 secs

     Self-consistent Calculation

     iteration #  1     ecut=    40.00 Ry     beta=0.70
     CG style diagonalization
     c_bands:  4 eigenvalues not converged
     c_bands:  3 eigenvalues not converged
     c_bands:  4 eigenvalues not converged
     c_bands:  2 eigenvalues not converged
     c_bands:  3 eigenvalues not converged
     c_bands:  5 eigenvalues not converged
     c_bands:  2 eigenvalues not converged
     c_bands:  2 eigenvalues not converged
     c_bands:  3 eigenvalues not converged
     c_bands:  2 eigenvalues not converged
     c_bands:  4 eigenvalues not converged
     ethr =  1.00E-06,  avg # of iterations = 41.3

     total cpu time spent up to now is     4270.5 secs

     total energy              =   -3416.91873437 Ry
     Harris-Foulkes estimate   =   -3992.26020482 Ry
     estimated scf accuracy    <     727.20429508 Ry

     iteration #  2     ecut=    40.00 Ry     beta=0.70
     CG style diagonalization
     ethr =  1.00E-02,  avg # of iterations =  4.8

     total cpu time spent up to now is     4283.6 secs

     total energy              =   -3396.68306632 Ry
     Harris-Foulkes estimate   =   -3461.63440345 Ry
     estimated scf accuracy    <      75.06753524 Ry

     iteration #  3     ecut=    40.00 Ry     beta=0.70
     CG style diagonalization
     ethr =  1.00E-02,  avg # of iterations =  5.0

     total cpu time spent up to now is     4297.5 secs

     total energy              =   -3418.22223480 Ry
     Harris-Foulkes estimate   =   -3455.12116452 Ry
     estimated scf accuracy    <      72.21442791 Ry

     iteration #  4     ecut=    40.00 Ry     beta=0.70
     CG style diagonalization
     ethr =  1.00E-02,  avg # of iterations =  3.5

     total cpu time spent up to now is     4306.7 secs

     total energy              =   -3426.88263518 Ry
     Harris-Foulkes estimate   =   -3429.66529274 Ry
     estimated scf accuracy    <       8.89214310 Ry

     iteration #  5     ecut=    40.00 Ry     beta=0.70
     CG style diagonalization
     ethr =  3.47E-03,  avg # of iterations =  3.5

     total cpu time spent up to now is     4315.8 secs

     total energy              =   -3427.23840563 Ry
     Harris-Foulkes estimate   =   -3427.81705434 Ry
     estimated scf accuracy    <       1.13819015 Ry

     iteration #  6     ecut=    40.00 Ry     beta=0.70
     CG style diagonalization
     c_bands:  1 eigenvalues not converged
     ethr =  4.45E-04,  avg # of iterations =  3.6

     total cpu time spent up to now is     4325.1 secs

     total energy              =   -3427.32154224 Ry
     Harris-Foulkes estimate   =   -3427.94552891 Ry
     estimated scf accuracy    <       2.23756948 Ry

     iteration #  7     ecut=    40.00 Ry     beta=0.70
     CG style diagonalization
     ethr =  4.45E-04,  avg # of iterations =  3.2

     total cpu time spent up to now is     4333.3 secs

     total energy              =   -3427.57400771 Ry
     Harris-Foulkes estimate   =   -3427.73509424 Ry
     estimated scf accuracy    <       0.51154600 Ry

     iteration #  8     ecut=    40.00 Ry     beta=0.70
     CG style diagonalization
     ethr =  2.00E-04,  avg # of iterations =  3.1

     total cpu time spent up to now is     4341.1 secs

     total energy              =   -3427.59169602 Ry
     Harris-Foulkes estimate   =   -3427.70833397 Ry
     estimated scf accuracy    <       0.46412629 Ry

     iteration #  9     ecut=    40.00 Ry     beta=0.70
     CG style diagonalization
     ethr =  1.81E-04,  avg # of iterations =  3.0

     total cpu time spent up to now is     4348.6 secs

     total energy              =   -3427.65157240 Ry
     Harris-Foulkes estimate   =   -3427.68461983 Ry
     estimated scf accuracy    <       0.13073301 Ry

     iteration # 10     ecut=    40.00 Ry     beta=0.70
     CG style diagonalization
     ethr =  5.11E-05,  avg # of iterations =  3.0

     total cpu time spent up to now is     4356.3 secs

     total energy              =   -3427.66840583 Ry
     Harris-Foulkes estimate   =   -3427.67175782 Ry
     estimated scf accuracy    <       0.01278620 Ry

     iteration # 11     ecut=    40.00 Ry     beta=0.70
     CG style diagonalization
     c_bands:  1 eigenvalues not converged
     c_bands:  1 eigenvalues not converged
     c_bands:  2 eigenvalues not converged
     c_bands:  1 eigenvalues not converged
     c_bands:  1 eigenvalues not converged
     c_bands:  1 eigenvalues not converged
     c_bands:  1 eigenvalues not converged
     ethr =  4.99E-06,  avg # of iterations =  3.3

     total cpu time spent up to now is     4364.9 secs

     total energy              =   -3427.67015861 Ry
     Harris-Foulkes estimate   =   -3427.67071344 Ry
     estimated scf accuracy    <       0.00285634 Ry

     iteration # 12     ecut=    40.00 Ry     beta=0.70
     CG style diagonalization
     c_bands:  1 eigenvalues not converged
     c_bands:  1 eigenvalues not converged
     ethr =  1.12E-06,  avg # of iterations =  3.1

     total cpu time spent up to now is     4372.7 secs

     total energy              =   -3427.67043765 Ry
     Harris-Foulkes estimate   =   -3427.67044506 Ry
     estimated scf accuracy    <       0.00003859 Ry

     iteration # 13     ecut=    40.00 Ry     beta=0.70
     CG style diagonalization
     ethr =  1.51E-08,  avg # of iterations =  3.4

     total cpu time spent up to now is     4381.6 secs

     total energy              =   -3427.67044201 Ry
     Harris-Foulkes estimate   =   -3427.67044316 Ry
     estimated scf accuracy    <       0.00000717 Ry

     iteration # 14     ecut=    40.00 Ry     beta=0.70
     CG style diagonalization
     ethr =  2.80E-09,  avg # of iterations =  3.0

     total cpu time spent up to now is     4389.2 secs

     End of self-consistent calculation

          k = 0.0000 0.0000 0.0000 (  3675 PWs)   bands (ev):

  -159.7911-159.7614-159.7319-159.6065-159.5926-159.4698-159.3778-159.3734
   -92.0114 -91.8765 -91.7327 -91.7234 -91.5642 -91.2588 -91.1495 -91.1361
   -91.1164 -91.0167 -90.9975 -90.5907 -90.4668 -90.4271 -90.1212 -90.0904
   -90.0559 -89.8726 -89.8396 -89.3269 -88.7455 -88.3324 -88.2770 -88.1290
   -71.4880 -71.4851 -71.4834 -71.4830 -44.0114 -43.7417 -43.6848 -43.6426
   -43.6017 -43.5338 -43.4729 -43.3676 -43.3338 -42.9361 -42.9015 -42.8250
   -21.2685 -21.1757 -21.0672 -21.0667 -20.9039 -20.8419 -20.8120 -20.7999
   -20.7132 -20.6060 -20.6001 -20.5265 -20.4968 -20.4693 -20.4237 -20.1444
   -20.1019 -20.0750 -20.0239 -19.9295 -19.8971 -19.8479 -19.7680 -19.7478
   -19.7304 -19.6825 -19.4651 -19.4222 -19.3890 -19.3680 -19.3559 -19.2834
   -19.2134 -19.1906 -19.1701 -19.1195 -19.1046 -18.9850 -18.8587 -18.7873
   -15.6266 -15.5804 -15.4899 -15.3421 -15.1434 -15.1139 -15.0996 -15.0720
    -0.5628  -0.4460  -0.3362  -0.3117  -0.2986  -0.2964  -0.2923  -0.2464
    -0.1871  -0.1867  -0.0997  -0.0683  -0.0343  -0.0217   0.0007   0.0974
     0.0977   0.1158   0.1261   0.1471   0.5665   0.7488   0.8856   0.9274
     0.9469   0.9626   1.0168   1.2167   1.2738   1.2791   1.3409   1.3848
     1.4237   1.4962   1.5830   1.6012   1.6576   1.6598   1.7033   1.7664
     1.7886   1.7930   1.8322   1.8439   1.9360   1.9698   2.0748   2.1144
     4.4097   4.5908   5.0040   5.2570   5.2953   5.3434   5.4124   5.5374
     5.7256   6.0276

          k = 0.0000 0.0000 0.0581 (  3675 PWs)   bands (ev):

  -159.8265-159.7805-159.7688-159.5939-159.5129-159.4912-159.4140-159.3085
   -92.3198 -92.3106 -92.0389 -91.8667 -91.7143 -91.4997 -91.4178 -91.3846
   -90.9569 -90.7396 -90.5753 -90.5553 -90.4564 -90.3474 -90.3320 -90.2731
   -89.9079 -89.8493 -89.6035 -88.7747 -88.4736 -88.4659 -88.0877 -88.0021
   -71.4877 -71.4857 -71.4833 -71.4832 -44.0606 -43.8299 -43.7152 -43.6235
   -43.5895 -43.5118 -43.5029 -43.3841 -43.2285 -43.0415 -42.8310 -42.7183
   -21.3421 -21.3014 -20.9899 -20.9714 -20.9613 -20.9183 -20.8682 -20.7969
   -20.7961 -20.7075 -20.6950 -20.6019 -20.4501 -20.4458 -20.4238 -20.3897
   -20.3007 -20.2741 -20.0762 -20.0678 -20.0030 -19.9647 -19.8868 -19.8704
   -19.7700 -19.5964 -19.5317 -19.5206 -19.4018 -19.2539 -19.2388 -19.2163
   -19.1551 -18.9581 -18.9326 -18.9137 -18.9032 -18.8315 -18.7833 -18.7621
   -15.6389 -15.5808 -15.5292 -15.2461 -15.1203 -15.1122 -15.0533 -14.9859
    -0.5038  -0.4276  -0.3810  -0.3307  -0.3261  -0.2969  -0.2954  -0.2817
    -0.2433  -0.2212  -0.1471  -0.0585  -0.0374   0.0349   0.0420   0.0504
     0.0986   0.1344   0.2286   0.2454   0.5936   0.7463   0.8584   0.9037
     0.9718   0.9941   1.0127   1.1625   1.1732   1.1794   1.3367   1.3620
     1.3685   1.5245   1.5468   1.5854   1.6860   1.6870   1.7159   1.7520
     1.7709   1.7765   1.8863   1.8919   1.9296   2.0640   2.1117   2.1173
     4.3565   4.4929   5.0429   5.1721   5.2706   5.3883   5.4383   5.6209
     5.7360   5.8848

          k = 0.0000 0.0000-0.1161 (  3690 PWs)   bands (ev):

  -159.8473-159.8473-159.6869-159.6869-159.5488-159.5488-159.4167-159.4167
   -92.6266 -92.6266 -92.3123 -92.3123 -91.8969 -91.8969 -91.6583 -91.6583
   -91.4326 -91.4326 -90.8606 -90.8606 -90.3596 -90.3596 -90.0467 -90.0467
   -90.0231 -90.0231 -89.2681 -89.2681 -88.5134 -88.5134 -87.8638 -87.8638
   -71.4870 -71.4870 -71.4837 -71.4837 -44.1567 -44.1567 -43.7707 -43.7707
   -43.6502 -43.6502 -43.4476 -43.4476 -43.1158 -43.1158 -42.7084 -42.7084
   -21.5691 -21.5691 -21.2791 -21.2791 -21.2251 -21.2251 -21.0162 -21.0162
   -20.8561 -20.8561 -20.6290 -20.6290 -20.5264 -20.5264 -20.3844 -20.3844
   -20.3610 -20.3610 -20.2018 -20.2018 -20.1560 -20.1560 -19.9034 -19.9034
   -19.7324 -19.7324 -19.6841 -19.6841 -19.5410 -19.5410 -19.2471 -19.2471
   -19.2086 -19.2086 -18.9813 -18.9813 -18.9265 -18.9265 -18.6869 -18.6869
   -15.5973 -15.5973 -15.3461 -15.3461 -15.1902 -15.1902 -14.9809 -14.9809
    -0.6033  -0.6033  -0.4438  -0.4438  -0.3283  -0.3283  -0.3233  -0.3233
    -0.2775  -0.2775  -0.0898  -0.0898  -0.0117  -0.0117   0.0466   0.0466
     0.1181   0.1181   0.2161   0.2161   0.6091   0.6091   0.9442   0.9442
     1.0065   1.0065   1.0312   1.0312   1.1235   1.1235   1.3214   1.3214
     1.4056   1.4056   1.5637   1.5637   1.6530   1.6530   1.6972   1.6972
     1.7849   1.7849   1.8050   1.8050   1.9726   1.9726   2.1210   2.1210
     4.3343   4.3343   5.0759   5.0760   5.3705   5.3705   5.4920   5.4921
     5.8946   5.8950

          k = 0.0000 0.1131 0.0000 (  3664 PWs)   bands (ev):

  -159.7988-159.6988-159.6841-159.6147-159.5089-159.3921-159.3700-159.3376
   -92.5943 -91.9477 -91.7714 -91.5578 -91.3426 -91.0775 -91.0132 -90.8337
   -90.7039 -90.6736 -90.4586 -90.3739 -90.3628 -90.2900 -90.2283 -90.1067
   -89.9939 -89.9582 -89.6384 -89.0555 -88.8278 -88.5122 -88.0188 -87.5890
   -71.4868 -71.4859 -71.4831 -71.4831 -43.9229 -43.8340 -43.6453 -43.6005
   -43.5469 -43.5137 -43.3518 -43.2964 -43.2218 -42.8956 -42.8432 -42.8187
   -21.2755 -21.2450 -21.0089 -20.9597 -20.8534 -20.8454 -20.7054 -20.6872
   -20.5818 -20.5667 -20.5541 -20.3909 -20.3441 -20.3249 -20.2297 -20.1448
   -20.1206 -20.1143 -20.0782 -19.9209 -19.8878 -19.8681 -19.8578 -19.7371
   -19.6835 -19.6833 -19.6244 -19.4443 -19.3945 -19.2290 -19.2188 -19.1637
   -19.0560 -19.0395 -19.0385 -18.9002 -18.8004 -18.7376 -18.6962 -18.6710
   -15.5949 -15.4980 -15.4787 -15.3160 -15.1651 -15.1334 -15.0113 -14.8987
    -0.4376  -0.4066  -0.3653  -0.3447  -0.2868  -0.2754  -0.2687  -0.2601
    -0.2091  -0.1429  -0.1163  -0.1079  -0.0349   0.0005   0.0206   0.0732
     0.1407   0.1448   0.2447   0.2548   0.6383   0.7068   0.8608   1.0146
     1.0271   1.0590   1.0936   1.1062   1.2460   1.2750   1.2801   1.3589
     1.4013   1.5294   1.5957   1.5979   1.6229   1.6900   1.7228   1.7299
     1.8216   1.8710   1.8965   1.9666   2.0012   2.0491   2.0689   2.2209
     4.3899   4.5233   4.7192   4.8812   5.4424   5.4594   5.5162   5.6663
     5.7175   5.7842

          k = 0.0000 0.1131 0.0581 (  3669 PWs)   bands (ev):

  -159.8421-159.6919-159.6817-159.6242-159.5126-159.4646-159.4043-159.3177
   -92.8052 -92.0495 -91.9826 -91.7675 -91.5387 -91.3254 -91.1223 -91.0143
   -90.9238 -90.8315 -90.7499 -90.5899 -90.3618 -90.2391 -90.2123 -90.0973
   -89.9474 -89.5558 -89.4285 -89.1457 -88.6070 -88.2495 -88.0137 -87.8190
   -71.4866 -71.4859 -71.4834 -71.4832 -43.9593 -43.8976 -43.7927 -43.7149
   -43.5444 -43.5064 -43.4127 -43.3111 -43.1211 -42.8892 -42.8656 -42.7617
   -21.4808 -21.2858 -21.0416 -20.9137 -20.8995 -20.8860 -20.8490 -20.7033
   -20.6866 -20.5935 -20.5239 -20.5219 -20.4222 -20.4092 -20.3601 -20.2528
   -20.1749 -20.1537 -20.0604 -19.9990 -19.9679 -19.8694 -19.8494 -19.8419
   -19.8243 -19.7109 -19.5739 -19.5419 -19.4779 -19.3522 -19.2286 -19.1608
   -19.1398 -19.0502 -18.9988 -18.9755 -18.7687 -18.7466 -18.5999 -18.5295
   -15.6131 -15.4844 -15.4019 -15.3363 -15.1723 -15.0866 -15.0110 -14.9247
    -0.5440  -0.4594  -0.4157  -0.3679  -0.3212  -0.2645  -0.2606  -0.2334
    -0.2111  -0.1986  -0.1712  -0.1446  -0.0038   0.0333   0.0496   0.0894
     0.1220   0.1548   0.1839   0.2871   0.6356   0.7191   0.8422   0.9495
     0.9724   1.0352   1.0883   1.1426   1.1721   1.2345   1.3116   1.3962
     1.4269   1.5049   1.5494   1.5753   1.6010   1.6814   1.7222   1.7686
     1.8541   1.8941   1.9254   1.9852   2.0308   2.0548   2.0723   2.1515
     4.3270   4.4003   4.7351   4.8248   5.4715   5.4943   5.5473   5.5814
     5.6660   5.8944

          k = 0.0000 0.1131-0.1161 (  3666 PWs)   bands (ev):

  -159.6838-159.6838-159.6323-159.6323-159.4855-159.4855-159.4409-159.4409
   -91.9675 -91.9675 -91.7648 -91.7648 -91.5483 -91.5483 -91.0596 -91.0596
   -90.8815 -90.8815 -90.6094 -90.6094 -90.1427 -90.1427 -90.1094 -90.1094
   -89.8808 -89.8808 -89.1813 -89.1813 -88.5790 -88.5790 -88.0741 -88.0741
   -71.4861 -71.4861 -71.4834 -71.4834 -43.9035 -43.9035 -43.7108 -43.7108
   -43.5620 -43.5620 -43.3454 -43.3454 -42.9920 -42.9920 -42.8247 -42.8247
   -21.0522 -21.0522 -20.9829 -20.9829 -20.8425 -20.8425 -20.6460 -20.6460
   -20.4859 -20.4859 -20.4668 -20.4668 -20.3246 -20.3246 -20.3236 -20.3236
   -20.1676 -20.1676 -20.0854 -20.0854 -19.9468 -19.9468 -19.8197 -19.8197
   -19.6960 -19.6960 -19.4701 -19.4701 -19.4365 -19.4365 -19.2230 -19.2230
   -19.1201 -19.1201 -18.9582 -18.9582 -18.9535 -18.9535 -18.7487 -18.7487
   -15.4683 -15.4683 -15.3305 -15.3305 -15.1667 -15.1667 -15.0334 -15.0334
    -0.5282  -0.5282  -0.3381  -0.3381  -0.2755  -0.2755  -0.2455  -0.2455
    -0.1917  -0.1917  -0.1456  -0.1456   0.0088   0.0088   0.0780   0.0780
     0.1133   0.1133   0.2320   0.2320   0.7028   0.7028   0.8640   0.8640
     1.0180   1.0180   1.1575   1.1575   1.2347   1.2347   1.4488   1.4488
     1.4541   1.4541   1.4553   1.4553   1.6543   1.6543   1.7679   1.7679
     1.8684   1.8684   1.9424   1.9424   2.0819   2.0819   2.0898   2.0898
     4.3033   4.3033   4.7473   4.7473   5.5434   5.5436   5.5697   5.5698
     5.7492   5.7495

          k =-0.2156 0.0000 0.0000 (  3722 PWs)   bands (ev):

  -159.8720-159.8720-159.7790-159.7790-159.6995-159.6995-159.6546-159.6546
   -92.2407 -92.2407 -92.1580 -92.1580 -91.7508 -91.7508 -91.7041 -91.7041
   -91.4916 -91.4916 -91.3747 -91.3747 -90.9274 -90.9274 -90.8258 -90.8258
   -90.1968 -90.1968 -89.9293 -89.9293 -89.6324 -89.6324 -89.5161 -89.5161
   -71.4856 -71.4856 -71.4839 -71.4839 -43.8924 -43.8924 -43.8536 -43.8536
   -43.7769 -43.7769 -43.6385 -43.6385 -43.4071 -43.4071 -43.2308 -43.2308
   -21.5128 -21.5128 -21.3789 -21.3789 -21.0304 -21.0304 -20.9371 -20.9371
   -20.8922 -20.8922 -20.7578 -20.7578 -20.6627 -20.6627 -20.5615 -20.5615
   -20.4387 -20.4387 -20.3672 -20.3672 -20.2550 -20.2550 -20.0897 -20.0897
   -20.0600 -20.0600 -19.9109 -19.9109 -19.8687 -19.8687 -19.7250 -19.7250
   -19.6112 -19.6112 -19.4877 -19.4877 -19.4201 -19.4201 -19.3673 -19.3673
   -15.6363 -15.6363 -15.6121 -15.6121 -15.4657 -15.4657 -15.4585 -15.4585
    -0.4987  -0.4987  -0.4902  -0.4902  -0.4532  -0.4532  -0.3065  -0.3065
    -0.2591  -0.2591  -0.1996  -0.1996  -0.1467  -0.1467  -0.1058  -0.1058
    -0.0808  -0.0808  -0.0458  -0.0458   0.6277   0.6277   0.7514   0.7514
     0.7710   0.7710   1.0669   1.0669   1.1088   1.1088   1.2598   1.2598
     1.4704   1.4704   1.5067   1.5067   1.5617   1.5617   1.7588   1.7588
     1.7827   1.7827   1.8305   1.8305   1.9767   1.9767   2.0946   2.0946
     4.4480   4.4480   5.0208   5.0208   5.4506   5.4506   5.6175   5.6175
     6.0265   6.0265

          k =-0.2156 0.0000 0.0581 (  3710 PWs)   bands (ev):

  -159.7896-159.7896-159.7654-159.7654-159.6952-159.6952-159.5870-159.5870
   -92.0700 -92.0700 -91.8417 -91.8417 -91.7138 -91.7138 -91.6569 -91.6569
   -91.3238 -91.3238 -91.2586 -91.2586 -91.0699 -91.0699 -90.7141 -90.7141
   -90.1633 -90.1633 -89.8361 -89.8361 -89.2661 -89.2661 -89.0923 -89.0923
   -71.4859 -71.4859 -71.4838 -71.4838 -43.8952 -43.8952 -43.7937 -43.7937
   -43.7488 -43.7488 -43.5585 -43.5585 -43.2968 -43.2968 -43.1850 -43.1850
   -21.2969 -21.2969 -21.1916 -21.1916 -21.0823 -21.0823 -21.0405 -21.0405
   -20.7951 -20.7951 -20.6678 -20.6678 -20.6211 -20.6211 -20.5005 -20.5005
   -20.3965 -20.3965 -20.2792 -20.2792 -20.1564 -20.1564 -20.0819 -20.0819
   -19.8410 -19.8410 -19.8100 -19.8100 -19.7740 -19.7740 -19.5729 -19.5729
   -19.5521 -19.5521 -19.5008 -19.5008 -19.3365 -19.3365 -19.1738 -19.1738
   -15.6255 -15.6255 -15.5535 -15.5535 -15.4213 -15.4213 -15.3362 -15.3362
    -0.5117  -0.5117  -0.4419  -0.4419  -0.3717  -0.3717  -0.3378  -0.3378
    -0.1944  -0.1944  -0.1485  -0.1485  -0.1107  -0.1107  -0.0878  -0.0878
    -0.0416  -0.0416  -0.0143  -0.0143   0.6302   0.6302   0.7754   0.7754
     0.8495   0.8495   1.0114   1.0114   1.1328   1.1328   1.2483   1.2483
     1.3745   1.3745   1.6163   1.6163   1.6716   1.6716   1.7429   1.7429
     1.7975   1.7975   1.8302   1.8302   1.9799   1.9799   2.1222   2.1222
     4.3493   4.3493   5.1458   5.1459   5.3539   5.3539   5.6619   5.6620
     5.8992   5.9002

          k =-0.2156 0.0000-0.1161 (  3680 PWs)   bands (ev):

  -159.7484-159.7484-159.6844-159.6844-159.5455-159.5455-159.4767-159.4767
   -92.0222 -92.0222 -91.8700 -91.8700 -91.5036 -91.5036 -91.4281 -91.4281
   -90.9967 -90.9967 -90.6921 -90.6921 -90.2093 -90.2093 -90.1879 -90.1879
   -90.0156 -90.0156 -89.6229 -89.6229 -88.9090 -88.9090 -88.4106 -88.4106
   -71.4858 -71.4858 -71.4835 -71.4835 -43.8664 -43.8664 -43.7796 -43.7796
   -43.5079 -43.5079 -43.3388 -43.3388 -43.1507 -43.1507 -43.0911 -43.0911
   -21.2609 -21.2609 -20.9780 -20.9780 -20.8374 -20.8374 -20.7680 -20.7680
   -20.6208 -20.6208 -20.5481 -20.5481 -20.5024 -20.5024 -20.4008 -20.4008
   -20.2920 -20.2920 -20.1208 -20.1208 -19.8454 -19.8454 -19.8416 -19.8416
   -19.7146 -19.7146 -19.6230 -19.6230 -19.4957 -19.4957 -19.4333 -19.4333
   -19.2754 -19.2754 -19.2371 -19.2371 -18.9539 -18.9539 -18.8195 -18.8195
   -15.5624 -15.5624 -15.4657 -15.4657 -15.2615 -15.2615 -15.1396 -15.1396
    -0.4417  -0.4417  -0.4227  -0.4227  -0.3395  -0.3395  -0.1744  -0.1744
    -0.1190  -0.1190  -0.0766  -0.0766  -0.0412  -0.0412  -0.0370  -0.0370
     0.0449   0.0449   0.0774   0.0774   0.6353   0.6353   0.8765   0.8765
     0.9674   0.9674   1.0004   1.0004   1.1028   1.1028   1.2675   1.2675
     1.3451   1.3451   1.6350   1.6350   1.7556   1.7556   1.8244   1.8244
     1.8917   1.8917   1.9251   1.9251   1.9578   1.9578   2.1579   2.1579
[...]
    48.9409  49.4951  49.7008  49.9689  50.0754  50.1574  50.1957  50.4951
    50.5922  50.8468  50.8909  51.0385  51.3337  51.7856  52.0806  52.1495
    52.1727  52.6305  53.1914  53.5945  54.1194  54.5580  54.7887  54.9497
    55.2488  55.4033

          k = 0.0000 0.0000 0.1251 (  3675 PWs)   bands (ev):

   -64.8387 -64.8130 -64.8006 -64.7695 -64.7380 -64.7214 -64.6960 -64.6390
   -24.8981 -24.8284 -24.8116 -24.6857 -24.1797 -24.1495 -24.1457 -24.1212
   -24.0827 -24.0599 -24.0354 -24.0161 -24.0122 -23.9697 -23.9409 -23.9339
   -23.9140 -23.8984 -23.8709 -23.8372 -23.8306 -23.8173 -23.8095 -23.8021
   -23.7157 -23.7061 -23.6943 -23.6699   3.4926   3.5631   3.6136   3.6179
     3.6508   3.6512   3.7047   3.7198   3.9469   4.0062   4.1119   4.1820
    21.9731  21.9862  22.0450  22.0789  22.2974  22.3483  22.4586  22.5972
    22.9280  23.0345  23.0594  23.2736  23.4289  23.6021  23.6160  23.8380
    23.9240  23.9529  23.9847  24.0693  24.1474  24.1864  24.2665  24.2998
    24.4782  24.4879  24.6011  24.6802  24.7654  24.8124  24.9551  25.0959
    25.2487  25.3812  25.6135  25.7102  25.8418  25.9846  26.0591  26.1006
    26.6922  28.9436  31.5203  31.9201  33.6583  34.0449  35.2927  35.4632
    35.8267  36.2438  36.4820  36.7057  37.0262  37.1743  37.5797  37.6421
    37.7152  37.9434  39.1405  39.2557  39.5577  39.5913  39.8738  39.9653
    41.1894  41.9031  42.0567  42.2046  42.7012  43.4776  43.9943  45.2984
    45.9877  46.7338  46.8740  47.2781  47.8343  48.2111  48.4514  48.6679
    49.1978  49.2543  49.3098  49.6480  49.6517  49.8565  50.6006  50.9635
    51.1528  51.1758  51.2080  51.3230  51.3906  51.9165  51.9454  51.9744
    52.5028  52.7405  53.4400  53.6715  53.8354  54.1856  54.4148  54.5458
    54.6360  55.1834

          k = 0.0000 0.0000-0.2502 (  3690 PWs)   bands (ev):

   -64.8410 -64.8410 -64.7951 -64.7951 -64.7649 -64.7649 -64.6655 -64.6655
   -24.8679 -24.8679 -24.7552 -24.7552 -24.1505 -24.1505 -24.1458 -24.1458
   -24.0658 -24.0658 -24.0218 -24.0218 -23.9889 -23.9889 -23.9590 -23.9590
   -23.9225 -23.9225 -23.8658 -23.8658 -23.8278 -23.8278 -23.8052 -23.8052
   -23.7174 -23.7174 -23.6876 -23.6876   3.5256   3.5256   3.6239   3.6239
     3.6480   3.6480   3.7040   3.7040   3.9646   3.9646   4.1460   4.1460
    21.9644  21.9644  21.9939  21.9939  22.2540  22.2540  22.8320  22.8320
    22.8613  22.8613  23.3017  23.3017  23.4797  23.4797  23.7580  23.7580
    23.9476  23.9476  23.9767  23.9767  24.0363  24.0363  24.3189  24.3189
    24.5027  24.5027  24.6583  24.6583  24.7565  24.7565  24.9383  24.9383
    25.4992  25.4992  25.5002  25.5002  25.9071  25.9071  26.0998  26.0998
    27.5618  27.5618  32.2253  32.2253  33.3553  33.3553  35.4368  35.4368
    36.3707  36.3707  36.3845  36.3845  37.1061  37.1061  37.2698  37.2698
    37.6766  37.6766  39.4908  39.4908  39.5280  39.5280  40.9024  40.9024
    41.2772  41.2772  42.6561  42.6561  43.2449  43.2449  43.8241  43.8241
    46.0017  46.0017  46.9453  46.9453  47.5094  47.5094  48.5739  48.5739
    49.0055  49.0055  49.0481  49.0481  50.1068  50.1068  50.9448  50.9448
    51.4677  51.4677  51.5573  51.5573  51.8672  51.8673  52.0128  52.0128
    52.8796  52.8796  53.2367  53.2367  53.5056  53.5056  54.1072  54.1072
    55.6844  55.6846

          k = 0.0000 0.2411 0.0000 (  3664 PWs)   bands (ev):

   -64.8021 -64.7950 -64.7728 -64.7715 -64.7400 -64.6939 -64.6724 -64.6682
   -24.9252 -24.9075 -24.7500 -24.6890 -24.1542 -24.1440 -24.0913 -24.0822
   -24.0819 -24.0789 -24.0582 -24.0250 -24.0216 -23.9783 -23.9525 -23.9045
   -23.8934 -23.8513 -23.8397 -23.8240 -23.8040 -23.7927 -23.7789 -23.7772
   -23.7592 -23.7383 -23.7195 -23.7085   3.4958   3.5341   3.6199   3.6356
     3.6452   3.6590   3.6699   3.6993   3.9250   3.9652   4.1082   4.1517
    22.1977  22.2537  22.3000  22.3835  22.5810  22.6362  22.7044  22.7514
    22.8975  22.9971  23.0513  23.2593  23.3088  23.3570  23.6465  23.6475
    23.7020  23.8358  23.8714  24.0330  24.1561  24.1628  24.4077  24.4535
    24.5540  24.5809  24.6364  24.6628  24.7531  24.7789  25.1245  25.2215
    25.2268  25.2477  25.5378  25.5650  25.6176  25.9511  26.0512  26.1593
    27.4304  29.8333  30.9931  31.2949  33.2369  33.8338  34.6429  35.4155
    35.5298  35.5887  35.9212  36.2951  36.6003  37.4208  37.4269  37.6703
    38.0583  38.2218  38.6703  38.8729  38.8896  39.1218  39.1578  39.3454
    40.4671  40.9132  42.5653  42.9786  43.1706  44.8509  45.1901  45.8447
    46.3450  46.8592  47.1652  47.2167  47.7559  47.9578  48.2290  48.8046
    48.9570  49.2358  49.6763  49.8770  50.1484  50.2743  50.7572  50.7942
    51.1107  51.3223  51.4782  51.7513  52.0604  52.4172  52.4397  52.5858
    52.9043  53.0349  53.4394  53.4478  53.5621  53.9635  54.5496  54.6377
    54.7995  55.0380

          k = 0.0000 0.2411 0.1251 (  3669 PWs)   bands (ev):

   -64.8193 -64.7902 -64.7706 -64.7619 -64.7465 -64.7308 -64.6825 -64.6654
   -24.9201 -24.8956 -24.7681 -24.7135 -24.1484 -24.1288 -24.1118 -24.1105
   -24.0792 -24.0468 -24.0460 -24.0229 -24.0194 -23.9771 -23.9562 -23.9022
   -23.8924 -23.8835 -23.8659 -23.8573 -23.8183 -23.7923 -23.7804 -23.7561
   -23.7393 -23.7248 -23.7171 -23.7064   3.5018   3.5342   3.6201   3.6359
     3.6408   3.6571   3.6714   3.6917   3.9284   3.9543   4.1108   4.1461
    22.1853  22.1877  22.2040  22.3854  22.5870  22.5881  22.7301  22.8516
    22.9253  23.1160  23.1545  23.2718  23.3438  23.3720  23.5373  23.5911
    23.8692  23.9099  24.0171  24.0457  24.1743  24.2165  24.2852  24.3920
    24.4002  24.5541  24.5651  24.6877  24.7346  24.7969  24.9535  25.1080
    25.2815  25.3498  25.5259  25.5380  25.6805  25.9145  26.0633  26.1439
    27.6939  29.6611  30.2027  31.7883  32.8431  34.0786  34.8242  35.4042
    35.5591  35.6457  35.9439  36.1903  36.5283  37.0390  37.3995  37.6961
    38.0924  38.3543  38.6980  38.7026  39.1794  39.2876  39.3248  39.7035
    40.7729  41.3144  42.6498  43.2534  43.3694  44.6559  45.0081  45.3192
    45.8551  46.0266  46.5762  46.6008  47.6580  48.0933  48.7031  49.0159
    49.1312  49.3858  49.6169  49.6796  50.1451  50.4504  50.7606  50.7713
    50.9190  51.4534  51.6723  52.0529  52.1443  52.5107  52.5120  52.7708
    52.9161  53.0404  53.1530  53.5576  53.6356  54.2645  54.3407  54.7627
    54.9080  55.2984

          k = 0.0000 0.2411-0.2502 (  3666 PWs)   bands (ev):

   -64.7927 -64.7927 -64.7570 -64.7570 -64.7334 -64.7334 -64.6898 -64.6898
   -24.8907 -24.8907 -24.7613 -24.7613 -24.1265 -24.1265 -24.1143 -24.1143
   -24.0467 -24.0467 -24.0334 -24.0334 -23.9912 -23.9912 -23.9521 -23.9521
   -23.8917 -23.8917 -23.8692 -23.8692 -23.8080 -23.8080 -23.7745 -23.7745
   -23.7199 -23.7199 -23.6979 -23.6979   3.5195   3.5195   3.6260   3.6260
     3.6489   3.6489   3.6823   3.6823   3.9412   3.9412   4.1296   4.1296
    22.1283  22.1283  22.2447  22.2447  22.6686  22.6686  22.7609  22.7609
    23.0439  23.0439  23.3538  23.3538  23.3893  23.3893  23.5750  23.5750
    23.9496  23.9496  24.0552  24.0552  24.1493  24.1493  24.2630  24.2630
    24.4871  24.4871  24.6361  24.6361  24.6524  24.6524  24.9889  24.9889
    25.4052  25.4052  25.4456  25.4456  25.8234  25.8234  26.1049  26.1049
    28.4840  28.4840  30.8869  30.8869  33.5056  33.5056  35.2012  35.2012
    35.8704  35.8704  35.9290  35.9290  36.5369  36.5369  37.5417  37.5417
    38.3535  38.3535  38.5948  38.5948  39.4157  39.4157  39.7143  39.7143
    41.7948  41.7948  42.7388  42.7388  44.2801  44.2801  44.3785  44.3785
    45.4953  45.4953  46.8740  46.8740  47.2486  47.2486  48.7783  48.7783
    49.1969  49.1969  50.0313  50.0313  50.5351  50.5351  50.5633  50.5633
    51.0064  51.0064  51.9734  51.9734  52.5777  52.5777  52.5862  52.5862
    53.3769  53.3770  53.3824  53.3824  53.8879  53.8879  54.7511  54.7512
    55.1576  55.1577

          k =-0.4728 0.0000 0.0000 (  3722 PWs)   bands (ev):

   -64.8417 -64.8417 -64.8085 -64.8085 -64.7889 -64.7889 -64.7707 -64.7707
   -24.9268 -24.9268 -24.8345 -24.8345 -24.2984 -24.2984 -24.1187 -24.1187
   -24.0881 -24.0881 -24.0579 -24.0579 -23.9926 -23.9926 -23.9244 -23.9244
   -23.9022 -23.9022 -23.8276 -23.8276 -23.7768 -23.7768 -23.7388 -23.7388
   -23.7369 -23.7369 -23.6954 -23.6954   3.4865   3.4865   3.5723   3.5723
     3.7032   3.7032   3.7450   3.7450   4.0322   4.0322   4.0911   4.0911
    22.2781  22.2781  22.3915  22.3915  22.5604  22.5604  22.8797  22.8797
    23.2030  23.2030  23.3346  23.3346  23.3850  23.3850  23.4230  23.4230
    23.6691  23.6691  23.9027  23.9027  23.9080  23.9080  24.0649  24.0649
    24.1278  24.1278  24.3928  24.3928  24.6526  24.6526  24.8087  24.8087
    24.8901  24.8901  25.4913  25.4913  25.9458  25.9458  26.0655  26.0655
    30.3694  30.3694  32.8912  32.8912  33.0570  33.0570  35.2462  35.2462
    35.9002  35.9002  36.1996  36.1996  36.9029  36.9029  37.4646  37.4646
    37.7983  37.7983  38.6205  38.6205  39.2163  39.2163  39.4901  39.4901
    39.6871  39.6871  39.9411  39.9411  43.8901  43.8901  44.6328  44.6328
    45.2431  45.2431  46.3001  46.3001  46.8698  46.8698  48.5755  48.5755
    49.4006  49.4006  50.2766  50.2766  50.3745  50.3745  51.0222  51.0222
    51.1074  51.1074  51.5224  51.5224  51.8928  51.8928  53.0313  53.0313
    53.8441  53.8441  54.6812  54.6812  55.2130  55.2132  55.2758  55.2759
    55.4431  55.4431

          k =-0.4728 0.0000 0.1251 (  3710 PWs)   bands (ev):

   -64.8276 -64.8276 -64.8013 -64.8013 -64.7866 -64.7866 -64.7421 -64.7421
   -24.9253 -24.9253 -24.8168 -24.8168 -24.2807 -24.2807 -24.1632 -24.1632
   -24.1032 -24.1032 -24.0387 -24.0387 -23.9740 -23.9740 -23.9167 -23.9167
   -23.8866 -23.8866 -23.8272 -23.8272 -23.7744 -23.7744 -23.7427 -23.7427
   -23.7331 -23.7331 -23.6861 -23.6861   3.4883   3.4883   3.5819   3.5819
     3.7084   3.7084   3.7431   3.7431   4.0336   4.0336   4.0889   4.0889
    22.2642  22.2642  22.4448  22.4448  22.5599  22.5599  22.9128  22.9128
    23.1319  23.1319  23.2299  23.2299  23.4165  23.4165  23.5263  23.5263
    23.6191  23.6191  23.9190  23.9190  23.9494  23.9494  24.1146  24.1146
    24.1515  24.1515  24.4213  24.4213  24.6362  24.6362  24.7480  24.7480
    24.9922  24.9922  25.4605  25.4605  25.8707  25.8707  26.0540  26.0540
    30.4917  30.4917  31.9083  31.9083  33.5956  33.5956  35.2387  35.2387
    36.1293  36.1293  36.3967  36.3967  37.0094  37.0094  37.5516  37.5516
    37.6327  37.6327  38.4576  38.4576  38.9768  38.9768  39.6424  39.6424
    39.8215  39.8215  40.4838  40.4838  42.9228  42.9228  44.7830  44.7830
    45.8610  45.8610  46.4765  46.4765  46.8793  46.8793  47.8880  47.8880
    49.2270  49.2270  49.8352  49.8352  50.3085  50.3085  50.9650  50.9650
    51.4108  51.4109  51.9242  51.9243  52.4586  52.4586  52.7172  52.7172
    53.9365  53.9365  54.1712  54.1712  54.8348  54.8349  55.4164  55.4165
    55.6160  55.6161

          k =-0.4728 0.0000-0.2502 (  3680 PWs)   bands (ev):

   -64.7897 -64.7897 -64.7724 -64.7724 -64.7505 -64.7505 -64.7235 -64.7235
   -24.9170 -24.9170 -24.7987 -24.7987 -24.2669 -24.2669 -24.1797 -24.1797
   -24.1079 -24.1079 -24.0279 -24.0279 -23.9625 -23.9625 -23.9061 -23.9061
   -23.8606 -23.8606 -23.8244 -23.8244 -23.7604 -23.7604 -23.7327 -23.7327
   -23.7182 -23.7182 -23.6795 -23.6795   3.4939   3.4939   3.5918   3.5918
     3.7141   3.7141   3.7493   3.7493   4.0392   4.0392   4.0885   4.0885
    22.2491  22.2491  22.4441  22.4441  22.6651  22.6651  22.9478  22.9478
    23.0118  23.0118  23.1532  23.1532  23.4704  23.4704  23.4820  23.4820
    23.6691  23.6691  23.9323  23.9323  23.9993  23.9993  24.1266  24.1266
    24.3093  24.3093  24.4849  24.4849  24.5239  24.5239  24.6074  24.6074
    25.1363  25.1363  25.5260  25.5260  25.7143  25.7143  26.0436  26.0436
    30.8353  30.8353  31.1378  31.1378  33.8283  33.8283  35.0567  35.0567
    36.3728  36.3728  36.5227  36.5227  37.0251  37.0251  37.3550  37.3550
    38.3122  38.3122  38.3781  38.3781  38.5580  38.5580  39.5902  39.5902
    40.0709  40.0709  41.5006  41.5006  41.5490  41.5490  45.0185  45.0185
    46.1709  46.1709  46.6245  46.6245  46.6351  46.6351  48.2217  48.2217
    48.6141  48.6141  49.1902  49.1902  50.0871  50.0871  51.4267  51.4267
    51.5012  51.5012  52.2123  52.2124  52.6398  52.6398  53.2065  53.2065
    53.5302  53.5303  54.1563  54.1564  54.4880  54.4880  55.2280  55.2282
    55.3960  55.3963

          k =-0.4728 0.2411 0.0000 (  3686 PWs)   bands (ev):

   -64.7931 -64.7931 -64.7927 -64.7927 -64.7475 -64.7475 -64.7420 -64.7420
   -24.9326 -24.9326 -24.8855 -24.8855 -24.2061 -24.2061 -24.1119 -24.1119
   -24.0315 -24.0315 -23.9940 -23.9940 -23.9851 -23.9851 -23.9217 -23.9217
   -23.8817 -23.8817 -23.8260 -23.8260 -23.7989 -23.7989 -23.7664 -23.7664
   -23.7203 -23.7203 -23.7092 -23.7092   3.5025   3.5025   3.5453   3.5453
     3.7179   3.7179   3.7303   3.7303   4.0319   4.0319   4.0543   4.0543
    22.3923  22.3923  22.6665  22.6665  22.8536  22.8536  22.9219  22.9219
    23.1335  23.1335  23.3063  23.3063  23.6043  23.6043  23.6154  23.6154
    23.7287  23.7287  23.8912  23.8912  23.9657  23.9657  24.1515  24.1515
    24.3143  24.3143  24.3476  24.3476  24.5463  24.5463  24.8343  24.8343
    25.0350  25.0350  25.2042  25.2042  25.6383  25.6383  25.8231  25.8231
    30.9243  30.9243  32.4388  32.4388  33.4495  33.4495  34.1285  34.1285
    35.5775  35.5775  35.5946  35.5946  37.2069  37.2069  37.4962  37.4962
    37.7722  37.7722  38.2564  38.2564  38.4713  38.4713  38.7536  38.7536
    40.3212  40.3212  40.7755  40.7755  42.6795  42.6795  42.9959  42.9959
    46.2272  46.2272  47.5613  47.5613  48.4269  48.4269  48.8863  48.8863
    49.7816  49.7816  50.1657  50.1657  50.7532  50.7532  51.0465  51.0465
    51.6313  51.6314  52.3623  52.3623  52.9807  52.9807  53.1049  53.1049
    53.7347  53.7348  54.1221  54.1221  54.7738  54.7739  54.8872  54.8873
    55.6456  55.6459

          k =-0.4728 0.2411 0.1251 (  3692 PWs)   bands (ev):

   -64.7990 -64.7990 -64.7886 -64.7886 -64.7659 -64.7659 -64.7425 -64.7425
   -24.9262 -24.9262 -24.8834 -24.8834 -24.2079 -24.2079 -24.1310 -24.1310
   -24.0607 -24.0607 -24.0062 -24.0062 -23.9421 -23.9421 -23.9226 -23.9226
   -23.8838 -23.8838 -23.8310 -23.8310 -23.7915 -23.7915 -23.7679 -23.7679
   -23.7282 -23.7282 -23.7108 -23.7108   3.5061   3.5061   3.5483   3.5483
     3.7142   3.7142   3.7260   3.7260   4.0255   4.0255   4.0542   4.0542
    22.3683  22.3683  22.7265  22.7265  22.8378  22.8378  22.9532  22.9532
    23.1258  23.1258  23.2986  23.2986  23.4262  23.4262  23.6808  23.6808
    23.7664  23.7664  23.9274  23.9274  24.0202  24.0202  24.1902  24.1902
    24.2945  24.2945  24.4371  24.4371  24.5659  24.5659  24.7455  24.7455
    25.0397  25.0397  25.1947  25.1947  25.5812  25.5812  25.8223  25.8223
    30.9838  30.9838  31.9927  31.9927  33.3638  33.3638  34.1650  34.1650
    35.7156  35.7156  36.1320  36.1320  36.8672  36.8672  37.5579  37.5579
    37.7499  37.7499  38.2943  38.2943  38.4175  38.4175  38.7168  38.7168
    40.4971  40.4971  41.0503  41.0503  42.2522  42.2522  43.5583  43.5583
    46.2756  46.2756  46.9163  46.9163  48.0074  48.0074  48.8732  48.8732
    49.4405  49.4405  50.6247  50.6247  50.9656  50.9656  51.3390  51.3390
    51.6545  51.6545  52.2439  52.2439  52.7310  52.7310  53.4210  53.4211
    53.7397  53.7398  54.1365  54.1365  54.4200  54.4200  54.7333  54.7334
    55.2754  55.2755

          k =-0.4728 0.2411-0.2502 (  3704 PWs)   bands (ev):

   -64.8247 -64.8247 -64.7928 -64.7928 -64.7669 -64.7669 -64.7604 -64.7604
   -24.9260 -24.9260 -24.8821 -24.8821 -24.2108 -24.2108 -24.1223 -24.1223
   -24.1162 -24.1162 -24.0181 -24.0181 -23.9274 -23.9274 -23.9070 -23.9070
   -23.8903 -23.8903 -23.8473 -23.8473 -23.7783 -23.7783 -23.7672 -23.7672
   -23.7332 -23.7332 -23.7171 -23.7171   3.5028   3.5028   3.5511   3.5511
     3.7098   3.7098   3.7229   3.7229   4.0234   4.0234   4.0477   4.0477
    22.3432  22.3432  22.7599  22.7599  22.8750  22.8750  23.0286  23.0286
    23.0601  23.0601  23.2496  23.2496  23.3533  23.3533  23.7112  23.7112
    23.8046  23.8046  23.9376  23.9376  23.9950  23.9950  24.3113  24.3113
    24.3710  24.3710  24.4541  24.4541  24.5357  24.5357  24.6902  24.6902
    24.9218  24.9218  25.3469  25.3469  25.4597  25.4597  25.8089  25.8089
    31.1868  31.1868  31.4551  31.4551  33.4042  33.4042  34.0349  34.0349
    36.1958  36.1958  36.2987  36.2987  36.6534  36.6534  37.3696  37.3696
    38.0030  38.0030  38.1551  38.1551  38.5452  38.5452  38.6353  38.6353
    40.6467  40.6467  41.1105  41.1105  42.0824  42.0824  44.4316  44.4316
    45.5522  45.5522  46.8025  46.8025  47.4696  47.4696  48.5543  48.5543
    49.6428  49.6428  50.7740  50.7740  51.3599  51.3599  51.5058  51.5058
    51.9513  51.9513  52.0417  52.0417  52.5631  52.5632  53.1178  53.1178
    53.7747  53.7747  54.1977  54.1977  54.5156  54.5156  54.5769  54.5769
    54.8856  54.8857

     the Fermi energy is    48.8721 ev

!    total energy              =   -3730.72972400 Ry
     Harris-Foulkes estimate   =   -3730.72972410 Ry
     estimated scf accuracy    <       0.00000012 Ry

     The total energy is the sum of the following terms:

     one-electron contribution =    -196.77517548 Ry
     hartree contribution      =     418.95497383 Ry
     xc contribution           =    -332.18525967 Ry
     ewald contribution        =   -3620.33269134 Ry
     smearing contrib. (-TS)   =      -0.39157133 Ry

     convergence has been achieved in  12 iterations

     Forces acting on atoms (Ry/au):

     atom    1 type  1   force =     0.00000000   -0.05658651   -0.06161235
     atom    2 type  1   force =     0.00000000    0.05658651    0.06161235
     atom    3 type  1   force =     0.00000000   -0.05658651    0.06161235
     atom    4 type  1   force =     0.00000000    0.05658651   -0.06161235
     atom    5 type  1   force =     0.00000000    0.04439460   -0.03008440
     atom    6 type  1   force =     0.00000000   -0.04439460    0.03008440
     atom    7 type  1   force =     0.00000000    0.04439460    0.03008440
     atom    8 type  1   force =     0.00000000   -0.04439460   -0.03008440
     atom    9 type  2   force =     0.00000000   -0.13743910    0.05760913
     atom   10 type  2   force =     0.00000000    0.13743910   -0.05760913
     atom   11 type  2   force =     0.00000000   -0.13743910   -0.05760913
     atom   12 type  2   force =     0.00000000    0.13743910    0.05760913

     Total force =     0.358231     Total SCF correction =     0.000000


     entering subroutine stress ...

          total   stress  (Ry/bohr**3)                   (kbar)     P= 3794.32
   0.02655768   0.00000000   0.00000000       3906.77      0.00      0.00
   0.00000000   0.02524434   0.00000000          0.00   3713.57      0.00
   0.00000000   0.00000000   0.02557774          0.00      0.00   3762.61


     The maximum number of steps has been reached.

     End of BFGS Geometry Optimization
Begin final coordinates
     new unit-cell volume =   1008.50091 a.u.^3 (   149.44441 Ang^3 )

CELL_PARAMETERS (alat=  7.01510508)
   1.057529834   0.000000000   0.000000000
   0.000000000   1.382271856   0.000000000
   0.000000000   0.000000000   1.998424096

ATOMIC_POSITIONS (crystal)
Co       0.750000000   0.826233147   0.435602156
Co       0.250000000   0.173766853   0.564397844
Co       0.750000000   0.326233147   0.064397844
Co       0.250000000   0.673766853   0.935602156
Co       0.250000000   0.537301945   0.282217069
Co       0.750000000   0.462698055   0.717782931
Co       0.250000000   0.037301945   0.217782931
Co       0.750000000   0.962698055   0.782217069
Si       0.250000000   0.202432946   0.893677444
Si       0.750000000   0.797567054   0.106322556
Si       0.250000000   0.702432946   0.606322556
Si       0.750000000   0.297567054   0.393677444
End final coordinates



     A final scf calculation at the relaxed structure.
     The G-vectors are recalculated for the final unit cell
     Results may differ from those at the preceding step.
