
     Program PWSCF v.5.0.2 starts on 22Mar2018 at 16: 5:51 

     This program is part of the open-source Quantum ESPRESSO suite
     for quantum simulation of materials; please cite
         "P. Giannozzi et al., J. Phys.:Condens. Matter 21 395502 (2009);
          URL http://www.quantum-espresso.org", 
     in publications or presentations arising from this work. More details at
     http://www.quantum-espresso.org/quote.php

     Parallel version (MPI), running on     4 processors
     R & G space division:  proc/nbgrp/npool/nimage =       4

     Current dimensions of program PWSCF are:
     Max number of different atomic species (ntypx) = 10
     Max number of k-points (npk) =  40000
     Max angular momentum in pseudopotentials (lmaxx) =  3
     Waiting for input...
     Reading input from standard input

     Subspace diagonalization in iterative solution of the eigenvalue problem:
     a serial algorithm will be used

 
     Parallelization info
     --------------------
     sticks:   dense  smooth     PW     G-vecs:    dense   smooth      PW
     Min         396     396    112                10116    10116    1566
     Max         397     397    113                10119    10119    1567
     Sum        1585    1585    451                40467    40467    6267
 


     bravais-lattice index     =            0
     lattice parameter (alat)  =      12.0168  a.u.
     unit-cell volume          =    1187.3413 (a.u.)^3
     number of atoms/cell      =            8
     number of atomic types    =            2
     number of electrons       =       174.00
     number of Kohn-Sham states=          104
     kinetic-energy cutoff     =      40.0000  Ry
     charge density cutoff     =     160.0000  Ry
     convergence threshold     =      1.0E-04
     mixing beta               =       0.7000
     number of iterations used =            8  plain     mixing
     Exchange-correlation      = SLA-PZ-NOGX-NOGC ( 1 1 0 0 0)
     EXX-fraction              =        0.00
     nstep                     =           50


     celldm(1)=  12.016801  celldm(2)=   0.000000  celldm(3)=   0.000000
     celldm(4)=   0.000000  celldm(5)=   0.000000  celldm(6)=   0.000000

     crystal axes: (cart. coord. in units of alat)
               a(1) = (   1.000000   0.000000   0.000000 )  
               a(2) = (  -0.500000   0.866025   0.000000 )  
               a(3) = (   0.000000   0.000000   0.790093 )  

     reciprocal axes: (cart. coord. in units 2 pi/alat)
               b(1) = (  1.000000  0.577350  0.000000 )  
               b(2) = (  0.000000  1.154701  0.000000 )  
               b(3) = (  0.000000  0.000000  1.265674 )  


     PseudoPot. # 1 for Tm read from file:
     /home/cwx6513/pp.La/Tm.UPF
     MD5 check sum: 245516e0878b5372ceeb9443ded2c4e1
     Pseudo is Norm-conserving, Zval = 23.0
     Generated in analytical, separable form
     Using radial grid of 1269 points,  6 beta functions with: 
                l(1) =   0
                l(2) =   0
                l(3) =   1
                l(4) =   1
                l(5) =   2
                l(6) =   3

     PseudoPot. # 2 for Gd read from file:
     /home/cwx6513/pp.La/Gd.UPF
     MD5 check sum: 09a8be538722f05520810cb6aac0efd2
     Pseudo is Norm-conserving, Zval = 18.0
     Generated in analytical, separable form
     Using radial grid of 1263 points,  6 beta functions with: 
                l(1) =   0
                l(2) =   0
                l(3) =   1
                l(4) =   1
                l(5) =   2
                l(6) =   3

     atomic species   valence    mass     pseudopotential
        Mg            23.00    24.30500     Tm( 1.00)
        Cd            18.00   112.41100     Gd( 1.00)

     24 Sym. Ops., with inversion, found (12 have fractional translation)



   Cartesian axes

     site n.     atom                  positions (alat units)
         1           Mg  tau(   1) = (   0.2478935   0.7204716   0.1975233  )
         2           Mg  tau(   2) = (   0.7478935   0.1455538   0.5925699  )
         3           Mg  tau(   3) = (   0.2521065   0.1455538   0.5925699  )
         4           Mg  tau(   4) = (  -0.2478935   0.7204716   0.1975233  )
         5           Mg  tau(   5) = (   0.0000000   0.2911075   0.1975233  )
         6           Mg  tau(   6) = (   0.5000000   0.5749179   0.5925699  )
         7           Cd  tau(   7) = (   0.5000005   0.2886748   0.1975233  )
         8           Cd  tau(   8) = (  -0.0000005   0.5773506   0.5925699  )

     number of k points=    64  gaussian smearing, width (Ry)=  0.1000
                       cart. coord. in units 2pi/alat
        k(    1) = (   0.0000000   0.0000000   0.0000000), wk =   0.0095238
        k(    2) = (   0.0000000   0.0000000   0.1808105), wk =   0.0190476
        k(    3) = (   0.0000000   0.0000000   0.3616210), wk =   0.0190476
        k(    4) = (   0.0000000   0.0000000   0.5424315), wk =   0.0190476
        k(    5) = (   0.0000000   0.1924501   0.0000000), wk =   0.0190476
        k(    6) = (   0.0000000   0.1924501   0.1808105), wk =   0.0380952
        k(    7) = (   0.0000000   0.1924501   0.3616210), wk =   0.0380952
        k(    8) = (   0.0000000   0.1924501   0.5424315), wk =   0.0380952
        k(    9) = (   0.0000000   0.3849002   0.0000000), wk =   0.0190476
        k(   10) = (   0.0000000   0.3849002   0.1808105), wk =   0.0380952
        k(   11) = (   0.0000000   0.3849002   0.3616210), wk =   0.0380952
        k(   12) = (   0.0000000   0.3849002   0.5424315), wk =   0.0380952
        k(   13) = (   0.0000000  -0.5773503   0.0000000), wk =   0.0095238
        k(   14) = (   0.0000000  -0.5773503   0.1808105), wk =   0.0190476
        k(   15) = (   0.0000000  -0.5773503   0.3616210), wk =   0.0190476
        k(   16) = (   0.0000000  -0.5773503   0.5424315), wk =   0.0190476
        k(   17) = (   0.2000000   0.1154701   0.0000000), wk =   0.0190476
        k(   18) = (   0.2000000   0.1154701   0.1808105), wk =   0.0380952
        k(   19) = (   0.2000000   0.1154701   0.3616210), wk =   0.0380952
        k(   20) = (   0.2000000   0.1154701   0.5424315), wk =   0.0380952
        k(   21) = (   0.2000000   0.3079201   0.0000000), wk =   0.0190476
        k(   22) = (   0.2000000   0.3079201   0.1808105), wk =   0.0380952
        k(   23) = (   0.2000000   0.3079201   0.3616210), wk =   0.0380952
        k(   24) = (   0.2000000   0.3079201   0.5424315), wk =   0.0380952
        k(   25) = (   0.2000000   0.5003702   0.0000000), wk =   0.0190476
        k(   26) = (   0.2000000   0.5003702   0.1808105), wk =   0.0380952
        k(   27) = (   0.2000000   0.5003702   0.3616210), wk =   0.0380952
        k(   28) = (   0.2000000   0.5003702   0.5424315), wk =   0.0380952
        k(   29) = (   0.2000000  -0.4618802   0.0000000), wk =   0.0190476
        k(   30) = (   0.2000000  -0.4618802   0.1808105), wk =   0.0380952
        k(   31) = (   0.2000000  -0.4618802   0.3616210), wk =   0.0380952
        k(   32) = (   0.2000000  -0.4618802   0.5424315), wk =   0.0380952
        k(   33) = (   0.2000000  -0.2694301   0.0000000), wk =   0.0190476
        k(   34) = (   0.2000000  -0.2694301   0.1808105), wk =   0.0380952
        k(   35) = (   0.2000000  -0.2694301   0.3616210), wk =   0.0380952
        k(   36) = (   0.2000000  -0.2694301   0.5424315), wk =   0.0380952
        k(   37) = (   0.2000000  -0.0769800   0.0000000), wk =   0.0190476
        k(   38) = (   0.2000000  -0.0769800   0.1808105), wk =   0.0380952
        k(   39) = (   0.2000000  -0.0769800   0.3616210), wk =   0.0380952
        k(   40) = (   0.2000000  -0.0769800   0.5424315), wk =   0.0380952
        k(   41) = (   0.4000000   0.2309401   0.0000000), wk =   0.0190476
        k(   42) = (   0.4000000   0.2309401   0.1808105), wk =   0.0380952
        k(   43) = (   0.4000000   0.2309401   0.3616210), wk =   0.0380952
        k(   44) = (   0.4000000   0.2309401   0.5424315), wk =   0.0380952
        k(   45) = (   0.4000000   0.4233902   0.0000000), wk =   0.0190476
        k(   46) = (   0.4000000   0.4233902   0.1808105), wk =   0.0380952
        k(   47) = (   0.4000000   0.4233902   0.3616210), wk =   0.0380952
        k(   48) = (   0.4000000   0.4233902   0.5424315), wk =   0.0380952
        k(   49) = (   0.4000000   0.6158403   0.0000000), wk =   0.0190476
        k(   50) = (   0.4000000   0.6158403   0.1808105), wk =   0.0380952
        k(   51) = (   0.4000000   0.6158403   0.3616210), wk =   0.0380952
        k(   52) = (   0.4000000   0.6158403   0.5424315), wk =   0.0380952
        k(   53) = (   0.4000000  -0.3464102   0.0000000), wk =   0.0190476
        k(   54) = (   0.4000000  -0.3464102   0.1808105), wk =   0.0380952
        k(   55) = (   0.4000000  -0.3464102   0.3616210), wk =   0.0380952
        k(   56) = (   0.4000000  -0.3464102   0.5424315), wk =   0.0380952
        k(   57) = (   0.4000000  -0.1539601   0.0000000), wk =   0.0190476
        k(   58) = (   0.4000000  -0.1539601   0.1808105), wk =   0.0380952
        k(   59) = (   0.4000000  -0.1539601   0.3616210), wk =   0.0380952
        k(   60) = (   0.4000000  -0.1539601   0.5424315), wk =   0.0380952
        k(   61) = (   0.4000000   0.0384900   0.0000000), wk =   0.0190476
        k(   62) = (   0.4000000   0.0384900   0.1808105), wk =   0.0380952
        k(   63) = (   0.4000000   0.0384900   0.3616210), wk =   0.0380952
        k(   64) = (   0.4000000   0.0384900   0.5424315), wk =   0.0380952

     Dense  grid:    40467 G-vectors     FFT dimensions: (  50,  50,  40)

     Largest allocated arrays     est. size (Mb)     dimensions
        Kohn-Sham Wavefunctions         2.06 Mb     (   1298,  104)
        NL pseudopotentials             3.17 Mb     (   1298,  160)
        Each V/rho on FFT grid          0.38 Mb     (  25000)
        Each G-vector array             0.08 Mb     (  10119)
        G-vector shells                 0.08 Mb     (  10119)
     Largest temporary arrays     est. size (Mb)     dimensions
        Each subspace H/S matrix        0.17 Mb     ( 104, 104)
        Each <psi_i|beta_j> matrix      0.25 Mb     (    160,  104)
        Arrays for rho mixing           3.05 Mb     (  25000,   8)

     Initial potential from superposition of free atoms

     Starting from uniform charge
     Starting wfc are    0 randomized atomic wfcs

     total cpu time spent up to now is       10.5 secs

     Self-consistent Calculation

     iteration #  1     ecut=    40.00 Ry     beta=0.70
     CG style diagonalization
     ethr =  1.00E-02,  avg # of iterations = 18.6

     total cpu time spent up to now is      226.4 secs

     total energy              =   -2127.67315811 Ry
     Harris-Foulkes estimate   =   -3400.84551795 Ry
     estimated scf accuracy    <    1572.44899889 Ry

     iteration #  2     ecut=    40.00 Ry     beta=0.70
     CG style diagonalization
     c_bands:  3 eigenvalues not converged
     c_bands:  3 eigenvalues not converged
     c_bands:  2 eigenvalues not converged
     c_bands:  4 eigenvalues not converged
     c_bands:  4 eigenvalues not converged
     c_bands:  2 eigenvalues not converged
     c_bands:  4 eigenvalues not converged
     c_bands:  4 eigenvalues not converged
     c_bands:  1 eigenvalues not converged
     c_bands:  2 eigenvalues not converged
     c_bands:  4 eigenvalues not converged
     c_bands:  2 eigenvalues not converged
     c_bands:  4 eigenvalues not converged
     c_bands:  4 eigenvalues not converged
     c_bands:  1 eigenvalues not converged
     c_bands:  3 eigenvalues not converged
     c_bands:  2 eigenvalues not converged
     c_bands:  1 eigenvalues not converged
     c_bands:  2 eigenvalues not converged
     c_bands:  3 eigenvalues not converged
     c_bands:  3 eigenvalues not converged
     c_bands:  4 eigenvalues not converged
     c_bands:  1 eigenvalues not converged
     c_bands:  4 eigenvalues not converged
     c_bands:  5 eigenvalues not converged
     c_bands:  2 eigenvalues not converged
     c_bands:  3 eigenvalues not converged
     c_bands:  5 eigenvalues not converged
     c_bands:  2 eigenvalues not converged
     c_bands:  4 eigenvalues not converged
     c_bands:  5 eigenvalues not converged
     c_bands:  1 eigenvalues not converged
     c_bands:  2 eigenvalues not converged
     c_bands:  1 eigenvalues not converged
     c_bands:  3 eigenvalues not converged
     c_bands:  3 eigenvalues not converged
     c_bands:  3 eigenvalues not converged
     c_bands:  5 eigenvalues not converged
     c_bands:  4 eigenvalues not converged
     c_bands:  4 eigenvalues not converged
     c_bands:  2 eigenvalues not converged
     c_bands:  3 eigenvalues not converged
     c_bands:  3 eigenvalues not converged
     c_bands:  1 eigenvalues not converged
     c_bands:  4 eigenvalues not converged
     ethr =  1.00E-02,  avg # of iterations = 12.8

     total cpu time spent up to now is      372.8 secs

     total energy              =   -2099.03371702 Ry
     Harris-Foulkes estimate   =   -2901.32850100 Ry
     estimated scf accuracy    <    1413.97148825 Ry

     iteration #  3     ecut=    40.00 Ry     beta=0.70
     CG style diagonalization
     c_bands:  5 eigenvalues not converged
     c_bands:  2 eigenvalues not converged
     c_bands:  1 eigenvalues not converged
     c_bands:  3 eigenvalues not converged
     c_bands:  2 eigenvalues not converged
     c_bands:  1 eigenvalues not converged
     c_bands:  2 eigenvalues not converged
     c_bands:  1 eigenvalues not converged
     c_bands:  1 eigenvalues not converged
     c_bands:  2 eigenvalues not converged
     c_bands:  2 eigenvalues not converged
     c_bands:  4 eigenvalues not converged
     c_bands:  1 eigenvalues not converged
     c_bands:  1 eigenvalues not converged
     c_bands:  1 eigenvalues not converged
     c_bands:  2 eigenvalues not converged
     c_bands:  2 eigenvalues not converged
     c_bands:  1 eigenvalues not converged
     c_bands:  1 eigenvalues not converged
     c_bands:  1 eigenvalues not converged
     c_bands:  1 eigenvalues not converged
     c_bands:  2 eigenvalues not converged
     c_bands:  1 eigenvalues not converged
     c_bands:  1 eigenvalues not converged
     c_bands:  1 eigenvalues not converged
     c_bands:  1 eigenvalues not converged
     c_bands:  1 eigenvalues not converged
     c_bands:  1 eigenvalues not converged
     c_bands:  1 eigenvalues not converged
     c_bands:  1 eigenvalues not converged
     c_bands:  2 eigenvalues not converged
     c_bands:  1 eigenvalues not converged
     c_bands:  2 eigenvalues not converged
     c_bands:  1 eigenvalues not converged
     ethr =  1.00E-02,  avg # of iterations = 11.6

     total cpu time spent up to now is      507.9 secs

     total energy              =   -2520.19266985 Ry
     Harris-Foulkes estimate   =   -2759.64728536 Ry
     estimated scf accuracy    <     607.54539764 Ry

     iteration #  4     ecut=    40.00 Ry     beta=0.70
     CG style diagonalization
     ethr =  1.00E-02,  avg # of iterations =  7.6

     total cpu time spent up to now is      598.6 secs

     total energy              =   -2599.53917077 Ry
     Harris-Foulkes estimate   =   -2627.96159070 Ry
     estimated scf accuracy    <      73.60541224 Ry

     iteration #  5     ecut=    40.00 Ry     beta=0.70
     CG style diagonalization
     ethr =  1.00E-02,  avg # of iterations =  4.1

     total cpu time spent up to now is      645.1 secs

     total energy              =   -2606.64231653 Ry
     Harris-Foulkes estimate   =   -2609.42349653 Ry
     estimated scf accuracy    <       7.04522709 Ry

     iteration #  6     ecut=    40.00 Ry     beta=0.70
     CG style diagonalization
     ethr =  4.05E-03,  avg # of iterations =  3.3

     total cpu time spent up to now is      683.4 secs

     total energy              =   -2606.60219570 Ry
     Harris-Foulkes estimate   =   -2607.42133839 Ry
     estimated scf accuracy    <       1.32043588 Ry

     iteration #  7     ecut=    40.00 Ry     beta=0.70
     CG style diagonalization
     c_bands:  1 eigenvalues not converged
     ethr =  7.59E-04,  avg # of iterations =  4.2

     total cpu time spent up to now is      732.8 secs

     total energy              =   -2606.94562883 Ry
     Harris-Foulkes estimate   =   -2607.03975431 Ry
     estimated scf accuracy    <       0.18546750 Ry

     iteration #  8     ecut=    40.00 Ry     beta=0.70
     CG style diagonalization
     c_bands:  1 eigenvalues not converged
     c_bands:  1 eigenvalues not converged
     c_bands:  1 eigenvalues not converged
     c_bands:  1 eigenvalues not converged
     ethr =  1.07E-04,  avg # of iterations =  3.9

     total cpu time spent up to now is      778.2 secs

     total energy              =   -2606.98628177 Ry
     Harris-Foulkes estimate   =   -2606.99627720 Ry
     estimated scf accuracy    <       0.02269963 Ry

     iteration #  9     ecut=    40.00 Ry     beta=0.70
     CG style diagonalization
     c_bands:  1 eigenvalues not converged
     c_bands:  1 eigenvalues not converged
     c_bands:  1 eigenvalues not converged
     c_bands:  1 eigenvalues not converged
     c_bands:  1 eigenvalues not converged
     c_bands:  1 eigenvalues not converged
     c_bands:  1 eigenvalues not converged
     c_bands:  1 eigenvalues not converged
     c_bands:  1 eigenvalues not converged
     ethr =  1.30E-05,  avg # of iterations =  4.0

     total cpu time spent up to now is      823.7 secs

     total energy              =   -2606.99255820 Ry
     Harris-Foulkes estimate   =   -2606.99324938 Ry
     estimated scf accuracy    <       0.00134049 Ry

     iteration # 10     ecut=    40.00 Ry     beta=0.70
     CG style diagonalization
     c_bands:  1 eigenvalues not converged
     c_bands:  1 eigenvalues not converged
     c_bands:  1 eigenvalues not converged
     c_bands:  1 eigenvalues not converged
     c_bands:  1 eigenvalues not converged
     c_bands:  1 eigenvalues not converged
     c_bands:  1 eigenvalues not converged
     ethr =  7.70E-07,  avg # of iterations =  4.6

     total cpu time spent up to now is      875.8 secs

     total energy              =   -2606.99282180 Ry
     Harris-Foulkes estimate   =   -2606.99348909 Ry
     estimated scf accuracy    <       0.00120370 Ry

     iteration # 11     ecut=    40.00 Ry     beta=0.70
     CG style diagonalization
     c_bands:  1 eigenvalues not converged
     ethr =  6.92E-07,  avg # of iterations =  3.6

     total cpu time spent up to now is      915.7 secs

     End of self-consistent calculation

          k = 0.0000 0.0000 0.0000 (  5047 PWs)   bands (ev):

   -85.6381 -85.6381 -85.6350 -85.5970 -85.5969 -85.5734 -44.3501 -44.3174
   -44.3135 -44.3049 -44.3048 -44.2897 -44.2897 -44.2789 -44.2788 -44.2664
   -44.2495 -44.2494 -44.2359 -44.2358 -44.2262 -44.2261 -44.2214 -44.2117
   -42.7965 -42.7956 -13.8667 -13.8596 -13.8183 -13.8183 -13.8180 -13.8180
     4.1132   4.1776   4.1776   4.2422   4.3636   4.4096   4.4476   4.4476
     4.4668   4.4668   4.5311   4.6019   4.6019   4.8107   4.8643   4.8644
     4.9122   4.9390   4.9390   5.0005   5.0006   5.0602   5.0603   5.1718
     5.1718   5.2924   5.2925   5.2942   5.3848   5.4073  10.7068  15.4123
    15.4124  15.5845  17.3307  17.3308  17.5673  18.9885  20.3875  20.3876
    20.4790  20.4791  20.5018  21.5272  21.5273  21.8751  22.2937  22.2937
    23.1026  23.4119  23.4119  23.8272  23.8272  24.9272  24.9272  26.1254
    26.1304  26.7087  27.9406  28.2178  28.2178  28.4858  29.4360  29.4360
    31.1157  31.1157  31.1751  31.3515  31.3515  31.8727  32.0281  32.5680

          k = 0.0000 0.0000 0.1808 (  5065 PWs)   bands (ev):

   -85.6332 -85.6291 -85.6291 -85.6247 -85.6246 -85.5990 -44.3465 -44.3371
   -44.3142 -44.3141 -44.3108 -44.2914 -44.2914 -44.2821 -44.2821 -44.2528
   -44.2491 -44.2490 -44.2421 -44.2407 -44.2407 -44.2324 -44.2324 -44.2198
   -42.7977 -42.7967 -13.8651 -13.8618 -13.8247 -13.8247 -13.8179 -13.8179
     4.1293   4.1913   4.1913   4.2288   4.3616   4.4111   4.4112   4.4542
     4.4608   4.4608   4.5787   4.5870   4.5870   4.7197   4.9024   4.9024
     4.9392   4.9392   4.9471   5.0002   5.0002   5.0805   5.0805   5.1085
     5.1085   5.2723   5.3372   5.3372   5.3800   5.3816  10.8543  15.2157
    15.5255  15.5256  17.3193  17.3194  17.7451  18.5525  20.2522  20.2523
    20.2678  20.2678  21.3481  21.4461  21.4461  21.7786  22.2780  22.2781
    22.9719  22.9719  23.1245  23.8720  23.8721  25.6068  25.6200  25.9380
    25.9380  26.3503  27.9507  27.9507  28.6954  29.6792  30.0301  30.0301
    31.0287  31.2565  31.2565  31.2732  31.2732  31.5959  32.1260  32.4642

          k = 0.0000 0.0000 0.3616 (  5047 PWs)   bands (ev):

   -85.6298 -85.6231 -85.6231 -85.6189 -85.6189 -85.5694 -44.3478 -44.3258
   -44.3117 -44.3117 -44.3015 -44.3015 -44.2734 -44.2671 -44.2559 -44.2559
   -44.2541 -44.2501 -44.2501 -44.2354 -44.2353 -44.2266 -44.2227 -44.2227
   -42.7971 -42.7951 -13.8590 -13.8560 -13.8214 -13.8214 -13.8208 -13.8208
     4.1692   4.2273   4.2273   4.2339   4.3376   4.3560   4.3560   4.4515
     4.4515   4.5449   4.5449   4.5646   4.5785   4.6910   4.9134   4.9134
     4.9286   4.9286   4.9548   5.0358   5.0358   5.0501   5.0501   5.1527
     5.1527   5.1641   5.3537   5.3713   5.3713   5.3759  11.3066  14.2356
    15.8588  15.8589  17.2179  17.2179  18.2382  18.5156  19.8089  19.8090
    19.8506  19.8507  21.4348  21.4631  21.4631  21.6372  22.1901  22.1901
    22.7778  22.7778  23.4662  23.7286  23.7287  24.3978  25.7528  26.9766
    27.6223  27.6224  28.0926  28.0926  29.8295  30.5098  30.7363  30.8107
    30.8108  30.9750  30.9838  30.9839  31.6585  31.6585  31.9087  32.0576

          k = 0.0000 0.0000 0.5424 (  5041 PWs)   bands (ev):

   -85.6302 -85.6302 -85.6101 -85.6101 -85.5945 -85.5906 -44.3287 -44.3267
   -44.3108 -44.3108 -44.3047 -44.3047 -44.2640 -44.2546 -44.2546 -44.2525
   -44.2469 -44.2464 -44.2464 -44.2344 -44.2344 -44.2331 -44.2323 -44.2323
   -42.7968 -42.7950 -13.8611 -13.8566 -13.8200 -13.8200 -13.8188 -13.8188
     4.2282   4.2731   4.2731   4.2786   4.3062   4.3150   4.3150   4.4146
     4.4551   4.4551   4.4912   4.4913   4.7622   4.8111   4.8986   4.8986
     4.9023   4.9023   4.9072   4.9721   5.0442   5.0443   5.0502   5.0503
     5.2629   5.2629   5.3448   5.3449   5.3568   5.3658  12.0674  13.0769
    16.3620  16.3621  16.8833  16.8833  18.8207  18.8700  19.4680  19.4680
    19.5186  19.5186  20.9370  21.0388  21.7146  21.7146  22.0003  22.0003
    22.9266  22.9266  23.3029  23.3029  23.5861  23.7708  27.5205  27.9679
    28.8559  28.8560  29.0805  29.0805  29.2054  29.6934  30.4932  30.4933
    30.7147  30.8517  30.8517  30.9164  31.4789  31.6382  32.2184  32.2186

          k = 0.0000 0.1925 0.0000 (  5083 PWs)   bands (ev):

   -85.6585 -85.6515 -85.6315 -85.6286 -85.6202 -85.6026 -44.3401 -44.3326
   -44.3152 -44.3149 -44.3066 -44.2985 -44.2977 -44.2872 -44.2842 -44.2735
   -44.2638 -44.2557 -44.2492 -44.2450 -44.2401 -44.2361 -44.2354 -44.2241
   -42.7988 -42.7974 -13.8689 -13.8635 -13.8244 -13.8242 -13.8221 -13.8216
     4.1514   4.1962   4.2298   4.2659   4.3647   4.3987   4.4434   4.4735
     4.4849   4.5172   4.5551   4.5981   4.6195   4.8175   4.8369   4.8486
     4.9093   4.9255   4.9467   4.9731   4.9985   5.0552   5.0579   5.1514
     5.1708   5.2078   5.2371   5.3027   5.3498   5.3966  10.8609  14.6008
    15.2879  15.4365  17.4007  17.6166  18.4126  18.9141  20.0634  20.2189
    20.6770  20.8012  20.9535  21.1703  21.2443  21.4917  22.2543  22.4490
    22.6320  22.7643  23.6160  24.5215  24.7707  24.9161  25.0052  26.2106
    26.4088  26.6596  27.2068  28.1291  28.4220  28.9393  29.3966  30.0091
    30.3778  30.9186  31.1047  31.2565  31.3630  31.8150  32.0070  32.6232

          k = 0.0000 0.1925 0.1808 (  5077 PWs)   bands (ev):

   -85.6545 -85.6472 -85.6255 -85.6238 -85.6181 -85.6073 -44.3342 -44.3314
   -44.3170 -44.3131 -44.3110 -44.3033 -44.2964 -44.2844 -44.2759 -44.2667
   -44.2608 -44.2512 -44.2474 -44.2449 -44.2421 -44.2370 -44.2364 -44.2219
   -42.7989 -42.7968 -13.8654 -13.8641 -13.8239 -13.8236 -13.8230 -13.8211
     4.1640   4.2077   4.2426   4.2541   4.3884   4.3929   4.4205   4.4666
     4.4729   4.5120   4.5815   4.6003   4.6030   4.7378   4.8752   4.8909
     4.9214   4.9439   4.9449   4.9675   5.0011   5.0666   5.0751   5.0976
     5.1034   5.2288   5.2855   5.3160   5.3544   5.3623  11.0117  14.7225
    15.2342  15.4012  16.9782  17.5688  18.5013  19.0975  19.7521  19.8583
    20.5929  20.6385  20.9990  21.2254  21.4869  21.7356  22.2977  22.4928
    22.5919  22.6709  23.3887  24.1584  24.4100  25.4466  25.7817  25.9825
    26.3439  26.7857  27.3969  27.9401  28.9931  29.2409  29.7829  30.1530
    30.7694  30.8366  31.2158  31.3162  31.4233  31.9204  32.0334  32.5566

          k = 0.0000 0.1925 0.3616 (  5061 PWs)   bands (ev):

   -85.6376 -85.6301 -85.6280 -85.6250 -85.6112 -85.5947 -44.3346 -44.3296
   -44.3120 -44.3119 -44.2997 -44.2996 -44.2861 -44.2705 -44.2666 -44.2613
   -44.2558 -44.2528 -44.2507 -44.2462 -44.2380 -44.2322 -44.2308 -44.2277
   -42.7980 -42.7956 -13.8616 -13.8570 -13.8254 -13.8245 -13.8228 -13.8187
     4.1983   4.2378   4.2593   4.2755   4.3593   4.3736   4.3883   4.4532
     4.4957   4.5448   4.5622   4.5655   4.5929   4.7078   4.8899   4.9110
     4.9112   4.9321   4.9411   5.0174   5.0177   5.0325   5.0452   5.1307
     5.1409   5.1657   5.3099   5.3178   5.3189   5.3762  11.4650  14.3360
    15.1448  15.7337  16.6296  17.3434  18.8580  19.0634  19.4093  19.5310
    20.0079  20.2241  21.2320  21.3946  21.4446  21.8292  22.2039  22.2928
    22.4909  22.8657  23.3062  23.9724  24.0334  25.4983  25.9424  26.6273
    27.0074  27.7416  27.9685  28.4477  29.5484  29.5660  30.1245  30.5383
    30.8738  30.9914  31.1984  31.2821  31.6828  31.9356  32.2669  32.2720

          k = 0.0000 0.1925 0.5424 (  5050 PWs)   bands (ev):

   -85.6365 -85.6301 -85.6257 -85.6159 -85.6024 -85.5852 -44.3386 -44.3306
   -44.3179 -44.3147 -44.3082 -44.3071 -44.2633 -44.2605 -44.2552 -44.2547
   -44.2509 -44.2453 -44.2446 -44.2411 -44.2389 -44.2311 -44.2305 -44.2289
   -42.7971 -42.7955 -13.8594 -13.8553 -13.8238 -13.8232 -13.8232 -13.8183
     4.2424   4.2660   4.3022   4.3134   4.3371   4.3448   4.3603   4.4279
     4.4795   4.4913   4.5014   4.5163   4.7441   4.8212   4.8698   4.8836
     4.8959   4.9058   4.9105   4.9510   5.0255   5.0384   5.0432   5.0527
     5.2190   5.2547   5.2943   5.3014   5.3162   5.3534  12.2188  13.2224
    15.6930  16.2473  16.2794  16.8478  18.8949  19.2146  19.4890  19.6251
    19.6719  19.7652  20.9285  21.0542  21.6925  21.7539  21.9325  22.0088
    22.8612  23.0656  23.1439  23.4224  24.1848  24.7715  27.5281  27.5655
    28.0185  28.5044  28.9183  28.9422  29.5004  29.5372  29.6828  30.3756
    30.6740  30.8878  31.0362  31.1046  31.5521  31.8625  32.4378  32.8943

          k = 0.0000 0.3849 0.0000 (  5079 PWs)   bands (ev):

   -85.6574 -85.6440 -85.6352 -85.6240 -85.6168 -85.6106 -44.3283 -44.3221
   -44.3131 -44.3021 -44.3019 -44.2977 -44.2961 -44.2805 -44.2781 -44.2740
   -44.2635 -44.2617 -44.2578 -44.2511 -44.2468 -44.2400 -44.2379 -44.2323
   -42.7992 -42.7968 -13.8646 -13.8604 -13.8291 -13.8262 -13.8235 -13.8221
     4.1943   4.3079   4.3221   4.3229   4.3771   4.4081   4.4480   4.5195
     4.5545   4.5736   4.6119   4.6341   4.6541   4.7465   4.8055   4.8642
     4.8751   4.9254   4.9294   4.9645   4.9898   5.0438   5.0688   5.0830
     5.0898   5.1067   5.1603   5.1792   5.3461   5.3753  11.3174  13.3966
    15.0987  15.1760  17.6588  18.2893  18.7778  19.4697  19.8010  20.0386
    20.2351  20.3751  20.9304  21.0583  21.5339  21.6287  21.6865  22.8101
    22.9680  23.4180  23.7165  24.3549  25.1312  25.1831  25.4213  25.4692
    25.6095  26.8163  28.2267  28.4562  28.8617  29.2921  29.3727  29.6891
    30.1057  30.8417  31.1327  31.4748  31.5553  31.7205  31.9569  31.9874

          k = 0.0000 0.3849 0.1808 (  5090 PWs)   bands (ev):

   -85.6569 -85.6520 -85.6411 -85.6379 -85.6193 -85.6123 -44.3278 -44.3224
   -44.3121 -44.3120 -44.3073 -44.2998 -44.2997 -44.2818 -44.2789 -44.2704
   -44.2672 -44.2639 -44.2611 -44.2541 -44.2490 -44.2456 -44.2411 -44.2349
   -42.7995 -42.7975 -13.8651 -13.8630 -13.8296 -13.8259 -13.8250 -13.8244
     4.2046   4.2941   4.3222   4.3599   4.3827   4.3945   4.4544   4.4956
     4.5392   4.5682   4.6297   4.6345   4.6520   4.7825   4.7950   4.8512
     4.8780   4.8990   4.9505   4.9545   4.9954   5.0094   5.0427   5.0856
     5.0908   5.1587   5.1627   5.1876   5.3243   5.3644  11.4679  13.5370
    15.1703  15.2075  16.7452  18.0895  18.9892  19.3062  19.6257  20.0015
    20.4158  20.5129  21.0254  21.1425  21.4432  21.6714  21.8154  22.7799
    23.1930  23.2881  23.4013  24.1818  24.9615  24.9622  25.4297  25.9126
    26.9668  27.1816  27.5662  28.4338  28.5232  29.1593  29.3679  30.2031
    30.5183  30.7433  31.0065  31.5371  31.9494  32.1204  32.1562  32.5411

          k = 0.0000 0.3849 0.3616 (  5078 PWs)   bands (ev):

   -85.6474 -85.6437 -85.6320 -85.6319 -85.6194 -85.6058 -44.3321 -44.3246
   -44.3159 -44.3096 -44.2995 -44.2965 -44.2942 -44.2796 -44.2718 -44.2663
   -44.2630 -44.2584 -44.2529 -44.2501 -44.2478 -44.2414 -44.2382 -44.2371
   -42.7987 -42.7965 -13.8652 -13.8600 -13.8270 -13.8248 -13.8246 -13.8231
     4.2297   4.2798   4.3159   4.3854   4.3932   4.4236   4.4763   4.4801
     4.5231   4.5711   4.6049   4.6225   4.6558   4.7489   4.8169   4.8717
     4.8882   4.9023   4.9366   4.9539   4.9634   5.0036   5.0328   5.1042
     5.1125   5.1645   5.1851   5.1911   5.2309   5.3825  11.9160  13.9321
    14.7344  15.5387  15.8706  17.5035  18.3429  19.3244  19.5535  20.2710
    20.2741  20.4313  21.0500  21.3835  21.6186  21.7826  22.0069  22.3359
    22.7948  23.1310  23.5190  24.4042  24.6169  25.6551  26.0419  26.7832
    27.1189  27.6098  27.8053  27.9835  28.8683  29.0877  29.8154  30.3276
    31.0711  31.2701  31.4036  31.4586  31.4791  31.9758  32.3722  32.6781

          k = 0.0000 0.3849 0.5424 (  5051 PWs)   bands (ev):

   -85.6354 -85.6240 -85.6225 -85.6181 -85.6023 -85.5956 -44.3257 -44.3251
   -44.3131 -44.3046 -44.3037 -44.2869 -44.2743 -44.2673 -44.2663 -44.2609
   -44.2574 -44.2542 -44.2469 -44.2423 -44.2384 -44.2380 -44.2350 -44.2272
   -42.7969 -42.7952 -13.8608 -13.8565 -13.8239 -13.8229 -13.8221 -13.8207
     4.2552   4.2704   4.3387   4.3801   4.3919   4.4112   4.4579   4.5125
     4.5400   4.5586   4.5923   4.6068   4.6997   4.7924   4.8067   4.8719
     4.8754   4.9014   4.9053   4.9298   4.9827   5.0151   5.0309   5.0503
     5.1212   5.1583   5.1633   5.1744   5.2965   5.3604  12.6522  13.6217
    14.6258  15.3243  16.0721  16.7599  18.3121  18.8744  19.7046  19.9795
    20.4591  20.6337  20.9173  21.0477  21.7290  21.8745  21.9804  22.0745
    22.8864  23.3422  23.5982  23.6637  25.4120  26.3069  26.6436  26.7457
    27.2367  27.3913  27.8504  29.2484  29.4378  29.6270  30.0789  30.4269
    30.6568  30.7526  30.9983  31.3115  31.6337  31.9513  31.9589  32.2010

          k = 0.0000-0.5774 0.0000 (  5068 PWs)   bands (ev):

   -85.6360 -85.6298 -85.6298 -85.6274 -85.6182 -85.6132 -44.3338 -44.3044
   -44.3018 -44.3006 -44.2976 -44.2841 -44.2757 -44.2747 -44.2741 -44.2683
   -44.2662 -44.2649 -44.2595 -44.2557 -44.2544 -44.2491 -44.2380 -44.2352
   -42.7976 -42.7973 -13.8660 -13.8623 -13.8242 -13.8238 -13.8226 -13.8214
     4.2110   4.3054   4.3541   4.3886   4.4711   4.4847   4.4908   4.5329
     4.5340   4.5455   4.5934   4.6513   4.6666   4.7700   4.8679   4.8694
     4.8710   4.9207   4.9212   4.9426   4.9471   4.9931   5.0142   5.0309
     5.0797   5.0868   5.0886   5.1403   5.3496   5.3645  11.8029  12.6420
    15.0178  15.0527  17.9341  18.7168  18.9059  19.2707  19.6697  19.7063
    19.8702  20.2740  21.1485  21.3244  21.4671  21.4799  22.2797  23.0908
    23.1021  23.4945  24.1226  24.2659  24.5782  24.9744  25.1546  25.2816
    26.2357  26.7506  27.5259  28.6013  29.2182  29.5537  30.1008  30.1371
    30.4477  30.5631  30.7937  31.1555  31.8922  31.9089  32.2642  32.5589

          k = 0.0000-0.5774 0.1808 (  5072 PWs)   bands (ev):

   -85.6429 -85.6396 -85.6334 -85.6242 -85.6131 -85.6114 -44.3342 -44.3163
   -44.3117 -44.3035 -44.2982 -44.2895 -44.2795 -44.2794 -44.2741 -44.2724
   -44.2633 -44.2624 -44.2574 -44.2549 -44.2440 -44.2392 -44.2383 -44.2369
   -42.7977 -42.7973 -13.8637 -13.8615 -13.8255 -13.8246 -13.8241 -13.8232
     4.2196   4.3307   4.3510   4.3736   4.4237   4.4853   4.4949   4.5146
     4.5341   4.5927   4.6282   4.6726   4.6882   4.7461   4.8311   4.8570
     4.8787   4.8869   4.9113   4.9176   4.9739   4.9896   5.0025   5.0552
     5.0721   5.1075   5.1260   5.1304   5.3108   5.3682  11.9495  12.7918
    15.1139  15.1309  16.7633  18.4037  18.7266  19.3001  19.6891  19.9246
    20.3065  20.3737  21.2234  21.4660  21.5065  21.7007  21.7917  22.9932
    23.4086  23.4897  23.7614  23.7947  24.5439  25.1714  25.7058  25.7627
    26.4646  27.1535  27.5214  28.8211  28.8458  29.1445  29.4191  30.3929
    30.7856  30.8651  31.1449  31.3345  31.8623  31.9774  32.1427  32.2416

          k = 0.0000-0.5774 0.3616 (  5090 PWs)   bands (ev):

   -85.6644 -85.6465 -85.6399 -85.6378 -85.6197 -85.6084 -44.3342 -44.3205
   -44.3196 -44.3088 -44.3018 -44.2981 -44.2955 -44.2875 -44.2778 -44.2762
   -44.2695 -44.2612 -44.2568 -44.2518 -44.2446 -44.2433 -44.2410 -44.2398
   -42.7985 -42.7980 -13.8645 -13.8635 -13.8282 -13.8275 -13.8253 -13.8249
     4.2409   4.2937   4.3405   4.4358   4.4490   4.4511   4.4744   4.5021
     4.5515   4.6631   4.6703   4.6840   4.6876   4.7263   4.7556   4.8465
     4.8882   4.8906   4.8926   4.8960   4.9476   5.0055   5.0243   5.0479
     5.0765   5.1163   5.1191   5.1680   5.2070   5.3857  12.3871  13.2219
    15.1150  15.3514  15.4591  17.5477  18.0281  19.2502  19.7468  20.0525
    20.5730  20.7752  21.1608  21.4459  21.4559  21.8201  22.0014  22.4513
    23.2250  23.4836  24.0887  24.1372  24.2604  25.5768  26.3685  26.4510
    26.6466  27.1296  28.4542  28.5563  29.1202  29.5357  29.5679  29.8464
    29.9027  30.7443  31.5621  31.7100  31.9207  32.0925  32.2548  32.9744

          k = 0.0000-0.5774 0.5424 (  5080 PWs)   bands (ev):

   -85.6604 -85.6389 -85.6340 -85.6319 -85.6159 -85.6061 -44.3280 -44.3199
   -44.3147 -44.3080 -44.2989 -44.2974 -44.2918 -44.2808 -44.2804 -44.2764
   -44.2763 -44.2636 -44.2512 -44.2461 -44.2440 -44.2427 -44.2356 -44.2341
   -42.7982 -42.7969 -13.8610 -13.8590 -13.8326 -13.8301 -13.8236 -13.8219
     4.2596   4.2707   4.3541   4.3925   4.4253   4.4513   4.4969   4.5776
     4.6176   4.6639   4.6702   4.6856   4.6989   4.7014   4.7322   4.8320
     4.8832   4.8948   4.9098   4.9464   4.9518   4.9595   5.0092   5.0432
     5.0529   5.0850   5.0938   5.1025   5.2985   5.3646  13.1037  13.8244
    14.1847  14.6638  15.9961  16.7080  18.0698  18.6957  19.8514  19.9846
    20.7525  20.8490  20.9789  21.1065  21.8105  21.9965  22.0435  22.0819
    23.0508  23.6195  23.9020  24.4371  25.3377  25.6948  26.3553  26.5570
    26.6262  27.9109  28.7179  28.8874  29.2081  29.2448  29.8599  30.2872
    30.3119  31.0979  31.0990  31.1131  31.4474  31.8153  32.0732  32.3459

          k = 0.2000 0.1155 0.0000 (  5087 PWs)   bands (ev):

   -85.6579 -85.6446 -85.6347 -85.6255 -85.6220 -85.6215 -44.3389 -44.3317
   -44.3189 -44.3111 -44.3033 -44.2998 -44.2978 -44.2846 -44.2842 -44.2696
   -44.2682 -44.2619 -44.2555 -44.2517 -44.2426 -44.2375 -44.2368 -44.2228
   -42.7992 -42.7975 -13.8682 -13.8628 -13.8273 -13.8242 -13.8239 -13.8219
     4.1638   4.2083   4.2525   4.2754   4.3542   4.4065   4.4428   4.4823
     4.4931   4.5381   4.5649   4.5960   4.6267   4.8086   4.8364   4.8415
     4.9107   4.9172   4.9489   4.9644   4.9982   5.0536   5.0587   5.1433
     5.1702   5.1836   5.2134   5.2872   5.3456   5.3933  10.9274  14.3562
    15.2471  15.3843  17.4323  17.7304  18.6723  18.8863  20.0000  20.2101
    20.6352  20.8633  21.0401  21.0871  21.1111  21.4893  22.0792  22.4491
    22.6859  22.8574  23.7399  24.3747  24.9373  25.0366  25.0852  26.0506
    26.4809  26.8183  26.9895  28.1773  28.5955  29.0960  29.3800  30.0261
    30.2050  30.7076  31.1069  31.3150  31.4247  31.8122  32.0154  32.5232

          k = 0.2000 0.1155 0.1808 (  5078 PWs)   bands (ev):

   -85.6478 -85.6466 -85.6261 -85.6249 -85.6187 -85.6156 -44.3312 -44.3298
   -44.3148 -44.3121 -44.3092 -44.3007 -44.2914 -44.2838 -44.2785 -44.2654
   -44.2648 -44.2517 -44.2510 -44.2452 -44.2448 -44.2408 -44.2378 -44.2256
   -42.7989 -42.7968 -13.8652 -13.8639 -13.8257 -13.8243 -13.8235 -13.8198
     4.1753   4.2191   4.2647   4.2648   4.3821   4.3961   4.4281   4.4748
     4.4785   4.5328   4.5785   4.6091   4.6092   4.7454   4.8624   4.8856
     4.9138   4.9438   4.9452   4.9560   5.0004   5.0595   5.0741   5.0945
     5.0983   5.2143   5.2643   5.2954   5.3497   5.3610  11.0797  14.4831
    15.2267  15.3606  16.9005  17.6663  18.7065  19.2512  19.6522  19.7936
    20.6383  20.6730  20.9165  21.1643  21.4190  21.7743  22.1510  22.5293
    22.6847  22.7725  23.4100  24.1769  24.5505  25.3283  25.7188  26.1126
    26.5966  26.9065  27.1852  27.9904  28.9203  29.4107  29.6746  29.8684
    30.6864  30.9905  31.2613  31.2844  31.4521  31.9779  32.0007  32.5836

          k = 0.2000 0.1155 0.3616 (  5067 PWs)   bands (ev):

   -85.6381 -85.6360 -85.6292 -85.6271 -85.6148 -85.5995 -44.3349 -44.3289
   -44.3128 -44.3127 -44.3021 -44.3002 -44.2911 -44.2755 -44.2661 -44.2623
   -44.2551 -44.2535 -44.2523 -44.2474 -44.2408 -44.2340 -44.2323 -44.2294
   -42.7983 -42.7960 -13.8625 -13.8580 -13.8263 -13.8243 -13.8242 -13.8194
     4.2069   4.2448   4.2696   4.2949   4.3636   4.3807   4.4055   4.4560
     4.5145   4.5452   4.5586   4.5705   4.6035   4.7147   4.8787   4.9056
     4.9097   4.9333   4.9335   5.0086   5.0102   5.0248   5.0430   5.1241
     5.1340   5.1688   5.2911   5.2968   5.2972   5.3774  11.5331  14.3724
    14.9303  15.6909  16.4682  17.3824  18.8614  19.1318  19.5078  19.5591
    20.0315  20.2744  21.1852  21.3778  21.4635  21.8329  22.2142  22.2876
    22.4652  22.9546  23.2525  24.1184  24.1262  25.7800  26.0768  26.4885
    26.8067  27.8150  27.9007  28.5393  29.2194  29.3381  30.0924  30.5854
    30.9173  31.0441  31.2628  31.3461  31.5826  31.9795  32.3130  32.3837

          k = 0.2000 0.1155 0.5424 (  5053 PWs)   bands (ev):

   -85.6461 -85.6309 -85.6283 -85.6171 -85.5972 -85.5851 -44.3344 -44.3322
   -44.3163 -44.3124 -44.3098 -44.3095 -44.2651 -44.2610 -44.2601 -44.2559
   -44.2506 -44.2484 -44.2457 -44.2391 -44.2389 -44.2336 -44.2335 -44.2272
   -42.7973 -42.7956 -13.8599 -13.8554 -13.8247 -13.8226 -13.8220 -13.8211
     4.2457   4.2667   4.3092   4.3292   4.3469   4.3559   4.3800   4.4362
     4.4903   4.5073   4.5081   4.5276   4.7363   4.8245   4.8579   4.8767
     4.8950   4.9065   4.9104   4.9432   5.0186   5.0361   5.0400   5.0530
     5.2018   5.2444   5.2741   5.2783   5.3052   5.3542  12.2864  13.2840
    15.4783  16.0893  16.2097  16.8304  18.7730  19.1692  19.5233  19.7971
    19.8244  19.8780  20.9248  21.0522  21.6902  21.7751  21.9233  22.0181
    22.8484  23.1058  23.1797  23.4618  24.4185  25.0832  27.3956  27.5252
    27.7581  28.3070  28.6600  28.9720  29.4423  29.6451  29.6610  30.4134
    30.6906  30.8655  31.0882  31.1561  31.5712  31.8932  32.3830  32.8445

          k = 0.2000 0.3079 0.0000 (  5075 PWs)   bands (ev):

   -85.6575 -85.6507 -85.6301 -85.6249 -85.6083 -85.6027 -44.3321 -44.3291
   -44.3187 -44.3053 -44.3050 -44.2987 -44.2939 -44.2795 -44.2731 -44.2714
   -44.2610 -44.2569 -44.2566 -44.2460 -44.2433 -44.2382 -44.2334 -44.2260
   -42.7986 -42.7969 -13.8638 -13.8616 -13.8277 -13.8240 -13.8233 -13.8223
     4.2282   4.2462   4.2995   4.3463   4.3732   4.4503   4.4586   4.4788
     4.5061   4.5952   4.6061   4.6335   4.6543   4.7271   4.8291   4.8596
     4.9014   4.9103   4.9276   4.9675   4.9779   5.0548   5.0590   5.0930
     5.0985   5.1087   5.1599   5.2620   5.2934   5.3771  11.2657  13.7247
    14.3118  15.9315  17.5522  17.9903  18.7842  19.5054  19.8840  20.1269
    20.2481  20.5004  21.0948  21.1146  21.2457  21.6152  21.9046  22.2982
    22.6158  23.8887  23.9218  24.1776  24.6389  24.8445  25.7194  25.9676
    26.0282  27.2759  27.6182  28.2476  28.6627  28.7256  29.7471  29.7765
    30.0239  30.9537  31.0818  31.1311  31.6636  31.7692  32.1043  32.6989

          k = 0.2000 0.3079 0.1808 (  5088 PWs)   bands (ev):

   -85.6645 -85.6509 -85.6443 -85.6251 -85.6156 -85.6119 -44.3309 -44.3268
   -44.3164 -44.3117 -44.3111 -44.2998 -44.2992 -44.2835 -44.2781 -44.2703
   -44.2646 -44.2627 -44.2585 -44.2534 -44.2419 -44.2393 -44.2368 -44.2354
   -42.7991 -42.7977 -13.8648 -13.8645 -13.8281 -13.8269 -13.8237 -13.8231
     4.2361   4.2515   4.3049   4.3657   4.3705   4.4333   4.4598   4.4697
     4.5042   4.5666   4.6154   4.6323   4.6648   4.7741   4.7923   4.8673
     4.8916   4.9046   4.9313   4.9650   4.9906   5.0233   5.0430   5.0856
     5.0874   5.1495   5.1688   5.2700   5.3193   5.3264  11.4183  13.8601
    14.4128  15.7890  17.0477  17.4994  19.2599  19.4632  19.5935  19.8111
    20.5233  20.5339  21.0728  21.1099  21.4546  21.5312  21.9673  22.4161
    23.1268  23.1671  23.4844  24.1850  24.8862  25.1321  25.7654  26.0136
    26.8249  27.3241  27.6883  28.0435  28.2443  29.2095  29.6644  29.8672
    30.2995  30.7107  31.4538  31.6619  31.7618  31.9251  32.0521  32.8077

          k = 0.2000 0.3079 0.3616 (  5068 PWs)   bands (ev):

   -85.6454 -85.6379 -85.6311 -85.6281 -85.6091 -85.6005 -44.3246 -44.3204
   -44.3113 -44.3085 -44.2983 -44.2973 -44.2937 -44.2743 -44.2701 -44.2659
   -44.2611 -44.2586 -44.2577 -44.2507 -44.2418 -44.2404 -44.2319 -44.2302
   -42.7982 -42.7961 -13.8640 -13.8587 -13.8267 -13.8254 -13.8226 -13.8206
     4.2538   4.2628   4.3136   4.3670   4.3942   4.4131   4.4697   4.4812
     4.5194   4.5441   4.5918   4.6347   4.6534   4.7485   4.8402   4.8593
     4.8777   4.9188   4.9332   4.9579   4.9860   5.0031   5.0257   5.0900
     5.1451   5.1539   5.1669   5.2260   5.2799   5.3463  11.8653  14.2595
    14.4852  15.2104  16.4396  17.1214  18.8013  19.1356  19.7260  19.8845
    20.4422  20.4480  21.0985  21.2217  21.7287  21.7697  22.0734  22.2766
    22.3173  23.1379  23.6834  24.1779  25.1547  25.3984  26.5142  26.6980
    26.7988  27.6483  27.7237  28.2845  28.4163  29.5179  29.7958  30.3579
    30.5748  31.2334  31.3309  31.4995  31.6016  31.8855  32.5050  32.8493

          k = 0.2000 0.3079 0.5424 (  5058 PWs)   bands (ev):

   -85.6416 -85.6400 -85.6161 -85.6152 -85.6061 -85.6010 -44.3324 -44.3228
   -44.3109 -44.3076 -44.3048 -44.2974 -44.2764 -44.2738 -44.2647 -44.2605
   -44.2552 -44.2520 -44.2501 -44.2449 -44.2402 -44.2399 -44.2319 -44.2296
   -42.7969 -42.7962 -13.8595 -13.8574 -13.8254 -13.8245 -13.8227 -13.8217
     4.2673   4.2749   4.3426   4.3749   4.3847   4.3913   4.4528   4.5013
     4.5165   4.5195   4.5988   4.6160   4.7023   4.8240   4.8324   4.8353
     4.8523   4.9075   4.9142   4.9368   4.9861   5.0292   5.0348   5.0365
     5.1082   5.1331   5.2238   5.2384   5.2814   5.3297  12.6030  13.5779
    14.8661  15.3173  16.0530  16.4634  18.8944  19.2165  19.4608  19.6211
    20.4590  20.6549  20.9200  21.0640  21.5243  21.6562  22.1073  22.1759
    22.4970  22.9047  23.8760  24.3714  25.2729  25.7246  26.5545  26.7626
    27.7814  27.9119  28.3417  28.7973  29.1731  29.5969  29.7682  29.7998
    30.7770  30.9029  31.1284  31.3093  31.4967  31.8216  32.2200  32.5524

          k = 0.2000 0.5004 0.0000 (  5072 PWs)   bands (ev):

   -85.6504 -85.6458 -85.6382 -85.6173 -85.6105 -85.6054 -44.3246 -44.3160
   -44.3102 -44.3022 -44.2982 -44.2963 -44.2906 -44.2830 -44.2794 -44.2665
   -44.2626 -44.2562 -44.2559 -44.2514 -44.2500 -44.2456 -44.2340 -44.2320
   -42.7981 -42.7973 -13.8629 -13.8611 -13.8269 -13.8248 -13.8240 -13.8232
     4.2662   4.2822   4.3636   4.3973   4.4574   4.4702   4.5116   4.5222
     4.5500   4.5661   4.6214   4.6269   4.6604   4.6797   4.8300   4.8462
     4.8930   4.9016   4.9507   4.9639   4.9699   5.0173   5.0276   5.0533
     5.0641   5.0816   5.1310   5.1437   5.2702   5.3636  11.8095  12.9667
    13.7933  16.2736  17.5555  18.4999  18.7014  19.4134  19.8130  19.8141
    20.0922  20.3230  21.0794  21.2347  21.5828  21.7801  22.4053  22.4396
    22.8913  23.3175  23.5824  24.0047  24.8254  25.0843  25.9999  26.4500
    26.4736  26.8700  27.3238  28.1734  28.2323  28.5693  29.7523  30.1111
    30.5118  31.1239  31.3889  31.4598  31.9175  32.0134  32.2840  32.7733

          k = 0.2000 0.5004 0.1808 (  5079 PWs)   bands (ev):

   -85.6524 -85.6490 -85.6439 -85.6268 -85.6109 -85.6057 -44.3263 -44.3201
   -44.3130 -44.3074 -44.3027 -44.3012 -44.2907 -44.2848 -44.2775 -44.2688
   -44.2660 -44.2619 -44.2574 -44.2526 -44.2465 -44.2398 -44.2348 -44.2336
   -42.7987 -42.7972 -13.8637 -13.8610 -13.8282 -13.8268 -13.8251 -13.8229
     4.2709   4.3151   4.3479   4.3996   4.4336   4.4623   4.4841   4.5201
     4.5341   4.5862   4.6334   4.6710   4.6947   4.7119   4.8178   4.8243
     4.8654   4.8933   4.9195   4.9589   4.9702   4.9914   5.0065   5.0624
     5.0900   5.1018   5.1216   5.1732   5.2963   5.3088  11.9552  13.1106
    13.9233  16.2045  16.9068  17.5407  19.0867  19.4867  19.7193  20.0774
    20.3211  20.3970  21.1185  21.1595  21.7279  21.8231  22.0180  22.4216
    22.7898  23.3202  23.6650  24.2159  25.1719  25.3893  25.7193  26.2809
    26.4347  26.9854  27.7679  28.2691  28.5890  29.2066  29.3402  29.8350
    30.3524  30.6995  31.4976  31.6896  31.9306  32.0498  32.4839  32.6167

          k = 0.2000 0.5004 0.3616 (  5085 PWs)   bands (ev):

   -85.6552 -85.6524 -85.6451 -85.6289 -85.6204 -85.6041 -44.3223 -44.3187
   -44.3144 -44.3086 -44.3053 -44.3027 -44.2931 -44.2872 -44.2729 -44.2683
   -44.2681 -44.2652 -44.2593 -44.2567 -44.2506 -44.2454 -44.2356 -44.2350
   -42.7988 -42.7973 -13.8649 -13.8627 -13.8304 -13.8262 -13.8251 -13.8222
     4.2791   4.3042   4.3659   4.4259   4.4317   4.4539   4.4777   4.4993
     4.5265   4.6075   4.6670   4.6958   4.7380   4.7464   4.7661   4.8239
     4.8407   4.8831   4.8975   4.9404   4.9570   4.9841   5.0071   5.0383
     5.0981   5.1278   5.1476   5.1673   5.2160   5.3244  12.3913  13.5286
    14.2702  15.3678  16.0947  16.8997  18.6870  19.4380  19.7074  20.0822
    20.6091  20.7201  21.1303  21.2306  21.4891  21.7515  21.9830  22.1890
    22.8126  23.4891  24.0577  24.5446  24.6932  25.7409  26.2013  26.4681
    27.1899  27.5467  28.0465  28.2889  28.7278  29.3427  29.5955  29.8692
    30.2305  30.7403  31.0818  31.2665  31.5161  31.9159  32.7566  33.0355

          k = 0.2000 0.5004 0.5424 (  5080 PWs)   bands (ev):

   -85.6534 -85.6463 -85.6298 -85.6252 -85.6220 -85.6093 -44.3249 -44.3195
   -44.3081 -44.3064 -44.3010 -44.2941 -44.2892 -44.2777 -44.2773 -44.2727
   -44.2673 -44.2645 -44.2566 -44.2549 -44.2508 -44.2446 -44.2414 -44.2352
   -42.7978 -42.7972 -13.8615 -13.8604 -13.8296 -13.8281 -13.8243 -13.8236
     4.2836   4.2876   4.3809   4.4024   4.4315   4.4445   4.4764   4.5378
     4.5953   4.6034   4.6663   4.7157   4.7468   4.7528   4.7636   4.8176
     4.8247   4.8757   4.9359   4.9454   4.9546   4.9897   4.9992   5.0085
     5.0155   5.0652   5.1504   5.1687   5.2695   5.3155  13.1090  14.0017
    14.2347  14.6691  15.6660  16.1109  18.8992  19.4204  19.6209  19.8566
    20.7467  20.8424  20.9658  20.9975  21.3681  21.5745  22.1552  22.1905
    22.7293  23.0781  24.7630  25.0258  25.3975  25.5974  26.0970  27.0375
    27.6250  27.6719  28.4902  28.5848  29.0076  29.3217  29.5941  29.7985
    30.0144  30.3748  30.9537  31.0384  31.4501  31.7063  32.2362  32.8565

          k = 0.2000-0.4619 0.0000 (  5078 PWs)   bands (ev):

   -85.6535 -85.6490 -85.6368 -85.6254 -85.6149 -85.6053 -44.3304 -44.3167
   -44.3108 -44.3041 -44.3005 -44.3003 -44.2898 -44.2810 -44.2799 -44.2695
   -44.2648 -44.2592 -44.2583 -44.2488 -44.2479 -44.2475 -44.2354 -44.2341
   -42.7987 -42.7973 -13.8638 -13.8621 -13.8267 -13.8264 -13.8243 -13.8230
     4.2621   4.2851   4.3378   4.3887   4.4575   4.4649   4.5091   4.5106
     4.5320   4.5746   4.6254   4.6276   4.6594   4.6880   4.8471   4.8606
     4.8854   4.8892   4.9421   4.9611   4.9649   5.0253   5.0352   5.0556
     5.0691   5.0761   5.1376   5.1719   5.2708   5.3650  11.7037  13.1062
    13.8405  16.2348  17.5525  18.4081  18.7113  19.4644  19.8236  19.8741
    20.0930  20.3913  21.0836  21.2190  21.4388  21.7911  22.2445  22.3995
    22.8505  23.4583  23.8007  24.0792  24.6800  24.8864  26.0452  26.3796
    26.6256  26.6601  27.4698  28.1423  28.3052  28.7119  29.7446  30.0328
    30.3967  31.0980  31.1572  31.4266  31.8736  32.1054  32.1498  32.8537

          k = 0.2000-0.4619 0.1808 (  5075 PWs)   bands (ev):

   -85.6547 -85.6450 -85.6397 -85.6220 -85.6094 -85.6048 -44.3244 -44.3193
   -44.3105 -44.3083 -44.3021 -44.2999 -44.2922 -44.2799 -44.2745 -44.2710
   -44.2641 -44.2612 -44.2555 -44.2517 -44.2455 -44.2379 -44.2351 -44.2343
   -42.7983 -42.7971 -13.8633 -13.8614 -13.8272 -13.8260 -13.8240 -13.8225
     4.2673   4.3140   4.3325   4.3907   4.4292   4.4569   4.4817   4.5146
     4.5392   4.5685   4.6234   4.6732   4.6995   4.7215   4.8152   4.8386
     4.8681   4.8875   4.9220   4.9572   4.9712   4.9953   5.0070   5.0728
     5.0917   5.0967   5.1316   5.1945   5.2978   5.3108  11.8517  13.2496
    13.9695  16.1360  16.9642  17.5156  19.1253  19.4308  19.7420  20.0564
    20.3429  20.4477  21.0991  21.1648  21.6387  21.8346  21.9192  22.3984
    22.8814  23.3516  23.6668  24.2035  25.0967  25.2644  25.7062  26.3754
    26.6659  26.8410  27.6204  28.5610  28.6054  28.9344  29.3782  29.9133
    30.2020  30.7470  31.4668  31.6953  31.9717  32.0912  32.4645  32.6015

          k = 0.2000-0.4619 0.3616 (  5078 PWs)   bands (ev):

   -85.6531 -85.6517 -85.6419 -85.6242 -85.6140 -85.6000 -44.3231 -44.3201
   -44.3137 -44.3068 -44.3057 -44.2998 -44.2944 -44.2836 -44.2703 -44.2680
   -44.2656 -44.2633 -44.2551 -44.2540 -44.2480 -44.2423 -44.2359 -44.2316
   -42.7986 -42.7968 -13.8638 -13.8620 -13.8292 -13.8261 -13.8244 -13.8212
     4.2769   4.2986   4.3581   4.4205   4.4219   4.4449   4.4816   4.5038
     4.5252   4.5848   4.6471   4.6943   4.7279   4.7620   4.7741   4.8239
     4.8407   4.8942   4.9088   4.9449   4.9482   4.9933   5.0050   5.0534
     5.0938   5.1362   5.1554   5.1724   5.2260   5.3258  12.2907  13.6643
    14.3011  15.3005  16.1837  16.9189  18.7166  19.3315  19.7366  20.0803
    20.6046  20.6978  21.1049  21.2014  21.5541  21.7879  22.0053  22.1965
    22.6030  23.4684  24.1780  24.4888  24.5809  25.8869  26.1586  26.4942
    27.2654  27.4333  27.8981  28.3136  28.7678  29.1930  29.6272  30.0565
    30.2410  30.9631  31.0890  31.2729  31.5521  31.8712  32.7807  32.9440

          k = 0.2000-0.4619 0.5424 (  5069 PWs)   bands (ev):

   -85.6492 -85.6429 -85.6229 -85.6186 -85.6156 -85.6033 -44.3238 -44.3207
   -44.3065 -44.3055 -44.2993 -44.2920 -44.2863 -44.2767 -44.2730 -44.2669
   -44.2623 -44.2600 -44.2545 -44.2513 -44.2458 -44.2436 -44.2389 -44.2329
   -42.7973 -42.7966 -13.8602 -13.8594 -13.8278 -13.8260 -13.8239 -13.8225
     4.2823   4.2862   4.3757   4.3992   4.4249   4.4354   4.4759   4.5340
     4.5804   4.5824   4.6693   4.6993   4.7300   4.7683   4.7747   4.8179
     4.8290   4.8805   4.9414   4.9442   4.9519   4.9988   5.0130   5.0182
     5.0221   5.0648   5.1634   5.1831   5.2700   5.3164  13.0112  13.9427
    14.3187  14.7805  15.7280  16.1496  18.9191  19.4342  19.5207  19.8187
    20.7145  20.8430  20.9798  21.0282  21.3620  21.5740  22.1876  22.2039
    22.6061  23.0347  24.7844  24.9508  25.2917  25.7093  26.0044  27.1089
    27.5110  27.8735  28.3440  28.5044  29.0152  29.4018  29.6602  29.7985
    30.2279  30.5305  30.9568  31.0381  31.4341  31.6680  32.2473  32.7710

          k = 0.2000-0.2694 0.0000 (  5077 PWs)   bands (ev):

   -85.6550 -85.6523 -85.6290 -85.6244 -85.6151 -85.6053 -44.3325 -44.3315
   -44.3194 -44.3055 -44.3042 -44.3009 -44.2961 -44.2846 -44.2751 -44.2711
   -44.2600 -44.2577 -44.2566 -44.2461 -44.2407 -44.2381 -44.2310 -44.2264
   -42.7985 -42.7973 -13.8642 -13.8613 -13.8269 -13.8259 -13.8237 -13.8217
     4.2108   4.2372   4.2991   4.3411   4.3420   4.4430   4.4483   4.4817
     4.5047   4.5947   4.5958   4.6281   4.6349   4.7495   4.8284   4.8532
     4.9051   4.9216   4.9225   4.9659   4.9860   5.0533   5.0593   5.1135
     5.1175   5.1237   5.1636   5.2666   5.3101   5.3809  11.1768  13.8569
    14.4999  15.8237  17.5418  17.9142  18.8069  19.3738  19.9022  20.1452
    20.3412  20.5615  21.0490  21.1049  21.3503  21.4809  21.9199  22.2666
    22.6230  23.6692  24.0188  24.0512  24.7912  25.0100  25.5549  25.9619
    25.9896  27.1349  27.8057  27.9127  28.7266  29.0228  29.6256  29.7484
    30.0115  30.7750  31.0898  31.3756  31.5652  31.7879  31.9416  32.6535

          k = 0.2000-0.2694 0.1808 (  5087 PWs)   bands (ev):

   -85.6622 -85.6517 -85.6423 -85.6238 -85.6168 -85.6129 -44.3302 -44.3273
   -44.3180 -44.3126 -44.3120 -44.3038 -44.2984 -44.2847 -44.2803 -44.2688
   -44.2674 -44.2584 -44.2549 -44.2526 -44.2412 -44.2390 -44.2370 -44.2314
   -42.7993 -42.7973 -13.8654 -13.8644 -13.8293 -13.8263 -13.8229 -13.8220
     4.2196   4.2439   4.2965   4.3458   4.3670   4.4225   4.4505   4.4718
     4.4982   4.5690   4.6138   4.6160   4.6456   4.7702   4.8085   4.8704
     4.8984   4.9148   4.9335   4.9618   4.9949   5.0329   5.0546   5.0857
     5.0885   5.1737   5.1784   5.2770   5.3297   5.3333  11.3270  13.9915
    14.5901  15.6961  16.9984  17.5545  19.2520  19.4578  19.5323  19.7553
    20.5483  20.5841  21.0064  21.1108  21.4420  21.5651  21.9975  22.4383
    23.0416  23.0982  23.4883  24.1639  24.7882  25.2180  25.6679  26.1723
    26.6955  27.2144  27.6215  28.0317  28.4377  29.0991  29.6925  29.9879
    30.3597  30.7352  31.3729  31.5939  31.7591  31.8998  31.9933  32.8106

          k = 0.2000-0.2694 0.3616 (  5068 PWs)   bands (ev):

   -85.6434 -85.6400 -85.6338 -85.6268 -85.6106 -85.5970 -44.3270 -44.3231
   -44.3120 -44.3099 -44.3003 -44.2977 -44.2944 -44.2768 -44.2680 -44.2643
   -44.2596 -44.2566 -44.2559 -44.2511 -44.2425 -44.2366 -44.2320 -44.2292
   -42.7984 -42.7960 -13.8633 -13.8576 -13.8270 -13.8249 -13.8234 -13.8212
     4.2407   4.2591   4.3026   4.3526   4.3874   4.4043   4.4548   4.4709
     4.5251   4.5454   4.5856   4.6072   4.6415   4.7398   4.8505   4.8716
     4.8912   4.9179   4.9359   4.9690   4.9942   5.0070   5.0306   5.0937
     5.1470   5.1618   5.1867   5.2416   5.2871   5.3558  11.7773  14.3602
    14.5331  15.2903  16.4416  17.2016  18.7848  19.1955  19.6174  19.8610
    20.3536  20.3770  21.1079  21.2603  21.6698  21.7716  22.0929  22.3266
    22.3536  23.0887  23.5168  24.1225  24.9368  25.6544  26.4441  26.5262
    26.7572  27.7012  27.9574  28.2165  28.4542  29.4620  29.9262  30.4699
    30.6342  31.2217  31.3075  31.4720  31.5870  31.9912  32.5016  32.6949

          k = 0.2000-0.2694 0.5424 (  5058 PWs)   bands (ev):

   -85.6387 -85.6307 -85.6205 -85.6163 -85.6128 -85.6012 -44.3270 -44.3232
   -44.3128 -44.3095 -44.3082 -44.3006 -44.2751 -44.2658 -44.2647 -44.2599
   -44.2551 -44.2511 -44.2494 -44.2473 -44.2407 -44.2394 -44.2333 -44.2319
   -42.7972 -42.7960 -13.8599 -13.8580 -13.8255 -13.8237 -13.8228 -13.8208
     4.2617   4.2721   4.3341   4.3652   4.3764   4.3832   4.4381   4.4832
     4.5112   4.5135   4.5776   4.5894   4.7104   4.8280   4.8349   4.8456
     4.8668   4.9050   4.9194   4.9319   4.9941   5.0311   5.0353   5.0424
     5.1298   5.1645   5.2307   5.2506   5.2862   5.3366  12.5182  13.4989
    14.9968  15.4757  16.1196  16.5680  18.8214  19.2362  19.3946  19.6663
    20.3519  20.5158  20.9177  21.0598  21.5791  21.6991  22.0363  22.1389
    22.5794  22.9409  23.6573  24.1397  25.0768  25.7345  26.5835  27.0592
    27.7573  27.8628  28.4457  28.8136  29.3430  29.6437  29.7616  29.8408
    30.7783  30.8763  31.1472  31.4077  31.4478  32.0446  32.2130  32.5387

          k = 0.2000-0.0770 0.0000 (  5083 PWs)   bands (ev):

   -85.6571 -85.6477 -85.6310 -85.6263 -85.6185 -85.6137 -44.3391 -44.3300
   -44.3171 -44.3125 -44.3046 -44.2977 -44.2956 -44.2871 -44.2851 -44.2710
   -44.2619 -44.2595 -44.2534 -44.2468 -44.2418 -44.2365 -44.2346 -44.2263
   -42.7989 -42.7974 -13.8678 -13.8632 -13.8258 -13.8246 -13.8225 -13.8215
     4.1590   4.2012   4.2429   4.2713   4.3588   4.4050   4.4433   4.4759
     4.4891   4.5304   4.5608   4.5976   4.6234   4.8131   4.8355   4.8451
     4.9106   4.9221   4.9467   4.9688   4.9977   5.0545   5.0581   5.1470
     5.1707   5.1940   5.2229   5.2977   5.3454   5.3947  10.8973  14.4751
    15.1731  15.4928  17.4228  17.6624  18.5667  18.8984  20.0308  20.2071
    20.6618  20.8416  21.0260  21.0635  21.2214  21.4790  22.1666  22.3864
    22.6200  22.9016  23.6679  24.4440  24.8717  25.0130  25.0199  26.1286
    26.4254  26.7938  27.0881  28.1079  28.5111  29.0305  29.3934  30.1192
    30.1845  30.7966  31.1059  31.2929  31.4245  31.8108  31.9839  32.5991

          k = 0.2000-0.0770 0.1808 (  5080 PWs)   bands (ev):

   -85.6510 -85.6495 -85.6300 -85.6206 -85.6188 -85.6160 -44.3330 -44.3310
   -44.3163 -44.3140 -44.3101 -44.3009 -44.2948 -44.2847 -44.2798 -44.2667
   -44.2615 -44.2538 -44.2494 -44.2466 -44.2443 -44.2387 -44.2355 -44.2264
   -42.7989 -42.7971 -13.8656 -13.8645 -13.8249 -13.8242 -13.8227 -13.8217
     4.1711   4.2124   4.2552   4.2600   4.3841   4.3977   4.4239   4.4685
     4.4763   4.5240   4.5803   4.6052   4.6057   4.7421   4.8679   4.8880
     4.9182   4.9410   4.9474   4.9608   5.0006   5.0630   5.0738   5.0958
     5.1007   5.2205   5.2714   5.3096   5.3512   5.3596  11.0490  14.6000
    15.1640  15.4282  16.9545  17.5894  18.6395  19.1790  19.7004  19.8148
    20.6162  20.6631  20.9503  21.1916  21.4594  21.7445  22.2298  22.4668
    22.6768  22.7154  23.4084  24.1668  24.4803  25.4035  25.7481  26.0656
    26.4478  26.8454  27.3285  27.9362  28.9619  29.3133  29.6680  30.0812
    30.6961  30.9289  31.1950  31.3131  31.4713  31.9391  32.0105  32.5834

          k = 0.2000-0.0770 0.3616 (  5063 PWs)   bands (ev):

   -85.6386 -85.6343 -85.6302 -85.6222 -85.6097 -85.5977 -44.3328 -44.3292
   -44.3126 -44.3114 -44.3015 -44.2999 -44.2894 -44.2719 -44.2670 -44.2640
   -44.2549 -44.2532 -44.2499 -44.2464 -44.2380 -44.2356 -44.2303 -44.2265
   -42.7982 -42.7956 -13.8627 -13.8575 -13.8260 -13.8236 -13.8228 -13.8193
     4.2039   4.2407   4.2647   4.2863   4.3627   4.3767   4.3978   4.4544
     4.5063   4.5458   4.5609   4.5669   4.5991   4.7116   4.8844   4.9053
     4.9129   4.9307   4.9387   5.0103   5.0160   5.0293   5.0434   5.1239
     5.1411   5.1663   5.2961   5.3008   5.3176   5.3751  11.5019  14.3582
    15.0287  15.6874  16.5676  17.3451  18.9033  19.0987  19.4606  19.5086
    20.0397  20.2471  21.2061  21.3777  21.4608  21.8340  22.2044  22.2924
    22.4751  22.9017  23.2887  23.9544  24.1889  25.6625  26.0069  26.5185
    26.9362  27.7356  27.9866  28.4781  29.2604  29.5609  30.1214  30.5538
    30.8572  31.0282  31.1887  31.3254  31.6595  31.9825  32.3020  32.3320

          k = 0.2000-0.0770 0.5424 (  5055 PWs)   bands (ev):

   -85.6442 -85.6305 -85.6278 -85.6220 -85.5993 -85.5870 -44.3377 -44.3325
   -44.3170 -44.3141 -44.3113 -44.3080 -44.2635 -44.2609 -44.2601 -44.2554
   -44.2506 -44.2496 -44.2461 -44.2413 -44.2381 -44.2357 -44.2312 -44.2293
   -42.7972 -42.7960 -13.8592 -13.8565 -13.8244 -13.8235 -13.8230 -13.8202
     4.2448   4.2662   4.3064   4.3218   4.3428   4.3500   4.3718   4.4323
     4.4849   4.4972   4.5076   4.5224   4.7395   4.8232   4.8640   4.8788
     4.8955   4.9033   4.9131   4.9465   5.0214   5.0374   5.0418   5.0523
     5.2082   5.2513   5.2770   5.2950   5.3100   5.3520  12.2556  13.2560
    15.5796  16.1192  16.2759  16.8261  18.8542  19.2195  19.4428  19.7015
    19.7649  19.8594  20.9266  21.0541  21.6872  21.7601  21.9299  22.0152
    22.8398  23.0786  23.1526  23.4846  24.3131  24.9378  27.4304  27.5305
    27.9410  28.3620  28.7810  28.9777  29.4850  29.5788  29.6781  30.2863
    30.7223  30.8959  31.0310  31.1623  31.5665  31.8919  32.4494  32.9181

          k = 0.4000 0.2309 0.0000 (  5085 PWs)   bands (ev):

   -85.6537 -85.6526 -85.6432 -85.6315 -85.6134 -85.6102 -44.3347 -44.3135
   -44.3078 -44.3053 -44.3045 -44.3009 -44.2963 -44.2824 -44.2771 -44.2704
   -44.2663 -44.2661 -44.2588 -44.2581 -44.2529 -44.2446 -44.2360 -44.2333
   -42.7992 -42.7975 -13.8665 -13.8621 -13.8291 -13.8248 -13.8242 -13.8239
     4.2040   4.3116   4.3423   4.3681   4.4088   4.4517   4.4573   4.5278
     4.5543   4.5602   4.6325   4.6462   4.6619   4.7444   4.8130   4.8543
     4.8858   4.9106   4.9371   4.9658   4.9811   5.0185   5.0369   5.0438
     5.0779   5.0906   5.1235   5.1499   5.3484   5.3681  11.5600  12.9837
    15.0471  15.0974  17.8039  18.5981  18.7395  19.4501  19.7406  19.8833
    20.0088  20.2577  21.1158  21.1343  21.3948  21.6194  21.9947  22.9545
    23.2359  23.3871  23.7480  24.6751  24.8552  24.9145  25.2431  25.2715
    25.7761  27.1448  27.6196  28.9080  29.0262  29.2478  29.5350  29.7555
    30.7986  30.8236  31.0512  31.1451  31.3294  31.8638  31.9602  32.1930

          k = 0.4000 0.2309 0.1808 (  5088 PWs)   bands (ev):

   -85.6536 -85.6457 -85.6432 -85.6346 -85.6193 -85.6163 -44.3292 -44.3188
   -44.3097 -44.3059 -44.3057 -44.2989 -44.2882 -44.2807 -44.2758 -44.2724
   -44.2705 -44.2669 -44.2652 -44.2550 -44.2517 -44.2454 -44.2423 -44.2365
   -42.7990 -42.7976 -13.8650 -13.8632 -13.8284 -13.8258 -13.8253 -13.8244
     4.2136   4.3185   4.3540   4.3595   4.3975   4.4455   4.4752   4.5049
     4.5261   4.5946   4.6358   4.6698   4.6725   4.7559   4.8126   4.8435
     4.8628   4.8801   4.9473   4.9615   4.9710   4.9889   5.0206   5.0752
     5.1019   5.1129   5.1231   5.1574   5.3155   5.3668  11.7069  13.1270
    15.1365  15.1580  16.7473  18.2763  18.8425  19.3054  19.6196  20.1678
    20.2169  20.4147  21.1898  21.2708  21.5392  21.5838  21.8083  22.9794
    23.1391  23.4827  23.5951  24.0639  24.8046  25.0687  25.5441  25.5684
    27.0540  27.1925  27.4800  28.4029  28.7913  29.0297  29.8057  30.1712
    30.4642  30.7674  30.8938  31.6436  32.0794  32.1728  32.1913  32.3453

          k = 0.4000 0.2309 0.3616 (  5084 PWs)   bands (ev):

   -85.6545 -85.6449 -85.6441 -85.6275 -85.6260 -85.6022 -44.3332 -44.3250
   -44.3177 -44.3101 -44.2983 -44.2976 -44.2963 -44.2809 -44.2781 -44.2695
   -44.2680 -44.2665 -44.2501 -44.2495 -44.2472 -44.2421 -44.2374 -44.2371
   -42.7988 -42.7971 -13.8650 -13.8608 -13.8294 -13.8258 -13.8253 -13.8234
     4.2367   4.2898   4.3321   4.4144   4.4146   4.4584   4.4758   4.5060
     4.5154   4.6099   4.6298   4.6689   4.6817   4.7566   4.7778   4.8487
     4.8784   4.8934   4.9164   4.9326   4.9463   5.0025   5.0290   5.0943
     5.0950   5.1212   5.1431   5.1766   5.2130   5.3843  12.1521  13.5462
    14.9002  15.4869  15.6122  17.5340  18.1461  19.2854  19.6416  20.1704
    20.4731  20.6684  21.0526  21.4210  21.5610  21.8944  21.9032  22.4047
    23.0228  23.2441  23.7514  24.3755  24.6896  25.3170  26.0674  27.0845
    27.1581  27.1768  27.4562  28.6091  29.0385  29.2874  29.6307  29.7541
    30.8919  30.9518  31.4557  31.5757  31.8160  31.9555  32.2756  32.8471

          k = 0.4000 0.2309 0.5424 (  5068 PWs)   bands (ev):

   -85.6471 -85.6348 -85.6334 -85.6264 -85.6157 -85.5921 -44.3285 -44.3209
   -44.3157 -44.3027 -44.3015 -44.2910 -44.2849 -44.2783 -44.2765 -44.2740
   -44.2691 -44.2570 -44.2494 -44.2431 -44.2384 -44.2383 -44.2358 -44.2324
   -42.7976 -42.7963 -13.8599 -13.8575 -13.8292 -13.8276 -13.8236 -13.8211
     4.2581   4.2709   4.3485   4.3880   4.4125   4.4357   4.4824   4.5603
     4.5681   4.6039   4.6360   4.6573   4.6839   4.7546   4.7728   4.8542
     4.8835   4.8928   4.9053   4.9354   4.9616   4.9937   5.0331   5.0384
     5.0846   5.1083   5.1243   5.1272   5.2979   5.3630  12.8798  13.8103
    14.2754  14.9756  16.0233  16.7277  18.1593  18.7625  19.7874  19.9955
    20.6570  20.8041  20.9374  21.0742  21.7717  21.9398  22.0214  22.0861
    22.9641  23.5928  23.6250  24.0399  25.6738  25.9142  26.5565  26.5998
    26.9887  27.2637  28.1215  29.1601  29.4750  29.6795  29.9143  30.2354
    30.4692  30.8122  31.0445  31.3171  31.5229  31.8507  32.0425  32.2341

          k = 0.4000 0.4234 0.0000 (  5078 PWs)   bands (ev):

   -85.6558 -85.6465 -85.6388 -85.6234 -85.6138 -85.6083 -44.3247 -44.3179
   -44.3122 -44.3027 -44.2981 -44.2971 -44.2877 -44.2825 -44.2812 -44.2662
   -44.2616 -44.2613 -44.2582 -44.2559 -44.2519 -44.2469 -44.2390 -44.2356
   -42.7983 -42.7978 -13.8642 -13.8617 -13.8262 -13.8256 -13.8253 -13.8244
     4.2527   4.2844   4.3930   4.3953   4.4643   4.4738   4.4925   4.5167
     4.5525   4.5794   4.6226   4.6367   4.6409   4.7035   4.8182   4.8401
     4.9006   4.9063   4.9567   4.9691   4.9752   5.0069   5.0122   5.0449
     5.0648   5.0880   5.1031   5.1288   5.2921   5.3625  11.8788  12.7799
    13.9543  16.1074  17.6767  18.6066  18.6994  19.3528  19.7264  19.7788
    20.1359  20.2288  21.1463  21.2271  21.6077  21.6961  22.4904  22.6608
    22.9374  23.1328  23.5499  24.1565  24.8289  25.2291  25.6370  26.2980
    26.4138  26.7135  27.5980  27.9647  28.3878  28.9379  29.7857  30.2535
    30.5896  30.9857  31.2459  31.3492  31.9392  32.1922  32.3633  32.4676

          k = 0.4000 0.4234 0.1808 (  5071 PWs)   bands (ev):

   -85.6459 -85.6438 -85.6351 -85.6252 -85.6080 -85.6069 -44.3246 -44.3186
   -44.3140 -44.3034 -44.2982 -44.2937 -44.2866 -44.2786 -44.2772 -44.2681
   -44.2620 -44.2589 -44.2581 -44.2569 -44.2424 -44.2404 -44.2356 -44.2351
   -42.7980 -42.7971 -13.8616 -13.8605 -13.8280 -13.8252 -13.8243 -13.8230
     4.2583   4.3173   4.3628   4.4008   4.4311   4.4726   4.4923   4.5154
     4.5256   4.6049   4.6508   4.6636   4.6924   4.7068   4.8175   4.8227
     4.8704   4.8824   4.9277   4.9667   4.9699   4.9805   5.0038   5.0548
     5.0920   5.1023   5.1182   5.1433   5.3086   5.3163  12.0242  12.9278
    14.0826  16.0986  16.8264  17.7435  18.9636  19.6019  19.6658  20.0121
    20.3019  20.3614  21.1622  21.2210  21.7378  21.7718  22.0619  22.5179
    22.8597  23.2891  23.5786  24.3795  25.0444  25.6093  25.6726  25.9160
    26.1730  27.4107  27.7146  28.1897  28.5449  29.3472  29.5645  29.9549
    30.0947  30.9213  31.4702  31.5721  31.8427  32.0197  32.4561  32.5497

          k = 0.4000 0.4234 0.3616 (  5075 PWs)   bands (ev):

   -85.6476 -85.6445 -85.6368 -85.6242 -85.6134 -85.6079 -44.3195 -44.3135
   -44.3123 -44.3067 -44.3016 -44.2997 -44.2890 -44.2847 -44.2701 -44.2673
   -44.2659 -44.2633 -44.2573 -44.2553 -44.2469 -44.2448 -44.2352 -44.2345
   -42.7979 -42.7970 -13.8633 -13.8617 -13.8288 -13.8270 -13.8231 -13.8209
     4.2705   4.3056   4.3649   4.4338   4.4377   4.4552   4.4873   4.4933
     4.5294   4.6371   4.6832   4.6860   4.7312   4.7369   4.7605   4.8275
     4.8468   4.8774   4.8889   4.9395   4.9597   4.9882   5.0102   5.0234
     5.1066   5.1178   5.1363   5.1659   5.2038   5.3410  12.4594  13.3524
    14.4176  15.4152  15.9138  17.0405  18.4950  19.5975  19.6527  20.0140
    20.6057  20.7517  21.1708  21.3040  21.4117  21.8646  21.9312  22.1623
    23.0958  23.3600  23.9663  24.7206  24.7511  25.3471  26.1563  26.6144
    26.9739  27.6182  28.0926  28.4883  28.7825  29.3091  29.7439  29.8985
    30.0995  30.2959  31.3103  31.4297  31.5794  31.9838  32.7823  32.9721

          k = 0.4000 0.4234 0.5424 (  5077 PWs)   bands (ev):

   -85.6538 -85.6525 -85.6261 -85.6217 -85.6188 -85.6050 -44.3243 -44.3220
   -44.3108 -44.3077 -44.2995 -44.2953 -44.2887 -44.2795 -44.2759 -44.2744
   -44.2680 -44.2619 -44.2527 -44.2495 -44.2471 -44.2437 -44.2399 -44.2346
   -42.7977 -42.7971 -13.8612 -13.8597 -13.8301 -13.8288 -13.8238 -13.8222
     4.2793   4.2849   4.3763   4.4019   4.4320   4.4512   4.4829   4.5498
     4.6081   4.6296   4.6679   4.7034   4.7417   4.7441   4.7570   4.8214
     4.8316   4.8788   4.9263   4.9432   4.9646   4.9760   4.9904   5.0128
     5.0180   5.0659   5.1339   5.1492   5.2756   5.3284  13.1753  13.9344
    14.2418  14.6001  15.6722  16.2245  18.6850  19.2500  19.7645  19.8941
    20.7689  20.8430  20.9746  21.0247  21.4517  21.6461  22.1430  22.1767
    22.8235  23.1334  24.7896  24.9271  25.4039  25.5026  26.0836  26.9645
    27.1741  27.9102  28.6999  28.8857  29.0688  29.2374  29.5025  29.7392
    29.9536  30.2703  30.9898  31.1703  31.5824  31.8746  32.0747  32.9624

          k = 0.4000 0.6158 0.0000 (  5071 PWs)   bands (ev):

   -85.6632 -85.6498 -85.6380 -85.6130 -85.6041 -85.5967 -44.3236 -44.3159
   -44.3088 -44.3049 -44.3032 -44.2973 -44.2933 -44.2815 -44.2790 -44.2612
   -44.2608 -44.2587 -44.2543 -44.2529 -44.2477 -44.2390 -44.2332 -44.2321
   -42.7979 -42.7974 -13.8640 -13.8616 -13.8260 -13.8244 -13.8239 -13.8222
     4.2742   4.3064   4.3641   4.4199   4.4601   4.4795   4.5033   4.5459
     4.5703   4.5948   4.6047   4.6127   4.6471   4.6522   4.8029   4.8244
     4.8986   4.9014   4.9515   4.9931   5.0017   5.0134   5.0248   5.0412
     5.0646   5.0868   5.1154   5.1482   5.2197   5.3609  11.9639  12.9872
    13.4212  16.6390  17.3005  18.5622  18.6848  19.3839  19.8655  19.8697
    20.0110  20.2251  20.9796  21.2712  21.8768  21.9887  22.2689  22.7500
    22.8440  23.1086  23.2523  23.5669  25.1871  25.3916  26.0266  26.5921
    26.8836  27.1526  27.4024  27.7273  27.7870  28.2962  28.9601  30.6260
    30.8507  31.3149  31.6210  31.7625  31.9964  32.3089  32.4635  32.6730

          k = 0.4000 0.6158 0.1808 (  5066 PWs)   bands (ev):

   -85.6456 -85.6432 -85.6386 -85.6181 -85.6036 -85.6006 -44.3242 -44.3116
   -44.3075 -44.3041 -44.3011 -44.2965 -44.2903 -44.2786 -44.2754 -44.2669
   -44.2612 -44.2579 -44.2549 -44.2538 -44.2442 -44.2362 -44.2346 -44.2312
   -42.7976 -42.7969 -13.8608 -13.8602 -13.8268 -13.8252 -13.8239 -13.8224
     4.3049   4.3137   4.3482   4.4199   4.4507   4.4671   4.4771   4.5259
     4.5298   4.6062   4.6486   4.6682   4.6771   4.7015   4.8015   4.8069
     4.8729   4.8918   4.9096   4.9672   4.9696   5.0082   5.0183   5.0495
     5.0864   5.0992   5.1114   5.1846   5.2529   5.3064  12.1082  13.1318
    13.5587  16.5367  16.9448  17.2180  19.2631  19.4609  19.6507  20.1671
    20.3179  20.3772  20.9731  21.1600  21.8928  21.9440  22.1838  22.2629
    22.6162  23.2558  23.7473  23.9926  25.4148  25.5791  25.9691  26.0808
    26.5698  27.3354  27.3735  28.0398  28.4515  29.0009  29.5133  29.8379
    30.4493  30.8431  31.4479  31.6120  31.8116  32.0607  32.6000  32.9177

          k = 0.4000 0.6158 0.3616 (  5090 PWs)   bands (ev):

   -85.6599 -85.6571 -85.6444 -85.6270 -85.6245 -85.6104 -44.3216 -44.3195
   -44.3168 -44.3102 -44.3070 -44.3057 -44.2926 -44.2838 -44.2751 -44.2697
   -44.2695 -44.2676 -44.2620 -44.2568 -44.2537 -44.2458 -44.2377 -44.2362
   -42.7987 -42.7981 -13.8650 -13.8646 -13.8294 -13.8275 -13.8259 -13.8231
     4.2998   4.3110   4.3808   4.4379   4.4437   4.4592   4.4711   4.4931
     4.5149   4.6386   4.6853   4.6928   4.7255   4.7521   4.7635   4.8281
     4.8418   4.8656   4.8774   4.9369   4.9567   4.9860   5.0110   5.0243
     5.1033   5.1205   5.1299   5.1640   5.2298   5.2882  12.5397  13.5447
    13.9427  15.4825  16.1903  16.6046  19.0162  19.4034  19.6170  20.2099
    20.6248  20.6654  21.1470  21.2507  21.4134  21.5280  22.0330  22.1711
    23.1281  23.5685  23.9171  24.1268  25.2383  25.7810  26.0317  26.8888
    27.1872  27.4562  27.8437  28.3978  28.9468  28.9890  29.5838  30.0280
    30.2812  30.6955  30.7849  30.9870  31.2348  31.9478  32.6407  33.3315

          k = 0.4000 0.6158 0.5424 (  5076 PWs)   bands (ev):

   -85.6563 -85.6448 -85.6250 -85.6220 -85.6186 -85.6076 -44.3271 -44.3180
   -44.3066 -44.3044 -44.2992 -44.2929 -44.2821 -44.2771 -44.2764 -44.2690
   -44.2678 -44.2647 -44.2618 -44.2523 -44.2506 -44.2475 -44.2391 -44.2334
   -42.7976 -42.7969 -13.8602 -13.8592 -13.8287 -13.8281 -13.8261 -13.8229
     4.2936   4.2944   4.4012   4.4099   4.4485   4.4526   4.4658   4.5262
     4.6124   4.6163   4.6752   4.7112   4.7363   4.7818   4.7889   4.8048
     4.8161   4.8597   4.9246   4.9475   4.9715   4.9720   4.9835   4.9892
     5.0038   5.0711   5.1505   5.1619   5.2648   5.2904  13.2548  14.1064
    14.2471  14.4407  15.5971  15.8414  19.2635  19.5709  19.6589  19.8462
    20.7784  20.8100  20.8338  20.8712  21.3077  21.5140  22.1115  22.1541
    22.9384  23.1094  24.4293  25.1508  25.6616  25.9063  26.3135  27.2502
    27.5026  27.6952  28.3205  28.4581  28.8659  29.1075  29.7098  29.7848
    29.9585  30.2545  30.5809  30.8578  31.4402  31.5443  32.5319  32.8555

          k = 0.4000-0.3464 0.0000 (  5079 PWs)   bands (ev):

   -85.6573 -85.6460 -85.6421 -85.6242 -85.6117 -85.6074 -44.3243 -44.3230
   -44.3133 -44.3056 -44.2982 -44.2957 -44.2878 -44.2809 -44.2773 -44.2710
   -44.2647 -44.2605 -44.2588 -44.2572 -44.2511 -44.2468 -44.2349 -44.2340
   -42.7985 -42.7976 -13.8642 -13.8621 -13.8278 -13.8253 -13.8251 -13.8232
     4.2250   4.2953   4.3686   4.3903   4.4377   4.4680   4.5153   4.5237
     4.5338   4.5483   4.6250   4.6495   4.6538   4.7307   4.8359   4.8665
     4.8841   4.9045   4.9391   4.9521   4.9730   5.0041   5.0202   5.0381
     5.0761   5.0858   5.1024   5.1398   5.3269   5.3646  11.7611  12.7861
    14.3859  15.6951  17.8232  18.6567  18.7157  19.3542  19.7416  19.7416
    20.0952  20.2132  21.1774  21.2685  21.4050  21.6083  22.2659  22.8383
    23.1346  23.1973  23.9810  24.4046  24.5929  24.9798  25.2663  25.8640
    26.1737  26.8828  27.4866  28.4742  28.8190  29.2610  29.7659  30.3353
    30.4746  30.7578  31.0655  31.1889  31.5299  32.1381  32.3015  32.3314

          k = 0.4000-0.3464 0.1808 (  5074 PWs)   bands (ev):

   -85.6455 -85.6424 -85.6372 -85.6247 -85.6136 -85.6087 -44.3259 -44.3162
   -44.3130 -44.3031 -44.2983 -44.2960 -44.2863 -44.2818 -44.2736 -44.2706
   -44.2651 -44.2625 -44.2608 -44.2511 -44.2444 -44.2410 -44.2380 -44.2352
   -42.7980 -42.7973 -13.8621 -13.8609 -13.8269 -13.8254 -13.8248 -13.8238
     4.2332   4.3221   4.3577   4.3816   4.4164   4.4709   4.4941   4.5113
     4.5281   4.5935   4.6386   4.6653   4.6965   4.7298   4.8250   4.8392
     4.8694   4.8853   4.9167   4.9566   4.9694   4.9883   5.0018   5.0617
     5.0938   5.1053   5.1164   5.1443   5.3111   5.3485  11.9075  12.9342
    14.5019  15.7255  16.7890  18.0682  18.8433  19.5250  19.6194  19.9994
    20.3050  20.3708  21.1730  21.3542  21.6028  21.6909  21.8823  22.7856
    23.0390  23.4278  23.5812  24.3320  24.7459  25.3215  25.5858  25.7492
    26.5343  27.1597  27.7590  28.5684  28.6232  29.0107  29.8398  30.0609
    30.4692  30.5743  31.3408  31.5898  31.8106  32.1540  32.2565  32.4889

          k = 0.4000-0.3464 0.3616 (  5081 PWs)   bands (ev):

   -85.6545 -85.6500 -85.6374 -85.6264 -85.6169 -85.6057 -44.3251 -44.3203
   -44.3140 -44.3067 -44.3015 -44.2993 -44.2960 -44.2854 -44.2749 -44.2709
   -44.2686 -44.2656 -44.2548 -44.2500 -44.2469 -44.2395 -44.2370 -44.2354
   -42.7984 -42.7971 -13.8640 -13.8616 -13.8302 -13.8263 -13.8240 -13.8222
     4.2518   4.2976   4.3481   4.4279   4.4325   4.4590   4.4831   4.4963
     4.5365   4.6287   4.6586   4.6894   4.7124   4.7388   4.7651   4.8418
     4.8521   4.8888   4.9018   4.9313   4.9453   5.0048   5.0155   5.0395
     5.1033   5.1161   5.1351   5.1692   5.2042   5.3684  12.3457  13.3594
    14.7538  15.3407  15.7741  17.3275  18.2350  19.4483  19.6606  20.0540
    20.5696  20.7581  21.1242  21.3654  21.4781  21.8833  22.0617  22.1913
    22.9293  23.6131  23.8941  24.2482  24.9537  25.1950  26.2576  26.4907
    27.0023  27.3848  27.9521  28.7968  28.9092  29.3213  29.5268  29.8600
    30.3348  30.4809  31.4648  31.6130  31.8639  32.0140  32.6431  32.8130

          k = 0.4000-0.3464 0.5424 (  5079 PWs)   bands (ev):

   -85.6578 -85.6443 -85.6312 -85.6236 -85.6220 -85.6054 -44.3279 -44.3235
   -44.3099 -44.3059 -44.3005 -44.2951 -44.2933 -44.2803 -44.2772 -44.2767
   -44.2726 -44.2602 -44.2520 -44.2481 -44.2456 -44.2437 -44.2390 -44.2319
   -42.7976 -42.7975 -13.8603 -13.8592 -13.8301 -13.8295 -13.8244 -13.8234
     4.2673   4.2764   4.3608   4.3948   4.4236   4.4469   4.4890   4.5628
     4.5972   4.6257   4.6664   4.6940   4.7112   4.7322   4.7488   4.8333
     4.8582   4.8871   4.9238   4.9443   4.9508   4.9786   5.0124   5.0312
     5.0401   5.0691   5.1234   5.1368   5.2889   5.3501  13.0636  13.8966
    14.1833  14.7408  15.8499  16.5048  18.3457  18.9495  19.7894  19.9522
    20.7395  20.8433  20.9768  21.0862  21.6157  21.8249  22.1124  22.1697
    22.8011  23.3005  24.2935  24.7758  25.2618  25.7306  26.1377  26.7100
    27.0675  27.7436  28.4911  29.0792  29.2051  29.4366  29.7468  29.9457
    30.2840  30.3615  31.0253  31.1976  31.7403  32.0667  32.0859  32.5083

          k = 0.4000-0.1540 0.0000 (  5078 PWs)   bands (ev):

   -85.6576 -85.6459 -85.6349 -85.6277 -85.6101 -85.6082 -44.3269 -44.3243
   -44.3097 -44.3033 -44.3021 -44.3005 -44.2970 -44.2806 -44.2772 -44.2680
   -44.2660 -44.2576 -44.2551 -44.2527 -44.2505 -44.2417 -44.2353 -44.2326
   -42.7987 -42.7972 -13.8633 -13.8616 -13.8281 -13.8253 -13.8244 -13.8231
     4.2074   4.3077   4.3338   4.3443   4.4128   4.4247   4.4535   4.5212
     4.5555   4.5676   4.6204   4.6543   4.6592   4.7253   4.8162   4.8633
     4.8765   4.9156   4.9339   4.9679   4.9765   5.0422   5.0534   5.0592
     5.0724   5.0959   5.1541   5.1576   5.3378   5.3705  11.4565  13.1952
    14.6763  15.5147  17.7176  18.3884  18.7528  19.5193  19.7777  19.9460
    20.2214  20.2330  21.0338  21.1102  21.4225  21.6571  21.8703  22.7366
    23.0177  23.5550  23.8002  24.5281  24.7376  24.8980  25.4437  25.6688
    25.7987  26.9134  27.9907  28.6264  28.9792  29.0198  29.3727  29.7909
    30.5172  30.8967  31.1542  31.2264  31.4614  31.7096  32.0689  32.1918

          k = 0.4000-0.1540 0.1808 (  5082 PWs)   bands (ev):

   -85.6522 -85.6470 -85.6357 -85.6300 -85.6190 -85.6113 -44.3275 -44.3190
   -44.3123 -44.3080 -44.3040 -44.2992 -44.2932 -44.2799 -44.2723 -44.2680
   -44.2659 -44.2641 -44.2586 -44.2524 -44.2499 -44.2434 -44.2408 -44.2362
   -42.7990 -42.7971 -13.8644 -13.8626 -13.8284 -13.8252 -13.8242 -13.8232
     4.2163   4.3077   4.3381   4.3599   4.3988   4.4200   4.4681   4.4974
     4.5374   4.5731   4.6326   4.6531   4.6776   4.7617   4.8019   4.8487
     4.8694   4.8879   4.9433   4.9631   4.9852   4.9961   5.0271   5.0814
     5.0958   5.1247   5.1474   5.1780   5.3192   5.3576  11.6039  13.3376
    14.7733  15.5315  16.7758  18.0590  18.9565  19.3998  19.5913  20.0935
    20.3339  20.4472  21.0973  21.2238  21.5239  21.5983  21.8188  22.7453
    23.1409  23.4250  23.5502  24.1275  24.9039  25.1227  25.3939  25.8526
    26.8399  27.2872  27.7387  28.2932  28.5549  29.0364  29.6407  30.2044
    30.4104  30.7729  30.8549  31.7289  31.9873  32.1165  32.2558  32.5321

          k = 0.4000-0.1540 0.3616 (  5080 PWs)   bands (ev):

   -85.6467 -85.6439 -85.6351 -85.6299 -85.6210 -85.6103 -44.3259 -44.3253
   -44.3142 -44.3068 -44.3001 -44.2963 -44.2954 -44.2796 -44.2737 -44.2715
   -44.2674 -44.2596 -44.2537 -44.2516 -44.2487 -44.2436 -44.2380 -44.2354
   -42.7985 -42.7969 -13.8638 -13.8611 -13.8275 -13.8263 -13.8249 -13.8229
     4.2385   4.2864   4.3283   4.4026   4.4039   4.4389   4.4825   4.5007
     4.5126   4.5810   4.6166   4.6592   4.6729   4.7578   4.7970   4.8554
     4.8701   4.9056   4.9261   4.9436   4.9516   5.0023   5.0277   5.0900
     5.1191   5.1243   5.1724   5.1839   5.2196   5.3761  12.0491  13.7451
    14.7658  15.3555  15.9116  17.4254  18.3039  19.3956  19.5436  20.1761
    20.4354  20.5855  21.0449  21.3571  21.6109  21.8752  21.9627  22.3192
    22.6817  23.4789  23.5561  24.3140  24.9385  25.3448  26.0468  27.0816
    27.1255  27.3020  27.6487  28.2239  28.9709  29.1032  29.8132  30.0383
    30.7425  31.1729  31.3915  31.5100  31.6855  32.0003  32.4605  32.6688

          k = 0.4000-0.1540 0.5424 (  5062 PWs)   bands (ev):

   -85.6449 -85.6367 -85.6249 -85.6172 -85.6151 -85.5922 -44.3264 -44.3258
[...]
     8.2323   8.2463   8.3262   8.4848   8.4978   8.5449   8.5563   8.5875
     8.6439   8.6621   8.6962   8.7039   8.7180   8.7788   8.9806   8.9839
     9.1113   9.1136   9.2073   9.2570   9.2847   9.3086   9.3245   9.3297
     9.3700   9.3916   9.4359   9.5367   9.6376   9.7950  15.3900  16.1966
    16.7073  20.4059  21.0785  22.0910  22.7705  23.0338  23.3698  23.5072
    23.5504  23.8808  24.6193  24.9221  26.1077  26.2539  26.5875  26.8668
    27.3334  27.5783  27.5995  27.9128  29.8161  30.0992  30.8341  31.3543
    31.6430  31.9104  32.3606  32.6277  32.6421  33.2953  33.9629  35.0869
    35.6696  36.1546  36.2432  36.4366  36.5511  36.7633  36.8370  37.3542

          k = 0.4205 0.6474 0.1885 (  4395 PWs)   bands (ev):

   -81.2803 -81.2717 -81.2524 -81.2484 -81.2449 -81.2192 -39.9884 -39.9797
   -39.9756 -39.9721 -39.9688 -39.9654 -39.9561 -39.9532 -39.9470 -39.9465
   -39.9353 -39.9303 -39.9220 -39.9177 -39.9095 -39.9055 -39.9020 -39.8971
   -38.8698 -38.8696 -10.0382 -10.0369  -9.9905  -9.9815  -9.9792  -9.9701
     8.2455   8.2837   8.3055   8.4559   8.4842   8.5169   8.5246   8.6008
     8.6124   8.6670   8.7184   8.7508   8.7883   8.8455   8.9803   8.9887
     9.0658   9.0953   9.1258   9.2202   9.2286   9.2909   9.3024   9.3468
     9.4101   9.4271   9.4488   9.5687   9.6725   9.7135  15.5505  16.3677
    16.8717  20.2825  20.7360  21.0034  22.7320  23.0007  23.2206  23.8507
    23.9825  24.0965  24.7836  24.8319  25.8955  26.2042  26.3485  26.4329
    26.9341  27.7047  28.2230  28.5685  30.0606  30.2338  30.7192  30.8801
    31.4083  32.1595  32.3999  32.9541  33.3231  33.8707  34.3160  34.7790
    35.2514  35.6952  36.0055  36.1336  36.3405  36.6664  37.4327  37.9133

          k = 0.4205 0.6474 0.3769 (  4405 PWs)   bands (ev):

   -81.2852 -81.2781 -81.2647 -81.2549 -81.2525 -81.2271 -39.9922 -39.9865
   -39.9842 -39.9798 -39.9732 -39.9692 -39.9567 -39.9550 -39.9489 -39.9417
   -39.9297 -39.9274 -39.9194 -39.9175 -39.9158 -39.9142 -39.9086 -39.9052
   -38.8707 -38.8696 -10.0416 -10.0395  -9.9872  -9.9821  -9.9799  -9.9750
     8.2412   8.2579   8.3922   8.4300   8.4469   8.5156   8.5429   8.5595
     8.5979   8.7099   8.7828   8.8352   8.8417   8.8988   8.9390   9.0102
     9.0348   9.0607   9.0737   9.1676   9.1893   9.2525   9.2812   9.3102
     9.4225   9.4689   9.4769   9.5221   9.6271   9.7173  16.0350  16.8664
    17.3418  19.2275  19.8739  20.3006  22.6200  22.9267  23.1882  23.7697
    24.2100  24.2805  24.8378  25.0977  25.3292  25.4847  26.3125  26.3669
    27.5066  28.0175  28.4913  28.7188  29.9796  30.5216  30.7373  31.7590
    32.0823  32.5041  32.7510  33.3695  33.9029  33.9759  34.4491  34.6394
    35.1515  35.3681  35.6212  35.8908  36.2582  36.4826  37.2304  37.7732

          k = 0.4205 0.6474 0.5654 (  4396 PWs)   bands (ev):

   -81.2823 -81.2714 -81.2639 -81.2457 -81.2393 -81.2355 -39.9926 -39.9898
   -39.9827 -39.9823 -39.9711 -39.9694 -39.9485 -39.9460 -39.9410 -39.9392
   -39.9287 -39.9206 -39.9194 -39.9168 -39.9152 -39.9122 -39.9070 -39.9039
   -38.8703 -38.8694 -10.0416 -10.0401  -9.9825  -9.9791  -9.9784  -9.9779
     8.2353   8.2374   8.3756   8.3850   8.5094   8.5171   8.5232   8.6051
     8.7060   8.7240   8.7814   8.8346   8.8817   8.9262   8.9566   8.9771
     8.9978   9.0688   9.1568   9.1783   9.1998   9.2178   9.2287   9.2400
     9.2718   9.3879   9.5105   9.5217   9.6821   9.7206  16.8264  17.5797
    17.8267  18.0175  19.1504  19.4369  22.8591  23.1229  23.2104  23.3658
    24.3413  24.3897  24.7196  24.7532  25.0471  25.3186  26.4458  26.5205
    27.1503  27.4536  28.9425  29.8091  30.5318  30.7518  31.1932  32.1934
    32.5856  32.6541  33.3332  33.4145  33.8521  34.1152  34.4394  34.4959
    34.6515  34.9907  35.3112  35.5126  36.1712  36.2835  37.2861  37.5571

          k = 0.4205-0.3642 0.0000 (  4402 PWs)   bands (ev):

   -81.2938 -81.2835 -81.2608 -81.2504 -81.2351 -81.2153 -40.0026 -39.9860
   -39.9808 -39.9668 -39.9660 -39.9627 -39.9565 -39.9496 -39.9458 -39.9404
   -39.9359 -39.9275 -39.9264 -39.9219 -39.9175 -39.9111 -39.9033 -39.9013
   -38.8710 -38.8705 -10.0390 -10.0337  -9.9926  -9.9856  -9.9775  -9.9715
     8.1272   8.2660   8.3451   8.3847   8.4007   8.5256   8.5494   8.5906
     8.6106   8.6413   8.7186   8.7641   8.8140   8.8410   8.9878   9.0216
     9.0977   9.1364   9.1803   9.2017   9.2436   9.2918   9.2966   9.3295
     9.3978   9.4040   9.4755   9.4765   9.7951   9.8012  15.0835  15.9776
    17.8432  19.4411  21.6842  22.1348  22.7445  22.8248  23.2185  23.3891
    23.8010  23.9198  24.8205  25.1261  25.5537  25.7868  26.2725  27.2430
    27.5243  27.6394  28.5086  28.8967  29.0680  29.5872  29.9138  30.5369
    30.9682  31.7572  32.4865  33.4074  33.7401  34.1170  34.8724  34.9395
    35.3840  35.4790  35.5155  36.1408  36.3195  36.4373  36.4831  36.8174

          k = 0.4205-0.3642 0.1885 (  4399 PWs)   bands (ev):

   -81.2838 -81.2748 -81.2585 -81.2552 -81.2390 -81.2230 -40.0051 -39.9877
   -39.9792 -39.9739 -39.9606 -39.9596 -39.9566 -39.9511 -39.9464 -39.9394
   -39.9364 -39.9313 -39.9199 -39.9168 -39.9128 -39.9096 -39.9060 -39.8995
   -38.8707 -38.8701 -10.0379 -10.0350  -9.9901  -9.9841  -9.9772  -9.9740
     8.1381   8.2879   8.3370   8.3452   8.4301   8.5167   8.5530   8.5761
     8.6261   8.6363   8.7463   8.7738   8.8423   8.8590   9.0000   9.0269
     9.0469   9.0774   9.1552   9.1995   9.2273   9.2633   9.2895   9.3502
     9.4336   9.4434   9.4625   9.5030   9.7216   9.8179  15.2522  16.1543
    17.9836  19.4873  20.5727  21.9107  22.3363  23.0324  23.0895  23.6652
    23.9374  24.1822  24.8474  25.2507  25.5964  25.8765  25.9450  27.1000
    27.4371  27.8665  27.9949  28.9066  29.3751  29.9891  30.2101  30.5033
    31.3574  32.0196  32.7032  33.5173  33.5567  34.0357  34.5188  34.8619
    35.2705  35.4330  35.9822  36.2529  36.3988  36.5573  36.6898  37.0431

          k = 0.4205-0.3642 0.3769 (  4391 PWs)   bands (ev):

   -81.2762 -81.2706 -81.2602 -81.2517 -81.2299 -81.2247 -40.0037 -39.9814
   -39.9805 -39.9772 -39.9643 -39.9600 -39.9519 -39.9474 -39.9404 -39.9375
   -39.9291 -39.9256 -39.9175 -39.9159 -39.9119 -39.9094 -39.9045 -39.9012
   -38.8703 -38.8689 -10.0414 -10.0360  -9.9853  -9.9805  -9.9767  -9.9733
     8.1641   8.2353   8.3123   8.4362   8.4661   8.4876   8.5410   8.5788
     8.6180   8.6958   8.7651   8.8225   8.8484   8.8631   8.9253   9.0323
     9.0356   9.0892   9.1148   9.1717   9.1987   9.2523   9.2953   9.3372
     9.4335   9.4682   9.4781   9.5229   9.5929   9.8420  15.7526  16.6604
    18.2831  19.0595  19.5633  21.1636  21.7039  22.9720  23.1265  23.6616
    24.1340  24.4334  24.8864  25.1050  25.3348  26.0422  26.1204  26.4581
    27.1691  28.2085  28.5464  28.8897  29.6198  29.9134  30.8830  31.4058
    31.8519  32.3742  32.7288  33.8277  33.8808  34.1584  34.3635  34.7341
    35.2170  35.2775  36.1778  36.2097  36.4065  36.5559  37.3555  37.5126

          k = 0.4205-0.3642 0.5654 (  4401 PWs)   bands (ev):

   -81.2906 -81.2748 -81.2644 -81.2471 -81.2432 -81.2329 -40.0029 -39.9939
   -39.9899 -39.9850 -39.9656 -39.9634 -39.9543 -39.9529 -39.9366 -39.9358
   -39.9298 -39.9254 -39.9185 -39.9177 -39.9152 -39.9120 -39.9072 -39.9046
   -38.8708 -38.8692 -10.0436 -10.0393  -9.9836  -9.9794  -9.9780  -9.9776
     8.1880   8.2049   8.3202   8.3677   8.4718   8.5084   8.5488   8.6543
     8.6921   8.7105   8.7904   8.8205   8.8272   8.8726   8.8804   9.0166
     9.0499   9.0873   9.1567   9.1892   9.2021   9.2377   9.2834   9.2903
     9.3106   9.3789   9.4816   9.4887   9.7190   9.8119  16.5580  17.3854
    17.6934  18.2790  19.6357  20.3157  21.8405  22.4809  23.2910  23.5034
    24.2844  24.4231  24.7129  24.8692  25.4341  25.7250  26.1405  26.3918
    27.1990  27.8802  29.0195  29.5005  30.0283  30.6031  30.8456  31.5985
    31.9651  32.6839  33.3434  33.9548  34.0815  34.2778  34.6152  34.8136
    34.9266  35.3112  35.7682  35.9109  36.3707  36.6164  36.7892  37.3162

          k = 0.4205-0.1618 0.0000 (  4404 PWs)   bands (ev):

   -81.2913 -81.2734 -81.2660 -81.2515 -81.2447 -81.2179 -40.0103 -39.9894
   -39.9818 -39.9695 -39.9683 -39.9640 -39.9587 -39.9572 -39.9480 -39.9415
   -39.9266 -39.9256 -39.9255 -39.9195 -39.9175 -39.9129 -39.8996 -39.8925
   -38.8721 -38.8700 -10.0403 -10.0306  -9.9915  -9.9851  -9.9768  -9.9740
     8.0971   8.2727   8.2849   8.3441   8.3564   8.4245   8.4930   8.5726
     8.6218   8.6671   8.6923   8.7803   8.8155   8.8665   8.9684   9.0522
     9.0855   9.1431   9.1495   9.2297   9.2557   9.3139   9.3651   9.3801
     9.3809   9.4242   9.5060   9.5504   9.8105   9.8125  14.6551  16.5343
    18.1608  19.2703  21.5475  22.1946  22.3129  22.9839  23.2588  23.8183
    23.8896  24.0363  24.7478  24.9423  25.5220  25.7842  25.8558  27.0495
    27.6254  27.9550  28.2122  29.0543  29.2706  29.4224  30.0688  30.2820
    30.5175  31.8498  32.9417  33.5399  33.9142  34.0784  34.3304  34.4957
    35.3779  35.4016  35.4420  35.9499  36.0762  36.2601  36.2936  37.0653

          k = 0.4205-0.1618 0.1885 (  4398 PWs)   bands (ev):

   -81.2820 -81.2728 -81.2612 -81.2562 -81.2361 -81.2220 -40.0059 -39.9894
   -39.9800 -39.9685 -39.9626 -39.9582 -39.9558 -39.9498 -39.9487 -39.9397
   -39.9318 -39.9279 -39.9250 -39.9137 -39.9123 -39.9094 -39.9042 -39.9012
   -38.8710 -38.8704 -10.0382 -10.0321  -9.9894  -9.9842  -9.9774  -9.9738
     8.1098   8.2483   8.3107   8.3461   8.3765   8.4235   8.5014   8.5725
     8.6037   8.6256   8.7412   8.7659   8.8017   8.9172   8.9849   9.0276
     9.0758   9.0960   9.1689   9.2029   9.2624   9.2755   9.3235   9.3912
     9.4207   9.4667   9.5205   9.5619   9.7365   9.8332  14.8245  16.7038
    18.2791  19.3222  20.5264  21.9253  22.4615  22.9161  23.0936  23.7410
    23.9899  24.2987  24.8045  25.0467  25.4410  25.7798  26.0174  27.0440
    27.4220  27.8304  28.0709  28.7301  29.5040  29.7042  30.0204  30.5770
    31.5991  32.1743  32.6307  33.2975  33.4951  34.0390  34.4515  34.8088
    35.2301  35.4287  35.6704  36.0315  36.3234  36.6805  36.7262  37.1122

          k = 0.4205-0.1618 0.3769 (  4399 PWs)   bands (ev):

   -81.2775 -81.2738 -81.2576 -81.2506 -81.2430 -81.2355 -40.0016 -39.9919
   -39.9831 -39.9725 -39.9687 -39.9632 -39.9578 -39.9492 -39.9429 -39.9389
   -39.9312 -39.9254 -39.9191 -39.9142 -39.9129 -39.9093 -39.9084 -39.9039
   -38.8707 -38.8700 -10.0405 -10.0363  -9.9851  -9.9838  -9.9760  -9.9750
     8.1405   8.2160   8.2901   8.3846   8.4220   8.4590   8.5078   8.5571
     8.5994   8.6372   8.7185   8.7603   8.7982   8.8992   8.9521   9.0463
     9.0795   9.1253   9.1615   9.1884   9.2068   9.2446   9.3276   9.4103
     9.4617   9.4761   9.5406   9.5470   9.6155   9.8536  15.3382  17.1806
    18.3060  19.1066  19.6962  21.2986  21.7804  22.9215  23.0466  23.7721
    24.0342  24.2986  24.7861  25.0899  25.4831  25.8190  26.2149  26.5051
    26.9308  28.0366  28.2100  28.9418  29.6526  29.9906  30.7135  31.8202
    31.9331  32.1936  32.6081  33.2614  33.8480  34.1346  34.3978  34.8554
    35.4522  35.7768  35.9873  36.1899  36.3114  36.4668  37.2130  37.5482

          k = 0.4205-0.1618 0.5654 (  4404 PWs)   bands (ev):

   -81.2851 -81.2719 -81.2603 -81.2550 -81.2493 -81.2393 -40.0037 -39.9905
   -39.9893 -39.9837 -39.9693 -39.9653 -39.9600 -39.9533 -39.9389 -39.9369
   -39.9293 -39.9283 -39.9173 -39.9152 -39.9138 -39.9128 -39.9096 -39.9041
   -38.8713 -38.8694 -10.0438 -10.0380  -9.9826  -9.9808  -9.9798  -9.9760
     8.1721   8.1974   8.3016   8.3562   8.4354   8.4637   8.5002   8.6007
     8.6213   8.6326   8.7149   8.7406   8.8340   8.9204   8.9440   9.0447
     9.0749   9.0914   9.1568   9.1749   9.2310   9.2846   9.3079   9.3456
     9.3871   9.4338   9.5212   9.5374   9.7245   9.8201  16.1700  17.2446
    17.9635  18.7307  19.8581  20.5192  21.8049  22.4353  23.2340  23.5281
    24.1729  24.4127  24.6105  24.8114  25.4962  25.7612  25.9952  26.2357
    27.2196  27.9246  28.3742  28.9386  30.3383  30.6584  31.3901  31.6969
    31.8752  32.3788  32.8145  33.9904  34.2848  34.5287  34.7212  34.9240
    35.1373  35.5354  35.6587  36.0104  36.3057  36.4626  36.7611  37.0894

          k = 0.4205 0.0405 0.0000 (  4402 PWs)   bands (ev):

   -81.2852 -81.2702 -81.2594 -81.2570 -81.2454 -81.2222 -40.0081 -39.9809
   -39.9796 -39.9714 -39.9664 -39.9651 -39.9626 -39.9615 -39.9493 -39.9373
   -39.9312 -39.9282 -39.9236 -39.9235 -39.9163 -39.9099 -39.8973 -39.8876
   -38.8722 -38.8699 -10.0401 -10.0294  -9.9902  -9.9855  -9.9810  -9.9703
     8.1351   8.1870   8.2658   8.3645   8.3885   8.4249   8.4874   8.4928
     8.5990   8.6687   8.7117   8.7740   8.7957   8.8494   9.0025   9.0641
     9.1018   9.1333   9.1468   9.2309   9.2392   9.3397   9.3609   9.3986
     9.4030   9.4258   9.5100   9.6571   9.7440   9.8167  14.5453  16.9768
    17.6261  19.7539  21.3338  22.0869  22.2114  23.0194  23.3489  23.7038
    24.1265  24.2590  24.7725  24.9329  25.3013  25.6645  26.2123  26.5378
    27.2724  28.2687  28.5467  28.8225  28.9639  29.1314  30.4984  30.7069
    30.8640  31.8989  32.7077  33.3284  33.4905  33.7492  34.3694  34.5680
    35.1024  35.3517  35.7204  35.9021  35.9546  36.0981  36.6405  37.3016

          k = 0.4205 0.0405 0.1885 (  4403 PWs)   bands (ev):

   -81.2761 -81.2715 -81.2695 -81.2603 -81.2437 -81.2254 -40.0084 -39.9926
   -39.9817 -39.9766 -39.9689 -39.9628 -39.9563 -39.9546 -39.9517 -39.9373
   -39.9341 -39.9298 -39.9200 -39.9154 -39.9122 -39.9091 -39.9015 -39.8942
   -38.8715 -38.8706 -10.0390 -10.0323  -9.9892  -9.9833  -9.9809  -9.9730
     8.1464   8.1887   8.2872   8.3667   8.3847   8.4217   8.4795   8.5022
     8.5863   8.6598   8.7171   8.7395   8.8113   8.9185   8.9752   9.0548
     9.0987   9.1067   9.1525   9.2088   9.2646   9.2955   9.3228   9.4045
     9.4097   9.4687   9.5365   9.6676   9.7413   9.7714  14.7179  17.1396
    17.7642  19.6240  20.8149  21.3359  22.7119  22.9110  23.2475  23.5615
    24.2258  24.3107  24.7586  24.9792  25.4078  25.6396  26.3080  26.5940
    27.3680  27.7470  28.0199  28.7729  29.5124  29.7070  30.3486  30.8447
    31.5234  32.2396  32.6203  32.9510  33.3182  34.1502  34.4169  34.5285
    35.0042  35.4914  35.7956  36.2194  36.3548  36.4626  36.7739  36.9606

          k = 0.4205 0.0405 0.3769 (  4402 PWs)   bands (ev):

   -81.2791 -81.2737 -81.2586 -81.2578 -81.2450 -81.2344 -40.0039 -39.9981
   -39.9840 -39.9771 -39.9715 -39.9651 -39.9588 -39.9490 -39.9422 -39.9349
   -39.9318 -39.9276 -39.9200 -39.9158 -39.9131 -39.9127 -39.9054 -39.8977
   -38.8715 -38.8696 -10.0429 -10.0351  -9.9869  -9.9815  -9.9783  -9.9735
     8.1675   8.1961   8.2981   8.3834   8.3888   8.4135   8.4948   8.5447
     8.5846   8.6274   8.6913   8.7558   8.7914   8.8982   8.9895   9.0523
     9.0613   9.1459   9.1668   9.1937   9.2309   9.2494   9.3216   9.4112
     9.4528   9.5098   9.5316   9.5953   9.6781   9.8013  15.2343  17.5982
    18.0077  18.8565  20.1833  20.8878  22.2927  22.7196  23.2940  23.5542
    24.1371  24.2276  24.8198  24.9226  25.6163  25.7699  26.1036  26.4690
    26.7263  27.7384  28.4365  28.8951  29.7123  30.1253  31.0877  31.6339
    31.7498  32.2993  32.6277  33.2911  33.4221  34.3134  34.6081  35.0071
    35.1266  35.6916  35.9217  36.1634  36.2542  36.3248  37.2624  37.4057

          k = 0.4205 0.0405 0.5654 (  4412 PWs)   bands (ev):

   -81.2853 -81.2790 -81.2654 -81.2589 -81.2520 -81.2484 -40.0014 -39.9971
   -39.9928 -39.9904 -39.9724 -39.9718 -39.9591 -39.9526 -39.9407 -39.9370
   -39.9325 -39.9298 -39.9221 -39.9179 -39.9155 -39.9119 -39.9094 -39.9054
   -38.8714 -38.8706 -10.0422 -10.0398  -9.9840  -9.9818  -9.9797  -9.9791
     8.1875   8.2063   8.3084   8.3508   8.4136   8.4224   8.4891   8.5692
     8.5773   8.5836   8.7137   8.7387   8.8419   8.9715   8.9881   9.0100
     9.0286   9.1269   9.1515   9.1761   9.2450   9.3086   9.3121   9.3358
     9.4008   9.4185   9.5968   9.6199   9.6999   9.7748  16.0699  17.1590
    18.3071  18.8046  19.7413  20.1593  22.4376  22.8260  23.0280  23.2916
    24.1393  24.4227  24.6315  24.7902  25.3058  25.4857  26.1909  26.3146
    26.8917  27.3992  28.7742  29.3817  30.1532  30.2909  31.2661  31.6175
    32.4777  32.7686  33.2500  33.5860  34.1373  34.4304  34.5372  34.6199
    35.2250  35.4311  35.6420  35.9596  36.0341  36.3859  36.8293  37.2262

     the Fermi energy is    30.9222 ev

!    total energy              =   -2606.01806398 Ry
     Harris-Foulkes estimate   =   -2606.01807901 Ry
     estimated scf accuracy    <       0.00001668 Ry

     The total energy is the sum of the following terms:

     one-electron contribution =    -640.93350275 Ry
     hartree contribution      =     431.23418419 Ry
     xc contribution           =    -221.20559687 Ry
     ewald contribution        =   -2174.87572507 Ry
     smearing contrib. (-TS)   =      -0.23742347 Ry

     convergence has been achieved in  11 iterations

     Forces acting on atoms (Ry/au):

     atom    1 type  1   force =    -0.00393977   -0.00227463    0.00000000
     atom    2 type  1   force =    -0.00393977    0.00227463    0.00000000
     atom    3 type  1   force =     0.00393977    0.00227463    0.00000000
     atom    4 type  1   force =     0.00393977   -0.00227463    0.00000000
     atom    5 type  1   force =     0.00000000    0.00454926    0.00000000
     atom    6 type  1   force =     0.00000000   -0.00454926    0.00000000
     atom    7 type  2   force =     0.00000000    0.00000000    0.00000000
     atom    8 type  2   force =     0.00000000    0.00000000    0.00000000

     Total force =     0.011143     Total SCF correction =     0.000000


     entering subroutine stress ...

          total   stress  (Ry/bohr**3)                   (kbar)     P=  204.22
   0.00130951   0.00000000   0.00000000        192.64      0.00      0.00
   0.00000000   0.00130951   0.00000000          0.00    192.64      0.00
   0.00000000   0.00000000   0.00154584          0.00      0.00    227.40


     Writing output data file Prototype-La-hP8-Mg3Cd.save
 
     init_run     :     13.18s CPU     17.21s WALL (       2 calls)
     electrons    :   2440.87s CPU   2957.24s WALL (       5 calls)
     update_pot   :      2.35s CPU      2.37s WALL (       3 calls)
     forces       :     11.18s CPU     11.94s WALL (       5 calls)
     stress       :     32.88s CPU     34.34s WALL (       5 calls)

     Called by init_run:
     wfcinit      :     12.37s CPU     16.34s WALL (       2 calls)
     potinit      :      0.40s CPU      0.41s WALL (       2 calls)

     Called by electrons:
     c_bands      :   2359.25s CPU   2831.80s WALL (      38 calls)
     sum_band     :     81.28s CPU    112.87s WALL (      38 calls)
     v_of_rho     :      0.07s CPU      0.08s WALL (      42 calls)
     mix_rho      :      0.06s CPU      0.08s WALL (      38 calls)

     Called by c_bands:
     init_us_2    :      4.57s CPU      5.93s WALL (    5632 calls)
     ccgdiagg     :   2107.96s CPU   2498.37s WALL (    2772 calls)
     wfcrot       :    258.73s CPU    339.87s WALL (    2836 calls)

     Called by *cgdiagg:
     h_psi        :   1560.40s CPU   1966.89s WALL ( 1544701 calls)
     cdiaghg      :     11.02s CPU     11.78s WALL (    2836 calls)

     Called by h_psi:
     add_vuspsi   :    127.36s CPU    187.00s WALL ( 1544701 calls)

     General routines
     calbec       :    480.50s CPU    505.62s WALL ( 3087206 calls)
     fft          :      0.12s CPU      0.16s WALL (     193 calls)
     fftw         :   1203.29s CPU   1471.79s WALL ( 3926546 calls)
     davcio       :      3.06s CPU      8.67s WALL (    8064 calls)
 
     Parallel routines
     fft_scatter  :    484.73s CPU    596.72s WALL ( 3926739 calls)
 
     PWSCF        : 41m41.13s CPU    50m26.52s WALL

 
   This run was terminated on:  16:56:17  22Mar2018            

=------------------------------------------------------------------------------=
   JOB DONE.
=------------------------------------------------------------------------------=
