
     Program PWSCF v.5.0.2 starts on 22Mar2018 at 22:45:49 

     This program is part of the open-source Quantum ESPRESSO suite
     for quantum simulation of materials; please cite
         "P. Giannozzi et al., J. Phys.:Condens. Matter 21 395502 (2009);
          URL http://www.quantum-espresso.org", 
     in publications or presentations arising from this work. More details at
     http://www.quantum-espresso.org/quote.php

     Parallel version (MPI), running on     4 processors
     R & G space division:  proc/nbgrp/npool/nimage =       4

     Current dimensions of program PWSCF are:
     Max number of different atomic species (ntypx) = 10
     Max number of k-points (npk) =  40000
     Max angular momentum in pseudopotentials (lmaxx) =  3
     Waiting for input...
     Reading input from standard input

     Subspace diagonalization in iterative solution of the eigenvalue problem:
     a serial algorithm will be used

 
     Parallelization info
     --------------------
     sticks:   dense  smooth     PW     G-vecs:    dense   smooth      PW
     Min         207     207     61                 7381     7381    1191
     Max         208     208     62                 7386     7386    1192
     Sum         829     829    247                29529    29529    4767
 


     bravais-lattice index     =            0
     lattice parameter (alat)  =       7.0151  a.u.
     unit-cell volume          =     862.2778 (a.u.)^3
     number of atoms/cell      =           12
     number of atomic types    =            2
     number of electrons       =       192.00
     number of Kohn-Sham states=          115
     kinetic-energy cutoff     =      40.0000  Ry
     charge density cutoff     =     160.0000  Ry
     convergence threshold     =      1.0E-04
     mixing beta               =       0.7000
     number of iterations used =            8  plain     mixing
     Exchange-correlation      = SLA-PZ-NOGX-NOGC ( 1 1 0 0 0)
     EXX-fraction              =        0.00
     nstep                     =           50


     celldm(1)=   7.015105  celldm(2)=   0.000000  celldm(3)=   0.000000
     celldm(4)=   0.000000  celldm(5)=   0.000000  celldm(6)=   0.000000

     crystal axes: (cart. coord. in units of alat)
               a(1) = (   1.000000   0.000000   0.000000 )  
               a(2) = (   0.000000   1.315963   0.000000 )  
               a(3) = (   0.000000   0.000000   1.898020 )  

     reciprocal axes: (cart. coord. in units 2 pi/alat)
               b(1) = (  1.000000  0.000000  0.000000 )  
               b(2) = (  0.000000  0.759900  0.000000 )  
               b(3) = (  0.000000  0.000000  0.526865 )  


     PseudoPot. # 1 for Gd read from file:
     /home/cwx6513/pp.La/Gd.UPF
     MD5 check sum: 09a8be538722f05520810cb6aac0efd2
     Pseudo is Norm-conserving, Zval = 18.0
     Generated in analytical, separable form
     Using radial grid of 1263 points,  6 beta functions with: 
                l(1) =   0
                l(2) =   0
                l(3) =   1
                l(4) =   1
                l(5) =   2
                l(6) =   3

     PseudoPot. # 2 for Ce read from file:
     /home/cwx6513/pp.La/Ce.UPF
     MD5 check sum: 44451aa79a44a00cf2bc029dc19922f6
     Pseudo is Norm-conserving, Zval = 12.0
     Generated in analytical, separable form
     Using radial grid of 1255 points,  6 beta functions with: 
                l(1) =   0
                l(2) =   0
                l(3) =   1
                l(4) =   1
                l(5) =   2
                l(6) =   3

     atomic species   valence    mass     pseudopotential
        Co            18.00    58.93320     Gd( 1.00)
        Si            12.00    28.08550     Ce( 1.00)

      8 Sym. Ops., with inversion, found ( 6 have fractional translation)



   Cartesian axes

     site n.     atom                  positions (alat units)
         1           Co  tau(   1) = (   0.7500000   1.0875135   0.8270358  )
         2           Co  tau(   2) = (   0.2500000   0.2284499   1.0709846  )
         3           Co  tau(   3) = (   0.7500000   0.4295318   0.1219744  )
         4           Co  tau(   4) = (   0.2500000   0.8864316   1.7760460  )
         5           Co  tau(   5) = (   0.2500000   0.7067855   0.5358966  )
         6           Co  tau(   6) = (   0.7500000   0.6091779   1.3621238  )
         7           Co  tau(   7) = (   0.2500000   0.0488038   0.4131136  )
         8           Co  tau(   8) = (   0.7500000   1.2671596   1.4849068  )
         9           Si  tau(   9) = (   0.2500000   0.2669484   1.6960710  )
        10           Si  tau(  10) = (   0.7500000   1.0490149   0.2019494  )
        11           Si  tau(  11) = (   0.2500000   0.9249301   1.1509596  )
        12           Si  tau(  12) = (   0.7500000   0.3910333   0.7470608  )

     number of k points=    12  gaussian smearing, width (Ry)=  0.1000
                       cart. coord. in units 2pi/alat
        k(    1) = (   0.0000000   0.0000000   0.0000000), wk =   0.0833333
        k(    2) = (   0.0000000   0.0000000   0.1317162), wk =   0.1666667
        k(    3) = (   0.0000000   0.0000000  -0.2634324), wk =   0.0833333
        k(    4) = (   0.0000000   0.2532999   0.0000000), wk =   0.1666667
        k(    5) = (   0.0000000   0.2532999   0.1317162), wk =   0.3333333
        k(    6) = (   0.0000000   0.2532999  -0.2634324), wk =   0.1666667
        k(    7) = (  -0.5000000   0.0000000   0.0000000), wk =   0.0833333
        k(    8) = (  -0.5000000   0.0000000   0.1317162), wk =   0.1666667
        k(    9) = (  -0.5000000   0.0000000  -0.2634324), wk =   0.0833333
        k(   10) = (  -0.5000000   0.2532999   0.0000000), wk =   0.1666667
        k(   11) = (  -0.5000000   0.2532999   0.1317162), wk =   0.3333333
        k(   12) = (  -0.5000000   0.2532999  -0.2634324), wk =   0.1666667

     Dense  grid:    29529 G-vectors     FFT dimensions: (  30,  40,  54)

     Largest allocated arrays     est. size (Mb)     dimensions
        Kohn-Sham Wavefunctions         1.62 Mb     (    922,  115)
        NL pseudopotentials             3.38 Mb     (    922,  240)
        Each V/rho on FFT grid          0.26 Mb     (  16800)
        Each G-vector array             0.06 Mb     (   7386)
        G-vector shells                 0.06 Mb     (   7386)
     Largest temporary arrays     est. size (Mb)     dimensions
        Each subspace H/S matrix        0.20 Mb     ( 115, 115)
        Each <psi_i|beta_j> matrix      0.42 Mb     (    240,  115)
        Arrays for rho mixing           2.05 Mb     (  16800,   8)

     Initial potential from superposition of free atoms

     Starting from uniform charge
     Starting wfc are    0 randomized atomic wfcs

     total cpu time spent up to now is        2.2 secs

     Self-consistent Calculation

     iteration #  1     ecut=    40.00 Ry     beta=0.70
     CG style diagonalization
     c_bands:  4 eigenvalues not converged
     ethr =  1.00E-02,  avg # of iterations = 15.3

     total cpu time spent up to now is       34.9 secs

     total energy              =   -1701.13823525 Ry
     Harris-Foulkes estimate   =   -2108.15161635 Ry
     estimated scf accuracy    <     520.84416888 Ry

     iteration #  2     ecut=    40.00 Ry     beta=0.70
     CG style diagonalization
     c_bands:  1 eigenvalues not converged
     c_bands:  1 eigenvalues not converged
     ethr =  1.00E-02,  avg # of iterations = 11.5

     total cpu time spent up to now is       60.7 secs

     total energy              =   -1787.30063357 Ry
     Harris-Foulkes estimate   =   -2005.62552199 Ry
     estimated scf accuracy    <     386.01570622 Ry

     iteration #  3     ecut=    40.00 Ry     beta=0.70
     CG style diagonalization
     ethr =  1.00E-02,  avg # of iterations =  8.9

     total cpu time spent up to now is       79.9 secs

     total energy              =   -1900.40599653 Ry
     Harris-Foulkes estimate   =   -1919.03739719 Ry
     estimated scf accuracy    <      39.49316269 Ry

     iteration #  4     ecut=    40.00 Ry     beta=0.70
     CG style diagonalization
     ethr =  1.00E-02,  avg # of iterations =  4.0

     total cpu time spent up to now is       87.8 secs

     total energy              =   -1906.58746360 Ry
     Harris-Foulkes estimate   =   -1908.66009121 Ry
     estimated scf accuracy    <       4.78462360 Ry

     iteration #  5     ecut=    40.00 Ry     beta=0.70
     CG style diagonalization
     ethr =  2.49E-03,  avg # of iterations =  3.8

     total cpu time spent up to now is       95.8 secs

     total energy              =   -1906.98104674 Ry
     Harris-Foulkes estimate   =   -1907.46509495 Ry
     estimated scf accuracy    <       0.94965956 Ry

     iteration #  6     ecut=    40.00 Ry     beta=0.70
     CG style diagonalization
     c_bands:  2 eigenvalues not converged
     c_bands:  1 eigenvalues not converged
     c_bands:  1 eigenvalues not converged
     c_bands:  1 eigenvalues not converged
     ethr =  4.95E-04,  avg # of iterations =  4.3

     total cpu time spent up to now is      104.9 secs

     total energy              =   -1907.18234805 Ry
     Harris-Foulkes estimate   =   -1907.22742360 Ry
     estimated scf accuracy    <       0.07621002 Ry

     iteration #  7     ecut=    40.00 Ry     beta=0.70
     CG style diagonalization
     c_bands:  2 eigenvalues not converged
     ethr =  3.97E-05,  avg # of iterations =  5.1

     total cpu time spent up to now is      115.6 secs

     total energy              =   -1907.22277474 Ry
     Harris-Foulkes estimate   =   -1907.23843129 Ry
     estimated scf accuracy    <       0.03872441 Ry

     iteration #  8     ecut=    40.00 Ry     beta=0.70
     CG style diagonalization
     c_bands:  1 eigenvalues not converged
     ethr =  2.02E-05,  avg # of iterations =  3.4

     total cpu time spent up to now is      122.3 secs

     total energy              =   -1907.22533258 Ry
     Harris-Foulkes estimate   =   -1907.22822152 Ry
     estimated scf accuracy    <       0.00482694 Ry

     iteration #  9     ecut=    40.00 Ry     beta=0.70
     CG style diagonalization
     c_bands:  1 eigenvalues not converged
     c_bands:  1 eigenvalues not converged
     ethr =  2.51E-06,  avg # of iterations =  4.6

     total cpu time spent up to now is      131.5 secs

     total energy              =   -1907.22732633 Ry
     Harris-Foulkes estimate   =   -1907.22748873 Ry
     estimated scf accuracy    <       0.00041128 Ry

     iteration # 10     ecut=    40.00 Ry     beta=0.70
     CG style diagonalization
     c_bands:  1 eigenvalues not converged
     c_bands:  1 eigenvalues not converged
     ethr =  2.14E-07,  avg # of iterations =  4.1

     total cpu time spent up to now is      139.2 secs

     End of self-consistent calculation

          k = 0.0000 0.0000 0.0000 (  3675 PWs)   bands (ev):

   -24.7235 -24.3540 -24.3141 -24.1471 -24.0362 -23.8470 -23.7804 -23.7578
     1.5810   2.2273   2.4439   2.5137   2.9270   2.9413   3.3562   3.5017
     3.5872   3.7236   3.7455   4.2447   4.2872   4.3750   4.3996   4.4798
     4.7858   4.8321   4.9148   4.9889   5.0180   5.3475   5.8479   5.9460
     7.8028   8.7430   9.1572   9.2935  22.9493  23.5795  23.7204  23.8400
    24.3039  24.4573  24.6866  24.9141  24.9626  25.1215  25.8275  26.2881
    32.6274  32.6427  32.8430  33.3380  33.4857  33.5931  33.9368  34.4806
    35.0569  35.9623  36.0248  36.4818  36.6472  37.0454  37.1321  37.9085
    38.3136  38.6606  38.7543  38.7793  38.8315  38.8812  39.7908  39.8873
    40.0790  40.2395  40.4159  41.6009  41.9991  42.0326  42.3878  42.8809
    43.2447  43.2628  43.2969  43.7900  43.8689  44.2267  44.5907  44.7758
    45.6644  45.6974  47.4139  47.5301  47.5727  48.2978  48.3503  48.4041
    48.4201  48.8731  49.3235  49.7618  50.9222  51.4985  51.9817  52.0820
    52.2339  52.3095  53.0693  53.1075  53.5069  53.8191  54.0327  54.5380
    55.0090  55.3661  55.4709

          k = 0.0000 0.0000 0.1317 (  3675 PWs)   bands (ev):

   -24.6929 -24.4780 -24.2149 -24.1507 -24.0135 -23.8763 -23.7727 -23.7617
     1.6343   2.0819   2.5841   2.5961   2.8776   3.0697   3.0977   3.4851
     3.6877   3.7776   3.7954   4.2048   4.2761   4.4062   4.4539   4.4720
     4.7353   4.8187   4.9235   4.9376   4.9732   5.0979   5.8605   5.9282
     8.1663   8.8302   9.0796   9.2105  23.0391  23.5734  23.6336  23.8595
    24.3634  24.4376  24.6849  24.7739  24.8184  25.0957  25.8557  26.1668
    32.3151  32.7110  33.0068  33.1814  33.3121  33.6942  34.1460  35.0006
    35.4539  35.5155  36.3668  36.5519  36.7953  37.3267  37.4543  38.1310
    38.1558  38.4830  38.9534  38.9837  39.1613  39.3287  39.5060  39.6115
    39.8388  40.0430  40.4912  41.5450  41.5810  41.6156  42.2949  42.3155
    42.5652  43.0010  43.5286  43.6349  43.9003  44.3450  44.5109  44.9070
    45.6584  45.6885  46.2882  47.5494  47.9616  48.0816  48.2236  48.2293
    48.8617  49.7530  49.9162  50.1907  50.7254  50.9014  52.2504  52.2662
    52.3068  52.5677  52.7568  53.0979  53.5239  53.7944  53.9301  54.6524
    54.9506  55.0582  55.7767

          k = 0.0000 0.0000-0.2634 (  3690 PWs)   bands (ev):

   -24.6079 -24.6079 -24.1625 -24.1625 -23.9459 -23.9459 -23.7677 -23.7677
     1.8122   1.8122   2.7804   2.7804   2.8344   2.8344   3.3053   3.3053
     3.6879   3.6879   4.0542   4.0542   4.4343   4.4343   4.4413   4.4413
     4.6873   4.6873   4.8948   4.8948   4.9412   4.9412   5.8896   5.8896
     8.7504   8.7504   9.0173   9.0173  23.2798  23.2798  23.8006  23.8006
    24.3558  24.3558  24.6234  24.6234  24.9630  24.9630  25.9613  25.9613
    32.4108  32.4108  32.8063  32.8063  33.5632  33.5632  35.3778  35.3778
    35.9525  35.9525  36.0078  36.0078  37.5042  37.5042  37.7405  37.7405
    38.1052  38.1052  38.7938  38.7938  39.1578  39.1578  39.4034  39.4034
    40.6380  40.6380  41.2820  41.2820  41.3187  41.3187  42.0281  42.0281
    42.3949  42.3949  42.9416  42.9416  43.7360  43.7360  45.2609  45.2609
    45.9293  45.9293  45.9518  45.9518  47.7964  47.7964  48.4349  48.4349
    50.1530  50.1530  50.8484  50.8484  51.2182  51.2183  51.6633  51.6633
    51.8815  51.8816  52.4029  52.4030  54.0944  54.0945  54.8187  54.8190
    55.2400  55.2401  55.4535

          k = 0.0000 0.2533 0.0000 (  3664 PWs)   bands (ev):

   -24.6102 -24.4004 -24.2591 -24.2232 -24.0233 -23.8721 -23.8099 -23.7686
     1.7228   1.9905   2.7678   2.8777   3.1740   3.2381   3.3383   3.4623
     3.4696   3.6892   3.6975   3.6994   3.9427   4.4442   4.6253   4.6348
     4.7272   4.9182   4.9281   4.9373   5.1055   5.1235   5.2675   5.4702
     8.5092   8.8231   9.4176   9.5448  23.1720  23.3086  23.6414  23.7845
    23.8869  23.9114  24.0957  24.2975  24.6195  25.1423  25.3880  25.6846
    33.1941  33.3424  33.6335  33.7147  34.3185  34.4531  34.9264  35.0526
    35.1294  35.4748  36.0575  36.5710  36.6617  36.9998  37.1838  37.6791
    38.3686  38.5779  38.5801  38.6548  39.4280  39.6727  39.8853  40.0352
    40.2035  41.2081  41.2625  41.8060  41.8398  42.2304  42.2796  42.3075
    42.6863  43.5035  43.5294  43.6610  43.7808  43.7899  44.5105  45.3093
    45.8760  45.8887  46.3808  46.4062  47.0300  48.0829  48.1831  48.2914
    48.3323  49.2820  49.4127  49.6067  50.4973  50.6482  51.2731  51.7224
    51.7512  51.8316  52.3867  52.5500  52.6940  53.4358  54.3771  54.5083
    54.6102  55.2173  55.2401

          k = 0.0000 0.2533 0.1317 (  3669 PWs)   bands (ev):

   -24.5862 -24.4382 -24.2734 -24.2235 -23.9813 -23.8540 -23.8330 -23.7814
     1.8086   2.0804   2.6988   2.8239   3.0253   3.1888   3.3519   3.4467
     3.5395   3.6227   3.6940   3.7971   3.9732   4.4925   4.5370   4.6281
     4.6489   4.8014   4.9341   5.0164   5.0813   5.1072   5.3783   5.4782
     8.6437   8.8698   9.3985   9.5050  23.2562  23.2930  23.5449  23.7211
    23.7554  23.8666  24.2172  24.4480  24.5062  25.0237  25.3591  25.6415
    33.1097  33.3304  33.6936  33.7454  34.5007  34.6562  34.6693  35.2216
    35.6628  35.7718  35.9233  36.3112  36.8410  37.2113  37.3222  37.8566
    38.0153  38.5145  38.5213  39.0445  39.1251  39.5064  39.8663  40.1432
    40.3675  40.5220  41.3875  41.6157  41.7884  41.8624  42.4420  42.4863
    42.8688  43.1371  43.3088  43.7974  43.9631  43.9830  44.6150  44.9715
    45.1057  46.0029  46.1946  46.2982  47.1644  47.7629  47.8816  48.1083
    49.0619  49.3270  49.5344  50.5052  50.5974  50.9918  51.0531  51.2711
    51.6044  51.9531  52.5298  52.5600  52.6461  53.2634  53.4989  54.9585
    55.1226  55.3510  55.7453

          k = 0.0000 0.2533-0.2634 (  3666 PWs)   bands (ev):

   -24.5196 -24.5196 -24.2537 -24.2537 -23.8992 -23.8992 -23.8126 -23.8126
     2.0384   2.0384   2.7131   2.7131   2.9811   2.9811   3.4825   3.4825
     3.6242   3.6242   3.6289   3.6289   4.2826   4.2826   4.5979   4.5979
     4.6360   4.6360   4.9936   4.9936   5.0956   5.0956   5.4682   5.4682
     8.8580   8.8580   9.4143   9.4143  23.3376  23.3376  23.4805  23.4805
    23.8072  23.8072  24.3314  24.3314  24.7404  24.7404  25.4747  25.4747
    33.2422  33.2422  33.4663  33.4663  34.9466  34.9466  35.0918  35.0918
    35.8320  35.8320  36.6740  36.6740  36.9444  36.9444  37.4995  37.4995
    37.9131  37.9131  38.6816  38.6816  39.2714  39.2714  40.0609  40.0609
    40.3262  40.3262  41.1909  41.1909  42.2028  42.2028  42.3141  42.3141
    43.2745  43.2745  43.3700  43.3700  43.9074  43.9074  44.7504  44.7504
    45.5912  45.5912  45.8327  45.8327  47.3456  47.3456  47.7341  47.7341
    49.3964  49.3964  50.3126  50.3126  50.5826  50.5826  51.4491  51.4492
    52.1242  52.1242  52.4925  52.4926  53.0482  53.0483  53.6698  53.6700
    55.2663  55.2665  55.8351

          k =-0.5000 0.0000 0.0000 (  3722 PWs)   bands (ev):

   -24.3792 -24.3792 -24.2418 -24.2418 -24.0813 -24.0813 -23.7689 -23.7689
     1.9754   1.9754   1.9842   1.9842   2.4131   2.4131   3.1199   3.1199
     3.2427   3.2427   3.9645   3.9645   4.4841   4.4841   4.4976   4.4976
     4.8104   4.8104   5.2327   5.2327   5.4369   5.4369   5.8801   5.8801
     8.7572   8.7572   9.6154   9.6154  23.7354  23.7354  24.5917  24.5917
    24.9050  24.9050  25.3036  25.3036  25.5271  25.5271  25.6498  25.6498
    33.6856  33.6856  34.0809  34.0809  34.8796  34.8796  35.0487  35.0487
    35.6369  35.6369  36.3819  36.3819  36.7606  36.7606  36.8041  36.8041
    37.0409  37.0409  37.2248  37.2248  37.9248  37.9248  38.4344  38.4344
    39.1143  39.1143  40.0619  40.0619  41.0424  41.0424  41.1647  41.1647
    42.1278  42.1278  43.3077  43.3077  44.7151  44.7151  44.9416  44.9416
    46.1927  46.1927  47.0505  47.0505  47.6593  47.6593  48.0720  48.0720
    48.3614  48.3614  49.2907  49.2907  50.7741  50.7741  52.2188  52.2188
    52.3595  52.3597  52.6971  52.6972  53.2789  53.2790  53.3185  53.3185
    53.7147  53.7151  54.4584

          k =-0.5000 0.0000 0.1317 (  3710 PWs)   bands (ev):

   -24.3752 -24.3752 -24.2468 -24.2468 -24.0770 -24.0770 -23.7688 -23.7688
     1.7727   1.7727   2.2303   2.2303   2.6255   2.6255   2.9404   2.9404
     3.2746   3.2746   3.9063   3.9063   4.0874   4.0874   4.6384   4.6384
     5.0180   5.0180   5.2124   5.2124   5.4301   5.4301   5.8785   5.8785
     8.8399   8.8399   9.6097   9.6097  23.7815  23.7815  24.5573  24.5573
    24.8336  24.8336  25.2732  25.2732  25.4739  25.4739  25.6099  25.6099
    33.8109  33.8109  34.0687  34.0687  34.7138  34.7138  35.2653  35.2653
    35.8236  35.8236  36.1727  36.1727  36.5348  36.5348  37.0782  37.0782
    37.2180  37.2180  37.5579  37.5579  38.0643  38.0643  38.5431  38.5431
    39.2736  39.2736  39.5213  39.5213  40.6293  40.6293  41.1462  41.1462
    42.3029  42.3029  43.6538  43.6538  44.4066  44.4066  44.7702  44.7702
    45.8907  45.8907  46.3796  46.3796  48.0577  48.0577  48.2558  48.2558
    48.8796  48.8796  49.2554  49.2554  50.6979  50.6979  51.5935  51.5936
    52.1938  52.1940  52.6082  52.6082  53.3909  53.3910  53.7032  53.7034
    54.0410  54.0417  54.6284

          k =-0.5000 0.0000-0.2634 (  3680 PWs)   bands (ev):

   -24.3675 -24.3675 -24.2528 -24.2528 -24.0719 -24.0719 -23.7686 -23.7686
     1.6938   1.6938   2.4496   2.4496   2.7497   2.7497   2.9235   2.9235
     3.1364   3.1364   3.8068   3.8068   3.9436   3.9436   4.6281   4.6281
     5.1830   5.1830   5.2138   5.2138   5.4037   5.4037   5.8834   5.8834
     8.9287   8.9287   9.5995   9.5995  23.8365  23.8365  24.5567  24.5567
    24.6898  24.6898  25.2511  25.2511  25.4981  25.4981  25.5178  25.5178
    33.6281  33.6281  34.4405  34.4405  34.8133  34.8133  35.4372  35.4372
    35.5874  35.5874  35.9827  35.9827  36.6989  36.6989  37.1399  37.1399
    37.4098  37.4098  37.6874  37.6874  38.2013  38.2013  38.4845  38.4845
    39.3804  39.3804  39.6349  39.6349  40.4840  40.4840  41.1168  41.1168
    41.8429  41.8429  43.6481  43.6481  44.6053  44.6053  44.6328  44.6328
    45.1596  45.1596  46.9238  46.9238  47.0623  47.0623  48.8006  48.8006
    49.1400  49.1400  49.5945  49.5945  50.8861  50.8861  51.4336  51.4336
    52.2939  52.2940  52.5739  52.5739  53.0768  53.0769  53.4834  53.4836
    54.3910  54.3921  54.6805

          k =-0.5000 0.2533 0.0000 (  3686 PWs)   bands (ev):

   -24.3207 -24.3207 -24.2576 -24.2576 -24.0256 -24.0256 -23.8658 -23.8658
     1.7634   1.7634   1.8249   1.8249   2.7015   2.7015   3.2502   3.2502
     3.7544   3.7544   4.0021   4.0021   4.2349   4.2349   4.3879   4.3879
     5.0960   5.0960   5.1445   5.1445   5.3035   5.3035   5.4980   5.4980
     9.1257   9.1257   9.5704   9.5704  23.8396  23.8396  24.1612  24.1612
    24.3749  24.3749  24.6796  24.6796  25.3801  25.3801  25.4777  25.4777
    34.2712  34.2712  34.4509  34.4509  35.2409  35.2409  35.5457  35.5457
    35.8337  35.8337  35.9512  35.9512  36.9272  36.9272  36.9619  36.9619
    37.7570  37.7570  38.3892  38.3892  38.5649  38.5649  38.5887  38.5887
    39.9242  39.9242  39.9594  39.9594  40.9013  40.9013  41.5759  41.5759
    42.5694  42.5694  42.8515  42.8515  44.0114  44.0114  44.6034  44.6034
    45.3798  45.3798  46.5453  46.5453  46.7324  46.7324  48.0446  48.0446
    48.6931  48.6931  49.4586  49.4586  50.1125  50.1125  51.1401  51.1401
    51.6138  51.6138  51.7763  51.7763  52.3942  52.3942  53.1838  53.1838
    54.2015  54.2017  55.6801

          k =-0.5000 0.2533 0.1317 (  3692 PWs)   bands (ev):

   -24.3198 -24.3198 -24.2606 -24.2606 -24.0248 -24.0248 -23.8659 -23.8659
     1.7621   1.7621   1.9369   1.9369   2.7593   2.7593   3.0230   3.0230
     3.5975   3.5975   3.9500   3.9500   4.3765   4.3765   4.5792   4.5792
     5.0142   5.0142   5.1403   5.1403   5.2934   5.2934   5.4904   5.4904
     9.1747   9.1747   9.5774   9.5774  23.8465  23.8465  24.1318  24.1318
    24.4561  24.4561  24.7084  24.7084  25.1786  25.1786  25.4137  25.4137
    34.1368  34.1368  34.5859  34.5859  35.1812  35.1812  35.4840  35.4840
    35.8460  35.8460  36.4447  36.4447  36.9703  36.9703  37.5060  37.5060
    37.5824  37.5824  38.1575  38.1575  38.4505  38.4505  38.9276  38.9276
    39.5100  39.5100  40.3126  40.3126  40.8057  40.8057  41.4993  41.4993
    42.3014  42.3014  43.0718  43.0718  43.8128  43.8128  44.3804  44.3804
    45.4720  45.4720  46.3475  46.3475  47.2000  47.2000  47.8495  47.8495
    48.3026  48.3026  49.0399  49.0399  49.8811  49.8811  50.8014  50.8014
    51.5362  51.5364  51.6943  51.6944  52.5713  52.5715  53.6561  53.6564
    54.4408  54.4415  55.3377

          k =-0.5000 0.2533-0.2634 (  3704 PWs)   bands (ev):

   -24.3171 -24.3171 -24.2645 -24.2645 -24.0260 -24.0260 -23.8668 -23.8668
     1.7658   1.7658   2.0873   2.0873   2.6444   2.6444   3.1296   3.1296
     3.2227   3.2227   3.9750   3.9750   4.5282   4.5282   4.7504   4.7504
     4.9672   4.9672   4.9848   4.9848   5.3550   5.3550   5.4667   5.4667
     9.2257   9.2257   9.5796   9.5796  23.8460  23.8460  24.0982  24.0982
    24.6538  24.6538  24.7332  24.7332  24.9034  24.9034  25.3236  25.3236
    33.9669  33.9669  34.7645  34.7645  35.1197  35.1197  35.5184  35.5184
    36.2528  36.2528  36.6112  36.6112  36.7962  36.7962  37.4605  37.4605
    37.8082  37.8082  38.3514  38.3514  38.5573  38.5573  39.0797  39.0797
    39.2024  39.2024  40.3951  40.3951  40.5983  40.5983  41.4817  41.4817
    41.8611  41.8611  43.4765  43.4765  43.9421  43.9421  44.2129  44.2129
    45.2603  45.2603  46.2471  46.2471  46.9819  46.9819  47.8002  47.8002
    48.2973  48.2973  48.4816  48.4816  49.8260  49.8260  50.4416  50.4416
    51.2040  51.2040  52.0979  52.0980  53.3098  53.3098  53.3248  53.3249
    54.1838  54.1838  56.1804

     the Fermi energy is    48.4555 ev

!    total energy              =   -1907.22737677 Ry
     Harris-Foulkes estimate   =   -1907.22745540 Ry
     estimated scf accuracy    <       0.00008516 Ry

     The total energy is the sum of the following terms:

     one-electron contribution =     356.00325876 Ry
     hartree contribution      =     123.43532857 Ry
     xc contribution           =    -217.51883082 Ry
     ewald contribution        =   -2168.79007708 Ry
     smearing contrib. (-TS)   =      -0.35705620 Ry

     convergence has been achieved in  10 iterations

     Forces acting on atoms (Ry/au):

     atom    1 type  1   force =     0.00000000   -0.08049381   -0.13783720
     atom    2 type  1   force =     0.00000000    0.08049381    0.13783720
     atom    3 type  1   force =     0.00000000   -0.08049381    0.13783720
     atom    4 type  1   force =     0.00000000    0.08049381   -0.13783720
     atom    5 type  1   force =     0.00000000    0.15083177   -0.22276654
     atom    6 type  1   force =     0.00000000   -0.15083177    0.22276654
     atom    7 type  1   force =     0.00000000    0.15083177    0.22276654
     atom    8 type  1   force =     0.00000000   -0.15083177   -0.22276654
     atom    9 type  2   force =     0.00000000   -0.17894355   -0.03889704
     atom   10 type  2   force =     0.00000000    0.17894355    0.03889704
     atom   11 type  2   force =     0.00000000   -0.17894355    0.03889704
     atom   12 type  2   force =     0.00000000    0.17894355   -0.03889704

     Total force =     0.724948     Total SCF correction =     0.000000


     entering subroutine stress ...

          total   stress  (Ry/bohr**3)                   (kbar)     P= 6760.86
   0.04767616   0.00000000   0.00000000       7013.40      0.00      0.00
   0.00000000   0.04337984   0.00000000          0.00   6381.39      0.00
   0.00000000   0.00000000   0.04682220          0.00      0.00   6887.78


     BFGS Geometry Optimization

     number of scf cycles    =   1
     number of bfgs steps    =   0

     enthalpy new            =   -1907.2273767714 Ry

     new trust radius        =       0.5000000000 bohr
     new conv_thr            =       0.0001000000 Ry

     new unit-cell volume =   1092.46697 a.u.^3 (   161.88690 Ang^3 )

CELL_PARAMETERS (alat=  7.01510508)
   1.085136619   0.000000000   0.000000000
   0.000000000   1.417903909   0.000000000
   0.000000000   0.000000000   2.056717067

ATOMIC_POSITIONS (crystal)
Co       0.750000000   0.825778184   0.434996554
Co       0.250000000   0.174221816   0.565003446
Co       0.750000000   0.325778184   0.065003446
Co       0.250000000   0.674221816   0.934996554
Co       0.250000000   0.538253051   0.281149939
Co       0.750000000   0.461746949   0.718850061
Co       0.250000000   0.038253051   0.218850061
Co       0.750000000   0.961746949   0.781149939
Si       0.250000000   0.201469435   0.893391332
Si       0.750000000   0.798530565   0.106608668
Si       0.250000000   0.701469435   0.606608668
Si       0.750000000   0.298530565   0.393391332



     Writing output data file Prototype-La-oP12-Co2Si.save
     NEW-OLD atomic charge density approx. for the potential
     NEW k-points:
        k(    1) = (   0.0000000   0.0000000   0.0000000), wk =   0.0833333
        k(    2) = (   0.0000000   0.0000000   0.1215529), wk =   0.1666667
        k(    3) = (   0.0000000   0.0000000  -0.2431059), wk =   0.0833333
        k(    4) = (   0.0000000   0.2350888   0.0000000), wk =   0.1666667
        k(    5) = (   0.0000000   0.2350888   0.1215529), wk =   0.3333333
        k(    6) = (   0.0000000   0.2350888  -0.2431059), wk =   0.1666667
        k(    7) = (  -0.4607715   0.0000000   0.0000000), wk =   0.0833333
        k(    8) = (  -0.4607715   0.0000000   0.1215529), wk =   0.1666667
        k(    9) = (  -0.4607715   0.0000000  -0.2431059), wk =   0.0833333
        k(   10) = (  -0.4607715   0.2350888   0.0000000), wk =   0.1666667
        k(   11) = (  -0.4607715   0.2350888   0.1215529), wk =   0.3333333
        k(   12) = (  -0.4607715   0.2350888  -0.2431059), wk =   0.1666667

     total cpu time spent up to now is      143.2 secs

     Self-consistent Calculation

     iteration #  1     ecut=    40.00 Ry     beta=0.70
     CG style diagonalization
     c_bands:  3 eigenvalues not converged
     c_bands:  1 eigenvalues not converged
     c_bands:  1 eigenvalues not converged
     c_bands:  1 eigenvalues not converged
     c_bands:  1 eigenvalues not converged
     c_bands:  1 eigenvalues not converged
     ethr =  1.00E-06,  avg # of iterations = 21.7

     total cpu time spent up to now is      186.2 secs

     total energy              =   -1904.16586175 Ry
     Harris-Foulkes estimate   =   -1924.43937365 Ry
     estimated scf accuracy    <      26.10884158 Ry

     iteration #  2     ecut=    40.00 Ry     beta=0.70
     CG style diagonalization
     ethr =  1.00E-02,  avg # of iterations =  3.9

     total cpu time spent up to now is      194.4 secs

     total energy              =   -1908.39974132 Ry
     Harris-Foulkes estimate   =   -1918.86921992 Ry
     estimated scf accuracy    <      18.40585625 Ry

     iteration #  3     ecut=    40.00 Ry     beta=0.70
     CG style diagonalization
     ethr =  9.59E-03,  avg # of iterations =  3.5

     total cpu time spent up to now is      202.5 secs

     total energy              =   -1913.58122348 Ry
     Harris-Foulkes estimate   =   -1914.35729482 Ry
     estimated scf accuracy    <       1.48715069 Ry

     iteration #  4     ecut=    40.00 Ry     beta=0.70
     CG style diagonalization
     ethr =  7.75E-04,  avg # of iterations =  3.7

     total cpu time spent up to now is      211.3 secs

     total energy              =   -1913.91048126 Ry
     Harris-Foulkes estimate   =   -1913.97718331 Ry
     estimated scf accuracy    <       0.14012373 Ry

     iteration #  5     ecut=    40.00 Ry     beta=0.70
     CG style diagonalization
     ethr =  7.30E-05,  avg # of iterations =  3.8

     total cpu time spent up to now is      219.8 secs

     total energy              =   -1913.93098999 Ry
     Harris-Foulkes estimate   =   -1913.93957689 Ry
     estimated scf accuracy    <       0.01921138 Ry

     iteration #  6     ecut=    40.00 Ry     beta=0.70
     CG style diagonalization
     ethr =  1.00E-05,  avg # of iterations =  3.8

     total cpu time spent up to now is      228.9 secs

     total energy              =   -1913.93471872 Ry
     Harris-Foulkes estimate   =   -1913.93592296 Ry
     estimated scf accuracy    <       0.00218262 Ry

     iteration #  7     ecut=    40.00 Ry     beta=0.70
     CG style diagonalization
     c_bands:  1 eigenvalues not converged
     ethr =  1.14E-06,  avg # of iterations =  4.1

     total cpu time spent up to now is      238.7 secs

     total energy              =   -1913.93553793 Ry
     Harris-Foulkes estimate   =   -1913.93577660 Ry
     estimated scf accuracy    <       0.00057712 Ry

     iteration #  8     ecut=    40.00 Ry     beta=0.70
     CG style diagonalization
     c_bands:  1 eigenvalues not converged
     ethr =  3.01E-07,  avg # of iterations =  3.5

     total cpu time spent up to now is      247.1 secs

     End of self-consistent calculation

          k = 0.0000 0.0000 0.0000 (  3675 PWs)   bands (ev):

   -33.3706 -33.2529 -33.2232 -33.2002 -33.1221 -33.0305 -32.9485 -32.9434
    -5.7339  -5.3734  -5.2792  -5.2430  -5.0365  -5.0303  -4.8483  -4.7385
    -4.7145  -4.6368  -4.5802  -4.3895  -4.3863  -4.3448  -4.2963  -4.2549
    -4.1340  -4.0803  -4.0122  -4.0011  -3.9874  -3.7918  -3.4941  -3.4520
    -1.6027  -1.0915  -0.9087  -0.8787  14.8850  15.1782  15.2135  15.3678
    15.3955  15.6078  15.7406  15.7647  15.8430  16.0754  16.2661  16.7167
    25.4005  25.6540  25.7537  26.1909  26.1997  26.2007  26.4119  26.9515
    27.0966  27.8149  27.9637  28.3702  28.4637  28.6499  28.8146  28.8725
    29.3484  29.3922  29.6701  29.9802  30.1039  30.2543  30.7731  30.9805
    31.0012  31.1205  31.2714  31.6511  31.6588  32.2488  32.3114  32.3182
    32.7954  32.9774  33.1086  33.2562  33.3032  33.8145  34.0181  34.0193
    34.9232  35.0048  35.6747  35.8410  36.8574  36.9129  37.4253  37.9966
    38.0598  38.3902  38.4027  38.7635  39.9155  40.1642  40.5769  40.5845
    40.7260  41.5206  41.7427  42.1727  42.2370  42.4517  42.5308  42.9142
    43.3346  43.9102  44.1688

          k = 0.0000 0.0000 0.1216 (  3675 PWs)   bands (ev):

   -33.3573 -33.2819 -33.2092 -33.2070 -33.1060 -33.0500 -32.9488 -32.9324
    -5.7016  -5.4508  -5.2079  -5.2051  -5.0626  -4.9729  -4.9533  -4.7662
    -4.6267  -4.6107  -4.6054  -4.4074  -4.3946  -4.3078  -4.2957  -4.2506
    -4.1509  -4.0566  -4.0109  -4.0051  -4.0002  -3.9145  -3.4924  -3.4651
    -1.4609  -1.0521  -0.9856  -0.8979  14.9444  15.1855  15.2082  15.2750
    15.4613  15.5719  15.7307  15.7691  15.8497  15.9691  16.3456  16.6479
    25.4845  25.5099  25.8985  25.9506  25.9513  26.3043  26.6885  27.0906
    27.4553  27.5893  28.2054  28.4254  28.5306  29.0066  29.0249  29.0808
    29.2790  29.5660  29.7227  30.0529  30.1794  30.4038  30.4396  30.5791
    30.7046  30.7364  31.4087  31.4812  31.6255  31.9939  32.0962  32.1949
    32.5071  32.7439  33.2497  33.2878  33.4728  33.8395  33.9122  34.4336
    34.6341  34.7927  35.0791  36.3269  36.6308  36.8252  37.7843  37.8478
    37.8849  38.6766  38.9651  39.3433  39.6711  39.6893  40.4792  40.6877
    41.1818  41.2275  41.2693  41.9181  42.1062  42.3473  42.6658  43.1533
    44.1210  44.6014  44.7169

          k = 0.0000 0.0000-0.2431 (  3690 PWs)   bands (ev):

   -33.3342 -33.3342 -33.2073 -33.2073 -33.0731 -33.0731 -32.9454 -32.9454
    -5.6059  -5.6059  -5.1068  -5.1068  -5.0872  -5.0872  -4.8628  -4.8628
    -4.6239  -4.6239  -4.4839  -4.4839  -4.3231  -4.3231  -4.2779  -4.2779
    -4.1248  -4.1248  -4.0475  -4.0475  -4.0040  -4.0040  -3.4865  -3.4865
    -1.1925  -1.1925  -0.9691  -0.9691  15.0961  15.0961  15.2066  15.2066
    15.5147  15.5147  15.7907  15.7907  15.8248  15.8248  16.4934  16.4934
    25.5350  25.5350  25.6244  25.6244  26.2216  26.2216  27.4992  27.4992
    27.6809  27.6809  27.9547  27.9547  29.0883  29.0883  29.1503  29.1503
    29.3151  29.3151  29.8447  29.8447  30.2081  30.2081  30.4613  30.4613
    30.7527  30.7527  31.5317  31.5317  31.6478  31.6478  31.9820  31.9820
    32.3945  32.3945  32.9609  32.9609  33.5202  33.5202  34.4024  34.4024
    34.9729  34.9729  35.1061  35.1061  36.7337  36.7337  37.7548  37.7548
    39.1507  39.1507  39.4914  39.4914  39.6815  39.6815  40.2994  40.2994
    40.3419  40.3419  41.3903  41.3903  42.6368  42.6369  43.6927  43.6927
    44.1649  44.1650  45.1964

          k = 0.0000 0.2351 0.0000 (  3664 PWs)   bands (ev):

   -33.3278 -33.2696 -33.2115 -33.2062 -33.0800 -33.0170 -32.9931 -32.9637
    -5.6478  -5.5096  -5.1128  -5.0454  -4.8999  -4.8852  -4.8397  -4.7978
    -4.7399  -4.6763  -4.6739  -4.6470  -4.5297  -4.2541  -4.1603  -4.1412
    -4.1233  -4.0379  -4.0352  -4.0272  -3.9292  -3.8629  -3.8337  -3.7194
    -1.2961  -1.0886  -0.7945  -0.7577  14.9746  14.9824  15.1335  15.1939
    15.2973  15.3284  15.5133  15.6071  15.7662  15.9153  16.2292  16.4010
    26.1567  26.1931  26.2783  26.4373  26.7053  26.8423  27.2170  27.2217
    27.5016  27.5117  28.1331  28.2238  28.4756  28.5810  28.6485  29.1650
    29.5947  29.6924  29.7418  29.8052  30.2272  30.5407  30.7650  30.9483
    31.1096  31.1299  31.6018  31.7463  31.8729  32.0295  32.0331  32.4445
    32.7188  33.0077  33.0835  33.1409  33.3623  33.5364  33.9510  34.6703
    34.8349  34.9096  35.1736  35.3442  36.1952  36.8309  37.1483  37.2784
    37.6287  38.0428  38.7230  38.9203  38.9246  39.2541  40.1225  40.3649
    40.3714  40.4614  41.0008  41.0689  41.2235  41.7039  42.7290  42.7847
    43.2302  43.3267  45.1121

          k = 0.0000 0.2351 0.1216 (  3669 PWs)   bands (ev):

   -33.3215 -33.2767 -33.2239 -33.2087 -33.0677 -33.0264 -32.9866 -32.9710
    -5.6075  -5.4659  -5.1314  -5.0869  -4.9886  -4.9211  -4.8159  -4.7692
    -4.7347  -4.7209  -4.6512  -4.5910  -4.5307  -4.2240  -4.2048  -4.1651
    -4.1461  -4.0890  -4.0286  -3.9726  -3.9542  -3.9060  -3.7733  -3.7224
    -1.2212  -1.0648  -0.8221  -0.7863  14.9809  15.0214  15.1029  15.1688
    15.2706  15.2888  15.5524  15.6554  15.7012  15.8737  16.2536  16.3934
    26.0537  26.0798  26.2798  26.4953  26.7546  26.9999  27.0479  27.4967
    27.6209  27.8235  28.1061  28.2283  28.3737  28.6931  28.8701  29.2729
    29.5709  29.6296  29.8211  30.0847  30.2357  30.3172  30.6225  30.7562
    30.8435  31.1517  31.6616  31.7596  31.7803  31.9500  32.1158  32.4384
    32.4523  32.8375  33.0163  33.3879  33.4570  33.6053  33.9065  34.1385
    34.5413  34.9020  35.0327  35.2145  36.1422  36.6153  37.3863  37.7788
    37.8561  38.1428  38.2565  38.7878  39.0937  39.6252  39.7307  40.1788
    40.3487  40.6661  41.0349  41.2094  41.5046  41.8148  42.0465  43.2834
    43.5066  43.7241  45.0297

          k = 0.0000 0.2351-0.2431 (  3666 PWs)   bands (ev):

   -33.2997 -33.2997 -33.2201 -33.2201 -33.0397 -33.0397 -32.9796 -32.9796
    -5.4837  -5.4837  -5.1312  -5.1312  -5.0118  -5.0118  -4.7723  -4.7723
    -4.6869  -4.6869  -4.6726  -4.6726  -4.3618  -4.3618  -4.1779  -4.1779
    -4.1457  -4.1457  -3.9968  -3.9968  -3.9409  -3.9409  -3.7297  -3.7297
    -1.0861  -1.0861  -0.8372  -0.8372  15.0116  15.0116  15.1409  15.1409
    15.2332  15.2332  15.6112  15.6112  15.7659  15.7659  16.3309  16.3309
    25.9885  25.9885  26.2455  26.2455  27.1868  27.1868  27.3523  27.3523
    27.7486  27.7486  28.4811  28.4811  28.5913  28.5913  29.0031  29.0031
    29.5761  29.5761  29.7753  29.7753  30.1274  30.1274  30.7647  30.7647
    31.0144  31.0144  31.5399  31.5399  32.0723  32.0723  32.0973  32.0973
    32.7653  32.7653  33.2273  33.2273  33.2437  33.2437  34.0557  34.0557
    34.5946  34.5946  34.8625  34.8625  36.3019  36.3019  37.5274  37.5274
    38.2337  38.2337  38.8828  38.8828  38.9399  38.9399  39.9227  39.9227
    40.8695  40.8695  41.2734  41.2735  41.5362  41.5363  42.2660  42.2661
    44.3586  44.3586  45.4773

          k =-0.4608 0.0000 0.0000 (  3722 PWs)   bands (ev):

   -33.2632 -33.2632 -33.2364 -33.2364 -33.1289 -33.1289 -32.9627 -32.9627
    -5.5086  -5.5086  -5.4992  -5.4992  -5.2985  -5.2985  -4.9320  -4.9320
    -4.8901  -4.8901  -4.5348  -4.5348  -4.2776  -4.2776  -4.2465  -4.2465
    -4.0812  -4.0812  -3.9129  -3.9129  -3.8040  -3.8040  -3.4867  -3.4867
    -1.0751  -1.0751  -0.7462  -0.7462  15.1357  15.1357  15.5697  15.5697
    15.7203  15.7203  15.9967  15.9967  16.1507  16.1507  16.2504  16.2504
    26.1449  26.1449  26.4811  26.4811  27.2356  27.2356  27.3204  27.3204
    27.7459  27.7459  28.3995  28.3995  28.4289  28.4289  28.6581  28.6581
    28.7492  28.7492  28.8791  28.8791  29.5088  29.5088  29.9417  29.9417
    29.9992  29.9992  30.7024  30.7025  31.6495  31.6495  31.8376  31.8376
    31.9605  31.9605  33.3364  33.3364  34.4871  34.4871  34.4906  34.4906
    35.2128  35.2128  36.4887  36.4887  36.8183  36.8183  37.6238  37.6238
    38.1675  38.1675  38.1959  38.1959  39.3682  39.3682  40.5101  40.5101
    40.7556  40.7557  40.8259  40.8262  41.9449  41.9450  42.2086  42.2087
    42.5090  42.8738  42.8742

          k =-0.4608 0.0000 0.1216 (  3710 PWs)   bands (ev):

   -33.2615 -33.2615 -33.2320 -33.2320 -33.1233 -33.1233 -32.9608 -32.9608
    -5.6149  -5.6149  -5.3705  -5.3705  -5.1755  -5.1755  -5.0222  -5.0222
    -4.8598  -4.8598  -4.5653  -4.5653  -4.4503  -4.4503  -4.1729  -4.1729
    -4.0065  -4.0065  -3.9251  -3.9251  -3.8001  -3.8001  -3.4904  -3.4904
    -1.0505  -1.0505  -0.7455  -0.7455  15.1134  15.1134  15.6213  15.6213
    15.7396  15.7396  15.9910  15.9910  16.0709  16.0709  16.2430  16.2430
    26.2542  26.2542  26.4135  26.4135  27.1855  27.1855  27.4399  27.4399
    27.8251  27.8251  28.2461  28.2461  28.5129  28.5129  28.6143  28.6143
    28.9423  28.9423  29.1072  29.1072  29.5518  29.5518  29.7674  29.7674
    30.2735  30.2735  30.4337  30.4337  31.3963  31.3963  31.6815  31.6815
    32.4115  32.4115  33.3292  33.3292  34.0797  34.0797  34.4293  34.4293
    34.6092  34.6092  36.0264  36.0264  37.4199  37.4199  38.0301  38.0301
    38.0860  38.0860  38.6286  38.6286  39.1868  39.1868  40.0857  40.0858
    40.9371  40.9372  41.2736  41.2736  41.6011  41.6011  42.0696  42.0699
    42.7501  42.7501  43.2938

          k =-0.4608 0.0000-0.2431 (  3680 PWs)   bands (ev):

   -33.2474 -33.2474 -33.2289 -33.2289 -33.1112 -33.1112 -32.9600 -32.9600
    -5.6566  -5.6566  -5.2503  -5.2503  -5.1000  -5.1000  -5.0065  -5.0065
    -4.9204  -4.9204  -4.5782  -4.5782  -4.5652  -4.5652  -4.1637  -4.1637
    -3.9415  -3.9415  -3.9352  -3.9352  -3.7828  -3.7828  -3.4819  -3.4819
    -1.0243  -1.0243  -0.7445  -0.7445  15.0915  15.0915  15.6757  15.6757
    15.8424  15.8424  15.8606  15.8606  16.0343  16.0343  16.2336  16.2336
    26.1049  26.1049  26.8932  26.8932  26.9377  26.9377  27.5042  27.5042
    27.8426  27.8426  28.0856  28.0856  28.7104  28.7104  28.7797  28.7797
    29.0329  29.0329  29.0947  29.0947  29.4288  29.4288  29.7307  29.7307
    30.4003  30.4003  30.7698  30.7698  31.1989  31.1989  31.3530  31.3530
    32.5004  32.5004  33.4136  33.4136  33.8444  33.8444  33.9486  33.9486
    34.4640  34.4640  35.8750  35.8750  37.4289  37.4289  38.0279  38.0279
    38.6118  38.6118  38.9552  38.9552  39.0545  39.0545  39.6452  39.6452
    41.2287  41.2287  41.5483  41.5483  41.8035  41.8037  42.3439  42.3441
    42.4334  42.4341  43.9458

          k =-0.4608 0.2351 0.0000 (  3686 PWs)   bands (ev):

   -33.2422 -33.2422 -33.2358 -33.2358 -33.0820 -33.0820 -33.0003 -33.0003
    -5.6198  -5.6198  -5.5866  -5.5866  -5.1348  -5.1348  -4.8678  -4.8678
    -4.6239  -4.6239  -4.5006  -4.5006  -4.3815  -4.3815  -4.2965  -4.2965
    -3.9810  -3.9810  -3.9126  -3.9126  -3.8351  -3.8351  -3.7202  -3.7202
    -0.9100  -0.9100  -0.7441  -0.7441  15.1172  15.1172  15.2620  15.2620
    15.7421  15.7421  15.7956  15.7956  15.9803  15.9803  16.1053  16.1053
    26.7403  26.7403  26.9495  26.9495  27.4762  27.4762  27.6319  27.6319
    27.9067  27.9067  27.9635  27.9635  28.7365  28.7365  28.7734  28.7734
    29.3360  29.3360  29.7108  29.7108  29.8406  29.8406  29.8583  29.8583
    30.5142  30.5142  30.7642  30.7642  31.3432  31.3432  31.8914  31.8914
    32.5074  32.5074  32.8315  32.8315  33.5761  33.5761  34.2254  34.2254
    34.5115  34.5115  36.1473  36.1473  36.5130  36.5130  37.0084  37.0084
    38.0071  38.0071  38.2218  38.2218  39.1745  39.1745  39.8309  39.8309
    40.4107  40.4107  40.5845  40.5845  40.8770  40.8771  41.6826  41.6826
    42.8779  42.8779  44.0278

          k =-0.4608 0.2351 0.1216 (  3692 PWs)   bands (ev):

   -33.2472 -33.2472 -33.2357 -33.2357 -33.0822 -33.0822 -33.0000 -33.0000
    -5.6206  -5.6206  -5.5252  -5.5252  -5.1067  -5.1067  -4.9734  -4.9734
    -4.6907  -4.6907  -4.5270  -4.5270  -4.3328  -4.3328  -4.2030  -4.2030
    -4.0015  -4.0015  -3.9482  -3.9482  -3.8321  -3.8321  -3.7285  -3.7285
    -0.8948  -0.8948  -0.7406  -0.7406  15.1015  15.1015  15.3029  15.3029
    15.7293  15.7293  15.7695  15.7695  15.9751  15.9751  16.0774  16.0774
    26.7044  26.7044  26.9519  26.9519  27.3882  27.3882  27.8169  27.8169
    27.9141  27.9141  28.2633  28.2633  28.6669  28.6669  29.0831  29.0831
    29.1886  29.1886  29.5050  29.5050  29.7406  29.7406  30.0813  30.0813
    30.3654  30.3654  30.9427  30.9427  31.2879  31.2879  31.8476  31.8476
    32.3977  32.3977  32.8903  32.8903  33.5008  33.5008  33.9836  33.9836
    34.5610  34.5610  35.4920  35.4920  36.8690  36.8690  37.3721  37.3721
    37.8255  37.8255  38.0811  38.0811  38.8578  38.8578  39.7956  39.7956
    40.3176  40.3177  40.5977  40.5977  41.0179  41.0180  41.8176  41.8176
    43.5068  43.5070  44.3184

          k =-0.4608 0.2351-0.2431 (  3704 PWs)   bands (ev):

   -33.2483 -33.2483 -33.2384 -33.2384 -33.0880 -33.0880 -33.0020 -33.0020
    -5.6223  -5.6223  -5.4500  -5.4500  -5.1587  -5.1587  -4.9222  -4.9222
    -4.8720  -4.8720  -4.5228  -4.5228  -4.2763  -4.2763  -4.1133  -4.1133
    -4.0261  -4.0261  -4.0209  -4.0209  -3.8148  -3.8148  -3.7355  -3.7355
    -0.8805  -0.8805  -0.7390  -0.7390  15.0866  15.0866  15.3475  15.3475
    15.7122  15.7122  15.7399  15.7399  15.9738  15.9738  16.0461  16.0461
    26.5585  26.5585  27.1060  27.1060  27.3925  27.3925  27.8453  27.8453
    28.2621  28.2621  28.3781  28.3781  28.4574  28.4574  29.0988  29.0988
    29.3053  29.3053  29.5777  29.5777  29.6263  29.6263  30.1295  30.1295
    30.2898  30.2898  31.1239  31.1239  31.1492  31.1492  31.8095  31.8095
    31.9490  31.9490  33.2858  33.2858  33.4922  33.4922  33.9350  33.9350
    34.3447  34.3447  35.1787  35.1787  36.7240  36.7240  37.6656  37.6656
    37.6886  37.6886  37.8843  37.8843  39.1921  39.1921  39.2255  39.2255
    40.1434  40.1434  40.7439  40.7439  41.6261  41.6261  41.7094  41.7095
    43.6382  43.6383  44.6666

     the Fermi energy is    37.6864 ev

!    total energy              =   -1913.93554558 Ry
     Harris-Foulkes estimate   =   -1913.93563467 Ry
     estimated scf accuracy    <       0.00009732 Ry

     The total energy is the sum of the following terms:

     one-electron contribution =     136.28654505 Ry
     hartree contribution      =     164.95462374 Ry
     xc contribution           =    -210.32087377 Ry
     ewald contribution        =   -2004.44709714 Ry
     smearing contrib. (-TS)   =      -0.40874346 Ry

     convergence has been achieved in   8 iterations

     Forces acting on atoms (Ry/au):

     atom    1 type  1   force =     0.00000000   -0.03331607   -0.06371728
     atom    2 type  1   force =     0.00000000    0.03331607    0.06371728
     atom    3 type  1   force =     0.00000000   -0.03331607    0.06371728
     atom    4 type  1   force =     0.00000000    0.03331607   -0.06371728
     atom    5 type  1   force =     0.00000000    0.09324714   -0.13449497
     atom    6 type  1   force =     0.00000000   -0.09324714    0.13449497
     atom    7 type  1   force =     0.00000000    0.09324714    0.13449497
     atom    8 type  1   force =     0.00000000   -0.09324714   -0.13449497
     atom    9 type  2   force =     0.00000000   -0.09322360   -0.01602224
     atom   10 type  2   force =     0.00000000    0.09322360    0.01602224
     atom   11 type  2   force =     0.00000000   -0.09322360    0.01602224
     atom   12 type  2   force =     0.00000000    0.09322360   -0.01602224

     Total force =     0.404481     Total SCF correction =     0.000000


     entering subroutine stress ...

          total   stress  (Ry/bohr**3)                   (kbar)     P= 2370.01
   0.01691803   0.00000000   0.00000000       2488.73      0.00      0.00
   0.00000000   0.01487242   0.00000000          0.00   2187.81      0.00
   0.00000000   0.00000000   0.01654251          0.00      0.00   2433.49


     number of scf cycles    =   2
     number of bfgs steps    =   1

     enthalpy old            =   -1907.2273767714 Ry
     enthalpy new            =   -1913.9355455848 Ry

     CASE: enthalpy_new < enthalpy_old

     small trust_radius: resetting bfgs history

     new trust radius        =       2.7959148936 bohr
     new conv_thr            =       0.0001000000 Ry

     new unit-cell volume =   3014.44514 a.u.^3 (   446.69468 Ang^3 )

CELL_PARAMETERS (alat=  7.01510508)
   1.544095967   0.000000000   0.000000000
   0.000000000   1.945095348   0.000000000
   0.000000000   0.000000000   2.907298731

ATOMIC_POSITIONS (crystal)
Co       0.750000000   0.822428740   0.430580357
Co       0.250000000   0.177571260   0.569419643
Co       0.750000000   0.322428740   0.069419643
Co       0.250000000   0.677571260   0.930580357
Co       0.250000000   0.547627690   0.271828192
Co       0.750000000   0.452372310   0.728171808
Co       0.250000000   0.047627690   0.228171808
Co       0.750000000   0.952372310   0.771828192
Si       0.250000000   0.192097163   0.892280842
Si       0.750000000   0.807902837   0.107719158
Si       0.250000000   0.692097163   0.607719158
Si       0.750000000   0.307902837   0.392280842



     Writing output data file Prototype-La-oP12-Co2Si.save
     NEW-OLD atomic charge density approx. for the potential
     NEW k-points:
        k(    1) = (   0.0000000   0.0000000   0.0000000), wk =   0.0833333
        k(    2) = (   0.0000000   0.0000000   0.0859905), wk =   0.1666667
        k(    3) = (   0.0000000   0.0000000  -0.1719810), wk =   0.0833333
        k(    4) = (   0.0000000   0.1713712   0.0000000), wk =   0.1666667
        k(    5) = (   0.0000000   0.1713712   0.0859905), wk =   0.3333333
        k(    6) = (   0.0000000   0.1713712  -0.1719810), wk =   0.1666667
        k(    7) = (  -0.3238141   0.0000000   0.0000000), wk =   0.0833333
        k(    8) = (  -0.3238141   0.0000000   0.0859905), wk =   0.1666667
        k(    9) = (  -0.3238141   0.0000000  -0.1719810), wk =   0.0833333
        k(   10) = (  -0.3238141   0.1713712   0.0000000), wk =   0.1666667
        k(   11) = (  -0.3238141   0.1713712   0.0859905), wk =   0.3333333
        k(   12) = (  -0.3238141   0.1713712  -0.1719810), wk =   0.1666667

     total cpu time spent up to now is      251.8 secs

     Self-consistent Calculation

     iteration #  1     ecut=    40.00 Ry     beta=0.70
     CG style diagonalization
     c_bands:  4 eigenvalues not converged
     c_bands:  2 eigenvalues not converged
     c_bands:  2 eigenvalues not converged
     c_bands:  3 eigenvalues not converged
     c_bands:  3 eigenvalues not converged
     c_bands:  1 eigenvalues not converged
     c_bands:  1 eigenvalues not converged
     ethr =  1.00E-06,  avg # of iterations = 28.5

     total cpu time spent up to now is      332.9 secs

     total energy              =   -1796.48460942 Ry
     Harris-Foulkes estimate   =   -2095.58340676 Ry
     estimated scf accuracy    <     382.55159377 Ry

     iteration #  2     ecut=    40.00 Ry     beta=0.70
     CG style diagonalization
     ethr =  1.00E-02,  avg # of iterations =  6.6

     total cpu time spent up to now is      351.6 secs

     total energy              =   -1787.26387371 Ry
     Harris-Foulkes estimate   =   -1977.00110318 Ry
     estimated scf accuracy    <     340.05773450 Ry

     iteration #  3     ecut=    40.00 Ry     beta=0.70
     CG style diagonalization
     ethr =  1.00E-02,  avg # of iterations =  9.7

     total cpu time spent up to now is      376.0 secs

     total energy              =   -1903.45334674 Ry
     Harris-Foulkes estimate   =   -1934.77592463 Ry
     estimated scf accuracy    <      76.74421492 Ry

     iteration #  4     ecut=    40.00 Ry     beta=0.70
     CG style diagonalization
     ethr =  1.00E-02,  avg # of iterations =  3.8

     total cpu time spent up to now is      385.3 secs

     total energy              =   -1906.87617058 Ry
     Harris-Foulkes estimate   =   -1910.69998946 Ry
     estimated scf accuracy    <      18.38647419 Ry

     iteration #  5     ecut=    40.00 Ry     beta=0.70
     CG style diagonalization
     ethr =  9.58E-03,  avg # of iterations =  3.0

     total cpu time spent up to now is      392.3 secs

     total energy              =   -1904.04316070 Ry
     Harris-Foulkes estimate   =   -1907.35198231 Ry
     estimated scf accuracy    <      11.39156180 Ry

     iteration #  6     ecut=    40.00 Ry     beta=0.70
     CG style diagonalization
     ethr =  5.93E-03,  avg # of iterations =  3.3

     total cpu time spent up to now is      400.5 secs

     total energy              =   -1903.05462206 Ry
     Harris-Foulkes estimate   =   -1904.68017148 Ry
     estimated scf accuracy    <       3.65678053 Ry

     iteration #  7     ecut=    40.00 Ry     beta=0.70
     CG style diagonalization
     c_bands:  1 eigenvalues not converged
     ethr =  1.90E-03,  avg # of iterations =  4.7

     total cpu time spent up to now is      413.5 secs

     total energy              =   -1904.22763176 Ry
     Harris-Foulkes estimate   =   -1904.63648481 Ry
     estimated scf accuracy    <       2.23300605 Ry

     iteration #  8     ecut=    40.00 Ry     beta=0.70
     CG style diagonalization
     c_bands:  1 eigenvalues not converged
     c_bands:  1 eigenvalues not converged
     ethr =  1.16E-03,  avg # of iterations =  3.2

     total cpu time spent up to now is      422.2 secs

     total energy              =   -1904.31489929 Ry
     Harris-Foulkes estimate   =   -1904.41759580 Ry
     estimated scf accuracy    <       0.55231376 Ry

     iteration #  9     ecut=    40.00 Ry     beta=0.70
     CG style diagonalization
     ethr =  2.88E-04,  avg # of iterations =  3.5

     total cpu time spent up to now is      431.2 secs

     total energy              =   -1904.36761126 Ry
     Harris-Foulkes estimate   =   -1904.38191059 Ry
     estimated scf accuracy    <       0.03572726 Ry

     iteration # 10     ecut=    40.00 Ry     beta=0.70
     CG style diagonalization
     c_bands:  1 eigenvalues not converged
     c_bands:  3 eigenvalues not converged
     c_bands:  1 eigenvalues not converged
     ethr =  1.86E-05,  avg # of iterations =  4.6

     total cpu time spent up to now is      443.6 secs

     total energy              =   -1904.39060654 Ry
     Harris-Foulkes estimate   =   -1904.40176010 Ry
     estimated scf accuracy    <       0.04180702 Ry

     iteration # 11     ecut=    40.00 Ry     beta=0.70
     CG style diagonalization
     ethr =  1.86E-05,  avg # of iterations =  3.0

     total cpu time spent up to now is      451.2 secs

     total energy              =   -1904.39335953 Ry
     Harris-Foulkes estimate   =   -1904.39447662 Ry
     estimated scf accuracy    <       0.00252413 Ry

     iteration # 12     ecut=    40.00 Ry     beta=0.70
     CG style diagonalization
     c_bands:  1 eigenvalues not converged
     ethr =  1.31E-06,  avg # of iterations =  4.5

     total cpu time spent up to now is      462.3 secs

     total energy              =   -1904.39442499 Ry
     Harris-Foulkes estimate   =   -1904.39542587 Ry
     estimated scf accuracy    <       0.00389570 Ry

     iteration # 13     ecut=    40.00 Ry     beta=0.70
     CG style diagonalization
     ethr =  1.31E-06,  avg # of iterations =  3.2

     total cpu time spent up to now is      469.7 secs

     total energy              =   -1904.39478776 Ry
     Harris-Foulkes estimate   =   -1904.39480500 Ry
     estimated scf accuracy    <       0.00012164 Ry

     iteration # 14     ecut=    40.00 Ry     beta=0.70
     CG style diagonalization
     ethr =  6.34E-08,  avg # of iterations =  4.2

     total cpu time spent up to now is      479.0 secs

     End of self-consistent calculation

          k = 0.0000 0.0000 0.0000 (  3675 PWs)   bands (ev):

   -52.7897 -52.7463 -52.7228 -52.6633 -52.5981 -52.5264 -52.4763 -52.4118
   -28.6397 -28.6362 -28.6209 -28.6171 -27.4506 -27.4495 -27.4491 -27.4490
   -27.4152 -27.4149 -27.4133 -27.4130 -27.4127 -27.4106 -27.4106 -27.4099
   -27.3406 -27.3399 -27.3375 -27.3370 -27.3296 -27.3287 -27.3017 -27.3001
   -27.2785 -27.2779 -27.2420 -27.2419  -9.5655  -9.5178  -9.5024  -9.4798
    -9.4565  -9.4551  -9.4520  -9.4457  -9.4390  -9.4280  -9.4234  -9.3867
     6.7140   7.1048   7.2609   7.2694   7.2790   7.3053   7.3192   7.3299
     7.3524   7.3536   7.4080   7.5163   7.5657   7.5852   7.6840   7.7319
     7.8352   7.8844   7.8964   7.8973   7.9635   8.0089   8.0235   8.1206
     8.1744   8.1894   8.2121   8.2249   8.2848   8.2976   8.3480   8.3487
     8.4308   8.4972   8.5703   8.5786   8.6595   8.8007   8.8599   8.8637
     8.8842   8.9242   9.1768   9.3194  10.2092  10.4023  10.5767  10.6545
    10.7320  11.0854  11.3773  11.3939  11.4304  11.4877  11.4963  11.5123
    11.7180  11.8729  12.0467  12.0749  12.0909  12.2194  12.2625  12.2668
    12.3582  13.3750  13.7140

          k = 0.0000 0.0000 0.0860 (  3675 PWs)   bands (ev):

   -52.7997 -52.7621 -52.7309 -52.6591 -52.5525 -52.5380 -52.5224 -52.3643
   -28.6471 -28.6350 -28.6295 -28.5966 -27.4504 -27.4504 -27.4492 -27.4490
   -27.4157 -27.4154 -27.4133 -27.4130 -27.4129 -27.4114 -27.4103 -27.4101
   -27.3408 -27.3400 -27.3373 -27.3373 -27.3296 -27.3292 -27.3016 -27.3004
   -27.2790 -27.2777 -27.2429 -27.2425  -9.5593  -9.5332  -9.5274  -9.4945
    -9.4837  -9.4627  -9.4273  -9.4271  -9.4187  -9.4120  -9.4087  -9.3970
     6.8224   7.1439   7.1822   7.1893   7.2521   7.2800   7.2977   7.3791
     7.4017   7.4345   7.4852   7.5029   7.5929   7.6006   7.7213   7.7218
     7.7357   7.7921   7.9143   7.9205   7.9643   8.0059   8.0064   8.0114
     8.0125   8.1420   8.1807   8.1923   8.3169   8.3351   8.3396   8.4511
     8.4597   8.4880   8.5904   8.6925   8.7193   8.7813   8.8000   8.8027
     8.8744   8.9048   9.2914   9.4063  10.0645  10.1173  10.7828  10.7982
    10.8270  11.1290  11.2465  11.3055  11.3583  11.4603  11.5217  11.5532
    11.5648  11.6627  12.0475  12.0779  12.2344  12.3091  12.3377  12.3768
    13.0405  13.2444  13.5063

          k = 0.0000 0.0000-0.1720 (  3690 PWs)   bands (ev):

   -52.8466 -52.8466 -52.6806 -52.6806 -52.5925 -52.5925 -52.4708 -52.4708
   -28.6481 -28.6481 -28.6243 -28.6243 -27.4511 -27.4511 -27.4499 -27.4499
   -27.4165 -27.4165 -27.4139 -27.4139 -27.4123 -27.4123 -27.4102 -27.4102
   -27.3404 -27.3404 -27.3375 -27.3375 -27.3305 -27.3305 -27.3018 -27.3018
   -27.2790 -27.2790 -27.2435 -27.2435  -9.5689  -9.5689  -9.5335  -9.5335
    -9.4733  -9.4733  -9.4348  -9.4348  -9.4110  -9.4110  -9.4046  -9.4046
     7.0753   7.0753   7.1421   7.1421   7.2570   7.2570   7.2616   7.2616
     7.4759   7.4759   7.5265   7.5265   7.5692   7.5692   7.7127   7.7127
     7.7677   7.7677   7.8633   7.8633   7.8916   7.8916   7.9883   7.9883
     8.0801   8.0801   8.2095   8.2095   8.3301   8.3301   8.3748   8.3748
     8.5278   8.5278   8.6515   8.6515   8.7202   8.7202   8.7836   8.7836
     8.8999   8.8999   9.4382   9.4382   9.9223   9.9223  10.9513  10.9513
    11.0027  11.0027  11.2384  11.2384  11.2680  11.2680  11.4749  11.4749
    11.5927  11.5927  12.1411  12.1411  12.1886  12.1886  12.8402  12.8403
    12.9834  12.9834  13.7554

          k = 0.0000 0.1714 0.0000 (  3664 PWs)   bands (ev):

   -52.7640 -52.7178 -52.7051 -52.6840 -52.5352 -52.4865 -52.4318 -52.4121
   -28.6574 -28.6409 -28.5897 -28.5858 -27.4498 -27.4497 -27.4486 -27.4481
   -27.4146 -27.4142 -27.4131 -27.4120 -27.4120 -27.4120 -27.4102 -27.4099
   -27.3404 -27.3392 -27.3387 -27.3381 -27.3193 -27.3180 -27.3059 -27.3049
   -27.2721 -27.2711 -27.2543 -27.2533  -9.5409  -9.5303  -9.5069  -9.5019
    -9.4729  -9.4626  -9.4449  -9.4258  -9.4156  -9.4010  -9.3991  -9.3814
     7.0914   7.2728   7.3388   7.3776   7.4198   7.4210   7.4426   7.4585
     7.5105   7.5151   7.5233   7.5886   7.6117   7.6784   7.7176   7.7402
     7.7682   7.7732   7.8344   7.8780   7.9387   7.9416   8.0122   8.0782
     8.1204   8.1616   8.1975   8.2409   8.2728   8.3278   8.3614   8.4018
     8.4202   8.4769   8.5290   8.5847   8.6485   8.6975   8.7196   8.8551
     8.9128   8.9635   9.1466   9.2140  10.0101  10.1867  10.3259  10.6224
    10.6483  10.8077  10.8132  11.0490  11.0967  11.3588  11.4728  11.5231
    11.6680  11.7169  11.8863  11.9252  11.9996  12.0459  12.0887  12.1679
    12.3872  12.5360  13.8517

          k = 0.0000 0.1714 0.0860 (  3669 PWs)   bands (ev):

   -52.8165 -52.7378 -52.6841 -52.6643 -52.5559 -52.4888 -52.4433 -52.4404
   -28.6487 -28.6366 -28.6137 -28.5934 -27.4500 -27.4498 -27.4488 -27.4481
   -27.4150 -27.4144 -27.4129 -27.4125 -27.4122 -27.4119 -27.4102 -27.4099
   -27.3403 -27.3394 -27.3385 -27.3380 -27.3193 -27.3185 -27.3059 -27.3050
   -27.2723 -27.2714 -27.2544 -27.2535  -9.5572  -9.5361  -9.5192  -9.5065
    -9.4679  -9.4601  -9.4374  -9.4372  -9.4260  -9.4049  -9.3862  -9.3840
     7.1662   7.2754   7.2944   7.3550   7.3891   7.4118   7.4172   7.4886
     7.5459   7.5615   7.5893   7.6438   7.6462   7.6902   7.7152   7.7276
     7.7456   7.7743   7.8044   7.9036   7.9264   7.9692   8.0176   8.0325
     8.0910   8.1253   8.1416   8.2187   8.2478   8.3004   8.3311   8.4348
     8.4411   8.4639   8.5419   8.5622   8.6612   8.6882   8.7244   8.8184
     8.8601   8.9060   8.9668   9.3850   9.7672  10.2227  10.5614  10.6682
    10.6874  10.7754  10.8352  11.0219  11.0460  11.2106  11.4334  11.5386
    11.7336  11.7454  11.8545  11.9680  11.9918  12.0907  12.1607  12.2610
    12.5301  12.8444  14.0056

          k = 0.0000 0.1714-0.1720 (  3666 PWs)   bands (ev):

   -52.7420 -52.7420 -52.6341 -52.6341 -52.5293 -52.5293 -52.4826 -52.4826
   -28.6300 -28.6300 -28.6119 -28.6119 -27.4501 -27.4501 -27.4482 -27.4482
   -27.4151 -27.4151 -27.4125 -27.4125 -27.4118 -27.4118 -27.4099 -27.4099
   -27.3398 -27.3398 -27.3382 -27.3382 -27.3189 -27.3189 -27.3055 -27.3055
   -27.2717 -27.2717 -27.2541 -27.2541  -9.5499  -9.5499  -9.5080  -9.5080
    -9.4509  -9.4509  -9.4258  -9.4258  -9.4219  -9.4219  -9.3946  -9.3946
     7.2257   7.2257   7.3728   7.3728   7.3728   7.3728   7.4737   7.4737
     7.5725   7.5725   7.6429   7.6429   7.6726   7.6726   7.7022   7.7022
     7.7343   7.7343   7.8826   7.8826   7.9855   7.9855   7.9886   7.9886
     8.0585   8.0585   8.1611   8.1611   8.2655   8.2655   8.3776   8.3776
     8.4665   8.4665   8.5604   8.5604   8.6611   8.6611   8.7574   8.7574
     8.8921   8.8921   9.0620   9.0620  10.0004  10.0004  10.6967  10.6967
    10.8406  10.8406  10.8823  10.8823  10.9979  10.9979  11.4854  11.4854
    11.8117  11.8117  11.8511  11.8511  12.0732  12.0732  12.2667  12.2667
    13.1735  13.1735  13.6825

          k =-0.3238 0.0000 0.0000 (  3722 PWs)   bands (ev):

   -52.8377 -52.8377 -52.7655 -52.7655 -52.6759 -52.6759 -52.6327 -52.6327
   -28.6733 -28.6733 -28.6724 -28.6724 -27.4510 -27.4510 -27.4507 -27.4507
   -27.4162 -27.4162 -27.4159 -27.4159 -27.4087 -27.4087 -27.4083 -27.4083
   -27.3392 -27.3392 -27.3356 -27.3356 -27.3316 -27.3316 -27.3018 -27.3018
   -27.2781 -27.2781 -27.2432 -27.2432  -9.5611  -9.5611  -9.5240  -9.5240
    -9.4954  -9.4954  -9.4710  -9.4710  -9.4629  -9.4629  -9.4329  -9.4329
     7.1082   7.1082   7.2741   7.2741   7.4124   7.4124   7.4318   7.4318
     7.5169   7.5169   7.5714   7.5714   7.6806   7.6806   7.7463   7.7463
     7.7539   7.7539   7.7894   7.7894   7.8220   7.8220   7.9453   7.9453
     8.0702   8.0702   8.1848   8.1848   8.2532   8.2532   8.4185   8.4185
     8.4500   8.4500   8.6578   8.6578   8.6599   8.6599   8.8301   8.8301
     8.9960   8.9960   9.8021   9.8021   9.9375   9.9375  10.7158  10.7158
    10.9545  10.9545  11.0943  11.0943  11.2605  11.2605  11.5552  11.5552
    11.5752  11.5752  11.7133  11.7133  12.0930  12.0930  12.3221  12.3221
    12.3308  12.3308  12.3936

          k =-0.3238 0.0000 0.0860 (  3710 PWs)   bands (ev):

   -52.7849 -52.7849 -52.7647 -52.7647 -52.6372 -52.6372 -52.6091 -52.6091
   -28.6645 -28.6645 -28.6576 -28.6576 -27.4510 -27.4510 -27.4508 -27.4508
   -27.4165 -27.4165 -27.4158 -27.4158 -27.4089 -27.4089 -27.4082 -27.4082
   -27.3393 -27.3393 -27.3355 -27.3355 -27.3312 -27.3312 -27.3015 -27.3015
   -27.2785 -27.2785 -27.2437 -27.2437  -9.5543  -9.5543  -9.5152  -9.5152
    -9.4862  -9.4862  -9.4719  -9.4719  -9.4465  -9.4465  -9.4307  -9.4307
     7.1321   7.1321   7.2688   7.2688   7.4166   7.4166   7.4588   7.4588
     7.5027   7.5027   7.6111   7.6111   7.6642   7.6642   7.7102   7.7102
     7.7914   7.7914   7.8551   7.8551   7.8778   7.8778   7.9782   7.9782
     8.0689   8.0689   8.1404   8.1404   8.2701   8.2701   8.3672   8.3672
     8.4559   8.4559   8.6339   8.6339   8.6532   8.6532   8.7981   8.7981
     8.9899   8.9899   9.4026   9.4026  10.2216  10.2216  10.9338  10.9338
    10.9919  10.9919  11.1025  11.1025  11.2595  11.2595  11.4687  11.4687
    11.5646  11.5646  11.6992  11.6992  12.0558  12.0558  12.2498  12.2498
    12.3524  12.3524  12.7530

          k =-0.3238 0.0000-0.1720 (  3680 PWs)   bands (ev):

   -52.7096 -52.7096 -52.7095 -52.7095 -52.5789 -52.5789 -52.5184 -52.5184
   -28.6417 -28.6417 -28.6261 -28.6261 -27.4507 -27.4507 -27.4503 -27.4503
   -27.4161 -27.4161 -27.4159 -27.4159 -27.4089 -27.4089 -27.4081 -27.4081
   -27.3392 -27.3392 -27.3354 -27.3354 -27.3313 -27.3313 -27.3009 -27.3009
   -27.2781 -27.2781 -27.2434 -27.2434  -9.5465  -9.5465  -9.5188  -9.5188
    -9.4609  -9.4609  -9.4449  -9.4449  -9.4277  -9.4277  -9.4014  -9.4014
     7.1582   7.1582   7.3448   7.3448   7.3550   7.3550   7.4272   7.4272
     7.5516   7.5516   7.5770   7.5770   7.7177   7.7177   7.7812   7.7812
     7.8026   7.8026   7.8851   7.8851   7.9583   7.9583   8.0056   8.0056
     8.0704   8.0704   8.0848   8.0848   8.2531   8.2531   8.3641   8.3641
     8.5056   8.5056   8.5436   8.5436   8.6808   8.6808   8.8071   8.8071
     8.9807   8.9807   9.2303   9.2303  10.3142  10.3142  11.0058  11.0058
    11.1007  11.1007  11.1521  11.1521  11.1949  11.1949  11.3726  11.3726
    11.6444  11.6444  11.8463  11.8463  11.9207  11.9207  12.2647  12.2647
    12.3788  12.3788  13.1550

          k =-0.3238 0.1714 0.0000 (  3686 PWs)   bands (ev):

   -52.7263 -52.7263 -52.7064 -52.7064 -52.6029 -52.6029 -52.5674 -52.5674
   -28.6568 -28.6568 -28.6369 -28.6369 -27.4493 -27.4493 -27.4493 -27.4493
   -27.4138 -27.4138 -27.4134 -27.4134 -27.4087 -27.4087 -27.4079 -27.4079
   -27.3379 -27.3379 -27.3360 -27.3360 -27.3189 -27.3189 -27.3055 -27.3055
   -27.2707 -27.2707 -27.2536 -27.2536  -9.5309  -9.5309  -9.5117  -9.5117
    -9.4728  -9.4728  -9.4503  -9.4503  -9.4345  -9.4345  -9.4307  -9.4307
     7.2655   7.2655   7.4421   7.4421   7.4993   7.4993   7.5398   7.5398
     7.6559   7.6559   7.7012   7.7012   7.8031   7.8031   7.8217   7.8217
     7.8585   7.8585   7.8799   7.8799   7.9340   7.9340   8.0233   8.0233
     8.0338   8.0338   8.0623   8.0623   8.2034   8.2034   8.2795   8.2795
     8.3553   8.3553   8.5531   8.5531   8.6322   8.6322   8.8239   8.8239
     8.9607   8.9607   9.7293   9.7293   9.9680   9.9680  10.2076  10.2076
    10.7615  10.7615  10.7877  10.7877  11.2836  11.2836  11.4043  11.4043
    11.5540  11.5540  11.7154  11.7154  11.8328  11.8328  11.9673  11.9673
    12.5731  12.5731  12.6857

          k =-0.3238 0.1714 0.0860 (  3692 PWs)   bands (ev):

   -52.7361 -52.7361 -52.7136 -52.7136 -52.6142 -52.6142 -52.5836 -52.5836
   -28.6629 -28.6629 -28.6361 -28.6361 -27.4499 -27.4499 -27.4494 -27.4494
   -27.4143 -27.4143 -27.4137 -27.4137 -27.4087 -27.4087 -27.4083 -27.4083
   -27.3381 -27.3381 -27.3361 -27.3361 -27.3195 -27.3195 -27.3058 -27.3058
   -27.2712 -27.2712 -27.2538 -27.2538  -9.5574  -9.5574  -9.5122  -9.5122
    -9.4688  -9.4688  -9.4545  -9.4545  -9.4334  -9.4334  -9.4242  -9.4242
     7.2889   7.2889   7.4066   7.4066   7.5327   7.5327   7.5899   7.5899
     7.6576   7.6576   7.6924   7.6924   7.7218   7.7218   7.7999   7.7999
     7.8501   7.8501   7.9175   7.9175   7.9723   7.9723   8.0269   8.0269
     8.0508   8.0508   8.1194   8.1194   8.2152   8.2152   8.2584   8.2584
     8.3635   8.3635   8.5195   8.5195   8.5843   8.5843   8.7800   8.7800
     8.9869   8.9869   9.4033   9.4033  10.0789  10.0789  10.3144  10.3144
    10.7249  10.7249  10.9420  10.9420  11.1597  11.1597  11.4638  11.4638
    11.5657  11.5657  11.7594  11.7594  11.7968  11.7968  11.9562  11.9562
    12.6210  12.6210  12.7887

          k =-0.3238 0.1714-0.1720 (  3704 PWs)   bands (ev):

   -52.7636 -52.7636 -52.7459 -52.7459 -52.6256 -52.6256 -52.6160 -52.6160
   -28.6768 -28.6768 -28.6387 -28.6387 -27.4504 -27.4504 -27.4502 -27.4502
   -27.4149 -27.4149 -27.4145 -27.4145 -27.4089 -27.4089 -27.4085 -27.4085
   -27.3383 -27.3383 -27.3361 -27.3361 -27.3201 -27.3201 -27.3062 -27.3062
   -27.2718 -27.2718 -27.2545 -27.2545  -9.5758  -9.5758  -9.5330  -9.5330
    -9.4679  -9.4679  -9.4568  -9.4568  -9.4444  -9.4444  -9.4147  -9.4147
     7.2907   7.2907   7.4811   7.4811   7.4846   7.4846   7.5691   7.5691
     7.6236   7.6236   7.7358   7.7358   7.7431   7.7431   7.7882   7.7882
     7.8115   7.8115   7.9431   7.9431   7.9585   7.9585   8.0514   8.0514
     8.0650   8.0650   8.1204   8.1204   8.2253   8.2253   8.2723   8.2723
     8.3748   8.3748   8.4903   8.4903   8.5269   8.5269   8.7293   8.7293
     9.0777   9.0777   9.1379   9.1379  10.1227  10.1227  10.3101  10.3101
    10.8582  10.8582  10.9401  10.9401  11.1149  11.1149  11.4239  11.4239
    11.6711  11.6711  11.7280  11.7280  11.8399  11.8399  11.9320  11.9320
    12.7271  12.7497  12.7524

     the Fermi energy is    10.4467 ev

!    total energy              =   -1904.39481183 Ry
     Harris-Foulkes estimate   =   -1904.39483153 Ry
     estimated scf accuracy    <       0.00002162 Ry

     The total energy is the sum of the following terms:

     one-electron contribution =    -681.74941496 Ry
     hartree contribution      =     401.37996527 Ry
     xc contribution           =    -194.25249618 Ry
     ewald contribution        =   -1428.83947725 Ry
     smearing contrib. (-TS)   =      -0.93338870 Ry

     convergence has been achieved in  14 iterations

     Forces acting on atoms (Ry/au):

     atom    1 type  1   force =     0.00000000   -0.00554269   -0.00252287
     atom    2 type  1   force =     0.00000000    0.00554269    0.00252287
     atom    3 type  1   force =     0.00000000   -0.00554269    0.00252287
     atom    4 type  1   force =     0.00000000    0.00554269   -0.00252287
     atom    5 type  1   force =     0.00000000   -0.00253255    0.00954392
     atom    6 type  1   force =     0.00000000    0.00253255   -0.00954392
     atom    7 type  1   force =     0.00000000   -0.00253255   -0.00954392
     atom    8 type  1   force =     0.00000000    0.00253255    0.00954392
     atom    9 type  2   force =     0.00000000   -0.00149812   -0.00338558
     atom   10 type  2   force =     0.00000000    0.00149812    0.00338558
     atom   11 type  2   force =     0.00000000   -0.00149812    0.00338558
     atom   12 type  2   force =     0.00000000    0.00149812   -0.00338558

     Total force =     0.024355     Total SCF correction =     0.000000


     entering subroutine stress ...

          total   stress  (Ry/bohr**3)                   (kbar)     P=-1322.84
  -0.00932530   0.00000000   0.00000000      -1371.80      0.00      0.00
   0.00000000  -0.00851915   0.00000000          0.00  -1253.21      0.00
   0.00000000   0.00000000  -0.00913292          0.00      0.00  -1343.50


     number of scf cycles    =   3
     number of bfgs steps    =   2

     enthalpy old            =   -1913.9355455848 Ry
     enthalpy new            =   -1904.3948118269 Ry

     CASE: enthalpy_new > enthalpy_old

     new trust radius        =       1.1302738921 bohr

     trust_radius < trust_radius_min

     resetting bfgs history

     Message from routine bfgs:
     history already reset at previous step: stopping
     new conv_thr            =       0.0001000000 Ry

     new unit-cell volume =   1301.40896 a.u.^3 (   192.84891 Ang^3 )

CELL_PARAMETERS (alat=  7.01510508)
   1.155445569   0.000000000   0.000000000
   0.000000000   1.492964710   0.000000000
   0.000000000   0.000000000   2.185305789

ATOMIC_POSITIONS (crystal)
Co       0.750000000   0.825406615   0.434535158
Co       0.250000000   0.174593385   0.565464842
Co       0.750000000   0.325406615   0.065464842
Co       0.250000000   0.674593385   0.934535158
Co       0.250000000   0.539293024   0.280176020
Co       0.750000000   0.460706976   0.719823980
Co       0.250000000   0.039293024   0.219823980
Co       0.750000000   0.960706976   0.780176020
Si       0.250000000   0.200429725   0.893275310
Si       0.750000000   0.799570275   0.106724690
Si       0.250000000   0.700429725   0.606724690
Si       0.750000000   0.299570275   0.393275310



     Writing output data file Prototype-La-oP12-Co2Si.save
     NEW-OLD atomic charge density approx. for the potential
     NEW k-points:
        k(    1) = (   0.0000000   0.0000000   0.0000000), wk =   0.0833333
        k(    2) = (   0.0000000   0.0000000   0.1144005), wk =   0.1666667
        k(    3) = (   0.0000000   0.0000000  -0.2288009), wk =   0.0833333
        k(    4) = (   0.0000000   0.2232694   0.0000000), wk =   0.1666667
        k(    5) = (   0.0000000   0.2232694   0.1144005), wk =   0.3333333
        k(    6) = (   0.0000000   0.2232694  -0.2288009), wk =   0.1666667
        k(    7) = (  -0.4327335   0.0000000   0.0000000), wk =   0.0833333
        k(    8) = (  -0.4327335   0.0000000   0.1144005), wk =   0.1666667
        k(    9) = (  -0.4327335   0.0000000  -0.2288009), wk =   0.0833333
        k(   10) = (  -0.4327335   0.2232694   0.0000000), wk =   0.1666667
        k(   11) = (  -0.4327335   0.2232694   0.1144005), wk =   0.3333333
        k(   12) = (  -0.4327335   0.2232694  -0.2288009), wk =   0.1666667

     total cpu time spent up to now is      483.9 secs

     Self-consistent Calculation

     iteration #  1     ecut=    40.00 Ry     beta=0.70
     CG style diagonalization
     c_bands:  1 eigenvalues not converged
     c_bands:  1 eigenvalues not converged
     c_bands:  2 eigenvalues not converged
     c_bands:  1 eigenvalues not converged
     c_bands:  1 eigenvalues not converged
     c_bands:  1 eigenvalues not converged
     c_bands:  4 eigenvalues not converged
     c_bands:  3 eigenvalues not converged
     ethr =  1.00E-06,  avg # of iterations = 35.2

     total cpu time spent up to now is      565.8 secs

     total energy              =   -1800.67411546 Ry
     Harris-Foulkes estimate   =   -2085.23131931 Ry
     estimated scf accuracy    <     354.06927077 Ry

     iteration #  2     ecut=    40.00 Ry     beta=0.70
     CG style diagonalization
     c_bands:  1 eigenvalues not converged
     ethr =  1.00E-02,  avg # of iterations =  9.0

     total cpu time spent up to now is      590.4 secs

     total energy              =   -1884.20365249 Ry
     Harris-Foulkes estimate   =   -1966.55939291 Ry
     estimated scf accuracy    <     130.13542666 Ry

     iteration #  3     ecut=    40.00 Ry     beta=0.70
     CG style diagonalization
     ethr =  1.00E-02,  avg # of iterations =  5.5

     total cpu time spent up to now is      604.7 secs

     total energy              =   -1911.91026583 Ry
     Harris-Foulkes estimate   =   -1918.18466273 Ry
     estimated scf accuracy    <      10.66173532 Ry

     iteration #  4     ecut=    40.00 Ry     beta=0.70
     CG style diagonalization
     ethr =  5.55E-03,  avg # of iterations =  3.9

     total cpu time spent up to now is      614.9 secs

     total energy              =   -1914.96689969 Ry
     Harris-Foulkes estimate   =   -1916.81175962 Ry
     estimated scf accuracy    <       3.97211232 Ry

     iteration #  5     ecut=    40.00 Ry     beta=0.70
     CG style diagonalization
     ethr =  2.07E-03,  avg # of iterations =  3.6

     total cpu time spent up to now is      625.3 secs

     total energy              =   -1915.80739086 Ry
     Harris-Foulkes estimate   =   -1915.92375040 Ry
     estimated scf accuracy    <       0.18126250 Ry

     iteration #  6     ecut=    40.00 Ry     beta=0.70
     CG style diagonalization
     c_bands:  1 eigenvalues not converged
     c_bands:  1 eigenvalues not converged
     ethr =  9.44E-05,  avg # of iterations =  4.6

     total cpu time spent up to now is      639.5 secs

     total energy              =   -1915.87314166 Ry
     Harris-Foulkes estimate   =   -1915.93712580 Ry
     estimated scf accuracy    <       0.14346341 Ry

     iteration #  7     ecut=    40.00 Ry     beta=0.70
     CG style diagonalization
     ethr =  7.47E-05,  avg # of iterations =  3.4

     total cpu time spent up to now is      648.9 secs

     total energy              =   -1915.89943837 Ry
     Harris-Foulkes estimate   =   -1915.90341462 Ry
     estimated scf accuracy    <       0.00922298 Ry

     iteration #  8     ecut=    40.00 Ry     beta=0.70
     CG style diagonalization
     c_bands:  1 eigenvalues not converged
     c_bands:  1 eigenvalues not converged
     ethr =  4.80E-06,  avg # of iterations =  4.1

     total cpu time spent up to now is      660.2 secs

     total energy              =   -1915.90143855 Ry
     Harris-Foulkes estimate   =   -1915.90166029 Ry
     estimated scf accuracy    <       0.00046955 Ry

     iteration #  9     ecut=    40.00 Ry     beta=0.70
     CG style diagonalization
     ethr =  2.45E-07,  avg # of iterations =  4.5

     total cpu time spent up to now is      670.9 secs

     End of self-consistent calculation

          k = 0.0000 0.0000 0.0000 (  3675 PWs)   bands (ev):

   -38.7872 -38.7485 -38.7474 -38.7425 -38.6654 -38.6135 -38.5343 -38.5304
   -10.5843 -10.3723 -10.3325 -10.2962 -10.1912 -10.1740 -10.0737 -10.0331
   -10.0051  -9.9623  -9.8724  -9.8382  -9.8081  -9.8041  -9.7300  -9.7074
    -9.6735  -9.5951  -9.5715  -9.5633  -9.5632  -9.4253  -9.2256  -9.2013
    -7.7580  -7.4767  -7.3792  -7.3771   9.4953   9.6422   9.6517   9.6877
     9.8201   9.8552   9.9462   9.9601   9.9715  10.2186  10.2528  10.5726
    20.9715  21.2964  21.3590  21.6121  21.6830  21.7377  21.7904  22.2266
    22.2591  22.7757  22.8673  23.0177  23.3692  23.4088  23.5106  23.7228
    23.8560  24.1216  24.2419  24.5818  24.6945  24.9599  25.1810  25.4141
    25.4172  25.4557  25.5445  25.6349  25.6888  26.0231  26.1294  26.3226
    26.5756  26.6335  26.7265  26.8130  27.0299  27.4821  27.6819  27.8629
    28.4304  28.4343  28.6559  28.8540  30.0526  30.2906  30.6351  31.3429
    31.5312  31.5375  31.6848  32.3259  33.0030  33.1176  33.3748  33.4521
    33.4662  34.0266  34.4124  34.6942  35.0387  35.1387  35.2450  35.3535
    35.7316  36.5410  36.7796

          k = 0.0000 0.0000 0.1144 (  3675 PWs)   bands (ev):

   -38.7732 -38.7605 -38.7497 -38.7401 -38.6586 -38.6434 -38.5419 -38.5003
   -10.5654 -10.4168 -10.2940 -10.2715 -10.1996 -10.1434 -10.1430 -10.0623
    -9.9500  -9.9490  -9.9050  -9.8443  -9.8131  -9.7838  -9.7317  -9.6944
    -9.6617  -9.5838  -9.5751  -9.5588  -9.5557  -9.4935  -9.2279  -9.2125
    -7.6899  -7.4561  -7.4336  -7.3759   9.5353   9.6216   9.6393   9.7461
     9.7467   9.8336   9.9695   9.9766   9.9806  10.1346  10.3313  10.5310
    21.0754  21.1872  21.4265  21.4686  21.4732  21.7127  22.0753  22.3008
    22.5374  22.7235  23.0948  23.1803  23.4180  23.4385  23.7778  23.8230
    23.8688  24.0530  24.3295  24.6097  24.7041  24.8017  24.9956  25.0075
    25.0804  25.1297  25.5646  25.6622  25.7217  25.8601  26.0389  26.1615
    26.4831  26.7072  26.8549  27.0205  27.1516  27.5333  27.6424  28.0378
    28.0661  28.0883  28.5194  29.2975  29.8054  29.9412  31.0069  31.4962
    31.5189  31.5603  32.0488  32.7014  32.7255  32.7770  33.2179  33.4486
    33.5668  33.8480  34.1579  34.8339  34.8433  35.2521  35.3220  35.5943
    36.7743  36.9652  37.1571

          k = 0.0000 0.0000-0.2288 (  3690 PWs)   bands (ev):

   -38.7791 -38.7791 -38.7582 -38.7582 -38.6420 -38.6420 -38.5309 -38.5309
   -10.5149 -10.5149 -10.2173 -10.2173 -10.2137 -10.2137 -10.1164 -10.1164
    -9.9404  -9.9404  -9.8580  -9.8580  -9.7969  -9.7969  -9.7179  -9.7179
    -9.6341  -9.6341  -9.5912  -9.5912  -9.5570  -9.5570  -9.2299  -9.2299
    -7.5525  -7.5525  -7.4119  -7.4119   9.6211   9.6211   9.6315   9.6315
     9.7973   9.7973   9.9924   9.9924  10.0234  10.0234  10.4319  10.4319
    21.1804  21.1804  21.2210  21.2210  21.6599  21.6599  22.6608  22.6608
    22.7052  22.7052  23.0281  23.0281  23.5183  23.5183  23.9366  23.9366
[...]
     CG style diagonalization
     ethr =  2.16E-03,  avg # of iterations =  4.1

     total cpu time spent up to now is     1075.1 secs

     total energy              =   -1918.08685952 Ry
     Harris-Foulkes estimate   =   -1918.13789991 Ry
     estimated scf accuracy    <       0.08592672 Ry

     iteration #  7     ecut=    40.00 Ry     beta=0.70
     CG style diagonalization
     c_bands:  1 eigenvalues not converged
     c_bands:  1 eigenvalues not converged
     c_bands:  1 eigenvalues not converged
     c_bands:  1 eigenvalues not converged
     c_bands:  1 eigenvalues not converged
     ethr =  4.48E-05,  avg # of iterations =  5.5

     total cpu time spent up to now is     1097.3 secs

     total energy              =   -1918.15747976 Ry
     Harris-Foulkes estimate   =   -1918.16836854 Ry
     estimated scf accuracy    <       0.02138829 Ry

     iteration #  8     ecut=    40.00 Ry     beta=0.70
     CG style diagonalization
     ethr =  1.11E-05,  avg # of iterations =  3.8

     total cpu time spent up to now is     1112.5 secs

     total energy              =   -1918.16319861 Ry
     Harris-Foulkes estimate   =   -1918.16507367 Ry
     estimated scf accuracy    <       0.00381232 Ry

     iteration #  9     ecut=    40.00 Ry     beta=0.70
     CG style diagonalization
     c_bands:  1 eigenvalues not converged
     c_bands:  1 eigenvalues not converged
     ethr =  1.99E-06,  avg # of iterations =  4.1

     total cpu time spent up to now is     1129.0 secs

     total energy              =   -1918.16406645 Ry
     Harris-Foulkes estimate   =   -1918.16478370 Ry
     estimated scf accuracy    <       0.00125881 Ry

     iteration # 10     ecut=    40.00 Ry     beta=0.70
     CG style diagonalization
     ethr =  6.56E-07,  avg # of iterations =  3.7

     total cpu time spent up to now is     1143.7 secs

     total energy              =   -1918.16435839 Ry
     Harris-Foulkes estimate   =   -1918.16450505 Ry
     estimated scf accuracy    <       0.00027148 Ry

     iteration # 11     ecut=    40.00 Ry     beta=0.70
     CG style diagonalization
     ethr =  1.41E-07,  avg # of iterations =  3.8

     total cpu time spent up to now is     1157.9 secs

     End of self-consistent calculation

          k = 0.0000 0.0000 0.0000 (  5611 PWs)   bands (ev):

   -39.0706 -39.0336 -39.0094 -39.0029 -38.8998 -38.8723 -38.8105 -38.8093
   -10.8151 -10.6315 -10.5758 -10.5359 -10.4342 -10.4296 -10.3380 -10.3075
   -10.2790 -10.2497 -10.1540 -10.1327 -10.1038 -10.0931 -10.0298 -10.0091
    -9.9443  -9.8920  -9.8806  -9.8770  -9.8420  -9.7438  -9.4935  -9.4912
    -7.6987  -7.4295  -7.3501  -7.3452   9.4540   9.5904   9.6052   9.6391
     9.7626   9.8092   9.8824   9.9108   9.9193  10.1696  10.2077  10.5119
    20.9502  21.2901  21.3477  21.5889  21.6720  21.7326  21.7634  22.2025
    22.2533  22.7641  22.7920  23.0176  23.3603  23.4020  23.4860  23.7092
    23.8296  24.1051  24.2205  24.5727  24.6952  24.9523  25.1922  25.3714
    25.4072  25.4416  25.5517  25.6232  25.6884  25.9500  26.1070  26.3144
    26.5469  26.6273  26.7252  26.8128  27.0246  27.4593  27.6832  27.8707
    28.4200  28.4498  28.6330  28.7982  30.0091  30.2148  30.5545  31.3073
    31.4834  31.5007  31.6159  32.2357  32.9732  33.0452  33.3435  33.3646
    33.3670  33.9987  34.3472  34.5779  34.9962  35.0578  35.1996  35.2911
    35.6956  36.3234  36.5276

          k = 0.0000 0.0000 0.1144 (  5577 PWs)   bands (ev):

   -39.0639 -39.0404 -39.0059 -39.0015 -38.8935 -38.8737 -38.8082 -38.8075
   -10.7983 -10.6668 -10.5320 -10.5177 -10.4399 -10.3977 -10.3977 -10.3230
   -10.2218 -10.2196 -10.1723 -10.1240 -10.1068 -10.0766 -10.0224 -10.0121
    -9.9386  -9.8894  -9.8786  -9.8671  -9.8493  -9.7911  -9.4913  -9.4903
    -7.6394  -7.4103  -7.4038  -7.3409   9.4883   9.5711   9.5996   9.6932
     9.6994   9.7875   9.9119   9.9128   9.9247  10.0911  10.2802  10.4752
    21.0553  21.1833  21.4134  21.4565  21.4662  21.6877  22.0665  22.2919
    22.5120  22.7117  23.0143  23.1632  23.4044  23.4305  23.7457  23.8152
    23.8574  24.0353  24.3122  24.5986  24.6984  24.7917  24.9547  24.9844
    25.0894  25.1261  25.5569  25.6400  25.7231  25.8343  26.0344  26.1649
    26.4788  26.6508  26.8558  27.0239  27.1458  27.5241  27.6478  28.0208
    28.0399  28.0937  28.5381  29.2355  29.7290  29.8918  30.9384  31.4536
    31.4549  31.5150  31.9940  32.6266  32.6415  32.7430  33.1683  33.4221
    33.4940  33.8116  34.0902  34.7394  34.7552  35.2161  35.2753  35.5165
    36.5627  36.8674  36.9365

          k = 0.0000 0.0000-0.2288 (  5562 PWs)   bands (ev):

   -39.0524 -39.0524 -39.0031 -39.0031 -38.8817 -38.8817 -38.8072 -38.8072
   -10.7398 -10.7398 -10.4670 -10.4670 -10.4602 -10.4602 -10.3631 -10.3631
   -10.1982 -10.1982 -10.1509 -10.1509 -10.0862 -10.0862 -10.0170 -10.0170
    -9.8909  -9.8909  -9.8822  -9.8822  -9.8580  -9.8580  -9.4937  -9.4937
    -7.5138  -7.5138  -7.3698  -7.3698   9.5796   9.5796   9.5810   9.5810
     9.7536   9.7536   9.9299   9.9299   9.9746   9.9746  10.3839  10.3839
    21.1664  21.1664  21.2172  21.2172  21.6426  21.6426  22.6463  22.6463
    22.6908  22.6908  23.0097  23.0097  23.4520  23.4520  23.9296  23.9296
    23.9515  23.9515  24.2695  24.2695  24.7063  24.7063  24.7307  24.7307
    24.9466  24.9466  25.7202  25.7202  25.8015  25.8015  26.0747  26.0747
    26.3623  26.3623  26.9001  26.9001  27.2900  27.2900  27.8535  27.8535
    28.3464  28.3464  28.5017  28.5017  29.6579  29.6579  31.3876  31.3876
    32.0821  32.0821  32.2415  32.2415  32.4833  32.4833  33.1053  33.1053
    33.3278  33.3278  34.3494  34.3494  35.2419  35.2419  36.1142  36.1142
    36.5604  36.5605  38.0583

          k = 0.0000 0.2233 0.0000 (  5523 PWs)   bands (ev):

   -39.0538 -39.0355 -39.0036 -39.0031 -38.8750 -38.8538 -38.8307 -38.8198
   -10.7641 -10.6894 -10.4578 -10.4338 -10.3580 -10.3511 -10.3252 -10.3005
   -10.2755 -10.2678 -10.2396 -10.2087 -10.1684  -9.9967  -9.9789  -9.9405
    -9.9128  -9.8955  -9.8737  -9.8666  -9.8581  -9.7431  -9.7050  -9.6516
    -7.5522  -7.4330  -7.2893  -7.2791   9.4342   9.4904   9.5036   9.5693
     9.6642   9.6790   9.8224   9.8672   9.9583   9.9850  10.2626  10.3418
    21.5676  21.7793  21.8265  21.8855  22.0271  22.1195  22.3718  22.4600
    22.6174  22.7850  23.1043  23.1554  23.2192  23.4199  23.5098  23.9066
    24.0559  24.1716  24.2287  24.4238  24.4553  25.0924  25.0975  25.1536
    25.3370  25.4233  25.6320  25.6516  25.7914  26.0276  26.1030  26.3740
    26.6130  26.6420  26.6985  26.8235  27.1124  27.3820  27.5194  28.1065
    28.2253  28.2470  28.4481  28.6361  29.4176  30.0441  30.2285  30.4028
    30.9938  31.1660  31.7125  31.8819  32.0448  32.2496  32.9513  33.2922
    33.3611  33.3642  33.8110  33.9269  34.1122  34.4169  35.2156  35.2990
    35.4660  35.7037  37.1712

          k = 0.0000 0.2233 0.1144 (  5565 PWs)   bands (ev):

   -39.0533 -39.0383 -39.0075 -39.0067 -38.8733 -38.8573 -38.8314 -38.8244
   -10.7419 -10.6651 -10.4778 -10.4528 -10.4056 -10.3688 -10.3310 -10.3088
   -10.2740 -10.2696 -10.2238 -10.1917 -10.1704 -10.0079  -9.9941  -9.9538
    -9.9136  -9.9032  -9.8957  -9.8663  -9.8433  -9.7734  -9.6889  -9.6557
    -7.5149  -7.4219  -7.3113  -7.2909   9.4366   9.5093   9.5137   9.5500
     9.6374   9.6657   9.8383   9.8841   9.9226   9.9674  10.2794  10.3428
    21.5322  21.6646  21.7069  21.9475  22.0290  22.2543  22.3652  22.5689
    22.8666  22.8801  23.1395  23.2257  23.2353  23.4152  23.6687  23.9402
    24.0576  24.2533  24.3991  24.4529  24.4588  24.8319  24.8915  25.0943
    25.1795  25.4679  25.6258  25.6842  25.7524  25.8434  26.2001  26.3114
    26.3971  26.5886  26.7360  26.9336  27.2198  27.3379  27.3745  27.6332
    28.1606  28.1854  28.3661  28.5539  29.2900  29.8524  30.7193  30.8473
    31.0667  31.3077  31.4797  31.5712  31.9146  32.4047  32.7513  33.1056
    33.4310  33.5874  33.8463  34.1174  34.4122  34.5260  34.6813  35.6564
    35.9068  36.1281  37.3003

          k = 0.0000 0.2233-0.2288 (  5538 PWs)   bands (ev):

   -39.0454 -39.0454 -39.0061 -39.0061 -38.8634 -38.8634 -38.8263 -38.8263
   -10.6724 -10.6724 -10.4713 -10.4713 -10.4156 -10.4156 -10.3213 -10.3213
   -10.2414 -10.2414 -10.2270 -10.2270 -10.0794 -10.0794  -9.9712  -9.9712
    -9.9110  -9.9110  -9.8829  -9.8829  -9.8080  -9.8080  -9.6646  -9.6646
    -7.4409  -7.4409  -7.3189  -7.3189   9.4629   9.4629   9.5747   9.5747
     9.6080   9.6080   9.8709   9.8710   9.9263   9.9263  10.3202  10.3202
    21.4905  21.4905  21.7483  21.7483  22.3573  22.3573  22.6334  22.6334
    22.7937  22.7937  23.3076  23.3076  23.5530  23.5531  23.7086  23.7086
    24.1707  24.1707  24.3903  24.3903  24.5267  24.5267  25.0601  25.0601
    25.1682  25.1682  25.5866  25.5866  26.0130  26.0130  26.0236  26.0236
    26.4170  26.4170  26.9976  26.9976  27.0949  27.0949  27.4630  27.4630
    27.9878  27.9878  28.3384  28.3384  29.5328  29.5328  31.0330  31.0330
    31.2916  31.2916  31.6826  31.6826  31.7646  31.7646  32.8855  32.8855
    33.7625  33.7626  34.1001  34.1001  34.3589  34.3589  35.0230  35.0230
    36.8898  36.8900  37.7669

          k =-0.4327 0.0000 0.0000 (  5564 PWs)   bands (ev):

   -39.0232 -39.0232 -39.0156 -39.0156 -38.8983 -38.8983 -38.8085 -38.8085
   -10.6650 -10.6650 -10.6595 -10.6595 -10.5595 -10.5595 -10.3765 -10.3765
   -10.3574 -10.3574 -10.1901 -10.1901 -10.0368 -10.0368  -9.9827  -9.9827
    -9.9083  -9.9083  -9.8133  -9.8133  -9.7518  -9.7518  -9.4927  -9.4927
    -7.4193  -7.4193  -7.2810  -7.2810   9.5254   9.5254   9.7601   9.7601
     9.8522   9.8522   9.9594   9.9594  10.1869  10.1869  10.2410  10.2410
    21.4956  21.4956  21.7827  21.7827  22.4061  22.4061  22.5314  22.5314
    22.8670  22.8670  23.1769  23.1769  23.3882  23.3882  23.5835  23.5835
    23.6325  23.6325  23.7900  23.7900  24.2705  24.2705  24.4076  24.4076
    24.6460  24.6460  25.0851  25.0851  25.8792  25.8792  25.9481  25.9481
    26.1032  26.1032  27.1605  27.1605  27.7801  27.7801  28.1915  28.1915
    28.2418  28.2418  29.7913  29.7913  29.9591  29.9591  30.7303  30.7303
    31.5027  31.5027  31.7442  31.7442  32.4347  32.4347  32.9526  32.9526
    33.4043  33.4044  33.8504  33.8504  34.3594  34.3594  34.6281  34.6283
    35.3827  35.3828  35.6314

          k =-0.4327 0.0000 0.1144 (  5580 PWs)   bands (ev):

   -39.0220 -39.0220 -39.0180 -39.0180 -38.8989 -38.8989 -38.8095 -38.8095
   -10.7334 -10.7334 -10.5885 -10.5885 -10.5013 -10.5013 -10.4232 -10.4232
   -10.3338 -10.3338 -10.2131 -10.2131 -10.1163 -10.1163  -9.9523  -9.9523
    -9.8850  -9.8850  -9.8303  -9.8303  -9.7454  -9.7454  -9.4955  -9.4955
    -7.4123  -7.4123  -7.2806  -7.2806   9.4970   9.4970   9.8094   9.8094
     9.8566   9.8566   9.9576   9.9576  10.1486  10.1486  10.2398  10.2398
    21.5997  21.5997  21.6982  21.6982  22.4414  22.4414  22.5503  22.5503
    22.8904  22.8904  23.2456  23.2456  23.3249  23.3249  23.5099  23.5099
    23.8141  23.8141  23.9411  23.9411  24.2061  24.2061  24.4473  24.4473
    24.7382  24.7382  24.9557  24.9557  25.7191  25.7191  25.8718  25.8718
    26.3843  26.3843  27.1079  27.1079  27.3530  27.3530  27.9344  27.9344
    28.1678  28.1678  29.1396  29.1396  30.5083  30.5083  31.3851  31.3851
    31.6707  31.6707  31.8565  31.8565  32.0708  32.0708  32.7258  32.7258
    33.5723  33.5724  33.9079  33.9079  34.3190  34.3191  34.7290  34.7290
    35.3630  35.3633  36.0996

          k =-0.4327 0.0000-0.2288 (  5584 PWs)   bands (ev):

   -39.0226 -39.0226 -39.0176 -39.0176 -38.8996 -38.8996 -38.8090 -38.8090
   -10.7624 -10.7624 -10.5348 -10.5348 -10.4689 -10.4689 -10.4082 -10.4082
   -10.3678 -10.3678 -10.2194 -10.2194 -10.1837 -10.1837  -9.9397  -9.9397
    -9.8626  -9.8626  -9.8423  -9.8423  -9.7413  -9.7413  -9.4968  -9.4968
    -7.4048  -7.4048  -7.2815  -7.2815   9.4738   9.4738   9.8582   9.8582
     9.8748   9.8748   9.9454   9.9454  10.1045  10.1045  10.2367  10.2367
    21.4819  21.4819  22.0821  22.0821  22.1837  22.1837  22.5308  22.5308
    22.9960  22.9960  23.1778  23.1778  23.3997  23.3997  23.7203  23.7203
    23.7744  23.7744  23.9597  23.9597  24.2421  24.2421  24.3468  24.3468
    24.8816  24.8816  25.3143  25.3143  25.4210  25.4210  25.5096  25.5096
    26.6640  26.6640  26.8376  26.8376  27.3136  27.3136  27.5723  27.5723
    28.1223  28.1223  28.8815  28.8815  30.9710  30.9710  31.2961  31.2961
    31.8781  31.8781  31.9129  31.9129  32.0860  32.0860  32.4323  32.4323
    33.7201  33.7202  34.0724  34.0724  34.4040  34.4041  35.1781  35.1783
    35.3159  35.3160  36.4027

          k =-0.4327 0.2233 0.0000 (  5580 PWs)   bands (ev):

   -39.0211 -39.0211 -39.0181 -39.0181 -38.8766 -38.8766 -38.8323 -38.8323
   -10.7382 -10.7382 -10.7126 -10.7126 -10.4856 -10.4856 -10.3410 -10.3410
   -10.2082 -10.2082 -10.1615 -10.1615 -10.0860 -10.0860 -10.0218 -10.0218
    -9.8783  -9.8783  -9.8216  -9.8216  -9.7550  -9.7550  -9.6582  -9.6582
    -7.3375  -7.3375  -7.2686  -7.2686   9.4893   9.4893   9.5504   9.5504
     9.8982   9.8982   9.9183   9.9183  10.0805  10.0805  10.1512  10.1512
    22.0291  22.0291  22.2352  22.2352  22.6855  22.6855  22.7111  22.7111
    22.9860  22.9860  23.0281  23.0281  23.6432  23.6432  23.7311  23.7311
    24.1140  24.1140  24.3437  24.3437  24.4359  24.4359  24.5032  24.5032
    24.8135  24.8135  25.0584  25.0584  25.5752  25.5752  25.9594  25.9594
    26.3553  26.3553  26.7302  26.7302  27.1784  27.1784  27.8273  27.8273
    27.9003  27.9003  29.2439  29.2439  29.8883  29.8883  30.3002  30.3002
    31.2132  31.2132  31.3031  31.3031  32.3671  32.3671  32.6541  32.6541
    33.2284  33.2285  33.5052  33.5052  33.7825  33.7826  34.1023  34.1025
    35.6731  35.6734  36.2656

          k =-0.4327 0.2233 0.1144 (  5572 PWs)   bands (ev):

   -39.0203 -39.0203 -39.0182 -39.0182 -38.8766 -38.8766 -38.8317 -38.8317
   -10.7386 -10.7386 -10.6832 -10.6832 -10.4671 -10.4671 -10.3879 -10.3879
   -10.2514 -10.2514 -10.1574 -10.1574 -10.0736 -10.0736  -9.9737  -9.9737
    -9.8847  -9.8847  -9.8380  -9.8380  -9.7494  -9.7494  -9.6593  -9.6593
    -7.3327  -7.3327  -7.2678  -7.2678   9.4676   9.4676   9.5851   9.5851
     9.8849   9.8849   9.9009   9.9009  10.0934  10.0934  10.1437  10.1437
    22.0240  22.0240  22.2113  22.2113  22.5746  22.5746  22.9908  22.9908
    23.0151  23.0151  23.1969  23.1969  23.5665  23.5665  23.8722  23.8722
    23.9371  23.9371  24.1998  24.1998  24.4296  24.4296  24.6122  24.6122
    24.7961  24.7961  25.1936  25.1936  25.5818  25.5818  25.8760  25.8760
    26.3677  26.3677  26.6517  26.6517  27.1054  27.1054  27.6245  27.6245
    27.9724  27.9724  28.6668  28.6668  30.0492  30.0492  30.7329  30.7330
    31.1657  31.1657  31.3092  31.3092  32.0082  32.0082  32.7367  32.7367
    33.1484  33.1484  33.5174  33.5175  33.8160  33.8161  34.2976  34.2977
    36.0478  36.0481  36.5708

          k =-0.4327 0.2233-0.2288 (  5556 PWs)   bands (ev):

   -39.0188 -39.0188 -39.0184 -39.0184 -38.8756 -38.8756 -38.8313 -38.8313
   -10.7359 -10.7359 -10.6435 -10.6435 -10.4795 -10.4795 -10.3740 -10.3740
   -10.3285 -10.3285 -10.1514 -10.1514 -10.0507 -10.0507  -9.9306  -9.9306
    -9.8880  -9.8880  -9.8688  -9.8688  -9.7445  -9.7445  -9.6573  -9.6573
    -7.3277  -7.3277  -7.2662  -7.2662   9.4527   9.4527   9.6166   9.6166
     9.8558   9.8558   9.8967   9.8967  10.1163  10.1163  10.1256  10.1256
    21.9052  21.9052  22.4043  22.4043  22.5321  22.5321  23.0609  23.0609
    23.2056  23.2056  23.3236  23.3236  23.3632  23.3632  23.9438  23.9438
    24.0148  24.0148  24.1489  24.1489  24.2450  24.2450  24.6924  24.6924
    24.8502  24.8502  25.3930  25.3930  25.4626  25.4626  25.7810  25.7810
    26.0160  26.0160  26.9570  26.9570  27.0943  27.0943  27.4792  27.4792
    27.9368  27.9368  28.3273  28.3273  29.9753  29.9753  30.9177  30.9177
    31.1608  31.1608  31.3278  31.3278  32.0908  32.0908  32.4009  32.4009
    33.1424  33.1424  33.5493  33.5494  34.1362  34.1362  34.3804  34.3805
    36.0962  36.0963  36.8306

     the Fermi energy is    30.8922 ev

!    total energy              =   -1918.16441379 Ry
     Harris-Foulkes estimate   =   -1918.16443362 Ry
     estimated scf accuracy    <       0.00002329 Ry

     The total energy is the sum of the following terms:

     one-electron contribution =     -21.34639621 Ry
     hartree contribution      =     200.83570502 Ry
     xc contribution           =    -206.28103120 Ry
     ewald contribution        =   -1890.93752639 Ry
     smearing contrib. (-TS)   =      -0.43516501 Ry

     convergence has been achieved in  11 iterations

     Forces acting on atoms (Ry/au):

     atom    1 type  1   force =     0.00000000   -0.02218921   -0.01491857
     atom    2 type  1   force =     0.00000000    0.02218921    0.01491857
     atom    3 type  1   force =     0.00000000   -0.02218921    0.01491857
     atom    4 type  1   force =     0.00000000    0.02218921   -0.01491857
     atom    5 type  1   force =     0.00000000    0.05751215   -0.07827168
     atom    6 type  1   force =     0.00000000   -0.05751215    0.07827168
     atom    7 type  1   force =     0.00000000    0.05751215    0.07827168
     atom    8 type  1   force =     0.00000000   -0.05751215   -0.07827168
     atom    9 type  2   force =     0.00000000   -0.05715390   -0.00019032
     atom   10 type  2   force =     0.00000000    0.05715390    0.00019032
     atom   11 type  2   force =     0.00000000   -0.05715390    0.00019032
     atom   12 type  2   force =     0.00000000    0.05715390   -0.00019032

     Total force =     0.231652     Total SCF correction =     0.000000


     entering subroutine stress ...

          total   stress  (Ry/bohr**3)                   (kbar)     P= 1149.90
   0.00823611   0.00000000   0.00000000       1211.57      0.00      0.00
   0.00000000   0.00724447   0.00000000          0.00   1065.70      0.00
   0.00000000   0.00000000   0.00797011          0.00      0.00   1172.44


     Writing output data file Prototype-La-oP12-Co2Si.save
 
     init_run     :      3.84s CPU      5.34s WALL (       2 calls)
     electrons    :    993.04s CPU   1135.83s WALL (       5 calls)
     update_pot   :      1.91s CPU      3.11s WALL (       3 calls)
     forces       :      4.28s CPU      4.51s WALL (       5 calls)
     stress       :     11.65s CPU     11.89s WALL (       5 calls)

     Called by init_run:
     wfcinit      :      2.96s CPU      3.81s WALL (       2 calls)
     potinit      :      0.42s CPU      0.42s WALL (       2 calls)

     Called by electrons:
     c_bands      :    972.15s CPU   1086.53s WALL (      52 calls)
     sum_band     :     20.35s CPU     26.38s WALL (      52 calls)
     v_of_rho     :      0.09s CPU      0.10s WALL (      57 calls)
     mix_rho      :      0.14s CPU      0.16s WALL (      52 calls)

     Called by c_bands:
     init_us_2    :      1.57s CPU      1.80s WALL (    1392 calls)
     ccgdiagg     :    891.62s CPU    987.44s WALL (     746 calls)
     wfcrot       :     81.94s CPU    100.26s WALL (     758 calls)

     Called by *cgdiagg:
     h_psi        :    631.13s CPU    733.01s WALL (  456012 calls)
     cdiaghg      :      4.67s CPU      5.09s WALL (     758 calls)

     Called by h_psi:
     add_vuspsi   :    115.39s CPU    125.91s WALL (  456012 calls)

     General routines
     calbec       :    277.80s CPU    290.23s WALL (  911386 calls)
     fft          :      0.17s CPU      0.19s WALL (     251 calls)
     fftw         :    340.11s CPU    400.08s WALL ( 1156608 calls)
     davcio       :      0.83s CPU      2.07s WALL (    2016 calls)
 
     Parallel routines
     fft_scatter  :    146.04s CPU    174.91s WALL ( 1156859 calls)
 
     PWSCF        : 16m55.11s CPU    19m23.04s WALL

 
   This run was terminated on:  23: 5:12  22Mar2018            

=------------------------------------------------------------------------------=
   JOB DONE.
=------------------------------------------------------------------------------=
