
     Program PWSCF v.5.0.2 starts on 23Mar2018 at  2:19:44 

     This program is part of the open-source Quantum ESPRESSO suite
     for quantum simulation of materials; please cite
         "P. Giannozzi et al., J. Phys.:Condens. Matter 21 395502 (2009);
          URL http://www.quantum-espresso.org", 
     in publications or presentations arising from this work. More details at
     http://www.quantum-espresso.org/quote.php

     Parallel version (MPI), running on     4 processors
     R & G space division:  proc/nbgrp/npool/nimage =       4

     Current dimensions of program PWSCF are:
     Max number of different atomic species (ntypx) = 10
     Max number of k-points (npk) =  40000
     Max angular momentum in pseudopotentials (lmaxx) =  3
     Waiting for input...
     Reading input from standard input

     Subspace diagonalization in iterative solution of the eigenvalue problem:
     a serial algorithm will be used

 
     Parallelization info
     --------------------
     sticks:   dense  smooth     PW     G-vecs:    dense   smooth      PW
     Min         164     164     48                 3132     3132     524
     Max         165     165     49                 3135     3135     527
     Sum         657     657    193                12533    12533    2103
 


     bravais-lattice index     =            0
     lattice parameter (alat)  =       7.1317  a.u.
     unit-cell volume          =     362.7211 (a.u.)^3
     number of atoms/cell      =            4
     number of atomic types    =            2
     number of electrons       =        76.00
     number of Kohn-Sham states=           46
     kinetic-energy cutoff     =      40.0000  Ry
     charge density cutoff     =     160.0000  Ry
     convergence threshold     =      1.0E-04
     mixing beta               =       0.7000
     number of iterations used =            8  plain     mixing
     Exchange-correlation      = SLA-PZ-NOGX-NOGC ( 1 1 0 0 0)
     EXX-fraction              =        0.00
     nstep                     =           50


     celldm(1)=   7.131665  celldm(2)=   0.000000  celldm(3)=   0.000000
     celldm(4)=   0.000000  celldm(5)=   0.000000  celldm(6)=   0.000000

     crystal axes: (cart. coord. in units of alat)
               a(1) = (   1.000000   0.000000   0.000000 )  
               a(2) = (   0.000000   1.000000   0.000000 )  
               a(3) = (   0.000000   0.000000   1.000000 )  

     reciprocal axes: (cart. coord. in units 2 pi/alat)
               b(1) = (  1.000000  0.000000  0.000000 )  
               b(2) = (  0.000000  1.000000  0.000000 )  
               b(3) = (  0.000000  0.000000  1.000000 )  


     PseudoPot. # 1 for Dy read from file:
     /home/cwx6513/pp.La/Dy.UPF
     MD5 check sum: 9597327bec62616a94a14d07f3fd9936
     Pseudo is Norm-conserving, Zval = 20.0
     Generated in analytical, separable form
     Using radial grid of 1265 points,  6 beta functions with: 
                l(1) =   0
                l(2) =   0
                l(3) =   1
                l(4) =   1
                l(5) =   2
                l(6) =   3

     PseudoPot. # 2 for Sm read from file:
     /home/cwx6513/pp.La/Sm.UPF
     MD5 check sum: 5079e8b144a06bfcdbc14fb02b96ab09
     Pseudo is Norm-conserving, Zval = 16.0
     Generated in analytical, separable form
     Using radial grid of 1259 points,  6 beta functions with: 
                l(1) =   0
                l(2) =   0
                l(3) =   1
                l(4) =   1
                l(5) =   2
                l(6) =   3

     atomic species   valence    mass     pseudopotential
        Cu            20.00    63.54600     Dy( 1.00)
        Au            16.00   196.96600     Sm( 1.00)

     48 Sym. Ops., with inversion, found



   Cartesian axes

     site n.     atom                  positions (alat units)
         1           Cu  tau(   1) = (   0.0000000   0.5000000   0.5000000  )
         2           Cu  tau(   2) = (   0.5000000   0.5000000   0.0000000  )
         3           Cu  tau(   3) = (   0.5000000   0.0000000   0.5000000  )
         4           Au  tau(   4) = (   0.0000000   0.0000000   0.0000000  )

     number of k points=   100  gaussian smearing, width (Ry)=  0.1000

     Number of k-points >= 100: set verbosity='high' to print them.

     Dense  grid:    12533 G-vectors     FFT dimensions: (  30,  30,  30)

     Largest allocated arrays     est. size (Mb)     dimensions
        Kohn-Sham Wavefunctions         0.28 Mb     (    400,   46)
        NL pseudopotentials             0.49 Mb     (    400,   80)
        Each V/rho on FFT grid          0.11 Mb     (   7200)
        Each G-vector array             0.02 Mb     (   3134)
        G-vector shells                 0.02 Mb     (   3134)
     Largest temporary arrays     est. size (Mb)     dimensions
        Each subspace H/S matrix        0.03 Mb     (  46,  46)
        Each <psi_i|beta_j> matrix      0.06 Mb     (     80,   46)
        Arrays for rho mixing           0.88 Mb     (   7200,   8)

     Initial potential from superposition of free atoms

     Starting from uniform charge
     Starting wfc are    0 randomized atomic wfcs

     total cpu time spent up to now is        2.6 secs

     Self-consistent Calculation

     iteration #  1     ecut=    40.00 Ry     beta=0.70
     CG style diagonalization
     c_bands:  1 eigenvalues not converged
     c_bands:  1 eigenvalues not converged
     c_bands:  1 eigenvalues not converged
     c_bands:  1 eigenvalues not converged
     c_bands:  1 eigenvalues not converged
     c_bands:  1 eigenvalues not converged
     c_bands:  1 eigenvalues not converged
     c_bands:  1 eigenvalues not converged
     ethr =  1.00E-02,  avg # of iterations =  9.1

     total cpu time spent up to now is      108.9 secs

     total energy              =    -805.93032045 Ry
     Harris-Foulkes estimate   =   -1074.10039966 Ry
     estimated scf accuracy    <     342.81237631 Ry

     iteration #  2     ecut=    40.00 Ry     beta=0.70
     CG style diagonalization
     c_bands:  3 eigenvalues not converged
     c_bands:  1 eigenvalues not converged
     c_bands:  1 eigenvalues not converged
     c_bands:  1 eigenvalues not converged
     c_bands:  1 eigenvalues not converged
     c_bands:  1 eigenvalues not converged
     c_bands:  1 eigenvalues not converged
     c_bands:  1 eigenvalues not converged
     ethr =  1.00E-02,  avg # of iterations =  9.4

     total cpu time spent up to now is      253.3 secs

     total energy              =    -825.79003836 Ry
     Harris-Foulkes estimate   =    -994.80991597 Ry
     estimated scf accuracy    <     299.94413946 Ry

     iteration #  3     ecut=    40.00 Ry     beta=0.70
     CG style diagonalization
     c_bands:  1 eigenvalues not converged
     c_bands:  1 eigenvalues not converged
     c_bands:  1 eigenvalues not converged
     ethr =  1.00E-02,  avg # of iterations =  6.5

     total cpu time spent up to now is      376.0 secs

     total energy              =    -924.17668356 Ry
     Harris-Foulkes estimate   =    -953.54346992 Ry
     estimated scf accuracy    <      68.12892793 Ry

     iteration #  4     ecut=    40.00 Ry     beta=0.70
     CG style diagonalization
     ethr =  1.00E-02,  avg # of iterations =  3.8

     total cpu time spent up to now is      417.0 secs

     total energy              =    -931.55198940 Ry
     Harris-Foulkes estimate   =    -932.94754506 Ry
     estimated scf accuracy    <       4.40171574 Ry

     iteration #  5     ecut=    40.00 Ry     beta=0.70
     CG style diagonalization
     ethr =  5.79E-03,  avg # of iterations =  3.1

     negative rho (up, down):  0.534E-05 0.000E+00

     total cpu time spent up to now is      453.1 secs

     total energy              =    -931.08757022 Ry
     Harris-Foulkes estimate   =    -931.83052248 Ry
     estimated scf accuracy    <       1.19299775 Ry

     iteration #  6     ecut=    40.00 Ry     beta=0.70
     CG style diagonalization
     ethr =  1.57E-03,  avg # of iterations =  3.4

     total cpu time spent up to now is      488.7 secs

     total energy              =    -931.48053809 Ry
     Harris-Foulkes estimate   =    -931.61420685 Ry
     estimated scf accuracy    <       0.30131794 Ry

     iteration #  7     ecut=    40.00 Ry     beta=0.70
     CG style diagonalization
     c_bands:  1 eigenvalues not converged
     c_bands:  1 eigenvalues not converged
     c_bands:  1 eigenvalues not converged
     ethr =  3.96E-04,  avg # of iterations =  3.4

     total cpu time spent up to now is      520.6 secs

     total energy              =    -931.51736257 Ry
     Harris-Foulkes estimate   =    -931.52563394 Ry
     estimated scf accuracy    <       0.01385624 Ry

     iteration #  8     ecut=    40.00 Ry     beta=0.70
     CG style diagonalization
     c_bands:  1 eigenvalues not converged
     c_bands:  1 eigenvalues not converged
     c_bands:  2 eigenvalues not converged
     c_bands:  1 eigenvalues not converged
     c_bands:  1 eigenvalues not converged
     c_bands:  2 eigenvalues not converged
     c_bands:  1 eigenvalues not converged
     c_bands:  1 eigenvalues not converged
     c_bands:  1 eigenvalues not converged
     c_bands:  1 eigenvalues not converged
     c_bands:  1 eigenvalues not converged
     c_bands:  1 eigenvalues not converged
     c_bands:  1 eigenvalues not converged
     c_bands:  1 eigenvalues not converged
     c_bands:  1 eigenvalues not converged
     c_bands:  2 eigenvalues not converged
     c_bands:  1 eigenvalues not converged
     ethr =  1.82E-05,  avg # of iterations =  3.7

     total cpu time spent up to now is      561.2 secs

     total energy              =    -931.52337364 Ry
     Harris-Foulkes estimate   =    -931.52591532 Ry
     estimated scf accuracy    <       0.00479423 Ry

     iteration #  9     ecut=    40.00 Ry     beta=0.70
     CG style diagonalization
     c_bands:  1 eigenvalues not converged
     c_bands:  1 eigenvalues not converged
     c_bands:  1 eigenvalues not converged
     ethr =  6.31E-06,  avg # of iterations =  3.3

     total cpu time spent up to now is      591.8 secs

     End of self-consistent calculation

     Number of k-points >= 100: set verbosity='high' to print the bands.

     the Fermi energy is    40.5702 ev

!    total energy              =    -931.52434227 Ry
     Harris-Foulkes estimate   =    -931.52435662 Ry
     estimated scf accuracy    <       0.00001556 Ry

     The total energy is the sum of the following terms:

     one-electron contribution =      -0.23261331 Ry
     hartree contribution      =      92.01928466 Ry
     xc contribution           =     -91.12749521 Ry
     ewald contribution        =    -932.12430431 Ry
     smearing contrib. (-TS)   =      -0.05921410 Ry

     convergence has been achieved in   9 iterations

     Forces acting on atoms (Ry/au):

     atom    1 type  1   force =     0.00000000    0.00000000    0.00000000
     atom    2 type  1   force =     0.00000000    0.00000000    0.00000000
     atom    3 type  1   force =     0.00000000    0.00000000    0.00000000
     atom    4 type  2   force =     0.00000000    0.00000000    0.00000000

     Total force =     0.000000     Total SCF correction =     0.000000


     entering subroutine stress ...

          total   stress  (Ry/bohr**3)                   (kbar)     P= 2631.82
   0.01789077   0.00000000   0.00000000       2631.82      0.00      0.00
   0.00000000   0.01789077   0.00000000          0.00   2631.82      0.00
   0.00000000   0.00000000   0.01789077          0.00      0.00   2631.82


     BFGS Geometry Optimization

     number of scf cycles    =   1
     number of bfgs steps    =   0

     enthalpy new            =    -931.5243422729 Ry

     new trust radius        =       0.5000000000 bohr
     new conv_thr            =       0.0001000000 Ry

     new unit-cell volume =    525.13076 a.u.^3 (    77.81635 Ang^3 )

CELL_PARAMETERS (alat=  7.13166486)
   1.131266415   0.000000000   0.000000000
   0.000000000   1.131266415   0.000000000
   0.000000000   0.000000000   1.131266415

ATOMIC_POSITIONS (crystal)
Cu       0.000000000   0.500000000   0.500000000
Cu       0.500000000   0.500000000   0.000000000
Cu       0.500000000   0.000000000   0.500000000
Au       0.000000000   0.000000000   0.000000000



     Writing output data file Prototype-La-cP4-Cu3Au.save
     NEW-OLD atomic charge density approx. for the potential
     NEW k-points: (use verbosity='high' to print them)

     total cpu time spent up to now is      601.8 secs

     Self-consistent Calculation

     iteration #  1     ecut=    40.00 Ry     beta=0.70
     CG style diagonalization
     c_bands:  1 eigenvalues not converged
     c_bands:  2 eigenvalues not converged
     c_bands:  4 eigenvalues not converged
     c_bands:  1 eigenvalues not converged
     c_bands:  1 eigenvalues not converged
     c_bands:  1 eigenvalues not converged
     c_bands:  1 eigenvalues not converged
     c_bands:  1 eigenvalues not converged
     c_bands:  1 eigenvalues not converged
     c_bands:  1 eigenvalues not converged
     c_bands:  1 eigenvalues not converged
     c_bands:  1 eigenvalues not converged
     c_bands:  1 eigenvalues not converged
     c_bands:  1 eigenvalues not converged
     c_bands:  1 eigenvalues not converged
     c_bands:  1 eigenvalues not converged
     c_bands:  1 eigenvalues not converged
     c_bands:  2 eigenvalues not converged
     c_bands:  1 eigenvalues not converged
     ethr =  1.00E-06,  avg # of iterations = 21.2

     total cpu time spent up to now is      738.9 secs

     total energy              =    -921.43203032 Ry
     Harris-Foulkes estimate   =    -946.15799200 Ry
     estimated scf accuracy    <      31.67029966 Ry

     iteration #  2     ecut=    40.00 Ry     beta=0.70
     CG style diagonalization
     ethr =  1.00E-02,  avg # of iterations =  4.1

     total cpu time spent up to now is      767.4 secs

     total energy              =    -930.24641937 Ry
     Harris-Foulkes estimate   =    -934.63229319 Ry
     estimated scf accuracy    <       6.88923542 Ry

     iteration #  3     ecut=    40.00 Ry     beta=0.70
     CG style diagonalization
     ethr =  9.06E-03,  avg # of iterations =  3.6

     total cpu time spent up to now is      793.4 secs

     total energy              =    -931.78956489 Ry
     Harris-Foulkes estimate   =    -932.65120441 Ry
     estimated scf accuracy    <       1.90419798 Ry

     iteration #  4     ecut=    40.00 Ry     beta=0.70
     CG style diagonalization
     ethr =  2.51E-03,  avg # of iterations =  3.2

     total cpu time spent up to now is      816.7 secs

     total energy              =    -932.16436266 Ry
     Harris-Foulkes estimate   =    -932.17055930 Ry
     estimated scf accuracy    <       0.01288318 Ry

     iteration #  5     ecut=    40.00 Ry     beta=0.70
     CG style diagonalization
     c_bands:  1 eigenvalues not converged
     c_bands:  1 eigenvalues not converged
     c_bands:  2 eigenvalues not converged
     c_bands:  1 eigenvalues not converged
     c_bands:  2 eigenvalues not converged
     c_bands:  1 eigenvalues not converged
     c_bands:  1 eigenvalues not converged
     c_bands:  1 eigenvalues not converged
     c_bands:  1 eigenvalues not converged
     c_bands:  1 eigenvalues not converged
     c_bands:  1 eigenvalues not converged
     c_bands:  1 eigenvalues not converged
     c_bands:  1 eigenvalues not converged
     c_bands:  1 eigenvalues not converged
     ethr =  1.70E-05,  avg # of iterations =  4.7

     total cpu time spent up to now is      848.8 secs

     total energy              =    -932.17023298 Ry
     Harris-Foulkes estimate   =    -932.17245702 Ry
     estimated scf accuracy    <       0.00374826 Ry

     iteration #  6     ecut=    40.00 Ry     beta=0.70
     CG style diagonalization
     c_bands:  1 eigenvalues not converged
     c_bands:  1 eigenvalues not converged
     c_bands:  1 eigenvalues not converged
     ethr =  4.93E-06,  avg # of iterations =  3.7

     total cpu time spent up to now is      871.6 secs

     total energy              =    -932.17120244 Ry
     Harris-Foulkes estimate   =    -932.17137489 Ry
     estimated scf accuracy    <       0.00033406 Ry

     iteration #  7     ecut=    40.00 Ry     beta=0.70
     CG style diagonalization
     c_bands:  1 eigenvalues not converged
     c_bands:  1 eigenvalues not converged
     c_bands:  1 eigenvalues not converged
     c_bands:  1 eigenvalues not converged
     c_bands:  1 eigenvalues not converged
     c_bands:  1 eigenvalues not converged
     ethr =  4.40E-07,  avg # of iterations =  3.4

     total cpu time spent up to now is      894.0 secs

     End of self-consistent calculation

     Number of k-points >= 100: set verbosity='high' to print the bands.

     the Fermi energy is    26.0980 ev

!    total energy              =    -932.17127283 Ry
     Harris-Foulkes estimate   =    -932.17130731 Ry
     estimated scf accuracy    <       0.00003749 Ry

     The total energy is the sum of the following terms:

     one-electron contribution =    -152.98912062 Ry
     hartree contribution      =     133.26657209 Ry
     xc contribution           =     -88.38212370 Ry
     ewald contribution        =    -823.96533207 Ry
     smearing contrib. (-TS)   =      -0.10126853 Ry

     convergence has been achieved in   7 iterations

     Forces acting on atoms (Ry/au):

     atom    1 type  1   force =     0.00000000    0.00000000    0.00000000
     atom    2 type  1   force =     0.00000000    0.00000000    0.00000000
     atom    3 type  1   force =     0.00000000    0.00000000    0.00000000
     atom    4 type  2   force =     0.00000000    0.00000000    0.00000000

     Total force =     0.000000     Total SCF correction =     0.000000


     entering subroutine stress ...

          total   stress  (Ry/bohr**3)                   (kbar)     P= -596.52
  -0.00405508   0.00000000   0.00000000       -596.52      0.00      0.00
   0.00000000  -0.00405508   0.00000000          0.00   -596.52      0.00
   0.00000000   0.00000000  -0.00405508          0.00      0.00   -596.52


     number of scf cycles    =   3
     number of bfgs steps    =   1

     enthalpy old            =    -931.5243422729 Ry
     enthalpy new            =    -932.1712728295 Ry

     CASE: enthalpy_new < enthalpy_old

     small trust_radius: resetting bfgs history

     new trust radius        =       0.4646257416 bohr
     new conv_thr            =       0.0000010000 Ry

     new unit-cell volume =    381.06583 a.u.^3 (    56.46813 Ang^3 )

CELL_PARAMETERS (alat=  7.13166486)
   1.016581990   0.000000000   0.000000000
   0.000000000   1.016581990   0.000000000
   0.000000000   0.000000000   1.016581990

ATOMIC_POSITIONS (crystal)
Cu       0.000000000   0.500000000   0.500000000
Cu       0.500000000   0.500000000   0.000000000
Cu       0.500000000   0.000000000   0.500000000
Au       0.000000000   0.000000000   0.000000000



     Writing output data file Prototype-La-cP4-Cu3Au.save
     NEW-OLD atomic charge density approx. for the potential
     NEW k-points: (use verbosity='high' to print them)

     total cpu time spent up to now is      900.5 secs

     Self-consistent Calculation

     iteration #  1     ecut=    40.00 Ry     beta=0.70
     CG style diagonalization
     c_bands:  2 eigenvalues not converged
     c_bands:  3 eigenvalues not converged
     c_bands:  5 eigenvalues not converged
     c_bands:  4 eigenvalues not converged
     c_bands:  1 eigenvalues not converged
     c_bands:  2 eigenvalues not converged
     c_bands:  2 eigenvalues not converged
     c_bands:  1 eigenvalues not converged
     c_bands:  3 eigenvalues not converged
     c_bands:  1 eigenvalues not converged
     c_bands:  1 eigenvalues not converged
     c_bands:  3 eigenvalues not converged
     c_bands:  1 eigenvalues not converged
     c_bands:  1 eigenvalues not converged
     c_bands:  3 eigenvalues not converged
     c_bands:  2 eigenvalues not converged
     c_bands:  2 eigenvalues not converged
     c_bands:  1 eigenvalues not converged
     c_bands:  2 eigenvalues not converged
     c_bands:  1 eigenvalues not converged
     c_bands:  1 eigenvalues not converged
     c_bands:  1 eigenvalues not converged
     c_bands:  1 eigenvalues not converged
     c_bands:  1 eigenvalues not converged
     c_bands:  2 eigenvalues not converged
     c_bands:  2 eigenvalues not converged
     c_bands:  1 eigenvalues not converged
     c_bands:  1 eigenvalues not converged
     c_bands:  1 eigenvalues not converged
     c_bands:  3 eigenvalues not converged
     c_bands:  1 eigenvalues not converged
     c_bands:  1 eigenvalues not converged
     c_bands:  1 eigenvalues not converged
     c_bands:  1 eigenvalues not converged
     c_bands:  1 eigenvalues not converged
     c_bands:  2 eigenvalues not converged
     c_bands:  1 eigenvalues not converged
     c_bands:  1 eigenvalues not converged
     c_bands:  1 eigenvalues not converged
     c_bands:  1 eigenvalues not converged
     c_bands:  2 eigenvalues not converged
     c_bands:  2 eigenvalues not converged
     c_bands:  4 eigenvalues not converged
     c_bands:  1 eigenvalues not converged
     c_bands:  1 eigenvalues not converged
     c_bands:  1 eigenvalues not converged
     c_bands:  1 eigenvalues not converged
     c_bands:  1 eigenvalues not converged
     c_bands:  1 eigenvalues not converged
     c_bands:  2 eigenvalues not converged
     c_bands:  1 eigenvalues not converged
     c_bands:  1 eigenvalues not converged
     c_bands:  2 eigenvalues not converged
     ethr =  1.00E-06,  avg # of iterations = 21.2

     total cpu time spent up to now is     1042.3 secs

     total energy              =    -923.85118732 Ry
     Harris-Foulkes estimate   =    -942.85657263 Ry
     estimated scf accuracy    <      23.94379969 Ry

     iteration #  2     ecut=    40.00 Ry     beta=0.70
     CG style diagonalization
     ethr =  1.00E-02,  avg # of iterations =  4.3

     total cpu time spent up to now is     1075.8 secs

     total energy              =    -930.55354652 Ry
     Harris-Foulkes estimate   =    -933.49979141 Ry
     estimated scf accuracy    <       4.38438486 Ry

     iteration #  3     ecut=    40.00 Ry     beta=0.70
     CG style diagonalization
     ethr =  5.77E-03,  avg # of iterations =  3.6

     total cpu time spent up to now is     1102.4 secs

     total energy              =    -931.61648325 Ry
     Harris-Foulkes estimate   =    -932.07816585 Ry
     estimated scf accuracy    <       0.91617609 Ry

     iteration #  4     ecut=    40.00 Ry     beta=0.70
     CG style diagonalization
     ethr =  1.21E-03,  avg # of iterations =  3.3

     total cpu time spent up to now is     1127.3 secs

     total energy              =    -931.80314593 Ry
     Harris-Foulkes estimate   =    -931.80914721 Ry
     estimated scf accuracy    <       0.01105072 Ry

     iteration #  5     ecut=    40.00 Ry     beta=0.70
     CG style diagonalization
     c_bands:  1 eigenvalues not converged
     c_bands:  1 eigenvalues not converged
     c_bands:  2 eigenvalues not converged
     c_bands:  1 eigenvalues not converged
     c_bands:  1 eigenvalues not converged
     c_bands:  1 eigenvalues not converged
     c_bands:  1 eigenvalues not converged
     c_bands:  1 eigenvalues not converged
     c_bands:  2 eigenvalues not converged
     c_bands:  1 eigenvalues not converged
     c_bands:  2 eigenvalues not converged
     c_bands:  2 eigenvalues not converged
     c_bands:  3 eigenvalues not converged
     c_bands:  1 eigenvalues not converged
     c_bands:  1 eigenvalues not converged
     c_bands:  1 eigenvalues not converged
     c_bands:  1 eigenvalues not converged
     c_bands:  1 eigenvalues not converged
     c_bands:  1 eigenvalues not converged
     c_bands:  1 eigenvalues not converged
     c_bands:  2 eigenvalues not converged
     c_bands:  2 eigenvalues not converged
     c_bands:  1 eigenvalues not converged
     c_bands:  1 eigenvalues not converged
     c_bands:  1 eigenvalues not converged
     c_bands:  1 eigenvalues not converged
     c_bands:  1 eigenvalues not converged
     ethr =  1.45E-05,  avg # of iterations =  4.8

     total cpu time spent up to now is     1161.2 secs

     total energy              =    -931.80732454 Ry
     Harris-Foulkes estimate   =    -931.80803285 Ry
     estimated scf accuracy    <       0.00166976 Ry

     iteration #  6     ecut=    40.00 Ry     beta=0.70
     CG style diagonalization
     c_bands:  1 eigenvalues not converged
     c_bands:  1 eigenvalues not converged
     c_bands:  1 eigenvalues not converged
     c_bands:  1 eigenvalues not converged
     c_bands:  1 eigenvalues not converged
     c_bands:  1 eigenvalues not converged
     c_bands:  1 eigenvalues not converged
     c_bands:  1 eigenvalues not converged
     c_bands:  1 eigenvalues not converged
     c_bands:  1 eigenvalues not converged
     c_bands:  1 eigenvalues not converged
     c_bands:  1 eigenvalues not converged
     ethr =  2.20E-06,  avg # of iterations =  3.6

     total cpu time spent up to now is     1185.8 secs

     total energy              =    -931.80757743 Ry
     Harris-Foulkes estimate   =    -931.80760976 Ry
     estimated scf accuracy    <       0.00005901 Ry

     iteration #  7     ecut=    40.00 Ry     beta=0.70
     CG style diagonalization
     ethr =  7.76E-08,  avg # of iterations =  4.3

     total cpu time spent up to now is     1215.5 secs

     total energy              =    -931.80761704 Ry
     Harris-Foulkes estimate   =    -931.80762356 Ry
     estimated scf accuracy    <       0.00001408 Ry

     iteration #  8     ecut=    40.00 Ry     beta=0.70
     CG style diagonalization
     ethr =  1.85E-08,  avg # of iterations =  3.4

     total cpu time spent up to now is     1241.5 secs

     End of self-consistent calculation

     Number of k-points >= 100: set verbosity='high' to print the bands.

     the Fermi energy is    38.3181 ev

!    total energy              =    -931.80762046 Ry
     Harris-Foulkes estimate   =    -931.80762047 Ry
     estimated scf accuracy    <       0.00000001 Ry

     The total energy is the sum of the following terms:

     one-electron contribution =     -21.27846655 Ry
     hartree contribution      =      97.13243750 Ry
     xc contribution           =     -90.67924858 Ry
     ewald contribution        =    -916.91994669 Ry
     smearing contrib. (-TS)   =      -0.06239615 Ry

     convergence has been achieved in   8 iterations

     Forces acting on atoms (Ry/au):

     atom    1 type  1   force =     0.00000000    0.00000000    0.00000000
     atom    2 type  1   force =     0.00000000    0.00000000    0.00000000
     atom    3 type  1   force =     0.00000000    0.00000000    0.00000000
     atom    4 type  2   force =     0.00000000    0.00000000    0.00000000

     Total force =     0.000000     Total SCF correction =     0.000000


     entering subroutine stress ...

          total   stress  (Ry/bohr**3)                   (kbar)     P= 1935.98
   0.01316054   0.00000000   0.00000000       1935.98      0.00      0.00
   0.00000000   0.01316054   0.00000000          0.00   1935.98      0.00
   0.00000000   0.00000000   0.01316054          0.00      0.00   1935.98


     number of scf cycles    =   4
     number of bfgs steps    =   2

     enthalpy old            =    -932.1712728295 Ry
     enthalpy new            =    -931.8076204631 Ry

     CASE: enthalpy_new > enthalpy_old

     new trust radius        =       0.1410317364 bohr

     trust_radius < trust_radius_min

     resetting bfgs history

     Message from routine bfgs:
     history already reset at previous step: stopping
     new conv_thr            =       0.0000010000 Ry

     new unit-cell volume =    366.70081 a.u.^3 (    54.33945 Ang^3 )

CELL_PARAMETERS (alat=  7.13166486)
   1.003644010   0.000000000   0.000000000
   0.000000000   1.003644010   0.000000000
   0.000000000   0.000000000   1.003644010

ATOMIC_POSITIONS (crystal)
Cu       0.000000000   0.500000000   0.500000000
Cu       0.500000000   0.500000000   0.000000000
Cu       0.500000000   0.000000000   0.500000000
Au       0.000000000   0.000000000   0.000000000



     Writing output data file Prototype-La-cP4-Cu3Au.save
     NEW-OLD atomic charge density approx. for the potential
     NEW k-points: (use verbosity='high' to print them)

     total cpu time spent up to now is     1246.7 secs

     Self-consistent Calculation

     iteration #  1     ecut=    40.00 Ry     beta=0.70
     CG style diagonalization
     c_bands:  1 eigenvalues not converged
     c_bands:  1 eigenvalues not converged
     c_bands:  1 eigenvalues not converged
     c_bands:  1 eigenvalues not converged
     c_bands:  1 eigenvalues not converged
     c_bands:  1 eigenvalues not converged
     c_bands:  1 eigenvalues not converged
     c_bands:  1 eigenvalues not converged
     c_bands:  1 eigenvalues not converged
     c_bands:  1 eigenvalues not converged
     c_bands:  1 eigenvalues not converged
     c_bands:  1 eigenvalues not converged
     c_bands:  1 eigenvalues not converged
     c_bands:  1 eigenvalues not converged
     c_bands:  1 eigenvalues not converged
     c_bands:  1 eigenvalues not converged
     c_bands:  1 eigenvalues not converged
     c_bands:  1 eigenvalues not converged
     c_bands:  1 eigenvalues not converged
     c_bands:  1 eigenvalues not converged
     c_bands:  2 eigenvalues not converged
     ethr =  1.00E-06,  avg # of iterations =  7.9

     total cpu time spent up to now is     1279.6 secs

     total energy              =    -931.48877901 Ry
     Harris-Foulkes estimate   =    -931.73900502 Ry
     estimated scf accuracy    <       0.31873970 Ry

     iteration #  2     ecut=    40.00 Ry     beta=0.70
     CG style diagonalization
     ethr =  4.19E-04,  avg # of iterations =  3.8

     total cpu time spent up to now is     1293.4 secs

     total energy              =    -931.57928006 Ry
     Harris-Foulkes estimate   =    -931.61244170 Ry
     estimated scf accuracy    <       0.04884662 Ry

     iteration #  3     ecut=    40.00 Ry     beta=0.70
     CG style diagonalization
     ethr =  6.43E-05,  avg # of iterations =  3.6

     total cpu time spent up to now is     1307.5 secs

     total energy              =    -931.59120765 Ry
     Harris-Foulkes estimate   =    -931.59611142 Ry
     estimated scf accuracy    <       0.00987849 Ry

     iteration #  4     ecut=    40.00 Ry     beta=0.70
     CG style diagonalization
     ethr =  1.30E-05,  avg # of iterations =  3.3

     total cpu time spent up to now is     1319.0 secs

     total energy              =    -931.59324740 Ry
     Harris-Foulkes estimate   =    -931.59328511 Ry
     estimated scf accuracy    <       0.00006659 Ry

     iteration #  5     ecut=    40.00 Ry     beta=0.70
     CG style diagonalization
     c_bands:  1 eigenvalues not converged
     c_bands:  1 eigenvalues not converged
     c_bands:  1 eigenvalues not converged
     ethr =  8.76E-08,  avg # of iterations =  4.5

     total cpu time spent up to now is     1336.5 secs

     total energy              =    -931.59329208 Ry
     Harris-Foulkes estimate   =    -931.59330423 Ry
     estimated scf accuracy    <       0.00002767 Ry

     iteration #  6     ecut=    40.00 Ry     beta=0.70
     CG style diagonalization
     c_bands:  1 eigenvalues not converged
     c_bands:  1 eigenvalues not converged
     ethr =  3.64E-08,  avg # of iterations =  3.3

     total cpu time spent up to now is     1351.3 secs

     total energy              =    -931.59329544 Ry
     Harris-Foulkes estimate   =    -931.59329614 Ry
     estimated scf accuracy    <       0.00000133 Ry

     iteration #  7     ecut=    40.00 Ry     beta=0.70
     CG style diagonalization
     ethr =  1.75E-09,  avg # of iterations =  3.8

     total cpu time spent up to now is     1365.2 secs

     End of self-consistent calculation

     Number of k-points >= 100: set verbosity='high' to print the bands.

     the Fermi energy is    40.0646 ev

!    total energy              =    -931.59329594 Ry
     Harris-Foulkes estimate   =    -931.59329611 Ry
     estimated scf accuracy    <       0.00000018 Ry

     The total energy is the sum of the following terms:

     one-electron contribution =      -4.90811910 Ry
     hartree contribution      =      93.13951708 Ry
     xc contribution           =     -91.02485926 Ry
     ewald contribution        =    -928.73996616 Ry
     smearing contrib. (-TS)   =      -0.05986850 Ry

     convergence has been achieved in   7 iterations

     Forces acting on atoms (Ry/au):

     atom    1 type  1   force =     0.00000000    0.00000000    0.00000000
     atom    2 type  1   force =     0.00000000    0.00000000    0.00000000
     atom    3 type  1   force =     0.00000000    0.00000000    0.00000000
     atom    4 type  2   force =     0.00000000    0.00000000    0.00000000

     Total force =     0.000000     Total SCF correction =     0.000000


     entering subroutine stress ...

          total   stress  (Ry/bohr**3)                   (kbar)     P= 2465.32
   0.01675891   0.00000000   0.00000000       2465.32      0.00      0.00
   0.00000000   0.01675891   0.00000000          0.00   2465.32      0.00
   0.00000000   0.00000000   0.01675891          0.00      0.00   2465.32


     The maximum number of steps has been reached.

     End of BFGS Geometry Optimization
Begin final coordinates
     new unit-cell volume =    366.70081 a.u.^3 (    54.33945 Ang^3 )

CELL_PARAMETERS (alat=  7.13166486)
   1.003644010   0.000000000   0.000000000
   0.000000000   1.003644010   0.000000000
   0.000000000   0.000000000   1.003644010

ATOMIC_POSITIONS (crystal)
Cu       0.000000000   0.500000000   0.500000000
Cu       0.500000000   0.500000000   0.000000000
Cu       0.500000000   0.000000000   0.500000000
Au       0.000000000   0.000000000   0.000000000
End final coordinates



     A final scf calculation at the relaxed structure.
     The G-vectors are recalculated for the final unit cell
     Results may differ from those at the preceding step.
 
     Parallelization info
     --------------------
     sticks:   dense  smooth     PW     G-vecs:    dense   smooth      PW
     Min         164     164     48                 3132     3132     524
     Max         165     165     49                 3135     3135     527
     Sum         657     657    193                12533    12533    2103
 


     bravais-lattice index     =            0
     lattice parameter (alat)  =       7.1317  a.u.
     unit-cell volume          =     366.7008 (a.u.)^3
     number of atoms/cell      =            4
     number of atomic types    =            2
     number of electrons       =        76.00
     number of Kohn-Sham states=           46
     kinetic-energy cutoff     =      40.0000  Ry
     charge density cutoff     =     160.0000  Ry
     convergence threshold     =      1.0E-06
     mixing beta               =       0.7000
     number of iterations used =            8  plain     mixing
     Exchange-correlation      = SLA-PZ-NOGX-NOGC ( 1 1 0 0 0)
     EXX-fraction              =        0.00

     celldm(1)=   7.131665  celldm(2)=   0.000000  celldm(3)=   0.000000
     celldm(4)=   0.000000  celldm(5)=   0.000000  celldm(6)=   0.000000

     crystal axes: (cart. coord. in units of alat)
               a(1) = (   1.003644   0.000000   0.000000 )  
               a(2) = (   0.000000   1.003644   0.000000 )  
               a(3) = (   0.000000   0.000000   1.003644 )  

     reciprocal axes: (cart. coord. in units 2 pi/alat)
               b(1) = (  0.996369  0.000000  0.000000 )  
               b(2) = (  0.000000  0.996369  0.000000 )  
               b(3) = (  0.000000  0.000000  0.996369 )  


     PseudoPot. # 1 for Dy read from file:
     /home/cwx6513/pp.La/Dy.UPF
     MD5 check sum: 9597327bec62616a94a14d07f3fd9936
     Pseudo is Norm-conserving, Zval = 20.0
     Generated in analytical, separable form
     Using radial grid of 1265 points,  6 beta functions with: 
                l(1) =   0
                l(2) =   0
                l(3) =   1
                l(4) =   1
                l(5) =   2
                l(6) =   3

     PseudoPot. # 2 for Sm read from file:
     /home/cwx6513/pp.La/Sm.UPF
     MD5 check sum: 5079e8b144a06bfcdbc14fb02b96ab09
     Pseudo is Norm-conserving, Zval = 16.0
     Generated in analytical, separable form
     Using radial grid of 1259 points,  6 beta functions with: 
                l(1) =   0
                l(2) =   0
                l(3) =   1
                l(4) =   1
                l(5) =   2
                l(6) =   3

     atomic species   valence    mass     pseudopotential
        Cu            20.00    63.54600     Dy( 1.00)
        Au            16.00   196.96600     Sm( 1.00)

     48 Sym. Ops., with inversion, found



   Cartesian axes

     site n.     atom                  positions (alat units)
         1           Cu  tau(   1) = (   0.0000000   0.5018220   0.5018220  )
         2           Cu  tau(   2) = (   0.5018220   0.5018220   0.0000000  )
         3           Cu  tau(   3) = (   0.5018220   0.0000000   0.5018220  )
         4           Au  tau(   4) = (   0.0000000   0.0000000   0.0000000  )

     number of k points=   100  gaussian smearing, width (Ry)=  0.1000

     Number of k-points >= 100: set verbosity='high' to print them.

     Dense  grid:    12533 G-vectors     FFT dimensions: (  30,  30,  30)

     Largest allocated arrays     est. size (Mb)     dimensions
        Kohn-Sham Wavefunctions         0.28 Mb     (    405,   46)
        NL pseudopotentials             0.49 Mb     (    405,   80)
        Each V/rho on FFT grid          0.11 Mb     (   7200)
        Each G-vector array             0.02 Mb     (   3134)
        G-vector shells                 0.00 Mb     (    175)
     Largest temporary arrays     est. size (Mb)     dimensions
        Each subspace H/S matrix        0.03 Mb     (  46,  46)
        Each <psi_i|beta_j> matrix      0.06 Mb     (     80,   46)
        Arrays for rho mixing           0.88 Mb     (   7200,   8)

     Initial potential from superposition of free atoms

     Starting from uniform charge
     Starting wfc are    0 randomized atomic wfcs

     Writing output data file Prototype-La-cP4-Cu3Au.save

     total cpu time spent up to now is     1372.9 secs

     Self-consistent Calculation

     iteration #  1     ecut=    40.00 Ry     beta=0.70
     CG style diagonalization
     c_bands:  1 eigenvalues not converged
     c_bands:  4 eigenvalues not converged
     c_bands:  3 eigenvalues not converged
     c_bands:  4 eigenvalues not converged
     c_bands:  1 eigenvalues not converged
     c_bands:  1 eigenvalues not converged
     c_bands:  2 eigenvalues not converged
     c_bands:  1 eigenvalues not converged
     c_bands:  1 eigenvalues not converged
     c_bands:  3 eigenvalues not converged
     c_bands:  4 eigenvalues not converged
     c_bands:  4 eigenvalues not converged
     c_bands:  2 eigenvalues not converged
     c_bands:  3 eigenvalues not converged
     c_bands:  4 eigenvalues not converged
     c_bands:  4 eigenvalues not converged
     c_bands:  2 eigenvalues not converged
     c_bands:  3 eigenvalues not converged
     c_bands:  3 eigenvalues not converged
     c_bands:  3 eigenvalues not converged
     c_bands:  3 eigenvalues not converged
     c_bands:  5 eigenvalues not converged
     c_bands:  3 eigenvalues not converged
     c_bands:  4 eigenvalues not converged
     c_bands:  3 eigenvalues not converged
     c_bands:  3 eigenvalues not converged
     c_bands:  5 eigenvalues not converged
     c_bands:  5 eigenvalues not converged
     c_bands:  1 eigenvalues not converged
     c_bands:  1 eigenvalues not converged
     c_bands:  2 eigenvalues not converged
     c_bands:  4 eigenvalues not converged
     c_bands:  4 eigenvalues not converged
     c_bands:  2 eigenvalues not converged
     c_bands:  3 eigenvalues not converged
     c_bands:  2 eigenvalues not converged
     c_bands:  3 eigenvalues not converged
     c_bands:  3 eigenvalues not converged
     c_bands:  4 eigenvalues not converged
     c_bands:  3 eigenvalues not converged
     c_bands:  5 eigenvalues not converged
     c_bands:  3 eigenvalues not converged
     c_bands:  2 eigenvalues not converged
     c_bands:  4 eigenvalues not converged
     c_bands:  3 eigenvalues not converged
     c_bands:  3 eigenvalues not converged
     c_bands:  3 eigenvalues not converged
     c_bands:  3 eigenvalues not converged
     c_bands:  4 eigenvalues not converged
     c_bands:  2 eigenvalues not converged
     c_bands:  2 eigenvalues not converged
     c_bands:  2 eigenvalues not converged
     c_bands:  2 eigenvalues not converged
     c_bands:  4 eigenvalues not converged
     c_bands:  3 eigenvalues not converged
     c_bands:  5 eigenvalues not converged
     c_bands:  4 eigenvalues not converged
     c_bands:  3 eigenvalues not converged
     c_bands:  2 eigenvalues not converged
     c_bands:  4 eigenvalues not converged
     c_bands:  5 eigenvalues not converged
     c_bands:  3 eigenvalues not converged
     c_bands:  1 eigenvalues not converged
     c_bands:  5 eigenvalues not converged
     c_bands:  5 eigenvalues not converged
     c_bands:  4 eigenvalues not converged
     c_bands:  3 eigenvalues not converged
     c_bands:  4 eigenvalues not converged
     c_bands:  5 eigenvalues not converged
     c_bands:  3 eigenvalues not converged
     c_bands:  4 eigenvalues not converged
     c_bands:  5 eigenvalues not converged
     c_bands:  4 eigenvalues not converged
     c_bands:  4 eigenvalues not converged
     c_bands:  4 eigenvalues not converged
     c_bands:  2 eigenvalues not converged
     c_bands:  2 eigenvalues not converged
     c_bands:  4 eigenvalues not converged
     c_bands:  3 eigenvalues not converged
     c_bands:  4 eigenvalues not converged
     c_bands:  2 eigenvalues not converged
     c_bands:  3 eigenvalues not converged
     c_bands:  3 eigenvalues not converged
     c_bands:  4 eigenvalues not converged
     c_bands:  2 eigenvalues not converged
     c_bands:  3 eigenvalues not converged
     c_bands:  3 eigenvalues not converged
     c_bands:  3 eigenvalues not converged
     c_bands:  4 eigenvalues not converged
     c_bands:  3 eigenvalues not converged
     c_bands:  4 eigenvalues not converged
     c_bands:  3 eigenvalues not converged
     c_bands:  4 eigenvalues not converged
     c_bands:  4 eigenvalues not converged
     c_bands:  5 eigenvalues not converged
     c_bands:  2 eigenvalues not converged
     c_bands:  1 eigenvalues not converged
     c_bands:  3 eigenvalues not converged
     c_bands:  5 eigenvalues not converged
     c_bands:  2 eigenvalues not converged
     ethr =  1.00E-06,  avg # of iterations = 48.5

     total cpu time spent up to now is     1554.9 secs

     total energy              =    -802.73112286 Ry
     Harris-Foulkes estimate   =   -1076.96329420 Ry
     estimated scf accuracy    <     350.50165762 Ry

     iteration #  2     ecut=    40.00 Ry     beta=0.70
     CG style diagonalization
     c_bands:  1 eigenvalues not converged
     c_bands:  1 eigenvalues not converged
     c_bands:  1 eigenvalues not converged
     c_bands:  1 eigenvalues not converged
     c_bands:  1 eigenvalues not converged
     c_bands:  1 eigenvalues not converged
     c_bands:  1 eigenvalues not converged
     ethr =  1.00E-02,  avg # of iterations = 11.0

     total cpu time spent up to now is     1596.5 secs

     total energy              =    -823.02647547 Ry
     Harris-Foulkes estimate   =    -997.43829077 Ry
     estimated scf accuracy    <     310.25772150 Ry

     iteration #  3     ecut=    40.00 Ry     beta=0.70
     CG style diagonalization
     c_bands:  1 eigenvalues not converged
     c_bands:  1 eigenvalues not converged
     ethr =  1.00E-02,  avg # of iterations =  8.8

     total cpu time spent up to now is     1628.7 secs

     total energy              =    -923.99050537 Ry
     Harris-Foulkes estimate   =    -954.18444732 Ry
     estimated scf accuracy    <      70.08703898 Ry

     iteration #  4     ecut=    40.00 Ry     beta=0.70
     CG style diagonalization
     ethr =  1.00E-02,  avg # of iterations =  4.6

     total cpu time spent up to now is     1646.1 secs

     total energy              =    -931.59257087 Ry
     Harris-Foulkes estimate   =    -933.02316141 Ry
     estimated scf accuracy    <       4.55380238 Ry

     iteration #  5     ecut=    40.00 Ry     beta=0.70
     CG style diagonalization
     ethr =  5.99E-03,  avg # of iterations =  3.2

     total cpu time spent up to now is     1658.9 secs

     total energy              =    -931.06227345 Ry
     Harris-Foulkes estimate   =    -931.91425561 Ry
     estimated scf accuracy    <       1.37053217 Ry

     iteration #  6     ecut=    40.00 Ry     beta=0.70
     CG style diagonalization
     ethr =  1.80E-03,  avg # of iterations =  4.1

     total cpu time spent up to now is     1672.8 secs

     total energy              =    -931.55083183 Ry
     Harris-Foulkes estimate   =    -931.73285460 Ry
     estimated scf accuracy    <       0.40443112 Ry

     iteration #  7     ecut=    40.00 Ry     beta=0.70
     CG style diagonalization
     c_bands:  1 eigenvalues not converged
     c_bands:  1 eigenvalues not converged
     c_bands:  1 eigenvalues not converged
     ethr =  5.32E-04,  avg # of iterations =  3.6

     total cpu time spent up to now is     1685.9 secs

     total energy              =    -931.60553868 Ry
     Harris-Foulkes estimate   =    -931.61628446 Ry
     estimated scf accuracy    <       0.01730464 Ry

     iteration #  8     ecut=    40.00 Ry     beta=0.70
     CG style diagonalization
     c_bands:  1 eigenvalues not converged
     c_bands:  1 eigenvalues not converged
     c_bands:  1 eigenvalues not converged
     c_bands:  1 eigenvalues not converged
     c_bands:  1 eigenvalues not converged
     c_bands:  1 eigenvalues not converged
     c_bands:  1 eigenvalues not converged
     c_bands:  1 eigenvalues not converged
     c_bands:  1 eigenvalues not converged
     c_bands:  2 eigenvalues not converged
     c_bands:  1 eigenvalues not converged
     c_bands:  1 eigenvalues not converged
     c_bands:  1 eigenvalues not converged
     c_bands:  1 eigenvalues not converged
     c_bands:  1 eigenvalues not converged
     c_bands:  1 eigenvalues not converged
     c_bands:  1 eigenvalues not converged
     c_bands:  2 eigenvalues not converged
     c_bands:  1 eigenvalues not converged
     c_bands:  1 eigenvalues not converged
     c_bands:  1 eigenvalues not converged
     c_bands:  1 eigenvalues not converged
     c_bands:  1 eigenvalues not converged
     c_bands:  1 eigenvalues not converged
     c_bands:  1 eigenvalues not converged
     c_bands:  1 eigenvalues not converged
     c_bands:  1 eigenvalues not converged
     c_bands:  1 eigenvalues not converged
     c_bands:  1 eigenvalues not converged
     c_bands:  1 eigenvalues not converged
     c_bands:  1 eigenvalues not converged
     c_bands:  1 eigenvalues not converged
     c_bands:  1 eigenvalues not converged
     c_bands:  1 eigenvalues not converged
     ethr =  2.28E-05,  avg # of iterations =  4.7

     total cpu time spent up to now is     1705.0 secs

     total energy              =    -931.61319186 Ry
     Harris-Foulkes estimate   =    -931.61826656 Ry
     estimated scf accuracy    <       0.01090156 Ry

     iteration #  9     ecut=    40.00 Ry     beta=0.70
     CG style diagonalization
     c_bands:  2 eigenvalues not converged
     c_bands:  1 eigenvalues not converged
     ethr =  1.43E-05,  avg # of iterations =  3.3

     total cpu time spent up to now is     1718.2 secs

     total energy              =    -931.61515855 Ry
     Harris-Foulkes estimate   =    -931.61519686 Ry
     estimated scf accuracy    <       0.00008487 Ry

     iteration # 10     ecut=    40.00 Ry     beta=0.70
     CG style diagonalization
     c_bands:  1 eigenvalues not converged
     c_bands:  1 eigenvalues not converged
     c_bands:  1 eigenvalues not converged
     c_bands:  1 eigenvalues not converged
     c_bands:  1 eigenvalues not converged
     c_bands:  1 eigenvalues not converged
     c_bands:  1 eigenvalues not converged
     c_bands:  1 eigenvalues not converged
     c_bands:  1 eigenvalues not converged
     c_bands:  1 eigenvalues not converged
     c_bands:  1 eigenvalues not converged
     c_bands:  1 eigenvalues not converged
     c_bands:  1 eigenvalues not converged
     ethr =  1.12E-07,  avg # of iterations =  5.1

     total cpu time spent up to now is     1737.9 secs

     total energy              =    -931.61525983 Ry
     Harris-Foulkes estimate   =    -931.61526121 Ry
     estimated scf accuracy    <       0.00001203 Ry

     iteration # 11     ecut=    40.00 Ry     beta=0.70
     CG style diagonalization
     c_bands:  1 eigenvalues not converged
     c_bands:  1 eigenvalues not converged
     c_bands:  1 eigenvalues not converged
     c_bands:  1 eigenvalues not converged
     ethr =  1.58E-08,  avg # of iterations =  3.2

     total cpu time spent up to now is     1748.6 secs

     total energy              =    -931.61525708 Ry
     Harris-Foulkes estimate   =    -931.61526077 Ry
     estimated scf accuracy    <       0.00000861 Ry

     iteration # 12     ecut=    40.00 Ry     beta=0.70
     CG style diagonalization
     ethr =  1.13E-08,  avg # of iterations =  3.4

     total cpu time spent up to now is     1760.9 secs

     End of self-consistent calculation

     Number of k-points >= 100: set verbosity='high' to print the bands.

     the Fermi energy is    40.0620 ev

!    total energy              =    -931.61525810 Ry
     Harris-Foulkes estimate   =    -931.61525856 Ry
     estimated scf accuracy    <       0.00000052 Ry

     The total energy is the sum of the following terms:

     one-electron contribution =      -4.93758510 Ry
     hartree contribution      =      93.14968559 Ry
     xc contribution           =     -91.02748621 Ry
     ewald contribution        =    -928.73996616 Ry
     smearing contrib. (-TS)   =      -0.05990621 Ry

     convergence has been achieved in  12 iterations

     Forces acting on atoms (Ry/au):

     atom    1 type  1   force =     0.00000000    0.00000000    0.00000000
     atom    2 type  1   force =     0.00000000    0.00000000    0.00000000
     atom    3 type  1   force =     0.00000000    0.00000000    0.00000000
     atom    4 type  2   force =     0.00000000    0.00000000    0.00000000

     Total force =     0.000000     Total SCF correction =     0.000000


     entering subroutine stress ...

          total   stress  (Ry/bohr**3)                   (kbar)     P= 2485.12
   0.01689348   0.00000000   0.00000000       2485.12      0.00      0.00
   0.00000000   0.01689348   0.00000000          0.00   2485.12      0.00
   0.00000000   0.00000000   0.01689348          0.00      0.00   2485.12


     Writing output data file Prototype-La-cP4-Cu3Au.save
 
     init_run     :      4.28s CPU      5.70s WALL (       2 calls)
     electrons    :   1173.83s CPU   1728.94s WALL (       5 calls)
     update_pot   :      1.21s CPU      2.58s WALL (       3 calls)
     forces       :      3.78s CPU      5.74s WALL (       5 calls)
     stress       :     11.51s CPU     15.48s WALL (       5 calls)

     Called by init_run:
     wfcinit      :      3.88s CPU      4.68s WALL (       2 calls)
     potinit      :      0.12s CPU      0.12s WALL (       2 calls)

     Called by electrons:
     c_bands      :   1113.75s CPU   1625.40s WALL (      43 calls)
     sum_band     :     58.72s CPU     86.53s WALL (      43 calls)
     v_of_rho     :      0.03s CPU      0.05s WALL (      48 calls)
     mix_rho      :      0.11s CPU      0.23s WALL (      43 calls)

     Called by c_bands:
     init_us_2    :      1.94s CPU      2.98s WALL (    9800 calls)
     ccgdiagg     :    970.69s CPU   1415.34s WALL (    4767 calls)
     wfcrot       :    145.06s CPU    210.24s WALL (    4867 calls)

     Called by *cgdiagg:
     h_psi        :    704.70s CPU   1017.69s WALL ( 1028639 calls)
     cdiaghg      :      8.24s CPU     12.13s WALL (    4867 calls)

     Called by h_psi:
     add_vuspsi   :     30.65s CPU     42.68s WALL ( 1028639 calls)

     General routines
     calbec       :    207.23s CPU    296.33s WALL ( 2053411 calls)
     fft          :      0.42s CPU      0.63s WALL (     215 calls)
     fftw         :    590.91s CPU    851.43s WALL ( 2693108 calls)
     davcio       :      1.23s CPU      2.59s WALL (   14100 calls)
 
     Parallel routines
     fft_scatter  :    447.77s CPU    653.41s WALL ( 2693323 calls)
 
     PWSCF        : 19m57.36s CPU    29m25.00s WALL

 
   This run was terminated on:   2:49: 9  23Mar2018            

=------------------------------------------------------------------------------=
   JOB DONE.
=------------------------------------------------------------------------------=
