
     Program PWSCF v.5.0.2 starts on 23Mar2018 at  2:19:45 

     This program is part of the open-source Quantum ESPRESSO suite
     for quantum simulation of materials; please cite
         "P. Giannozzi et al., J. Phys.:Condens. Matter 21 395502 (2009);
          URL http://www.quantum-espresso.org", 
     in publications or presentations arising from this work. More details at
     http://www.quantum-espresso.org/quote.php

     Parallel version (MPI), running on     4 processors
     R & G space division:  proc/nbgrp/npool/nimage =       4

     Current dimensions of program PWSCF are:
     Max number of different atomic species (ntypx) = 10
     Max number of k-points (npk) =  40000
     Max angular momentum in pseudopotentials (lmaxx) =  3
     Waiting for input...
     Reading input from standard input

     Subspace diagonalization in iterative solution of the eigenvalue problem:
     a serial algorithm will be used

 
     Parallelization info
     --------------------
     sticks:   dense  smooth     PW     G-vecs:    dense   smooth      PW
     Min         256     256     78                 5240     5240     876
     Max         257     257     79                 5243     5243     879
     Sum        1027    1027    313                20965    20965    3509
 


     bravais-lattice index     =            0
     lattice parameter (alat)  =       9.6483  a.u.
     unit-cell volume          =     613.3683 (a.u.)^3
     number of atoms/cell      =            6
     number of atomic types    =            2
     number of electrons       =       100.00
     number of Kohn-Sham states=           60
     kinetic-energy cutoff     =      40.0000  Ry
     charge density cutoff     =     160.0000  Ry
     convergence threshold     =      1.0E-04
     mixing beta               =       0.7000
     number of iterations used =            8  plain     mixing
     Exchange-correlation      = SLA-PZ-NOGX-NOGC ( 1 1 0 0 0)
     EXX-fraction              =        0.00
     nstep                     =           50


     celldm(1)=   9.648295  celldm(2)=   0.000000  celldm(3)=   0.000000
     celldm(4)=   0.000000  celldm(5)=   0.000000  celldm(6)=   0.000000

     crystal axes: (cart. coord. in units of alat)
               a(1) = (   1.000000   0.000000   0.000000 )  
               a(2) = (  -0.500000   0.866025   0.000000 )  
               a(3) = (   0.000000   0.000000   0.788568 )  

     reciprocal axes: (cart. coord. in units 2 pi/alat)
               b(1) = (  1.000000  0.577350  0.000000 )  
               b(2) = (  0.000000  1.154701  0.000000 )  
               b(3) = (  0.000000  0.000000  1.268122 )  


     PseudoPot. # 1 for Dy read from file:
     /home/cwx6513/pp.La/Dy.UPF
     MD5 check sum: 9597327bec62616a94a14d07f3fd9936
     Pseudo is Norm-conserving, Zval = 20.0
     Generated in analytical, separable form
     Using radial grid of 1265 points,  6 beta functions with: 
                l(1) =   0
                l(2) =   0
                l(3) =   1
                l(4) =   1
                l(5) =   2
                l(6) =   3

     PseudoPot. # 2 for Sm read from file:
     /home/cwx6513/pp.La/Sm.UPF
     MD5 check sum: 5079e8b144a06bfcdbc14fb02b96ab09
     Pseudo is Norm-conserving, Zval = 16.0
     Generated in analytical, separable form
     Using radial grid of 1259 points,  6 beta functions with: 
                l(1) =   0
                l(2) =   0
                l(3) =   1
                l(4) =   1
                l(5) =   2
                l(6) =   3

     atomic species   valence    mass     pseudopotential
        Ca            20.00    40.07800     Dy( 1.00)
        Cu            16.00    63.54600     Sm( 1.00)

     24 Sym. Ops., with inversion, found



   Cartesian axes

     site n.     atom                  positions (alat units)
         1           Ca  tau(   1) = (   0.0000000   0.0000000   0.0000000  )
         2           Cu  tau(   2) = (  -0.0000005   0.5773506   0.0000000  )
         3           Cu  tau(   3) = (   0.5000005   0.2886748   0.0000000  )
         4           Cu  tau(   4) = (   0.5000000   0.0000000   0.3942838  )
         5           Cu  tau(   5) = (   0.2500000   0.4330127   0.3942838  )
         6           Cu  tau(   6) = (  -0.2500000   0.4330127   0.3942838  )

     number of k points=   110  gaussian smearing, width (Ry)=  0.1000

     Number of k-points >= 100: set verbosity='high' to print them.

     Dense  grid:    20965 G-vectors     FFT dimensions: (  40,  40,  32)

     Largest allocated arrays     est. size (Mb)     dimensions
        Kohn-Sham Wavefunctions         0.61 Mb     (    670,   60)
        NL pseudopotentials             1.23 Mb     (    670,  120)
        Each V/rho on FFT grid          0.20 Mb     (  12800)
        Each G-vector array             0.04 Mb     (   5243)
        G-vector shells                 0.04 Mb     (   5243)
     Largest temporary arrays     est. size (Mb)     dimensions
        Each subspace H/S matrix        0.05 Mb     (  60,  60)
        Each <psi_i|beta_j> matrix      0.11 Mb     (    120,   60)
        Arrays for rho mixing           1.56 Mb     (  12800,   8)

     Initial potential from superposition of free atoms

     Starting from uniform charge
     Starting wfc are    0 randomized atomic wfcs

     total cpu time spent up to now is        5.0 secs

     Self-consistent Calculation

     iteration #  1     ecut=    40.00 Ry     beta=0.70
     CG style diagonalization
     c_bands:  4 eigenvalues not converged
     c_bands:  4 eigenvalues not converged
     c_bands:  5 eigenvalues not converged
     c_bands:  1 eigenvalues not converged
     c_bands:  5 eigenvalues not converged
     c_bands:  4 eigenvalues not converged
     c_bands:  5 eigenvalues not converged
     c_bands:  1 eigenvalues not converged
     c_bands:  5 eigenvalues not converged
     c_bands:  5 eigenvalues not converged
     c_bands:  4 eigenvalues not converged
     ethr =  1.00E-02,  avg # of iterations = 18.7

     total cpu time spent up to now is      118.7 secs

     total energy              =    -962.23987289 Ry
     Harris-Foulkes estimate   =   -1170.42060083 Ry
     estimated scf accuracy    <     270.43275224 Ry

     iteration #  2     ecut=    40.00 Ry     beta=0.70
     CG style diagonalization
     c_bands:  1 eigenvalues not converged
     ethr =  1.00E-02,  avg # of iterations =  7.7

     total cpu time spent up to now is      167.9 secs

     total energy              =   -1007.54608307 Ry
     Harris-Foulkes estimate   =   -1024.66357109 Ry
     estimated scf accuracy    <      23.70747273 Ry

     iteration #  3     ecut=    40.00 Ry     beta=0.70
     CG style diagonalization
     ethr =  1.00E-02,  avg # of iterations =  5.6

     total cpu time spent up to now is      201.5 secs

     total energy              =   -1012.30687834 Ry
     Harris-Foulkes estimate   =   -1021.78572735 Ry
     estimated scf accuracy    <      21.15386265 Ry

     iteration #  4     ecut=    40.00 Ry     beta=0.70
     CG style diagonalization
     ethr =  1.00E-02,  avg # of iterations =  3.7

     total cpu time spent up to now is      223.1 secs

     total energy              =   -1016.46114996 Ry
     Harris-Foulkes estimate   =   -1016.71974339 Ry
     estimated scf accuracy    <       0.43018815 Ry

     iteration #  5     ecut=    40.00 Ry     beta=0.70
     CG style diagonalization
     c_bands:  1 eigenvalues not converged
     c_bands:  1 eigenvalues not converged
     c_bands:  1 eigenvalues not converged
     ethr =  4.30E-04,  avg # of iterations =  4.5

     total cpu time spent up to now is      249.2 secs

     total energy              =   -1016.64562308 Ry
     Harris-Foulkes estimate   =   -1016.73985780 Ry
     estimated scf accuracy    <       0.16510463 Ry

     iteration #  6     ecut=    40.00 Ry     beta=0.70
     CG style diagonalization
     c_bands:  1 eigenvalues not converged
     ethr =  1.65E-04,  avg # of iterations =  3.7

     total cpu time spent up to now is      270.2 secs

     total energy              =   -1016.68428439 Ry
     Harris-Foulkes estimate   =   -1016.71483054 Ry
     estimated scf accuracy    <       0.07714190 Ry

     iteration #  7     ecut=    40.00 Ry     beta=0.70
     CG style diagonalization
     ethr =  7.71E-05,  avg # of iterations =  3.3

     total cpu time spent up to now is      289.9 secs

     total energy              =   -1016.69920772 Ry
     Harris-Foulkes estimate   =   -1016.69968372 Ry
     estimated scf accuracy    <       0.00103568 Ry

     iteration #  8     ecut=    40.00 Ry     beta=0.70
     CG style diagonalization
     c_bands:  1 eigenvalues not converged
     c_bands:  1 eigenvalues not converged
     c_bands:  1 eigenvalues not converged
     c_bands:  1 eigenvalues not converged
     c_bands:  1 eigenvalues not converged
     c_bands:  1 eigenvalues not converged
     c_bands:  1 eigenvalues not converged
     c_bands:  1 eigenvalues not converged
     c_bands:  1 eigenvalues not converged
     c_bands:  1 eigenvalues not converged
     c_bands:  1 eigenvalues not converged
     c_bands:  1 eigenvalues not converged
     c_bands:  1 eigenvalues not converged
     ethr =  1.04E-06,  avg # of iterations =  5.1

     total cpu time spent up to now is      319.1 secs

     total energy              =   -1016.69999537 Ry
     Harris-Foulkes estimate   =   -1016.70011514 Ry
     estimated scf accuracy    <       0.00026847 Ry

     iteration #  9     ecut=    40.00 Ry     beta=0.70
     CG style diagonalization
     ethr =  2.68E-07,  avg # of iterations =  3.5

     total cpu time spent up to now is      339.6 secs

     End of self-consistent calculation

     Number of k-points >= 100: set verbosity='high' to print the bands.

     the Fermi energy is    33.1377 ev

!    total energy              =   -1016.70003798 Ry
     Harris-Foulkes estimate   =   -1016.70005654 Ry
     estimated scf accuracy    <       0.00002538 Ry

     The total energy is the sum of the following terms:

     one-electron contribution =      -3.74729618 Ry
     hartree contribution      =     107.99492691 Ry
     xc contribution           =    -109.56495792 Ry
     ewald contribution        =   -1011.08650977 Ry
     smearing contrib. (-TS)   =      -0.29620102 Ry

     convergence has been achieved in   9 iterations

     Forces acting on atoms (Ry/au):

     atom    1 type  1   force =     0.00000000    0.00000000    0.00000000
     atom    2 type  2   force =     0.00000000    0.00000000    0.00000000
     atom    3 type  2   force =     0.00000000    0.00000000    0.00000000
     atom    4 type  2   force =     0.00000000    0.00000000    0.00000000
     atom    5 type  2   force =     0.00000000    0.00000000    0.00000000
     atom    6 type  2   force =     0.00000000    0.00000000    0.00000000

     Total force =     0.000000     Total SCF correction =     0.000000


     entering subroutine stress ...

          total   stress  (Ry/bohr**3)                   (kbar)     P= 1858.95
   0.01075583   0.00000000   0.00000000       1582.24      0.00      0.00
   0.00000000   0.01075583   0.00000000          0.00   1582.24      0.00
   0.00000000   0.00000000   0.01639907          0.00      0.00   2412.39


     BFGS Geometry Optimization

     number of scf cycles    =   1
     number of bfgs steps    =   0

     enthalpy new            =   -1016.7000379757 Ry

     new trust radius        =       0.5000000000 bohr
     new conv_thr            =       0.0001000000 Ry

     new unit-cell volume =    767.66107 a.u.^3 (   113.75563 Ang^3 )

CELL_PARAMETERS (alat=  9.64829493)
   1.066207035   0.000000000   0.000000000
  -0.533103517   0.923362378   0.000000000
   0.000000000   0.000000000   0.868168629

ATOMIC_POSITIONS (crystal)
Ca       0.000000000   0.000000000   0.000000000
Cu       0.333333000   0.666667000   0.000000000
Cu       0.666667000   0.333333000   0.000000000
Cu       0.500000000   0.000000000   0.500000000
Cu       0.500000000   0.500000000   0.500000000
Cu       0.000000000   0.500000000   0.500000000



     Writing output data file Prototype-La-hP6-CaCu5.save
     NEW-OLD atomic charge density approx. for the potential
     NEW k-points: (use verbosity='high' to print them)

     total cpu time spent up to now is      345.6 secs

     Self-consistent Calculation

     iteration #  1     ecut=    40.00 Ry     beta=0.70
     CG style diagonalization
     c_bands:  1 eigenvalues not converged
     c_bands:  1 eigenvalues not converged
     c_bands:  1 eigenvalues not converged
     c_bands:  5 eigenvalues not converged
     c_bands:  2 eigenvalues not converged
     c_bands:  4 eigenvalues not converged
     c_bands:  1 eigenvalues not converged
     c_bands:  2 eigenvalues not converged
     c_bands:  3 eigenvalues not converged
     c_bands:  2 eigenvalues not converged
     c_bands:  3 eigenvalues not converged
     c_bands:  4 eigenvalues not converged
     c_bands:  5 eigenvalues not converged
     c_bands:  4 eigenvalues not converged
     c_bands:  2 eigenvalues not converged
     c_bands:  4 eigenvalues not converged
     c_bands:  3 eigenvalues not converged
     c_bands:  5 eigenvalues not converged
     c_bands:  5 eigenvalues not converged
     ethr =  1.00E-06,  avg # of iterations = 19.0

     total cpu time spent up to now is      449.6 secs

     total energy              =   -1013.70684210 Ry
     Harris-Foulkes estimate   =   -1022.83310354 Ry
     estimated scf accuracy    <      11.88306853 Ry

     iteration #  2     ecut=    40.00 Ry     beta=0.70
     CG style diagonalization
     ethr =  1.00E-02,  avg # of iterations =  3.9

     total cpu time spent up to now is      471.5 secs

     total energy              =   -1017.04004425 Ry
     Harris-Foulkes estimate   =   -1018.53125688 Ry
     estimated scf accuracy    <       2.37514000 Ry

     iteration #  3     ecut=    40.00 Ry     beta=0.70
     CG style diagonalization
     ethr =  2.38E-03,  avg # of iterations =  3.6

     total cpu time spent up to now is      492.0 secs

     total energy              =   -1017.45652110 Ry
     Harris-Foulkes estimate   =   -1017.85818229 Ry
     estimated scf accuracy    <       1.05834528 Ry

     iteration #  4     ecut=    40.00 Ry     beta=0.70
     CG style diagonalization
     ethr =  1.06E-03,  avg # of iterations =  3.2

     total cpu time spent up to now is      510.4 secs

     total energy              =   -1017.66251441 Ry
     Harris-Foulkes estimate   =   -1017.72219940 Ry
     estimated scf accuracy    <       0.18854872 Ry

     iteration #  5     ecut=    40.00 Ry     beta=0.70
     CG style diagonalization
     ethr =  1.89E-04,  avg # of iterations =  3.0

     total cpu time spent up to now is      529.1 secs

     total energy              =   -1017.68973277 Ry
     Harris-Foulkes estimate   =   -1017.69172265 Ry
     estimated scf accuracy    <       0.00319669 Ry

     iteration #  6     ecut=    40.00 Ry     beta=0.70
     CG style diagonalization
     c_bands:  1 eigenvalues not converged
     c_bands:  1 eigenvalues not converged
     ethr =  3.20E-06,  avg # of iterations =  4.4

     total cpu time spent up to now is      554.9 secs

     total energy              =   -1017.69145126 Ry
     Harris-Foulkes estimate   =   -1017.69182656 Ry
     estimated scf accuracy    <       0.00069731 Ry

     iteration #  7     ecut=    40.00 Ry     beta=0.70
     CG style diagonalization
     ethr =  6.97E-07,  avg # of iterations =  3.5

     total cpu time spent up to now is      575.1 secs

     End of self-consistent calculation

     Number of k-points >= 100: set verbosity='high' to print the bands.

     the Fermi energy is    25.4116 ev

!    total energy              =   -1017.69155467 Ry
     Harris-Foulkes estimate   =   -1017.69161396 Ry
     estimated scf accuracy    <       0.00006639 Ry

     The total energy is the sum of the following terms:

     one-electron contribution =    -102.79985410 Ry
     hartree contribution      =     131.49817093 Ry
     xc contribution           =    -106.91918884 Ry
     ewald contribution        =    -939.08509278 Ry
     smearing contrib. (-TS)   =      -0.38558988 Ry

     convergence has been achieved in   7 iterations

     Forces acting on atoms (Ry/au):

     atom    1 type  1   force =     0.00000000    0.00000000    0.00000000
     atom    2 type  2   force =     0.00000000    0.00000000    0.00000000
     atom    3 type  2   force =     0.00000000    0.00000000    0.00000000
     atom    4 type  2   force =     0.00000000    0.00000000    0.00000000
     atom    5 type  2   force =     0.00000000    0.00000000    0.00000000
     atom    6 type  2   force =     0.00000000    0.00000000    0.00000000

     Total force =     0.000000     Total SCF correction =     0.000000


     entering subroutine stress ...

          total   stress  (Ry/bohr**3)                   (kbar)     P=  193.98
   0.00071958   0.00000000   0.00000000        105.85      0.00      0.00
   0.00000000   0.00071958   0.00000000          0.00    105.85      0.00
   0.00000000   0.00000000   0.00251683          0.00      0.00    370.24


     number of scf cycles    =   2
     number of bfgs steps    =   1

     enthalpy old            =   -1016.7000379757 Ry
     enthalpy new            =   -1017.6915546686 Ry

     CASE: enthalpy_new < enthalpy_old

     small trust_radius: resetting bfgs history

     new trust radius        =       0.3486646622 bohr
     new conv_thr            =       0.0000010000 Ry

     new unit-cell volume =    845.58427 a.u.^3 (   125.30266 Ang^3 )

CELL_PARAMETERS (alat=  9.64829493)
   1.085387484   0.000000000   0.000000000
  -0.542693742   0.939973134   0.000000000
   0.000000000   0.000000000   0.922794361

ATOMIC_POSITIONS (crystal)
Ca       0.000000000   0.000000000   0.000000000
Cu       0.333333000   0.666667000   0.000000000
Cu       0.666667000   0.333333000   0.000000000
Cu       0.500000000   0.000000000   0.500000000
Cu       0.500000000   0.500000000   0.500000000
Cu       0.000000000   0.500000000   0.500000000



     Writing output data file Prototype-La-hP6-CaCu5.save
     NEW-OLD atomic charge density approx. for the potential
     NEW k-points: (use verbosity='high' to print them)

     total cpu time spent up to now is      581.4 secs

     Self-consistent Calculation

     iteration #  1     ecut=    40.00 Ry     beta=0.70
     CG style diagonalization
     c_bands:  3 eigenvalues not converged
     c_bands:  3 eigenvalues not converged
     c_bands:  2 eigenvalues not converged
     c_bands:  1 eigenvalues not converged
     c_bands:  5 eigenvalues not converged
     c_bands:  5 eigenvalues not converged
     c_bands:  1 eigenvalues not converged
     c_bands:  2 eigenvalues not converged
     c_bands:  2 eigenvalues not converged
     c_bands:  2 eigenvalues not converged
     c_bands:  3 eigenvalues not converged
     c_bands:  4 eigenvalues not converged
     c_bands:  2 eigenvalues not converged
     c_bands:  2 eigenvalues not converged
     c_bands:  2 eigenvalues not converged
     c_bands:  3 eigenvalues not converged
     c_bands:  1 eigenvalues not converged
     c_bands:  2 eigenvalues not converged
     c_bands:  2 eigenvalues not converged
     c_bands:  4 eigenvalues not converged
     c_bands:  2 eigenvalues not converged
     c_bands:  1 eigenvalues not converged
     c_bands:  4 eigenvalues not converged
     c_bands:  4 eigenvalues not converged
     c_bands:  5 eigenvalues not converged
     c_bands:  1 eigenvalues not converged
     c_bands:  1 eigenvalues not converged
     c_bands:  2 eigenvalues not converged
     c_bands:  5 eigenvalues not converged
     c_bands:  3 eigenvalues not converged
     c_bands:  2 eigenvalues not converged
     c_bands:  5 eigenvalues not converged
     c_bands:  4 eigenvalues not converged
     c_bands:  4 eigenvalues not converged
     c_bands:  3 eigenvalues not converged
     c_bands:  1 eigenvalues not converged
     c_bands:  2 eigenvalues not converged
     c_bands:  2 eigenvalues not converged
     c_bands:  2 eigenvalues not converged
     c_bands:  1 eigenvalues not converged
     c_bands:  4 eigenvalues not converged
     c_bands:  1 eigenvalues not converged
     c_bands:  4 eigenvalues not converged
     c_bands:  5 eigenvalues not converged
     ethr =  1.00E-06,  avg # of iterations = 15.2

     total cpu time spent up to now is      664.9 secs

     total energy              =   -1016.77751591 Ry
     Harris-Foulkes estimate   =   -1018.82699920 Ry
     estimated scf accuracy    <       2.67317369 Ry

     iteration #  2     ecut=    40.00 Ry     beta=0.70
     CG style diagonalization
     ethr =  2.67E-03,  avg # of iterations =  3.8

     total cpu time spent up to now is      688.2 secs

     total energy              =   -1017.46528638 Ry
     Harris-Foulkes estimate   =   -1017.88043751 Ry
     estimated scf accuracy    <       0.65594010 Ry

     iteration #  3     ecut=    40.00 Ry     beta=0.70
     CG style diagonalization
     ethr =  6.56E-04,  avg # of iterations =  3.6

     total cpu time spent up to now is      708.6 secs

     total energy              =   -1017.50955039 Ry
     Harris-Foulkes estimate   =   -1017.84859933 Ry
     estimated scf accuracy    <       1.34037509 Ry

     iteration #  4     ecut=    40.00 Ry     beta=0.70
     CG style diagonalization
     ethr =  6.56E-04,  avg # of iterations =  3.1

     total cpu time spent up to now is      726.0 secs

     total energy              =   -1017.67376124 Ry
     Harris-Foulkes estimate   =   -1017.67872502 Ry
     estimated scf accuracy    <       0.01202462 Ry

     iteration #  5     ecut=    40.00 Ry     beta=0.70
     CG style diagonalization
     ethr =  1.20E-05,  avg # of iterations =  3.9

     total cpu time spent up to now is      748.3 secs

     total energy              =   -1017.67751632 Ry
     Harris-Foulkes estimate   =   -1017.67818384 Ry
     estimated scf accuracy    <       0.00144739 Ry

     iteration #  6     ecut=    40.00 Ry     beta=0.70
     CG style diagonalization
     c_bands:  1 eigenvalues not converged
     ethr =  1.45E-06,  avg # of iterations =  3.6

     total cpu time spent up to now is      769.4 secs

     total energy              =   -1017.67775610 Ry
     Harris-Foulkes estimate   =   -1017.67789298 Ry
     estimated scf accuracy    <       0.00028929 Ry

     iteration #  7     ecut=    40.00 Ry     beta=0.70
     CG style diagonalization
     ethr =  2.89E-07,  avg # of iterations =  3.5

     total cpu time spent up to now is      790.4 secs

     total energy              =   -1017.67782662 Ry
     Harris-Foulkes estimate   =   -1017.67783824 Ry
     estimated scf accuracy    <       0.00002288 Ry

     iteration #  8     ecut=    40.00 Ry     beta=0.70
     CG style diagonalization
     ethr =  2.29E-08,  avg # of iterations =  3.7

     total cpu time spent up to now is      811.8 secs

     End of self-consistent calculation

     Number of k-points >= 100: set verbosity='high' to print the bands.

     the Fermi energy is    22.5299 ev

!    total energy              =   -1017.67783215 Ry
     Harris-Foulkes estimate   =   -1017.67783259 Ry
     estimated scf accuracy    <       0.00000057 Ry

     The total energy is the sum of the following terms:

     one-electron contribution =    -142.99935797 Ry
     hartree contribution      =     141.81130299 Ry
     xc contribution           =    -105.93653359 Ry
     ewald contribution        =    -910.12979194 Ry
     smearing contrib. (-TS)   =      -0.42345164 Ry

     convergence has been achieved in   8 iterations

     Forces acting on atoms (Ry/au):

     atom    1 type  1   force =     0.00000000    0.00000000    0.00000000
     atom    2 type  2   force =     0.00000000    0.00000000    0.00000000
     atom    3 type  2   force =     0.00000000    0.00000000    0.00000000
     atom    4 type  2   force =     0.00000000    0.00000000    0.00000000
     atom    5 type  2   force =     0.00000000    0.00000000    0.00000000
     atom    6 type  2   force =     0.00000000    0.00000000    0.00000000

     Total force =     0.000000     Total SCF correction =     0.000000


     entering subroutine stress ...

          total   stress  (Ry/bohr**3)                   (kbar)     P= -267.57
  -0.00175808   0.00000000   0.00000000       -258.62      0.00      0.00
   0.00000000  -0.00175808   0.00000000          0.00   -258.62      0.00
   0.00000000   0.00000000  -0.00194060          0.00      0.00   -285.47


     number of scf cycles    =   3
     number of bfgs steps    =   2

     enthalpy old            =   -1017.6915546686 Ry
     enthalpy new            =   -1017.6778321494 Ry

     CASE: enthalpy_new > enthalpy_old

     new trust radius        =       0.1569121594 bohr

     trust_radius < trust_radius_min

     resetting bfgs history

     Message from routine bfgs:
     history already reset at previous step: stopping
     new conv_thr            =       0.0000010000 Ry

     new unit-cell volume =    845.09910 a.u.^3 (   125.23077 Ang^3 )

CELL_PARAMETERS (alat=  9.64829493)
   1.084252078   0.000000000   0.000000000
  -0.542126039   0.938989844   0.000000000
   0.000000000   0.000000000   0.924197462

ATOMIC_POSITIONS (crystal)
Ca       0.000000000   0.000000000   0.000000000
Cu       0.333333000   0.666667000   0.000000000
Cu       0.666667000   0.333333000   0.000000000
Cu       0.500000000   0.000000000   0.500000000
Cu       0.500000000   0.500000000   0.500000000
Cu       0.000000000   0.500000000   0.500000000



     Writing output data file Prototype-La-hP6-CaCu5.save
     NEW-OLD atomic charge density approx. for the potential
     NEW k-points: (use verbosity='high' to print them)

     total cpu time spent up to now is      818.2 secs

     Self-consistent Calculation

     iteration #  1     ecut=    40.00 Ry     beta=0.70
     CG style diagonalization
     ethr =  1.00E-06,  avg # of iterations =  4.4

     total cpu time spent up to now is      842.8 secs

     total energy              =   -1017.67801787 Ry
     Harris-Foulkes estimate   =   -1017.67896803 Ry
     estimated scf accuracy    <       0.00134186 Ry

     iteration #  2     ecut=    40.00 Ry     beta=0.70
     CG style diagonalization
     ethr =  1.34E-06,  avg # of iterations =  3.8

     total cpu time spent up to now is      864.5 secs

     total energy              =   -1017.67819370 Ry
     Harris-Foulkes estimate   =   -1017.67851535 Ry
     estimated scf accuracy    <       0.00049885 Ry

     iteration #  3     ecut=    40.00 Ry     beta=0.70
     CG style diagonalization
     ethr =  4.99E-07,  avg # of iterations =  3.5

     total cpu time spent up to now is      884.9 secs

     total energy              =   -1017.67819924 Ry
     Harris-Foulkes estimate   =   -1017.67858497 Ry
     estimated scf accuracy    <       0.00144708 Ry

     iteration #  4     ecut=    40.00 Ry     beta=0.70
     CG style diagonalization
     ethr =  4.99E-07,  avg # of iterations =  3.3

     total cpu time spent up to now is      904.3 secs

     total energy              =   -1017.67838554 Ry
     Harris-Foulkes estimate   =   -1017.67841565 Ry
     estimated scf accuracy    <       0.00008642 Ry

     iteration #  5     ecut=    40.00 Ry     beta=0.70
     CG style diagonalization
     ethr =  8.64E-08,  avg # of iterations =  3.2

     total cpu time spent up to now is      923.8 secs

     End of self-consistent calculation

     Number of k-points >= 100: set verbosity='high' to print the bands.

     the Fermi energy is    22.5446 ev

!    total energy              =   -1017.67839888 Ry
     Harris-Foulkes estimate   =   -1017.67839922 Ry
     estimated scf accuracy    <       0.00000048 Ry

     The total energy is the sum of the following terms:

     one-electron contribution =    -142.67628638 Ry
     hartree contribution      =     141.70079779 Ry
     xc contribution           =    -105.93872944 Ry
     ewald contribution        =    -910.34118636 Ry
     smearing contrib. (-TS)   =      -0.42299449 Ry

     convergence has been achieved in   5 iterations

     Forces acting on atoms (Ry/au):

     atom    1 type  1   force =     0.00000000    0.00000000    0.00000000
     atom    2 type  2   force =     0.00000000    0.00000000    0.00000000
     atom    3 type  2   force =     0.00000000    0.00000000    0.00000000
     atom    4 type  2   force =     0.00000000    0.00000000    0.00000000
     atom    5 type  2   force =     0.00000000    0.00000000    0.00000000
     atom    6 type  2   force =     0.00000000    0.00000000    0.00000000

     Total force =     0.000000     Total SCF correction =     0.000000


     entering subroutine stress ...

          total   stress  (Ry/bohr**3)                   (kbar)     P= -267.09
  -0.00172884   0.00000000   0.00000000       -254.32      0.00      0.00
   0.00000000  -0.00172884   0.00000000          0.00   -254.32      0.00
   0.00000000   0.00000000  -0.00198926          0.00      0.00   -292.63


     The maximum number of steps has been reached.

     End of BFGS Geometry Optimization
Begin final coordinates
     new unit-cell volume =    845.09910 a.u.^3 (   125.23077 Ang^3 )

CELL_PARAMETERS (alat=  9.64829493)
   1.084252078   0.000000000   0.000000000
  -0.542126039   0.938989844   0.000000000
   0.000000000   0.000000000   0.924197462

ATOMIC_POSITIONS (crystal)
Ca       0.000000000   0.000000000   0.000000000
Cu       0.333333000   0.666667000   0.000000000
Cu       0.666667000   0.333333000   0.000000000
Cu       0.500000000   0.000000000   0.500000000
Cu       0.500000000   0.500000000   0.500000000
Cu       0.000000000   0.500000000   0.500000000
End final coordinates



     A final scf calculation at the relaxed structure.
     The G-vectors are recalculated for the final unit cell
     Results may differ from those at the preceding step.
 
     Parallelization info
     --------------------
     sticks:   dense  smooth     PW     G-vecs:    dense   smooth      PW
     Min         300     300     90                 7222     7222    1168
     Max         301     301     91                 7225     7225    1171
     Sum        1201    1201    361                28895    28895    4675
 


     bravais-lattice index     =            0
     lattice parameter (alat)  =       9.6483  a.u.
     unit-cell volume          =     845.0991 (a.u.)^3
     number of atoms/cell      =            6
     number of atomic types    =            2
     number of electrons       =       100.00
     number of Kohn-Sham states=           60
     kinetic-energy cutoff     =      40.0000  Ry
     charge density cutoff     =     160.0000  Ry
     convergence threshold     =      1.0E-06
     mixing beta               =       0.7000
     number of iterations used =            8  plain     mixing
     Exchange-correlation      = SLA-PZ-NOGX-NOGC ( 1 1 0 0 0)
     EXX-fraction              =        0.00

     celldm(1)=   9.648295  celldm(2)=   0.000000  celldm(3)=   0.000000
     celldm(4)=   0.000000  celldm(5)=   0.000000  celldm(6)=   0.000000

     crystal axes: (cart. coord. in units of alat)
               a(1) = (   1.084252   0.000000   0.000000 )  
               a(2) = (  -0.542126   0.938990   0.000000 )  
               a(3) = (   0.000000   0.000000   0.924197 )  

     reciprocal axes: (cart. coord. in units 2 pi/alat)
               b(1) = (  0.922295  0.532487  0.000000 )  
               b(2) = (  0.000000  1.064974  0.000000 )  
               b(3) = (  0.000000  0.000000  1.082020 )  


     PseudoPot. # 1 for Dy read from file:
     /home/cwx6513/pp.La/Dy.UPF
     MD5 check sum: 9597327bec62616a94a14d07f3fd9936
     Pseudo is Norm-conserving, Zval = 20.0
     Generated in analytical, separable form
     Using radial grid of 1265 points,  6 beta functions with: 
                l(1) =   0
                l(2) =   0
                l(3) =   1
                l(4) =   1
                l(5) =   2
                l(6) =   3

     PseudoPot. # 2 for Sm read from file:
     /home/cwx6513/pp.La/Sm.UPF
     MD5 check sum: 5079e8b144a06bfcdbc14fb02b96ab09
     Pseudo is Norm-conserving, Zval = 16.0
     Generated in analytical, separable form
     Using radial grid of 1259 points,  6 beta functions with: 
                l(1) =   0
                l(2) =   0
                l(3) =   1
                l(4) =   1
                l(5) =   2
                l(6) =   3

     atomic species   valence    mass     pseudopotential
        Ca            20.00    40.07800     Dy( 1.00)
        Cu            16.00    63.54600     Sm( 1.00)

     24 Sym. Ops., with inversion, found



   Cartesian axes

     site n.     atom                  positions (alat units)
         1           Ca  tau(   1) = (   0.0000000   0.0000000   0.0000000  )
         2           Cu  tau(   2) = (  -0.0000005   0.6259935   0.0000000  )
         3           Cu  tau(   3) = (   0.5421266   0.3129963   0.0000000  )
         4           Cu  tau(   4) = (   0.5421260   0.0000000   0.4620987  )
         5           Cu  tau(   5) = (   0.2710630   0.4694949   0.4620987  )
         6           Cu  tau(   6) = (  -0.2710630   0.4694949   0.4620987  )

     number of k points=   110  gaussian smearing, width (Ry)=  0.1000

     Number of k-points >= 100: set verbosity='high' to print them.

     Dense  grid:    28895 G-vectors     FFT dimensions: (  45,  45,  36)

     Largest allocated arrays     est. size (Mb)     dimensions
        Kohn-Sham Wavefunctions         0.84 Mb     (    920,   60)
        NL pseudopotentials             1.68 Mb     (    920,  120)
        Each V/rho on FFT grid          0.28 Mb     (  18225)
        Each G-vector array             0.06 Mb     (   7224)
        G-vector shells                 0.01 Mb     (   1285)
     Largest temporary arrays     est. size (Mb)     dimensions
        Each subspace H/S matrix        0.05 Mb     (  60,  60)
        Each <psi_i|beta_j> matrix      0.11 Mb     (    120,   60)
        Arrays for rho mixing           2.22 Mb     (  18225,   8)

     Initial potential from superposition of free atoms

     Starting from uniform charge
     Starting wfc are    0 randomized atomic wfcs

     Writing output data file Prototype-La-hP6-CaCu5.save

     total cpu time spent up to now is      936.2 secs

     Self-consistent Calculation

     iteration #  1     ecut=    40.00 Ry     beta=0.70
     CG style diagonalization
     c_bands:  2 eigenvalues not converged
     c_bands:  3 eigenvalues not converged
     c_bands:  3 eigenvalues not converged
     c_bands:  3 eigenvalues not converged
     c_bands:  2 eigenvalues not converged
     c_bands:  4 eigenvalues not converged
     c_bands:  4 eigenvalues not converged
     c_bands:  4 eigenvalues not converged
     c_bands:  3 eigenvalues not converged
     c_bands:  3 eigenvalues not converged
     c_bands:  5 eigenvalues not converged
     c_bands:  4 eigenvalues not converged
     c_bands:  4 eigenvalues not converged
     c_bands:  4 eigenvalues not converged
     c_bands:  4 eigenvalues not converged
     c_bands:  5 eigenvalues not converged
     c_bands:  5 eigenvalues not converged
     c_bands:  4 eigenvalues not converged
     c_bands:  5 eigenvalues not converged
     c_bands:  3 eigenvalues not converged
     c_bands:  4 eigenvalues not converged
     c_bands:  4 eigenvalues not converged
     c_bands:  4 eigenvalues not converged
     c_bands:  4 eigenvalues not converged
     c_bands:  3 eigenvalues not converged
     c_bands:  3 eigenvalues not converged
     c_bands:  5 eigenvalues not converged
     c_bands:  4 eigenvalues not converged
     c_bands:  4 eigenvalues not converged
     c_bands:  3 eigenvalues not converged
     c_bands:  5 eigenvalues not converged
     c_bands:  5 eigenvalues not converged
     c_bands:  5 eigenvalues not converged
     c_bands:  5 eigenvalues not converged
     c_bands:  5 eigenvalues not converged
     c_bands:  4 eigenvalues not converged
     c_bands:  4 eigenvalues not converged
     c_bands:  4 eigenvalues not converged
     c_bands:  5 eigenvalues not converged
     c_bands:  5 eigenvalues not converged
     c_bands:  5 eigenvalues not converged
     c_bands:  4 eigenvalues not converged
     c_bands:  3 eigenvalues not converged
     c_bands:  5 eigenvalues not converged
     c_bands:  4 eigenvalues not converged
     c_bands:  4 eigenvalues not converged
     c_bands:  4 eigenvalues not converged
     c_bands:  4 eigenvalues not converged
     c_bands:  3 eigenvalues not converged
     c_bands:  3 eigenvalues not converged
     c_bands:  5 eigenvalues not converged
     c_bands:  4 eigenvalues not converged
     c_bands:  5 eigenvalues not converged
     c_bands:  4 eigenvalues not converged
     c_bands:  2 eigenvalues not converged
     c_bands:  5 eigenvalues not converged
     c_bands:  5 eigenvalues not converged
     c_bands:  4 eigenvalues not converged
     c_bands:  5 eigenvalues not converged
     c_bands:  5 eigenvalues not converged
     c_bands:  5 eigenvalues not converged
     c_bands:  5 eigenvalues not converged
     c_bands:  4 eigenvalues not converged
     c_bands:  5 eigenvalues not converged
     c_bands:  5 eigenvalues not converged
     c_bands:  4 eigenvalues not converged
     c_bands:  4 eigenvalues not converged
     c_bands:  5 eigenvalues not converged
     c_bands:  5 eigenvalues not converged
     c_bands:  5 eigenvalues not converged
     c_bands:  4 eigenvalues not converged
     c_bands:  4 eigenvalues not converged
     c_bands:  4 eigenvalues not converged
     c_bands:  4 eigenvalues not converged
     c_bands:  5 eigenvalues not converged
     c_bands:  4 eigenvalues not converged
     c_bands:  5 eigenvalues not converged
     c_bands:  5 eigenvalues not converged
     c_bands:  3 eigenvalues not converged
     c_bands:  5 eigenvalues not converged
     c_bands:  4 eigenvalues not converged
     c_bands:  4 eigenvalues not converged
     c_bands:  5 eigenvalues not converged
     c_bands:  3 eigenvalues not converged
     c_bands:  4 eigenvalues not converged
     c_bands:  2 eigenvalues not converged
     c_bands:  4 eigenvalues not converged
     c_bands:  5 eigenvalues not converged
     c_bands:  4 eigenvalues not converged
     c_bands:  3 eigenvalues not converged
     c_bands:  4 eigenvalues not converged
     c_bands:  5 eigenvalues not converged
     c_bands:  4 eigenvalues not converged
     c_bands:  5 eigenvalues not converged
     c_bands:  5 eigenvalues not converged
     c_bands:  5 eigenvalues not converged
     c_bands:  5 eigenvalues not converged
     c_bands:  5 eigenvalues not converged
     c_bands:  5 eigenvalues not converged
     c_bands:  4 eigenvalues not converged
     c_bands:  5 eigenvalues not converged
     c_bands:  5 eigenvalues not converged
     c_bands:  4 eigenvalues not converged
     c_bands:  3 eigenvalues not converged
     c_bands:  4 eigenvalues not converged
     c_bands:  5 eigenvalues not converged
     c_bands:  5 eigenvalues not converged
     c_bands:  4 eigenvalues not converged
     c_bands:  3 eigenvalues not converged
     c_bands:  3 eigenvalues not converged
     ethr =  1.00E-06,  avg # of iterations = 59.5

     total cpu time spent up to now is     1466.7 secs

     total energy              =    -818.75622289 Ry
     Harris-Foulkes estimate   =   -1225.99436525 Ry
     estimated scf accuracy    <     512.56523868 Ry

     iteration #  2     ecut=    40.00 Ry     beta=0.70
     CG style diagonalization
     c_bands:  1 eigenvalues not converged
     c_bands:  1 eigenvalues not converged
     c_bands:  2 eigenvalues not converged
     c_bands:  1 eigenvalues not converged
     c_bands:  1 eigenvalues not converged
     c_bands:  1 eigenvalues not converged
     c_bands:  1 eigenvalues not converged
     c_bands:  1 eigenvalues not converged
     c_bands:  1 eigenvalues not converged
     c_bands:  3 eigenvalues not converged
     c_bands:  3 eigenvalues not converged
     c_bands:  2 eigenvalues not converged
     c_bands:  2 eigenvalues not converged
     c_bands:  3 eigenvalues not converged
     c_bands:  2 eigenvalues not converged
     c_bands:  3 eigenvalues not converged
     c_bands:  2 eigenvalues not converged
     c_bands:  1 eigenvalues not converged
     c_bands:  1 eigenvalues not converged
     c_bands:  1 eigenvalues not converged
     c_bands:  1 eigenvalues not converged
     c_bands:  1 eigenvalues not converged
     c_bands:  3 eigenvalues not converged
     c_bands:  1 eigenvalues not converged
     c_bands:  1 eigenvalues not converged
     c_bands:  1 eigenvalues not converged
     c_bands:  2 eigenvalues not converged
     c_bands:  1 eigenvalues not converged
     c_bands:  1 eigenvalues not converged
     c_bands:  2 eigenvalues not converged
     c_bands:  1 eigenvalues not converged
     c_bands:  1 eigenvalues not converged
     c_bands:  3 eigenvalues not converged
     c_bands:  2 eigenvalues not converged
     c_bands:  1 eigenvalues not converged
     c_bands:  2 eigenvalues not converged
     c_bands:  3 eigenvalues not converged
     c_bands:  1 eigenvalues not converged
     c_bands:  1 eigenvalues not converged
     c_bands:  2 eigenvalues not converged
     c_bands:  5 eigenvalues not converged
     c_bands:  1 eigenvalues not converged
     c_bands:  2 eigenvalues not converged
     c_bands:  3 eigenvalues not converged
     c_bands:  1 eigenvalues not converged
     c_bands:  1 eigenvalues not converged
     c_bands:  1 eigenvalues not converged
     c_bands:  1 eigenvalues not converged
     c_bands:  2 eigenvalues not converged
     c_bands:  2 eigenvalues not converged
     c_bands:  3 eigenvalues not converged
     c_bands:  1 eigenvalues not converged
     c_bands:  1 eigenvalues not converged
     c_bands:  2 eigenvalues not converged
     c_bands:  4 eigenvalues not converged
     c_bands:  3 eigenvalues not converged
     c_bands:  2 eigenvalues not converged
     c_bands:  1 eigenvalues not converged
     c_bands:  1 eigenvalues not converged
     c_bands:  3 eigenvalues not converged
     c_bands:  1 eigenvalues not converged
     c_bands:  2 eigenvalues not converged
     c_bands:  1 eigenvalues not converged
     c_bands:  3 eigenvalues not converged
     c_bands:  4 eigenvalues not converged
     c_bands:  2 eigenvalues not converged
     c_bands:  2 eigenvalues not converged
     c_bands:  2 eigenvalues not converged
     c_bands:  3 eigenvalues not converged
     c_bands:  2 eigenvalues not converged
     c_bands:  1 eigenvalues not converged
     c_bands:  2 eigenvalues not converged
     c_bands:  3 eigenvalues not converged
     c_bands:  1 eigenvalues not converged
     c_bands:  2 eigenvalues not converged
     c_bands:  1 eigenvalues not converged
     c_bands:  1 eigenvalues not converged
     c_bands:  1 eigenvalues not converged
     c_bands:  1 eigenvalues not converged
     c_bands:  1 eigenvalues not converged
     c_bands:  2 eigenvalues not converged
     c_bands:  2 eigenvalues not converged
     c_bands:  3 eigenvalues not converged
     c_bands:  5 eigenvalues not converged
     c_bands:  2 eigenvalues not converged
     c_bands:  1 eigenvalues not converged
     c_bands:  1 eigenvalues not converged
     c_bands:  5 eigenvalues not converged
     ethr =  1.00E-02,  avg # of iterations =  8.1

     total cpu time spent up to now is     1545.0 secs

     total energy              =    -952.31049006 Ry
     Harris-Foulkes estimate   =   -1189.38838192 Ry
     estimated scf accuracy    <     403.41207710 Ry

     iteration #  3     ecut=    40.00 Ry     beta=0.70
     CG style diagonalization
     c_bands:  1 eigenvalues not converged
     c_bands:  1 eigenvalues not converged
     ethr =  1.00E-02,  avg # of iterations =  8.9

     total cpu time spent up to now is     1628.7 secs

     total energy              =   -1004.82440539 Ry
     Harris-Foulkes estimate   =   -1028.05158621 Ry
     estimated scf accuracy    <      38.81041336 Ry

     iteration #  4     ecut=    40.00 Ry     beta=0.70
     CG style diagonalization
     c_bands:  1 eigenvalues not converged
     ethr =  1.00E-02,  avg # of iterations =  6.7

     total cpu time spent up to now is     1689.3 secs

     total energy              =   -1015.04325198 Ry
     Harris-Foulkes estimate   =   -1024.59004378 Ry
     estimated scf accuracy    <      33.33075139 Ry

     iteration #  5     ecut=    40.00 Ry     beta=0.70
     CG style diagonalization
     ethr =  1.00E-02,  avg # of iterations =  3.7

     total cpu time spent up to now is     1722.5 secs

     total energy              =   -1017.58066796 Ry
     Harris-Foulkes estimate   =   -1018.96414170 Ry
     estimated scf accuracy    <       2.49726789 Ry

     iteration #  6     ecut=    40.00 Ry     beta=0.70
     CG style diagonalization
     ethr =  2.50E-03,  avg # of iterations =  3.8

     total cpu time spent up to now is     1756.1 secs

     total energy              =   -1018.33164159 Ry
     Harris-Foulkes estimate   =   -1018.48486367 Ry
     estimated scf accuracy    <       0.40121994 Ry

     iteration #  7     ecut=    40.00 Ry     beta=0.70
     CG style diagonalization
     c_bands:  1 eigenvalues not converged
     ethr =  4.01E-04,  avg # of iterations =  3.6

     total cpu time spent up to now is     1787.8 secs

     total energy              =   -1018.40471312 Ry
     Harris-Foulkes estimate   =   -1018.42064860 Ry
     estimated scf accuracy    <       0.03323811 Ry

     iteration #  8     ecut=    40.00 Ry     beta=0.70
     CG style diagonalization
     c_bands:  1 eigenvalues not converged
     c_bands:  1 eigenvalues not converged
     c_bands:  1 eigenvalues not converged
     c_bands:  1 eigenvalues not converged
     c_bands:  1 eigenvalues not converged
     c_bands:  1 eigenvalues not converged
     c_bands:  2 eigenvalues not converged
     c_bands:  2 eigenvalues not converged
     c_bands:  1 eigenvalues not converged
     ethr =  3.32E-05,  avg # of iterations =  4.0

     total cpu time spent up to now is     1822.1 secs

     total energy              =   -1018.41379754 Ry
     Harris-Foulkes estimate   =   -1018.41768355 Ry
     estimated scf accuracy    <       0.01011241 Ry

     iteration #  9     ecut=    40.00 Ry     beta=0.70
     CG style diagonalization
     c_bands:  1 eigenvalues not converged
     c_bands:  1 eigenvalues not converged
     ethr =  1.01E-05,  avg # of iterations =  3.4

     total cpu time spent up to now is     1851.9 secs

     total energy              =   -1018.41557520 Ry
     Harris-Foulkes estimate   =   -1018.41570853 Ry
     estimated scf accuracy    <       0.00019476 Ry

     iteration # 10     ecut=    40.00 Ry     beta=0.70
     CG style diagonalization
     c_bands:  1 eigenvalues not converged
     ethr =  1.95E-07,  avg # of iterations =  5.2

     total cpu time spent up to now is     1898.4 secs

     total energy              =   -1018.41583322 Ry
     Harris-Foulkes estimate   =   -1018.41597254 Ry
     estimated scf accuracy    <       0.00036628 Ry

     iteration # 11     ecut=    40.00 Ry     beta=0.70
     CG style diagonalization
     ethr =  1.95E-07,  avg # of iterations =  3.5

     total cpu time spent up to now is     1927.4 secs

     total energy              =   -1018.41587961 Ry
     Harris-Foulkes estimate   =   -1018.41588864 Ry
     estimated scf accuracy    <       0.00000782 Ry

     iteration # 12     ecut=    40.00 Ry     beta=0.70
     CG style diagonalization
     ethr =  7.82E-09,  avg # of iterations =  4.1

     total cpu time spent up to now is     1961.9 secs

     total energy              =   -1018.41588276 Ry
     Harris-Foulkes estimate   =   -1018.41588343 Ry
     estimated scf accuracy    <       0.00000131 Ry

     iteration # 13     ecut=    40.00 Ry     beta=0.70
     CG style diagonalization
     ethr =  1.31E-09,  avg # of iterations =  3.5

     total cpu time spent up to now is     1991.5 secs

     End of self-consistent calculation

     Number of k-points >= 100: set verbosity='high' to print the bands.

     the Fermi energy is    22.5252 ev

!    total energy              =   -1018.41588307 Ry
     Harris-Foulkes estimate   =   -1018.41588311 Ry
     estimated scf accuracy    <       0.00000005 Ry

     The total energy is the sum of the following terms:

     one-electron contribution =    -143.70191803 Ry
     hartree contribution      =     142.07768217 Ry
     xc contribution           =    -106.02695246 Ry
     ewald contribution        =    -910.34118556 Ry
     smearing contrib. (-TS)   =      -0.42350920 Ry

     convergence has been achieved in  13 iterations

     Forces acting on atoms (Ry/au):

     atom    1 type  1   force =     0.00000000    0.00000000    0.00000000
     atom    2 type  2   force =     0.00000000    0.00000000    0.00000000
     atom    3 type  2   force =     0.00000000    0.00000000    0.00000000
     atom    4 type  2   force =     0.00000000    0.00000000    0.00000000
     atom    5 type  2   force =     0.00000000    0.00000000    0.00000000
     atom    6 type  2   force =     0.00000000    0.00000000    0.00000000

     Total force =     0.000000     Total SCF correction =     0.000000


     entering subroutine stress ...

          total   stress  (Ry/bohr**3)                   (kbar)     P=   72.02
   0.00022104   0.00000000   0.00000000         32.52      0.00      0.00
   0.00000000   0.00022104   0.00000000          0.00     32.52      0.00
   0.00000000   0.00000000   0.00102659          0.00      0.00    151.02


     Writing output data file Prototype-La-hP6-CaCu5.save
 
     init_run     :      9.25s CPU     12.01s WALL (       2 calls)
     electrons    :   1604.43s CPU   1955.30s WALL (       5 calls)
     update_pot   :      1.36s CPU      1.41s WALL (       3 calls)
     forces       :      6.92s CPU      7.51s WALL (       5 calls)
     stress       :     18.36s CPU     18.90s WALL (       5 calls)

     Called by init_run:
     wfcinit      :      8.67s CPU     11.42s WALL (       2 calls)
     potinit      :      0.25s CPU      0.25s WALL (       2 calls)

     Called by electrons:
     c_bands      :   1545.53s CPU   1865.69s WALL (      42 calls)
     sum_band     :     58.52s CPU     78.95s WALL (      42 calls)
     v_of_rho     :      0.05s CPU      0.06s WALL (      47 calls)
     mix_rho      :      0.05s CPU      0.06s WALL (      42 calls)

     Called by c_bands:
     init_us_2    :      4.63s CPU      6.04s WALL (   10560 calls)
     ccgdiagg     :   1366.72s CPU   1626.72s WALL (    5188 calls)
     wfcrot       :    182.40s CPU    240.31s WALL (    5298 calls)

     Called by *cgdiagg:
     h_psi        :   1133.53s CPU   1419.02s WALL ( 1489000 calls)
     cdiaghg      :      7.41s CPU      7.85s WALL (    5298 calls)

     Called by h_psi:
     add_vuspsi   :     95.07s CPU    135.45s WALL ( 1489000 calls)

     General routines
     calbec       :    304.30s CPU    329.05s WALL ( 2973802 calls)
     fft          :      0.07s CPU      0.08s WALL (     211 calls)
     fftw         :    830.72s CPU   1019.50s WALL ( 3880364 calls)
     davcio       :      3.71s CPU      8.68s WALL (   15180 calls)
 
     Parallel routines
     fft_scatter  :    340.24s CPU    416.76s WALL ( 3880575 calls)
 
     PWSCF        : 27m21.33s CPU    33m18.24s WALL

 
   This run was terminated on:   2:53: 3  23Mar2018            

=------------------------------------------------------------------------------=
   JOB DONE.
=------------------------------------------------------------------------------=
