
     Program PWSCF v.5.0.2 starts on 22Mar2018 at 18:45:39 

     This program is part of the open-source Quantum ESPRESSO suite
     for quantum simulation of materials; please cite
         "P. Giannozzi et al., J. Phys.:Condens. Matter 21 395502 (2009);
          URL http://www.quantum-espresso.org", 
     in publications or presentations arising from this work. More details at
     http://www.quantum-espresso.org/quote.php

     Parallel version (MPI), running on     4 processors
     R & G space division:  proc/nbgrp/npool/nimage =       4

     Current dimensions of program PWSCF are:
     Max number of different atomic species (ntypx) = 10
     Max number of k-points (npk) =  40000
     Max angular momentum in pseudopotentials (lmaxx) =  3
     Waiting for input...
     Reading input from standard input

     Subspace diagonalization in iterative solution of the eigenvalue problem:
     a serial algorithm will be used

 
     Parallelization info
     --------------------
     sticks:   dense  smooth     PW     G-vecs:    dense   smooth      PW
     Min         233     233     69                 5311     5311     851
     Max         234     234     70                 5314     5314     854
     Sum         933     933    277                21247    21247    3407
 


     bravais-lattice index     =            0
     lattice parameter (alat)  =       8.5346  a.u.
     unit-cell volume          =     621.6493 (a.u.)^3
     number of atoms/cell      =            8
     number of atomic types    =            2
     number of electrons       =       134.00
     number of Kohn-Sham states=           80
     kinetic-energy cutoff     =      40.0000  Ry
     charge density cutoff     =     160.0000  Ry
     convergence threshold     =      1.0E-04
     mixing beta               =       0.7000
     number of iterations used =            8  plain     mixing
     Exchange-correlation      = SLA-PZ-NOGX-NOGC ( 1 1 0 0 0)
     EXX-fraction              =        0.00
     nstep                     =           50


     celldm(1)=   8.534573  celldm(2)=   0.000000  celldm(3)=   0.000000
     celldm(4)=   0.000000  celldm(5)=   0.000000  celldm(6)=   0.000000

     crystal axes: (cart. coord. in units of alat)
               a(1) = (   1.000000   0.000000   0.000000 )  
               a(2) = (   0.000000   1.000000   0.000000 )  
               a(3) = (   0.000000   0.000000   1.000000 )  

     reciprocal axes: (cart. coord. in units 2 pi/alat)
               b(1) = (  1.000000  0.000000  0.000000 )  
               b(2) = (  0.000000  1.000000  0.000000 )  
               b(3) = (  0.000000  0.000000  1.000000 )  


     PseudoPot. # 1 for Sm read from file:
     /home/cwx6513/pp.La/Sm.UPF
     MD5 check sum: 5079e8b144a06bfcdbc14fb02b96ab09
     Pseudo is Norm-conserving, Zval = 16.0
     Generated in analytical, separable form
     Using radial grid of 1259 points,  6 beta functions with: 
                l(1) =   0
                l(2) =   0
                l(3) =   1
                l(4) =   1
                l(5) =   2
                l(6) =   3

     PseudoPot. # 2 for Tb read from file:
     /home/cwx6513/pp.La/Tb.UPF
     MD5 check sum: 3d6088a3f0cf7fd2e110c43f7f8e95c2
     Pseudo is Norm-conserving, Zval = 19.0
     Generated in analytical, separable form
     Using radial grid of 1263 points,  6 beta functions with: 
                l(1) =   0
                l(2) =   0
                l(3) =   1
                l(4) =   1
                l(5) =   2
                l(6) =   3

     atomic species   valence    mass     pseudopotential
        Cr            16.00    51.99610     Sm( 1.00)
        Si            19.00    28.08550     Tb( 1.00)

     48 Sym. Ops., with inversion, found (24 have fractional translation)



   Cartesian axes

     site n.     atom                  positions (alat units)
         1           Cr  tau(   1) = (   0.0000000   0.5000000   0.2500000  )
         2           Cr  tau(   2) = (   0.0000000   0.5000000   0.7500000  )
         3           Cr  tau(   3) = (   0.5000000   0.7500000   0.0000000  )
         4           Cr  tau(   4) = (   0.5000000   0.2500000   0.0000000  )
         5           Cr  tau(   5) = (   0.7500000   0.0000000   0.5000000  )
         6           Cr  tau(   6) = (   0.2500000   0.0000000   0.5000000  )
         7           Si  tau(   7) = (   0.5000000   0.5000000   0.5000000  )
         8           Si  tau(   8) = (   0.0000000   0.0000000   0.0000000  )

     number of k points=    48  gaussian smearing, width (Ry)=  0.1000
                       cart. coord. in units 2pi/alat
        k(    1) = (   0.0000000   0.0000000   0.0000000), wk =   0.0095238
        k(    2) = (   0.0000000   0.0000000   0.1428571), wk =   0.0190476
        k(    3) = (   0.0000000   0.0000000   0.2857143), wk =   0.0190476
        k(    4) = (   0.0000000   0.0000000   0.4285714), wk =   0.0190476
        k(    5) = (   0.0000000   0.1666667   0.0000000), wk =   0.0190476
        k(    6) = (   0.0000000   0.1666667   0.1428571), wk =   0.0380952
        k(    7) = (   0.0000000   0.1666667   0.2857143), wk =   0.0380952
        k(    8) = (   0.0000000   0.1666667   0.4285714), wk =   0.0380952
        k(    9) = (   0.0000000   0.3333333   0.0000000), wk =   0.0190476
        k(   10) = (   0.0000000   0.3333333   0.1428571), wk =   0.0380952
        k(   11) = (   0.0000000   0.3333333   0.2857143), wk =   0.0380952
        k(   12) = (   0.0000000   0.3333333   0.4285714), wk =   0.0380952
        k(   13) = (   0.0000000  -0.5000000   0.0000000), wk =   0.0095238
        k(   14) = (   0.0000000  -0.5000000   0.1428571), wk =   0.0190476
        k(   15) = (   0.0000000  -0.5000000   0.2857143), wk =   0.0190476
        k(   16) = (   0.0000000  -0.5000000   0.4285714), wk =   0.0190476
        k(   17) = (   0.2000000   0.0000000   0.0000000), wk =   0.0190476
        k(   18) = (   0.2000000   0.0000000   0.1428571), wk =   0.0380952
        k(   19) = (   0.2000000   0.0000000   0.2857143), wk =   0.0380952
        k(   20) = (   0.2000000   0.0000000   0.4285714), wk =   0.0380952
        k(   21) = (   0.2000000   0.1666667   0.0000000), wk =   0.0380952
        k(   22) = (   0.2000000   0.1666667   0.1428571), wk =   0.0761905
        k(   23) = (   0.2000000   0.1666667   0.2857143), wk =   0.0761905
        k(   24) = (   0.2000000   0.1666667   0.4285714), wk =   0.0761905
        k(   25) = (   0.2000000   0.3333333   0.0000000), wk =   0.0380952
        k(   26) = (   0.2000000   0.3333333   0.1428571), wk =   0.0761905
        k(   27) = (   0.2000000   0.3333333   0.2857143), wk =   0.0761905
        k(   28) = (   0.2000000   0.3333333   0.4285714), wk =   0.0761905
        k(   29) = (   0.2000000  -0.5000000   0.0000000), wk =   0.0190476
        k(   30) = (   0.2000000  -0.5000000   0.1428571), wk =   0.0380952
        k(   31) = (   0.2000000  -0.5000000   0.2857143), wk =   0.0380952
        k(   32) = (   0.2000000  -0.5000000   0.4285714), wk =   0.0380952
        k(   33) = (   0.4000000   0.0000000   0.0000000), wk =   0.0190476
        k(   34) = (   0.4000000   0.0000000   0.1428571), wk =   0.0380952
        k(   35) = (   0.4000000   0.0000000   0.2857143), wk =   0.0380952
        k(   36) = (   0.4000000   0.0000000   0.4285714), wk =   0.0380952
        k(   37) = (   0.4000000   0.1666667   0.0000000), wk =   0.0380952
        k(   38) = (   0.4000000   0.1666667   0.1428571), wk =   0.0761905
        k(   39) = (   0.4000000   0.1666667   0.2857143), wk =   0.0761905
        k(   40) = (   0.4000000   0.1666667   0.4285714), wk =   0.0761905
        k(   41) = (   0.4000000   0.3333333   0.0000000), wk =   0.0380952
        k(   42) = (   0.4000000   0.3333333   0.1428571), wk =   0.0761905
        k(   43) = (   0.4000000   0.3333333   0.2857143), wk =   0.0761905
        k(   44) = (   0.4000000   0.3333333   0.4285714), wk =   0.0761905
        k(   45) = (   0.4000000  -0.5000000   0.0000000), wk =   0.0190476
        k(   46) = (   0.4000000  -0.5000000   0.1428571), wk =   0.0380952
        k(   47) = (   0.4000000  -0.5000000   0.2857143), wk =   0.0380952
        k(   48) = (   0.4000000  -0.5000000   0.4285714), wk =   0.0380952

     Dense  grid:    21247 G-vectors     FFT dimensions: (  36,  36,  36)

     Largest allocated arrays     est. size (Mb)     dimensions
        Kohn-Sham Wavefunctions         0.83 Mb     (    683,   80)
        NL pseudopotentials             1.67 Mb     (    683,  160)
        Each V/rho on FFT grid          0.18 Mb     (  11664)
        Each G-vector array             0.04 Mb     (   5314)
        G-vector shells                 0.04 Mb     (   5314)
     Largest temporary arrays     est. size (Mb)     dimensions
        Each subspace H/S matrix        0.10 Mb     (  80,  80)
        Each <psi_i|beta_j> matrix      0.20 Mb     (    160,   80)
        Arrays for rho mixing           1.42 Mb     (  11664,   8)

     Initial potential from superposition of free atoms

     Starting from uniform charge
     Starting wfc are    0 randomized atomic wfcs

     total cpu time spent up to now is        3.5 secs

     Self-consistent Calculation

     iteration #  1     ecut=    40.00 Ry     beta=0.70
     CG style diagonalization
     c_bands:  1 eigenvalues not converged
     c_bands:  4 eigenvalues not converged
     c_bands:  3 eigenvalues not converged
     c_bands:  4 eigenvalues not converged
     c_bands:  5 eigenvalues not converged
     c_bands:  4 eigenvalues not converged
     c_bands:  1 eigenvalues not converged
     c_bands:  1 eigenvalues not converged
     c_bands:  3 eigenvalues not converged
     c_bands:  5 eigenvalues not converged
     c_bands:  2 eigenvalues not converged
     c_bands:  5 eigenvalues not converged
     c_bands:  4 eigenvalues not converged
     c_bands:  5 eigenvalues not converged
     c_bands:  5 eigenvalues not converged
     c_bands:  4 eigenvalues not converged
     c_bands:  3 eigenvalues not converged
     ethr =  1.00E-02,  avg # of iterations = 13.0

     total cpu time spent up to now is       48.5 secs

     total energy              =   -1067.56299178 Ry
     Harris-Foulkes estimate   =   -1494.49639131 Ry
     estimated scf accuracy    <     529.04928117 Ry

     iteration #  2     ecut=    40.00 Ry     beta=0.70
     CG style diagonalization
     c_bands:  2 eigenvalues not converged
     c_bands:  2 eigenvalues not converged
     c_bands:  1 eigenvalues not converged
     c_bands:  1 eigenvalues not converged
     c_bands:  3 eigenvalues not converged
     c_bands:  2 eigenvalues not converged
     c_bands:  1 eigenvalues not converged
     c_bands:  3 eigenvalues not converged
     c_bands:  1 eigenvalues not converged
     c_bands:  1 eigenvalues not converged
     c_bands:  2 eigenvalues not converged
     c_bands:  2 eigenvalues not converged
     c_bands:  1 eigenvalues not converged
     c_bands:  3 eigenvalues not converged
     c_bands:  3 eigenvalues not converged
     c_bands:  1 eigenvalues not converged
     c_bands:  2 eigenvalues not converged
     c_bands:  1 eigenvalues not converged
     c_bands:  1 eigenvalues not converged
     c_bands:  1 eigenvalues not converged
     c_bands:  2 eigenvalues not converged
     c_bands:  1 eigenvalues not converged
     c_bands:  2 eigenvalues not converged
     c_bands:  2 eigenvalues not converged
     c_bands:  2 eigenvalues not converged
     c_bands:  2 eigenvalues not converged
     c_bands:  2 eigenvalues not converged
     c_bands:  1 eigenvalues not converged
     c_bands:  3 eigenvalues not converged
     c_bands:  2 eigenvalues not converged
     c_bands:  2 eigenvalues not converged
     c_bands:  1 eigenvalues not converged
     c_bands:  2 eigenvalues not converged
     c_bands:  1 eigenvalues not converged
     ethr =  1.00E-02,  avg # of iterations =  9.2

     total cpu time spent up to now is       80.5 secs

     total energy              =   -1289.97093458 Ry
     Harris-Foulkes estimate   =   -1607.84534296 Ry
     estimated scf accuracy    <     593.16278712 Ry

     iteration #  3     ecut=    40.00 Ry     beta=0.70
     CG style diagonalization
     c_bands:  1 eigenvalues not converged
     c_bands:  1 eigenvalues not converged
     c_bands:  1 eigenvalues not converged
     c_bands:  1 eigenvalues not converged
     c_bands:  1 eigenvalues not converged
     ethr =  1.00E-02,  avg # of iterations =  9.6

     total cpu time spent up to now is      114.3 secs

     total energy              =   -1360.09775572 Ry
     Harris-Foulkes estimate   =   -1370.55104680 Ry
     estimated scf accuracy    <      21.46526852 Ry

     iteration #  4     ecut=    40.00 Ry     beta=0.70
     CG style diagonalization
     ethr =  1.00E-02,  avg # of iterations =  3.6

     total cpu time spent up to now is      126.1 secs

     total energy              =   -1361.84372662 Ry
     Harris-Foulkes estimate   =   -1362.98293229 Ry
     estimated scf accuracy    <       1.81639753 Ry

     iteration #  5     ecut=    40.00 Ry     beta=0.70
     CG style diagonalization
     ethr =  1.36E-03,  avg # of iterations =  4.3

     total cpu time spent up to now is      140.7 secs

     total energy              =   -1362.62089715 Ry
     Harris-Foulkes estimate   =   -1362.88189166 Ry
     estimated scf accuracy    <       0.51742601 Ry

     iteration #  6     ecut=    40.00 Ry     beta=0.70
     CG style diagonalization
     ethr =  3.86E-04,  avg # of iterations =  3.7

     total cpu time spent up to now is      153.1 secs

     total energy              =   -1362.72467386 Ry
     Harris-Foulkes estimate   =   -1362.73026754 Ry
     estimated scf accuracy    <       0.00768295 Ry

     iteration #  7     ecut=    40.00 Ry     beta=0.70
     CG style diagonalization
     c_bands:  1 eigenvalues not converged
     c_bands:  3 eigenvalues not converged
     c_bands:  2 eigenvalues not converged
     c_bands:  1 eigenvalues not converged
     c_bands:  1 eigenvalues not converged
     c_bands:  1 eigenvalues not converged
     c_bands:  1 eigenvalues not converged
     c_bands:  1 eigenvalues not converged
     c_bands:  1 eigenvalues not converged
     c_bands:  1 eigenvalues not converged
     c_bands:  1 eigenvalues not converged
     c_bands:  1 eigenvalues not converged
     c_bands:  1 eigenvalues not converged
     c_bands:  1 eigenvalues not converged
     c_bands:  1 eigenvalues not converged
     c_bands:  1 eigenvalues not converged
     c_bands:  1 eigenvalues not converged
     c_bands:  1 eigenvalues not converged
     c_bands:  2 eigenvalues not converged
     ethr =  5.73E-06,  avg # of iterations =  5.5

     total cpu time spent up to now is      171.8 secs

     total energy              =   -1362.72793563 Ry
     Harris-Foulkes estimate   =   -1362.73602485 Ry
     estimated scf accuracy    <       0.01194170 Ry

     iteration #  8     ecut=    40.00 Ry     beta=0.70
     CG style diagonalization
     c_bands:  1 eigenvalues not converged
     c_bands:  1 eigenvalues not converged
     c_bands:  1 eigenvalues not converged
     ethr =  5.73E-06,  avg # of iterations =  3.8

     total cpu time spent up to now is      184.1 secs

     total energy              =   -1362.73190310 Ry
     Harris-Foulkes estimate   =   -1362.73350579 Ry
     estimated scf accuracy    <       0.00281793 Ry

     iteration #  9     ecut=    40.00 Ry     beta=0.70
     CG style diagonalization
     ethr =  2.10E-06,  avg # of iterations =  3.6

     total cpu time spent up to now is      196.0 secs

     End of self-consistent calculation

          k = 0.0000 0.0000 0.0000 (  2601 PWs)   bands (ev):

   -33.5015 -33.4977 -15.8100 -15.1170 -15.1170 -13.5331 -13.5331 -13.5331
    -2.4650  -2.4650  -2.4650  -2.3900  -2.3900  -2.3900   5.1100   5.1100
     5.9632   8.5246   8.5246   8.5246  10.1440  10.1440  10.1440  10.8031
    10.8031  10.8031  11.0605  11.0605  11.0605  13.8337  13.8337  13.8337
    31.9278  31.9278  32.7854  32.8116  32.8116  32.8116  33.7537  33.7537
    33.7537  34.4832  34.4832  34.7517  34.7756  34.7756  34.7756  34.8129
    35.9306  36.2558  36.2558  36.3340  36.3340  36.3340  40.7861  40.7861
    40.7861  41.1652  41.1652  42.3863  42.3863  42.3863  42.4110  42.4110
    42.4110  45.7188  45.7188  46.6076  46.6076  46.6076  48.2335  48.2335
    48.2335  49.2896  50.6385  50.6385  50.6385  51.2901  51.2901  51.2901

          k = 0.0000 0.0000 0.1429 (  2657 PWs)   bands (ev):

   -33.5199 -33.5029 -15.7723 -15.1534 -15.0624 -13.6358 -13.5336 -13.5336
    -2.4722  -2.4722  -2.4452  -2.4452  -2.4377  -2.4167   5.1474   5.2754
     6.0829   8.4961   8.4961   8.6156  10.1484  10.1484  10.1775  10.6161
    10.8813  10.8813  11.0028  11.0263  11.0263  13.2722  13.8254  13.8254
    31.6541  32.2168  32.3635  32.9915  32.9915  33.0817  33.3531  33.3531
    33.7346  34.1174  34.1912  34.5528  34.6012  34.6012  35.6859  35.9993
    36.0070  36.0096  36.1882  36.7156  36.7156  36.8753  40.4340  40.4340
    40.4846  40.7185  40.8370  42.3627  42.3627  42.4303  42.9637  42.9637
    43.7674  44.9956  45.0857  46.3005  46.3005  47.3422  47.4670  47.4671
    48.5686  49.3971  50.5195  51.1847  51.1847  51.3433  52.1706  52.1707

          k = 0.0000 0.0000 0.2857 (  2677 PWs)   bands (ev):

   -33.5205 -33.5097 -15.6710 -15.2515 -14.8946 -13.9045 -13.5308 -13.5308
    -2.4964  -2.4964  -2.4545  -2.4545  -2.4011  -2.3797   5.2487   5.4170
     6.8280   8.4399   8.4399   8.8536  10.1364  10.1908  10.1908  10.2963
    10.8664  10.9635  10.9635  11.0453  11.0453  11.8413  13.8084  13.8084
    31.0355  32.4870  32.4898  32.4898  32.5950  32.9909  33.5795  33.5795
    33.6961  33.8432  34.3586  34.4143  34.4143  34.4477  35.2672  35.9805
    36.1683  36.8578  37.3174  37.3174  38.2844  38.9209  39.8476  39.8476
    40.0660  40.3248  40.4044  41.9729  42.0535  42.0535  43.4116  43.4116
    43.9800  44.1177  45.2472  46.4622  46.4622  47.2509  47.2509  48.2465
    48.5730  48.9982  50.2741  51.2323  51.2324  51.5026  51.5029  51.6038

          k = 0.0000 0.0000 0.4286 (  2658 PWs)   bands (ev):

   -33.5116 -33.5099 -15.5335 -15.3861 -14.6153 -14.2611 -13.5281 -13.5281
    -2.5101  -2.5101  -2.4467  -2.4467  -2.3330  -2.3274   5.3484   5.4058
     8.2248   8.3967   8.3967   9.2125   9.5441  10.1010  10.2339  10.2339
    10.4742  10.6777  10.9084  10.9084  11.1788  11.1788  13.7983  13.7983
    31.0290  31.6723  31.9484  31.9484  33.0365  33.1035  33.6643  33.6922
    34.0001  34.0001  34.0895  34.3238  34.4678  34.4678  35.5784  35.8313
    37.2178  37.5762  37.5762  38.2227  38.8665  39.4349  39.4349  39.5481
    39.9340  40.1091  41.4990  41.4990  41.8860  42.2284  43.3707  43.5073
    43.8164  43.8164  44.6550  45.5964  45.9617  45.9617  48.8068  48.8069
    48.8630  49.1122  50.3194  50.3195  51.1698  51.6359  51.6362  52.6523

          k = 0.0000 0.1667 0.0000 (  2653 PWs)   bands (ev):

   -33.5183 -33.5030 -15.7588 -15.1658 -15.0424 -13.6707 -13.5332 -13.5332
    -2.4740  -2.4740  -2.4441  -2.4441  -2.4282  -2.4055   5.1617   5.3158
     6.1500   8.4884   8.4884   8.6490  10.1538  10.1538  10.1924  10.5515
    10.9064  10.9064  10.9854  11.0177  11.0177  13.0827  13.8239  13.8239
    31.5326  32.2889  32.3648  33.0225  33.0225  33.1797  33.2645  33.2645
    33.7293  34.0212  34.1169  34.5329  34.5639  34.5639  35.8632  35.8928
    36.0121  36.1167  36.4152  36.8195  36.8195  37.1293  40.3460  40.3460
    40.3824  40.6901  40.7504  42.3418  42.3418  42.4069  43.0715  43.0715
    44.0746  44.8392  44.9030  46.3237  46.3237  47.2842  47.2842  47.5042
    48.6533  49.4888  50.2687  51.2828  51.2828  51.5405  52.2161  52.2162

          k = 0.0000 0.1667 0.1429 (  2662 PWs)   bands (ev):

   -33.5210 -33.5039 -15.7201 -15.1471 -15.0415 -13.6796 -13.6268 -13.5319
    -2.4748  -2.4716  -2.4613  -2.4412  -2.4157  -2.3988   5.2552   5.5040
     6.2038   8.4774   8.5871   8.6280  10.0383  10.0746  10.3555  10.6655
    10.7564  10.8519  10.9595  10.9815  11.0987  13.0690  13.2713  13.8169
    31.6855  32.0847  32.5356  32.5990  32.8735  33.0232  33.2857  33.3823
    33.4510  34.0774  34.1145  34.1719  34.4304  35.5174  35.9785  36.0749
    36.2343  36.4669  36.7434  36.8347  37.1002  37.2185  40.0969  40.2223
    40.3111  40.4015  40.8366  42.1462  42.6671  42.8297  42.9344  43.3774
    44.0562  44.3283  44.7411  46.3068  46.7331  46.8461  46.9746  47.7027
    48.0552  49.7186  50.0054  51.3889  51.8355  52.1603  52.2892  52.3781

          k = 0.0000 0.1667 0.2857 (  2666 PWs)   bands (ev):

   -33.5173 -33.5086 -15.6178 -15.2066 -14.9072 -13.9142 -13.6654 -13.5289
    -2.4930  -2.4844  -2.4656  -2.4391  -2.3735  -2.3469   5.3423   5.7802
     6.8168   8.4516   8.5828   8.8322   9.8947  10.0074  10.4320  10.4408
    10.7548  10.8664  10.9009  11.0787  11.1277  11.8607  13.0719  13.8021
    31.2393  32.1429  32.3204  32.3527  32.6257  32.8791  33.1518  33.6398
    33.6606  33.7600  34.1678  34.3377  34.4152  35.4495  35.7998  36.2101
    36.6838  37.1747  37.1928  37.8355  38.4811  38.8458  39.6968  39.7373
    39.7693  40.1953  40.8936  41.7762  42.0420  42.4327  42.7580  43.5710
    43.6823  44.9263  45.0152  46.1752  46.7225  46.7874  46.9962  47.9750
    48.3316  48.3549  50.1864  50.7713  51.7185  51.8326  52.3626  52.9048

          k = 0.0000 0.1667 0.4286 (  2658 PWs)   bands (ev):

   -33.5129 -33.5086 -15.4895 -15.3237 -14.6316 -14.2742 -13.6664 -13.5265
    -2.5082  -2.4934  -2.4641  -2.4330  -2.3249  -2.2964   5.3979   5.8247
     8.1465   8.4313   8.5875   9.1539   9.5246   9.9980  10.0589  10.3481
    10.3526  10.7976  10.8307  11.0641  11.0854  11.2071  13.0629  13.7931
    31.0691  31.5609  31.8057  32.2429  32.7873  33.1469  33.2381  33.4252
    33.6118  33.7869  34.3447  34.4579  34.6271  35.4322  35.9809  36.0638
    37.2221  37.9215  37.9313  38.3569  38.8289  39.2894  39.3173  39.9077
    40.0704  40.6279  41.1867  41.1972  41.7053  42.3653  42.7823  42.9254
    44.0711  44.9889  45.0920  45.0943  45.9807  46.1298  47.3546  48.2126
    48.2401  49.0991  49.4693  51.2338  51.4879  51.7086  52.0122  52.9635

          k = 0.0000 0.3333 0.0000 (  2677 PWs)   bands (ev):

   -33.5197 -33.5101 -15.6277 -15.2939 -14.8128 -14.0188 -13.5295 -13.5295
    -2.5069  -2.5069  -2.4566  -2.4566  -2.3668  -2.3648   5.2852   5.4216
     7.2372   8.4216   8.4216   8.9567   9.9445  10.2074  10.2074  10.3505
    10.8088  10.9414  10.9414  11.0990  11.0990  11.2724  13.8015  13.8015
    30.9549  32.2608  32.2608  32.2954  32.7391  32.9458  33.6828  33.7692
    33.7692  33.7750  34.2617  34.3895  34.3895  34.6756  35.1803  35.9281
    36.3622  37.2964  37.4647  37.4647  38.8729  39.6548  39.6548  39.7827
    40.0598  40.1922  40.2177  41.7704  41.8617  41.8617  43.5465  43.5465
    43.6923  43.8738  45.3342  46.2315  46.2315  47.6726  47.8513  47.8513
    48.4884  49.0751  50.6193  50.8284  50.8284  51.4823  51.4827  51.5751

          k = 0.0000 0.3333 0.1429 (  2660 PWs)   bands (ev):

   -33.5147 -33.5084 -15.5880 -15.2565 -14.8249 -14.0257 -13.6313 -13.5283
    -2.4981  -2.4920  -2.4592  -2.4364  -2.3558  -2.3330   5.3559   5.6930
     7.2193   8.4381   8.5344   8.9410   9.8219  10.0474  10.3300  10.4385
    10.7399  10.8853  10.9333  11.0791  11.1338  11.3291  13.2547  13.8011
    31.0940  31.9640  32.1628  32.4425  32.6579  32.9855  33.2555  33.4937
    33.6432  33.8209  34.2148  34.3440  34.5831  35.3134  35.7769  35.9491
    36.6673  37.4139  37.4800  37.8665  39.0286  39.5081  39.5871  39.7061
    39.9459  40.1286  40.6840  41.3710  41.7956  42.2572  42.8728  43.3518
    43.7345  44.7801  45.3130  45.9730  46.4573  47.1931  47.2575  47.7933
    48.2665  48.5841  50.1129  50.9005  51.4414  51.6109  52.1536  52.6156

          k = 0.0000 0.3333 0.2857 (  2658 PWs)   bands (ev):

   -33.5148 -33.5072 -15.5032 -15.1581 -14.8201 -14.0652 -13.8802 -13.5255
    -2.4971  -2.4864  -2.4702  -2.4161  -2.3301  -2.2798   5.4145   6.5692
     7.2388   8.4754   8.7684   8.8923   9.6803   9.9168  10.2424  10.3969
    10.6951  10.7708  10.9374  11.1562  11.2367  11.3255  11.9078  13.7883
    31.1940  31.6781  31.7631  32.0039  32.6008  32.7657  33.2121  33.3696
    33.8752  34.0481  34.2287  34.6509  34.9837  35.5974  35.6912  36.4930
    37.7993  37.9469  38.2492  38.4364  38.7904  39.3112  39.4635  39.6336
    39.6711  39.9648  40.2728  41.2076  42.3663  42.6464  43.0720  43.1633
    44.2542  45.0366  45.7217  45.8002  46.3178  46.3540  46.5851  47.1421
    47.2912  48.5234  48.9664  51.4973  51.6477  51.8244  52.2750  53.1081

          k = 0.0000 0.3333 0.4286 (  2654 PWs)   bands (ev):

   -33.5107 -33.5084 -15.4378 -15.1020 -14.6494 -14.3181 -13.9986 -13.5227
    -2.5127  -2.4995  -2.4751  -2.4000  -2.2831  -2.2246   5.4611   7.0574
     8.0997   8.5065   8.8462   8.9807   9.5981   9.8988   9.9264  10.0421
    10.3434  10.6783  10.8184  11.0924  11.2018  11.2997  11.3808  13.7755
    30.9811  31.2903  31.3245  32.1477  32.5322  32.6436  33.5440  33.6265
    33.8136  34.2664  34.3292  34.8987  35.3164  35.5098  35.6480  36.8478
    37.7262  38.0080  38.3269  38.5404  39.1583  39.2308  39.3377  39.6344
    40.0663  40.7403  40.8097  41.4098  42.4885  42.8642  43.1428  43.6030
    44.2052  44.8665  45.2586  45.6939  45.9014  46.2697  46.4876  46.7331
    46.9904  47.1912  49.4645  49.9197  51.3090  52.4930  52.5944  52.7841

          k = 0.0000-0.5000 0.0000 (  2666 PWs)   bands (ev):

   -33.5121 -33.5121 -15.4599 -15.4599 -14.4438 -14.4438 -13.5277 -13.5277
    -2.5147  -2.5147  -2.4508  -2.4508  -2.3271  -2.3271   5.3808   5.3808
     8.3908   8.3908   9.0151   9.0151   9.4822   9.4822  10.2404  10.2404
    10.5747  10.5747  10.8983  10.8983  11.1969  11.1969  13.7964  13.7964
    31.2801  31.2801  31.8741  31.8741  33.1551  33.1551  33.6673  33.6673
    34.0303  34.0303  34.1000  34.1000  34.5309  34.5309  35.7385  35.7385
    37.5657  37.5657  38.1085  38.1085  38.9147  38.9147  39.4063  39.4063
    39.9852  39.9852  41.3884  41.3884  42.9430  42.9430  43.3607  43.3607
    43.8958  43.8958  44.2340  44.2340  45.9079  45.9079  48.9870  48.9870
    49.0345  49.0345  50.2684  50.2685  51.8408  51.8410  51.8436  51.8438

          k = 0.0000-0.5000 0.1429 (  2666 PWs)   bands (ev):

   -33.5121 -33.5121 -15.4523 -15.3883 -14.4587 -14.4517 -13.6310 -13.5265
    -2.5133  -2.5049  -2.4619  -2.4437  -2.3226  -2.3008   5.4000   5.7110
     8.4185   8.4365   9.0341   9.0467   9.3446   9.5102  10.1060  10.2989
    10.3714  10.7630  10.8393  11.0497  11.1053  11.2150  13.2459  13.7914
    31.1178  31.4149  31.7717  32.1351  32.9668  33.2549  33.2789  33.4041
    33.5849  33.8629  34.2787  34.3536  34.6161  35.4353  35.8303  35.9537
    37.5886  37.8365  38.1131  38.3476  38.8237  38.9459  39.4714  39.7871
    39.9952  40.4976  41.0607  41.1326  42.4469  42.8208  42.9406  43.3891
    43.5992  44.1101  44.9029  44.9092  45.6684  46.0164  47.7313  48.4128
    48.5695  49.1778  49.7716  51.2998  51.3228  51.5330  52.0546  53.2476

          k = 0.0000-0.5000 0.2857 (  2658 PWs)   bands (ev):

   -33.5104 -33.5103 -15.4342 -15.1869 -14.4927 -14.4721 -13.8984 -13.5236
    -2.5191  -2.4943  -2.4787  -2.4075  -2.2898  -2.2373   5.4482   6.6493
     8.4864   8.4965   9.0714   9.0955   9.1493   9.6104   9.9477  10.0800
    10.3318  10.7067  10.8818  11.0384  11.1826  11.2804  11.8883  13.7781
    30.9665  31.4111  31.4143  32.2944  32.3444  32.7272  33.5048  33.6269
    33.7219  34.0415  34.3186  34.8210  35.2213  35.4529  35.7679  37.0193
    37.6726  38.4325  38.4812  38.6426  38.6753  38.6757  39.0109  39.4092
    40.3562  40.4247  41.5568  42.3087  42.4074  42.4365  42.8613  43.3747
    43.5698  44.2805  45.3629  45.7184  45.8548  46.3657  46.4107  47.2990
    47.3126  47.8429  49.4004  49.9885  51.5229  52.3050  52.8434  53.1519

          k = 0.0000-0.5000 0.4286 (  2662 PWs)   bands (ev):

   -33.5109 -33.5109 -15.4197 -14.9279 -14.5208 -14.5082 -14.1898 -13.5208
    -2.5152  -2.5121  -2.4835  -2.3928  -2.2597  -2.1945   5.4988   8.0044
     8.5023   8.5516   8.9015   9.1528   9.1965   9.7600   9.8683   9.8767
     9.8847  10.6062  10.6424  10.6832  11.2164  11.2335  11.3460  13.7656
    30.8623  30.9264  31.0236  32.4607  32.4688  32.5415  33.8509  33.8841
    33.9328  34.4319  34.6292  34.8860  35.1622  35.5983  36.3175  36.4238
    37.3393  37.3925  37.6854  38.3215  38.8965  40.0019  40.0993  40.4784
    40.8699  41.0194  41.1403  42.1617  42.7612  42.7731  43.1017  43.4978
    44.1453  44.4919  45.1536  45.4302  46.0754  46.1109  46.1879  46.2263
    46.4963  47.6127  48.1554  49.8688  50.5052  52.0650  52.2330  52.2618

          k = 0.2000 0.0000 0.0000 (  2661 PWs)   bands (ev):

   -33.5215 -33.5030 -15.7382 -15.1861 -15.0091 -13.7269 -13.5325 -13.5325
    -2.4785  -2.4785  -2.4510  -2.4510  -2.4134  -2.4067   5.1841   5.3623
     6.2818   8.4753   8.4753   8.6989  10.1627  10.1627  10.2168  10.4474
    10.9437  10.9437  10.9573  11.0044  11.0044  12.7768  13.8188  13.8188
    31.3627  32.3818  32.4010  32.9430  32.9430  33.2669  33.2669  33.2677
    33.7205  33.9554  34.0244  34.4962  34.5145  34.5145  35.7229  36.0288
    36.0843  36.1245  36.9337  36.9659  36.9659  37.5493  40.2158  40.2158
    40.2637  40.6258  40.6374  42.2949  42.2949  42.3362  43.1903  43.1903
    44.4851  44.6247  44.6365  46.4510  46.4510  47.0293  47.0293  47.7263
    48.7665  49.6578  49.8417  51.3786  51.3788  51.7696  52.0575  52.0580

          k = 0.2000 0.0000 0.1429 (  2667 PWs)   bands (ev):

   -33.5195 -33.5073 -15.6985 -15.1611 -15.0141 -13.7334 -13.6298 -13.5314
    -2.4829  -2.4786  -2.4631  -2.4411  -2.4075  -2.3879   5.2768   5.5752
     6.3096   8.4694   8.5762   8.6790  10.0292  10.0450  10.3882  10.5885
    10.8014  10.8176  10.9652  10.9879  11.1030  12.7698  13.2649  13.8135
    31.5345  32.1554  32.5780  32.6144  32.7523  32.8710  33.2681  33.4327
    33.5727  34.0434  34.0778  34.1058  34.3842  35.5061  35.9220  36.1307
    36.4479  36.4702  36.8400  37.1809  37.3707  37.5132  40.0041  40.0872
    40.1892  40.3635  40.8800  42.0375  42.5590  42.8394  42.8653  43.4654
    44.1377  44.2882  44.7371  46.4206  46.6739  46.7267  47.0466  47.6383
    48.1462  49.6352  49.8776  51.2346  51.8596  52.2344  52.3318  52.4768

          k = 0.2000 0.0000 0.2857 (  2659 PWs)   bands (ev):

   -33.5152 -33.5079 -15.5968 -15.1903 -14.9069 -13.9203 -13.7188 -13.5283
    -2.4935  -2.4742  -2.4667  -2.4303  -2.3670  -2.3333   5.3582   5.9535
     6.8248   8.4562   8.6368   8.8236   9.8499   9.9763  10.4229  10.4681
    10.7770  10.8126  10.8756  11.0935  11.1558  11.8612  12.7794  13.8004
    31.2892  32.0382  32.2107  32.2718  32.6155  32.9234  33.0175  33.6076
    33.6951  33.8397  34.1561  34.4113  34.4184  35.6013  35.7543  36.4133
    36.8532  37.3169  37.3970  37.9766  38.5389  38.8222  39.5192  39.7196
    39.7463  40.1288  40.8760  41.9181  42.0563  42.3811  42.6577  43.5181
    43.8376  44.8908  45.1316  46.1761  46.5985  46.7570  46.8633  47.8289
    48.1983  48.3582  49.9256  50.8605  51.8088  51.9782  52.5714  52.8619

          k = 0.2000 0.0000 0.4286 (  2660 PWs)   bands (ev):

   -33.5131 -33.5090 -15.4768 -15.2915 -14.6373 -14.2799 -13.7230 -13.5258
    -2.5085  -2.4904  -2.4706  -2.4302  -2.3193  -2.2846   5.4088   6.0147
     8.1315   8.4442   8.6435   9.1253   9.5260   9.9788  10.0181  10.2833
    10.3715  10.8008  10.8603  11.0204  11.1207  11.2218  12.7685  13.7904
    31.0621  31.5703  31.7335  32.2487  32.6384  33.0048  33.2865  33.4313
    33.6372  33.8049  34.3191  34.5603  34.8100  35.3968  35.9864  36.4186
    37.3806  37.9251  37.9573  38.4519  38.8752  39.1634  39.2995  39.8220
    39.9918  40.7876  41.0247  41.5874  41.6348  42.4053  42.7036  42.8558
    44.1742  44.9125  45.0924  45.4255  45.9909  46.1445  46.9932  47.9454
    47.9890  49.1083  49.1506  51.1324  51.6787  51.8216  51.9362  53.1830

          k = 0.2000 0.1667 0.0000 (  2672 PWs)   bands (ev):

   -33.5191 -33.5100 -15.6851 -15.1574 -15.0097 -13.7391 -13.6604 -13.5310
    -2.4904  -2.4872  -2.4639  -2.4357  -2.4041  -2.3815   5.2917   5.6550
     6.3327   8.4675   8.6100   8.6725  10.0122  10.0158  10.4121  10.6163
    10.7619  10.7956  10.9490  11.0023  11.1153  12.7643  13.0817  13.8103
    31.5626  32.0540  32.5686  32.6182  32.7312  32.8208  33.1832  33.4675
    33.6695  33.9573  34.0372  34.1475  34.3351  35.6698  35.9213  36.1368
    36.5630  36.5645  36.9933  37.2759  37.4785  37.5220  39.9673  39.9826
    40.1756  40.2835  40.9626  42.0378  42.5724  42.7322  42.8398  43.6138
    44.0519  44.2189  44.7741  46.4601  46.6694  46.6901  46.9969  47.7254
    48.0161  49.4718  49.9391  51.1006  51.9098  52.2575  52.4944  52.7042

          k = 0.2000 0.1667 0.1429 (  2665 PWs)   bands (ev):

   -33.5184 -33.5074 -15.6420 -15.1099 -15.0381 -13.7397 -13.6736 -13.6219
    -2.5090  -2.4478  -2.4418  -2.4238  -2.3967  -2.3900   5.5720   5.7042
     6.3370   8.5773   8.6125   8.6716   9.7232  10.2892  10.3575  10.6193
    10.7186  10.8050  10.8771  11.0479  11.0920  12.7641  13.0735  13.2629
    31.7958  32.1675  32.4476  32.5120  32.5921  32.7666  32.9596  33.0232
    33.5800  33.8437  33.9816  34.0250  35.2048  35.6190  36.5389  36.5857
    36.8200  36.8725  37.0238  37.2200  37.4113  37.4842  39.8485  39.9830
    40.2411  40.7228  41.0397  42.1613  42.4388  42.6535  42.6802  43.0312
    43.3891  45.0624  45.1424  46.1250  46.1678  46.4452  46.7572  47.6712
    47.8306  49.4475  50.5292  51.3424  51.6583  52.1733  52.4275  53.3824

          k = 0.2000 0.1667 0.2857 (  2655 PWs)   bands (ev):

   -33.5159 -33.5045 -15.5327 -15.1357 -14.9358 -13.9243 -13.7302 -13.6614
    -2.4911  -2.4516  -2.4400  -2.4133  -2.3554  -2.3428   5.7736   6.0082
     6.7981   8.6128   8.6613   8.8389   9.5053  10.2616  10.3200  10.4533
    10.6748  10.8280  10.9433  11.0403  11.1224  11.8780  12.7733  13.0677
    31.5614  31.9597  32.2469  32.3399  32.6395  32.7249  32.9185  33.0436
    33.4152  33.6509  33.8405  34.3217  35.4348  35.9434  36.5126  36.6691
    37.0628  37.4532  37.6991  37.7555  38.6828  38.7371  39.4586  39.8884
    40.1416  40.6531  41.3690  41.6407  41.8546  42.3043  42.3506  42.5706
    43.9354  45.0714  45.4351  45.5949  45.9609  46.1902  46.5644  47.7579
    48.0376  48.3797  50.5518  51.1696  51.6378  52.1588  52.3164  53.6670

          k = 0.2000 0.1667 0.4286 (  2655 PWs)   bands (ev):

   -33.5109 -33.5082 -15.3983 -15.2559 -14.6549 -14.2910 -13.7275 -13.6681
    -2.4930  -2.4700  -2.4387  -2.4207  -2.3051  -2.2952   5.8495   6.0412
     8.0907   8.5909   8.7067   9.1293   9.3354   9.9016  10.1133  10.1981
    10.4897  10.6103  11.0076  11.0461  11.0858  11.1332  12.7653  13.0562
    31.2548  31.3828  32.1144  32.3622  32.6306  32.8068  33.0079  33.1714
    33.5748  33.6869  33.8550  34.2336  35.8162  35.9618  36.3189  36.4563
    37.2783  37.9755  38.5262  38.7535  38.8864  39.5782  39.7136  39.9974
    40.4127  40.5639  40.8230  41.2941  41.6696  42.0419  42.3988  42.8428
    44.2258  44.6921  45.1463  45.5486  45.6254  46.0754  46.1640  46.7699
    48.2267  48.5712  50.2222  50.7135  51.3159  51.9755  52.9708  53.7374

          k = 0.2000 0.3333 0.0000 (  2656 PWs)   bands (ev):

   -33.5149 -33.5065 -15.5560 -15.2217 -14.8310 -14.0343 -13.7210 -13.5271
    -2.4968  -2.4769  -2.4698  -2.4270  -2.3489  -2.3118   5.3799   5.9896
     7.2110   8.4516   8.6249   8.9226   9.7580   9.9835  10.3791  10.3814
    10.8055  10.8233  10.8497  11.1183  11.1734  11.3413  12.7753  13.7958
    31.1720  31.8741  32.0453  32.2522  32.6019  33.0074  33.0458  33.5143
    33.7065  33.8094  34.1911  34.5460  34.6349  35.4302  35.7813  36.4765
    36.9928  37.4977  37.6599  38.0854  39.0322  39.4647  39.5277  39.5930
    39.7846  40.0729  40.6298  41.5903  41.9307  42.2831  42.7044  43.2300
    43.9108  45.2409  45.2533  45.8651  46.5158  46.7321  46.9709  47.5839
    47.8966  48.6760  49.5933  51.1192  51.7164  51.7983  52.3579  52.7785

          k = 0.2000 0.3333 0.1429 (  2657 PWs)   bands (ev):

   -33.5150 -33.5060 -15.5056 -15.1861 -14.8494 -14.0390 -13.7260 -13.6304
    -2.4925  -2.4617  -2.4439  -2.4246  -2.3409  -2.3221   5.6974   6.0182
     7.1874   8.5749   8.6479   8.9339   9.5014  10.1832  10.2505  10.4621
    10.6480  10.8198  10.9984  11.0229  11.1321  11.3797  12.7710  13.2472
    31.3623  31.7419  32.1622  32.3797  32.7242  32.8423  32.9409  33.1002
    33.4723  33.6289  33.9426  34.3142  35.4740  35.8731  36.2124  36.5395
    37.0576  37.6192  37.9481  38.0400  39.1712  39.3530  39.5841  39.9097
    39.9916  40.2376  41.0969  41.3219  41.7801  42.2201  42.3905  42.6180
    44.4142  44.9820  45.3263  45.4979  46.0976  46.3329  46.4500  47.6663
    47.9602  48.3771  50.1428  51.0433  51.8503  52.0946  52.3047  53.4356

          k = 0.2000 0.3333 0.2857 (  2656 PWs)   bands (ev):

   -33.5132 -33.5061 -15.3914 -15.0873 -14.8651 -14.0642 -13.9029 -13.7265
    -2.4878  -2.4465  -2.4255  -2.3899  -2.3249  -2.3010   6.0403   6.6248
     7.1889   8.6997   8.8069   8.9596   9.2527  10.1130  10.2483  10.3977
    10.6652  10.6987  10.9319  11.0556  11.1469  11.3877  11.8998  12.7639
    31.5775  31.6337  32.0095  32.2127  32.4568  32.8216  32.9134  33.1737
    33.2961  33.3187  33.8016  34.8140  35.7668  36.0601  36.6923  36.9023
    37.6949  38.1619  38.3048  38.6360  39.1930  39.4149  39.4988  39.8197
    40.2861  40.7356  41.0149  41.2098  41.9444  42.0554  42.2545  42.9733
    43.9993  44.8566  44.9792  45.1959  45.3586  45.9283  46.1736  47.2299
    47.7334  48.3103  49.6026  50.8461  51.5907  52.3215  52.5356  53.6852

          k = 0.2000 0.3333 0.4286 (  2643 PWs)   bands (ev):

   -33.5065 -33.5064 -15.2949 -15.0633 -14.6785 -14.3244 -14.0217 -13.7332
    -2.4694  -2.4495  -2.4130  -2.3870  -2.2854  -2.2509   6.0896   7.0890
     8.0687   8.7529   8.8238   8.9693   9.3544   9.9078   9.9947  10.1341
    10.4179  10.5979  10.8258  11.0420  11.0739  11.1677  11.3943  12.7562
    31.3023  31.3640  31.9214  32.1602  32.5146  32.7223  32.9285  33.1430
    33.3084  33.8136  34.1386  34.9067  35.7764  35.9789  36.4510  36.7813
    38.1070  38.6988  38.8636  38.9812  39.2494  39.5674  39.7214  40.0996
    40.3698  40.8123  40.9088  41.3734  41.8695  42.1263  43.0639  43.5920
    44.2439  44.4021  44.4963  44.8228  45.0343  45.5738  46.3054  46.6487
    46.8961  48.4473  48.9193  50.0851  50.6429  52.1234  52.6799  53.1947

          k = 0.2000-0.5000 0.0000 (  2658 PWs)   bands (ev):

   -33.5104 -33.5103 -15.4456 -15.3210 -14.4711 -14.4585 -13.7235 -13.5253
    -2.5106  -2.4878  -2.4692  -2.4247  -2.3156  -2.2807   5.4172   6.0198
     8.4424   8.4651   9.0539   9.0742   9.2462   9.5410  10.0370  10.2514
    10.3255  10.7890  10.8770  11.0273  11.1183  11.2375  12.7685  13.7884
    31.0480  31.4914  31.6591  32.2260  32.6440  33.0062  33.3983  33.4059
    33.6125  33.8150  34.3535  34.4530  34.8995  35.4147  36.0694  36.3854
    37.5701  37.8434  38.3764  38.4164  38.9211  38.9810  39.2790  39.4610
    40.0379  40.8299  41.0869  41.5714  42.1579  42.6097  42.8539  43.4580
    43.5264  44.0749  45.2659  45.5041  45.5196  46.0136  47.0708  48.0070
    48.1889  49.1384  49.2395  50.8205  51.7001  51.9304  52.0266  53.1327

          k = 0.2000-0.5000 0.1429 (  2658 PWs)   bands (ev):

   -33.5102 -33.5101 -15.3716 -15.3110 -14.4783 -14.4727 -13.7261 -13.6322
    -2.4958  -2.4876  -2.4437  -2.4250  -2.3005  -2.2848   5.7443   6.0349
     8.4985   8.4998   9.0765   9.0836   9.2561   9.3823  10.0851  10.1194
    10.4910  10.6128  11.0009  11.0660  11.0742  11.1555  12.7654  13.2392
    31.1853  31.3092  32.0851  32.2659  32.5847  32.9414  33.0851  33.2430
    33.5632  33.8846  33.8907  34.1234  35.7399  35.7723  36.2580  36.3975
    37.6374  37.7730  38.7644  38.7680  39.1494  39.1743  39.4844  39.7328
    40.3086  40.5511  40.9070  41.3607  42.0608  42.2788  42.8421  43.2683
    43.6244  43.8575  45.4996  45.5815  45.6571  45.7524  46.4859  46.6508
    48.2978  48.7833  50.2432  50.7889  51.3718  51.5756  52.9885  53.6827

          k = 0.2000-0.5000 0.2857 (  2648 PWs)   bands (ev):

   -33.5077 -33.5075 -15.2870 -15.1626 -14.5051 -14.4959 -13.9120 -13.7321
    -2.4652  -2.4625  -2.4169  -2.4016  -2.2866  -2.2606   6.0795   6.6757
     8.5542   8.5927   9.0226   9.0736   9.2245   9.3985  10.0276  10.0651
    10.4781  10.5791  10.8957  11.0463  11.0738  11.1529  11.8861  12.7572
    31.2675  31.3390  32.0941  32.2710  32.4168  32.6637  32.9120  33.1406
    33.3806  33.8107  34.1742  34.4201  35.9760  36.0271  36.5841  36.8082
    37.9887  38.2214  38.8299  39.0886  39.3420  39.4818  39.6160  39.6492
    40.6015  40.7370  41.3567  41.4300  41.6674  42.5925  42.8980  43.3232
    43.5787  43.9059  44.8992  44.9094  45.6449  45.7001  46.0504  46.2736
    47.4167  48.5519  49.6052  50.0862  50.7945  51.6672  53.0801  53.6029

          k = 0.2000-0.5000 0.4286 (  2646 PWs)   bands (ev):

   -33.5068 -33.5066 -15.2668 -14.8817 -14.5326 -14.5222 -14.2361 -13.7370
    -2.4538  -2.4503  -2.4311  -2.3820  -2.2606  -2.2170   6.1221   8.0306
     8.5288   8.7204   8.8255   9.0440   9.2225   9.7143   9.7966  10.0153
    10.0748  10.5291  10.6785  10.6979  11.0907  11.0946  11.1937  12.7485
    31.2116  31.2340  31.4796  32.4093  32.5808  32.7380  32.7493  33.3321
    33.3362  34.1416  34.9305  35.1900  35.4207  35.8391  36.1222  36.2152
    37.8549  38.9579  39.1809  39.2055  39.5400  39.5568  40.0003  40.3034
    40.6748  41.0078  41.2542  41.2635  42.6783  42.8971  43.0632  43.3256
    43.8471  44.3889  44.4700  44.6291  45.4343  45.7096  45.7442  46.4543
    46.9040  47.4438  48.1695  48.9078  50.3031  52.3651  52.5337  52.6388

          k = 0.4000 0.0000 0.0000 (  2657 PWs)   bands (ev):

   -33.5152 -33.5059 -15.5622 -15.3575 -14.6789 -14.1873 -13.5283 -13.5283
    -2.5080  -2.5080  -2.4494  -2.4494  -2.3398  -2.3280   5.3315   5.4132
     7.9133   8.4030   8.4030   9.1292   9.6731  10.2281  10.2281  10.4362
    10.4442  10.7192  10.9172  10.9172  11.1599  11.1599  13.7996  13.7996
    30.9744  31.8567  32.0185  32.0185  32.9536  33.0536  33.6690  33.7112
    33.9611  33.9611  34.1308  34.4286  34.4286  34.4506  35.4756  35.8607
    36.8981  37.5672  37.5672  37.9438  39.0423  39.4726  39.4726  39.7707
    39.9320  40.1566  41.2734  41.5927  41.5927  41.9341  43.4303  43.5999
    43.7460  43.7460  44.9519  46.0187  46.0187  46.2424  48.5980  48.5980
    48.7685  49.1182  50.4101  50.4102  50.9691  51.5546  51.5549  52.2468

          k = 0.4000 0.0000 0.1429 (  2659 PWs)   bands (ev):

   -33.5142 -33.5080 -15.5255 -15.3160 -14.6913 -14.1963 -13.6310 -13.5273
    -2.5056  -2.4965  -2.4603  -2.4399  -2.3329  -2.3108   5.3828   5.7059
     7.8719   8.4264   8.5299   9.0988   9.6249  10.0770  10.2245  10.4083
    10.4675  10.7476  10.8589  11.0632  11.0854  11.1826  13.2492  13.7966
    31.0545  31.6632  31.9174  32.2816  32.8331  33.1527  33.2538  33.4325
    33.6188  33.8184  34.3439  34.4379  34.4788  35.4011  35.8248  35.9302
    36.9709  37.7683  37.9094  38.0584  39.0004  39.3829  39.3874  39.9196
    40.3423  40.3922  40.9881  41.2090  41.4147  42.2202  42.8754  43.0650
    43.9674  44.8247  45.0877  45.5692  46.1920  46.3195  47.5310  48.1530
    48.3912  48.9496  49.7462  51.1526  51.2449  51.7514  52.2096  52.6588

          k = 0.4000 0.0000 0.2857 (  2657 PWs)   bands (ev):

   -33.5134 -33.5076 -15.4626 -15.1708 -14.7081 -14.2270 -13.8937 -13.5243
    -2.5100  -2.4916  -2.4756  -2.4106  -2.3049  -2.2511   5.4351   6.6305
     7.8314   8.4818   8.7652   8.9971   9.6004   9.9237  10.1522  10.1818
    10.4641  10.7319  10.9213  10.9994  11.1774  11.2625  11.8930  13.7821
    31.0610  31.5157  31.5447  32.0763  32.5636  32.7372  33.3786  33.4450
    33.7819  34.1509  34.2064  34.8379  35.2494  35.3754  35.6480  36.8558
    37.9085  37.9886  38.3980  38.4314  38.6302  39.1579  39.4715  39.5719
    40.0152  40.5502  40.8702  40.9159  42.5152  42.6940  42.7810  43.2276
    44.2696  44.9928  45.3641  45.8541  46.1838  46.3810  46.4220  46.8188
    47.2801  48.0547  49.2526  50.7217  51.6367  52.0647  52.3275  53.2518

          k = 0.4000 0.0000 0.4286 (  2657 PWs)   bands (ev):

   -33.5111 -33.5088 -15.4263 -15.0001 -14.6288 -14.3664 -14.1214 -13.5216
    -2.5147  -2.5097  -2.4762  -2.3914  -2.2694  -2.2065   5.4840   7.6720
     8.1207   8.5331   8.9110   8.9302   9.6528   9.8704   9.8946   9.9527
    10.0992  10.6342  10.7271  10.8420  11.1698  11.2219  11.3295  13.7693
    30.9287  31.0520  31.1399  32.2562  32.5576  32.5736  33.7282  33.7922
    33.8497  34.3413  34.6460  34.8237  35.0946  35.6579  36.0557  36.5272
    37.6088  37.6138  37.9380  38.4313  39.0581  39.8687  40.0520  40.0744
    40.4395  40.6873  40.8144  41.4193  42.3179  42.9854  43.7373  43.9642
    44.0365  44.9607  45.2390  45.5089  45.6266  46.0842  46.2112  46.4161
    46.5423  47.3296  49.0919  49.6782  50.8720  52.2883  52.3034  52.6448

          k = 0.4000 0.1667 0.0000 (  2659 PWs)   bands (ev):

   -33.5133 -33.5088 -15.5146 -15.2995 -14.6951 -14.1996 -13.6663 -13.5269
    -2.5057  -2.4925  -2.4642  -2.4338  -2.3314  -2.3042   5.3906   5.8213
     7.8624   8.4341   8.5674   9.0869   9.6144  10.0464  10.2205  10.3690
    10.4725  10.7865  10.8398  11.0616  11.0902  11.1920  13.0637  13.7949
    31.0688  31.6512  31.8762  32.2931  32.7405  33.1461  33.1757  33.4511
    33.6291  33.7655  34.3246  34.5369  34.5542  35.4065  35.9427  36.0814
    37.0525  37.7817  37.9473  38.1320  39.0212  39.3094  39.3740  39.9538
    40.1926  40.4632  41.1297  41.2757  41.3241  42.2324  42.8070  42.9870
    44.0476  45.0545  45.0919  45.4889  46.2187  46.3128  47.2687  47.9929
    48.2225  48.9890  49.5361  51.2160  51.4562  51.7295  52.1066  52.9091

          k = 0.4000 0.1667 0.1429 (  2662 PWs)   bands (ev):

   -33.5134 -33.5093 -15.4642 -15.2674 -14.7091 -14.2076 -13.6691 -13.6307
    -2.5037  -2.4777  -2.4474  -2.4340  -2.3202  -2.3089   5.7081   5.8498
     7.8310   8.5471   8.6092   9.0829   9.4591  10.0709  10.1744  10.3927
    10.5051  10.6136  11.0045  11.0413  11.1024  11.1275  13.0593  13.2438
    31.2108  31.4897  32.0885  32.3943  32.7886  32.9174  33.0495  33.1744
    33.6409  33.6924  33.9008  34.1180  35.6681  35.7680  36.0826  36.2033
    37.0192  38.0019  38.2128  38.3967  38.7975  39.6411  39.8863  39.9741
    40.2425  40.5825  40.8391  41.0310  41.4081  42.1612  42.4685  42.7311
    44.3603  45.0518  45.1017  45.5066  45.6854  46.4697  46.6576  47.1129
    48.3201  48.6116  50.2834  50.6785  51.8215  51.9630  52.5139  53.2793

          k = 0.4000 0.1667 0.2857 (  2650 PWs)   bands (ev):

   -33.5093 -33.5074 -15.3719 -15.1384 -14.7310 -14.2321 -13.9051 -13.6701
    -2.4883  -2.4591  -2.4302  -2.4019  -2.3019  -2.2696   5.8758   6.6552
     7.8016   8.6664   8.7823   9.0144   9.3307  10.0503  10.0900  10.2724
    10.4708  10.6425  10.9092  11.0579  11.0944  11.1848  11.8920  13.0520
    31.3036  31.4236  32.0340  32.0910  32.5947  32.7524  33.0099  33.2179
    33.3549  33.6199  34.0686  34.7129  35.7389  35.9429  36.2962  36.8380
    37.8927  38.2553  38.6781  38.7706  38.9482  39.4158  39.6978  40.1662
    40.2148  40.6588  40.7620  40.9760  41.9495  42.1649  42.7210  43.0719
    44.4871  44.7367  44.9222  45.2330  45.4455  45.5978  46.2038  46.9978
    47.3127  48.6598  49.2308  50.8406  50.9337  52.3307  52.8455  53.4298

          k = 0.4000 0.1667 0.4286 (  2652 PWs)   bands (ev):

   -33.5084 -33.5081 -15.3217 -14.9693 -14.6504 -14.3656 -14.1494 -13.6730
    -2.4786  -2.4658  -2.4394  -2.3869  -2.2731  -2.2256   5.9206   7.7049
     8.0870   8.7548   8.8602   8.8660   9.5002   9.8641   9.9403  10.0526
    10.1865  10.5793  10.7324  10.8330  11.1102  11.1291  11.2335  13.0428
    31.1611  31.1983  31.5286  32.2572  32.6177  32.7005  32.9863  33.3513
    33.4326  34.1088  34.5323  35.1727  35.5029  35.7890  35.9889  36.5456
    37.8941  38.7379  38.8192  39.1906  39.2492  39.7464  39.9200  40.1003
    40.3734  40.6489  40.9680  41.4342  41.9029  42.5276  43.6557  43.7940
    44.1538  44.5511  44.7174  44.8214  45.3164  45.4120  45.7116  46.8219
    46.9365  47.4772  49.1507  49.1895  50.5692  52.5167  52.5955  52.8109

          k = 0.4000 0.3333 0.0000 (  2652 PWs)   bands (ev):

   -33.5111 -33.5074 -15.4468 -15.1055 -14.7015 -14.2496 -13.9918 -13.5230
    -2.5091  -2.4979  -2.4733  -2.4014  -2.2876  -2.2302   5.4546   7.0383
     7.8365   8.5023   8.8330   8.9576   9.6187   9.8946  10.0748  10.1577
    10.4129  10.6913  10.8637  11.0733  11.1970  11.2918  11.3903  13.7771
    31.0270  31.3376  31.3853  32.0829  32.5845  32.6531  33.4878  33.5415
    33.8386  34.2116  34.3700  34.8243  35.3980  35.5396  35.5550  36.7289
    37.8578  38.0528  38.2706  38.5306  39.2273  39.2801  39.4657  39.6109
    39.9964  40.4611  40.8228  40.8617  42.6022  42.8163  43.0040  43.8364
    44.2680  45.0531  45.3176  45.7034  45.9226  46.3450  46.4165  46.7138
    46.9497  47.3196  49.3937  50.2512  51.3925  52.4323  52.4901  52.9160

          k = 0.4000 0.3333 0.1429 (  2654 PWs)   bands (ev):

   -33.5105 -33.5078 -15.3748 -15.0823 -14.7201 -14.2507 -14.0053 -13.6334
    -2.4923  -2.4713  -2.4446  -2.4004  -2.2905  -2.2463   5.7783   7.0582
     7.8102   8.6563   8.8258   8.9536   9.4147  10.0011  10.0668  10.2092
    10.4307  10.6407  10.8542  11.0731  11.1215  11.2227  11.4016  13.2327
    31.2171  31.3085  31.7542  32.0949  32.6027  32.7388  33.1705  33.2921
    33.4022  33.7962  34.3203  34.9108  35.6455  35.7452  36.0463  36.7408
    38.0839  38.5056  38.6688  39.0070  39.1187  39.2712  39.5835  39.9502
    40.1815  40.5463  40.7671  40.8796  42.1850  42.3536  43.0518  43.6978
    44.3879  44.7507  44.8675  45.2653  45.2962  45.6144  46.3384  46.7314
    47.0349  48.2721  49.0807  50.3328  50.9904  52.4674  52.6837  53.1863

          k = 0.4000 0.3333 0.2857 (  2651 PWs)   bands (ev):

   -33.5082 -33.5070 -15.1870 -15.0032 -14.7662 -14.2534 -14.0426 -13.9206
    -2.4577  -2.4163  -2.3980  -2.3574  -2.2957  -2.2820   6.7020   7.1108
     7.7907   8.7470   8.8089   9.0855   9.2752   9.9693  10.1788  10.2698
    10.3928  10.6161  10.8153  10.9579  11.0425  11.0715  11.3845  11.8806
    31.5175  31.6720  32.0719  32.1419  32.3470  32.7025  32.8165  32.9803
    33.2169  33.4416  33.9199  35.1497  35.8645  36.0545  37.0856  37.2234
    37.9715  38.4049  38.7121  39.3011  39.3687  39.7316  39.9915  40.5647
    40.7283  40.9086  41.2425  41.5028  41.7532  42.1323  42.6515  43.0915
    43.8377  44.2557  44.3855  44.8674  45.0609  45.2430  46.0688  46.6863
    47.2624  47.6378  49.0299  49.8497  50.6691  51.4177  52.3302  52.6588

          k = 0.4000 0.3333 0.4286 (  2646 PWs)   bands (ev):

   -33.5060 -33.5060 -15.0367 -14.8794 -14.7082 -14.3563 -14.2197 -14.0567
    -2.4203  -2.3884  -2.3761  -2.3383  -2.2916  -2.2739   7.1507   7.7823
     8.0885   8.6550   8.6876   9.2301   9.4699   9.9105   9.9668  10.1947
    10.3087  10.5114  10.7012  10.7974  10.9019  10.9453  10.9635  11.3561
    31.6258  31.7683  32.1087  32.1731  32.2867  32.7013  32.7890  32.8680
    33.0201  33.2799  34.5897  35.4464  35.7971  35.8485  36.8841  37.1808
    38.0851  38.5964  38.7437  38.8676  39.7343  39.8963  40.6341  40.9039
    41.0663  41.2337  41.5735  41.6361  42.0104  42.5879  42.9262  43.0749
    43.8575  44.5518  44.6589  44.6870  44.9626  45.3628  45.4205  46.0053
    46.7977  47.2885  48.0412  49.2634  49.5377  50.6520  51.1938  52.0860

          k = 0.4000-0.5000 0.0000 (  2650 PWs)   bands (ev):

   -33.5086 -33.5085 -15.4214 -14.9751 -14.5168 -14.4987 -14.1424 -13.5211
    -2.5142  -2.5081  -2.4764  -2.3884  -2.2572  -2.1928   5.4919   7.7207
     8.5048   8.5420   8.9282   9.1456   9.1933   9.7337   9.8785   9.9108
    10.0763  10.6214  10.6819  10.8084  11.1937  11.2280  11.3383  13.7679
    30.8784  31.0021  31.0786  32.4241  32.4358  32.5595  33.8061  33.8409
    33.8875  34.3969  34.5776  35.0001  35.0618  35.5004  36.2379  36.5568
    37.4307  37.4896  37.8989  38.3810  38.9273  39.9210  40.0942  40.1132
    40.5065  40.8144  41.1532  42.2160  42.7493  42.7772  43.0502  43.5321
    44.3495  44.5742  45.1154  45.4778  45.9217  46.0981  46.3131  46.3791
    46.4652  47.4608  48.5893  49.7705  50.7123  52.1863  52.3571  52.4306

          k = 0.4000-0.5000 0.1429 (  2650 PWs)   bands (ev):

   -33.5081 -33.5077 -15.3431 -14.9540 -14.5233 -14.5074 -14.1627 -13.6343
    -2.4780  -2.4779  -2.4504  -2.3875  -2.2643  -2.2122   5.8139   7.7331
     8.5227   8.6416   8.8817   9.0951   9.2063   9.6610   9.8717   9.9835
    10.1698  10.5762  10.6999  10.7988  11.1362  11.1589  11.2665  13.2257
    31.0713  31.0985  31.3682  32.3765  32.5080  32.7160  33.0872  33.5214
    33.5337  34.2904  34.7222  35.1724  35.3725  35.4335  36.2495  36.3305
    37.7216  38.5191  38.5556  39.1032  39.2910  39.7118  39.8715  39.9970
    40.5863  40.9188  40.9615  41.8399  42.4272  42.8426  42.9163  43.5631
    44.1186  44.8141  44.9046  44.9605  45.0907  45.7360  45.8413  46.4448
    47.1096  47.4271  48.6328  49.3685  50.5041  52.3608  52.7934  52.9295

          k = 0.4000-0.5000 0.2857 (  2640 PWs)   bands (ev):

   -33.5050 -33.5050 -15.1185 -14.9008 -14.5380 -14.5294 -14.2114 -13.9351
    -2.4212  -2.4141  -2.3793  -2.3635  -2.2747  -2.2510   6.7378   7.7757
     8.5470   8.6531   8.8910   8.9736   9.3579   9.6593   9.9305  10.1032
    10.3084  10.4811  10.7241  10.7581  10.9790  10.9850  11.0403  11.8689
    31.4903  31.5533  31.9403  32.2480  32.3447  32.6983  32.8364  32.9630
    33.0836  33.5895  34.8685  35.0181  35.7168  35.9584  36.5657  36.9302
    38.2478  38.7448  38.9110  38.9909  39.4167  40.2953  40.5007  40.6221
    40.7401  41.0002  41.1584  41.5357  42.6865  43.0151  43.0659  43.1166
    43.5359  43.9699  44.0310  44.9123  45.2359  45.6576  45.8041  46.2466
    46.3209  47.6957  48.4579  48.5388  49.9433  50.9149  51.7149  52.5087

          k = 0.4000-0.5000 0.4286 (  2640 PWs)   bands (ev):

   -33.5041 -33.5041 -14.8488 -14.7851 -14.5520 -14.5505 -14.3280 -14.2550
    -2.3718  -2.3696  -2.3309  -2.3298  -2.2955  -2.2922   7.8267   8.1155
     8.5145   8.5343   8.9131   8.9182   9.5013   9.6572  10.0415  10.1351
    10.3236  10.4035  10.6421  10.6683  10.7397  10.7416  10.7925  10.7965
    31.9135  31.9466  32.1575  32.2122  32.4278  32.6000  32.7023  32.7100
    32.8780  32.9449  35.4581  35.5034  35.8986  35.9020  36.6505  36.8439
    37.9698  37.9851  38.8598  38.8952  39.8017  39.8153  40.6063  40.6926
    41.2256  41.7329  42.5312  42.5452  43.0547  43.0552  43.2812  43.3050
    44.0230  44.0517  44.4414  44.7721  44.9282  45.3316  45.4766  45.5891
    46.4560  46.4857  48.0765  48.4460  48.7285  49.1295  50.3161  50.7666

     the Fermi energy is    45.1080 ev

!    total energy              =   -1362.73259449 Ry
     Harris-Foulkes estimate   =   -1362.73260853 Ry
     estimated scf accuracy    <       0.00001659 Ry

     The total energy is the sum of the following terms:

     one-electron contribution =     225.29845123 Ry
     hartree contribution      =      83.81626758 Ry
     xc contribution           =    -151.19695633 Ry
     ewald contribution        =   -1520.34348464 Ry
     smearing contrib. (-TS)   =      -0.30687234 Ry

     convergence has been achieved in   9 iterations

     Forces acting on atoms (Ry/au):

     atom    1 type  1   force =     0.00000000    0.00000000    0.00000000
     atom    2 type  1   force =     0.00000000    0.00000000    0.00000000
     atom    3 type  1   force =     0.00000000    0.00000000    0.00000000
     atom    4 type  1   force =     0.00000000    0.00000000    0.00000000
     atom    5 type  1   force =     0.00000000    0.00000000    0.00000000
     atom    6 type  1   force =     0.00000000    0.00000000    0.00000000
     atom    7 type  2   force =     0.00000000    0.00000000    0.00000000
     atom    8 type  2   force =     0.00000000    0.00000000    0.00000000

     Total force =     0.000000     Total SCF correction =     0.000000


     entering subroutine stress ...

          total   stress  (Ry/bohr**3)                   (kbar)     P= 4814.28
   0.03272683   0.00000000   0.00000000       4814.28      0.00      0.00
   0.00000000   0.03272683   0.00000000          0.00   4814.28      0.00
   0.00000000   0.00000000   0.03272683          0.00      0.00   4814.28


     BFGS Geometry Optimization

     number of scf cycles    =   1
     number of bfgs steps    =   0

     enthalpy new            =   -1362.7325944904 Ry

     new trust radius        =       0.5000000000 bohr
     new conv_thr            =       0.0001000000 Ry

     new unit-cell volume =    828.02266 a.u.^3 (   122.70030 Ang^3 )

CELL_PARAMETERS (alat=  8.53457320)
   1.100269143   0.000000000   0.000000000
   0.000000000   1.100269143   0.000000000
   0.000000000   0.000000000   1.100269143

ATOMIC_POSITIONS (crystal)
Cr       0.000000000   0.500000000   0.250000000
Cr       0.000000000   0.500000000   0.750000000
Cr       0.500000000   0.750000000   0.000000000
Cr       0.500000000   0.250000000   0.000000000
Cr       0.750000000   0.000000000   0.500000000
Cr       0.250000000   0.000000000   0.500000000
Si       0.500000000   0.500000000   0.500000000
Si       0.000000000   0.000000000   0.000000000



     Writing output data file Prototype-La-cP8-Cr3Si.save
     NEW-OLD atomic charge density approx. for the potential
     NEW k-points:
        k(    1) = (   0.0000000   0.0000000   0.0000000), wk =   0.0095238
        k(    2) = (   0.0000000   0.0000000   0.1298384), wk =   0.0190476
        k(    3) = (   0.0000000   0.0000000   0.2596767), wk =   0.0190476
        k(    4) = (   0.0000000   0.0000000   0.3895151), wk =   0.0190476
        k(    5) = (   0.0000000   0.1514781   0.0000000), wk =   0.0190476
        k(    6) = (   0.0000000   0.1514781   0.1298384), wk =   0.0380952
        k(    7) = (   0.0000000   0.1514781   0.2596767), wk =   0.0380952
        k(    8) = (   0.0000000   0.1514781   0.3895151), wk =   0.0380952
        k(    9) = (   0.0000000   0.3029562   0.0000000), wk =   0.0190476
        k(   10) = (   0.0000000   0.3029562   0.1298384), wk =   0.0380952
        k(   11) = (   0.0000000   0.3029562   0.2596767), wk =   0.0380952
        k(   12) = (   0.0000000   0.3029562   0.3895151), wk =   0.0380952
        k(   13) = (   0.0000000  -0.4544343   0.0000000), wk =   0.0095238
        k(   14) = (   0.0000000  -0.4544343   0.1298384), wk =   0.0190476
        k(   15) = (   0.0000000  -0.4544343   0.2596767), wk =   0.0190476
        k(   16) = (   0.0000000  -0.4544343   0.3895151), wk =   0.0190476
        k(   17) = (   0.1817737   0.0000000   0.0000000), wk =   0.0190476
        k(   18) = (   0.1817737   0.0000000   0.1298384), wk =   0.0380952
        k(   19) = (   0.1817737   0.0000000   0.2596767), wk =   0.0380952
        k(   20) = (   0.1817737   0.0000000   0.3895151), wk =   0.0380952
        k(   21) = (   0.1817737   0.1514781   0.0000000), wk =   0.0380952
        k(   22) = (   0.1817737   0.1514781   0.1298384), wk =   0.0761905
        k(   23) = (   0.1817737   0.1514781   0.2596767), wk =   0.0761905
        k(   24) = (   0.1817737   0.1514781   0.3895151), wk =   0.0761905
        k(   25) = (   0.1817737   0.3029562   0.0000000), wk =   0.0380952
        k(   26) = (   0.1817737   0.3029562   0.1298384), wk =   0.0761905
        k(   27) = (   0.1817737   0.3029562   0.2596767), wk =   0.0761905
        k(   28) = (   0.1817737   0.3029562   0.3895151), wk =   0.0761905
        k(   29) = (   0.1817737  -0.4544343   0.0000000), wk =   0.0190476
        k(   30) = (   0.1817737  -0.4544343   0.1298384), wk =   0.0380952
        k(   31) = (   0.1817737  -0.4544343   0.2596767), wk =   0.0380952
        k(   32) = (   0.1817737  -0.4544343   0.3895151), wk =   0.0380952
        k(   33) = (   0.3635474   0.0000000   0.0000000), wk =   0.0190476
        k(   34) = (   0.3635474   0.0000000   0.1298384), wk =   0.0380952
        k(   35) = (   0.3635474   0.0000000   0.2596767), wk =   0.0380952
        k(   36) = (   0.3635474   0.0000000   0.3895151), wk =   0.0380952
        k(   37) = (   0.3635474   0.1514781   0.0000000), wk =   0.0380952
        k(   38) = (   0.3635474   0.1514781   0.1298384), wk =   0.0761905
        k(   39) = (   0.3635474   0.1514781   0.2596767), wk =   0.0761905
        k(   40) = (   0.3635474   0.1514781   0.3895151), wk =   0.0761905
        k(   41) = (   0.3635474   0.3029562   0.0000000), wk =   0.0380952
        k(   42) = (   0.3635474   0.3029562   0.1298384), wk =   0.0761905
        k(   43) = (   0.3635474   0.3029562   0.2596767), wk =   0.0761905
        k(   44) = (   0.3635474   0.3029562   0.3895151), wk =   0.0761905
        k(   45) = (   0.3635474  -0.4544343   0.0000000), wk =   0.0190476
        k(   46) = (   0.3635474  -0.4544343   0.1298384), wk =   0.0380952
        k(   47) = (   0.3635474  -0.4544343   0.2596767), wk =   0.0380952
        k(   48) = (   0.3635474  -0.4544343   0.3895151), wk =   0.0380952

     total cpu time spent up to now is      200.5 secs

     Self-consistent Calculation

     iteration #  1     ecut=    40.00 Ry     beta=0.70
     CG style diagonalization
     c_bands:  2 eigenvalues not converged
     c_bands:  1 eigenvalues not converged
     c_bands:  1 eigenvalues not converged
     c_bands:  1 eigenvalues not converged
     c_bands:  1 eigenvalues not converged
     c_bands:  2 eigenvalues not converged
     c_bands:  2 eigenvalues not converged
     c_bands:  4 eigenvalues not converged
     c_bands:  1 eigenvalues not converged
     c_bands:  1 eigenvalues not converged
     c_bands:  1 eigenvalues not converged
     c_bands:  1 eigenvalues not converged
     c_bands:  1 eigenvalues not converged
     ethr =  1.00E-06,  avg # of iterations = 20.7

     total cpu time spent up to now is      269.0 secs

     total energy              =   -1358.97098551 Ry
     Harris-Foulkes estimate   =   -1376.11516818 Ry
     estimated scf accuracy    <      22.51741798 Ry

     iteration #  2     ecut=    40.00 Ry     beta=0.70
     CG style diagonalization
     ethr =  1.00E-02,  avg # of iterations =  4.0

     total cpu time spent up to now is      282.0 secs

     total energy              =   -1363.87122904 Ry
     Harris-Foulkes estimate   =   -1367.36096129 Ry
     estimated scf accuracy    <       5.26060060 Ry

     iteration #  3     ecut=    40.00 Ry     beta=0.70
     CG style diagonalization
     ethr =  3.93E-03,  avg # of iterations =  3.6

     total cpu time spent up to now is      293.9 secs

     total energy              =   -1365.80302713 Ry
     Harris-Foulkes estimate   =   -1366.87945466 Ry
     estimated scf accuracy    <       2.41398787 Ry

     iteration #  4     ecut=    40.00 Ry     beta=0.70
     CG style diagonalization
     ethr =  1.80E-03,  avg # of iterations =  3.3

     total cpu time spent up to now is      304.9 secs

     total energy              =   -1365.99764804 Ry
     Harris-Foulkes estimate   =   -1366.08716976 Ry
     estimated scf accuracy    <       0.16824698 Ry

     iteration #  5     ecut=    40.00 Ry     beta=0.70
     CG style diagonalization
     ethr =  1.26E-04,  avg # of iterations =  3.9

     total cpu time spent up to now is      317.8 secs

     total energy              =   -1366.05886771 Ry
     Harris-Foulkes estimate   =   -1366.06530382 Ry
     estimated scf accuracy    <       0.01593298 Ry

     iteration #  6     ecut=    40.00 Ry     beta=0.70
     CG style diagonalization
     c_bands:  1 eigenvalues not converged
     c_bands:  1 eigenvalues not converged
     c_bands:  1 eigenvalues not converged
     c_bands:  1 eigenvalues not converged
     ethr =  1.19E-05,  avg # of iterations =  3.6

     total cpu time spent up to now is      329.7 secs

     total energy              =   -1366.06104329 Ry
     Harris-Foulkes estimate   =   -1366.06157224 Ry
     estimated scf accuracy    <       0.00079709 Ry

     iteration #  7     ecut=    40.00 Ry     beta=0.70
     CG style diagonalization
     c_bands:  1 eigenvalues not converged
     c_bands:  1 eigenvalues not converged
     c_bands:  1 eigenvalues not converged
     ethr =  5.95E-07,  avg # of iterations =  4.2

     total cpu time spent up to now is      344.1 secs

     total energy              =   -1366.06141645 Ry
     Harris-Foulkes estimate   =   -1366.06159541 Ry
     estimated scf accuracy    <       0.00040422 Ry

     iteration #  8     ecut=    40.00 Ry     beta=0.70
     CG style diagonalization
     ethr =  3.02E-07,  avg # of iterations =  3.4

     total cpu time spent up to now is      355.5 secs

     End of self-consistent calculation

          k = 0.0000 0.0000 0.0000 (  2601 PWs)   bands (ev):

   -43.6929 -43.6442 -26.0870 -25.8861 -25.8861 -25.1937 -25.1937 -25.1937
   -12.0409 -12.0409 -12.0409 -11.9893 -11.9893 -11.9893  -3.4336  -3.4336
    -3.0501  -1.4709  -1.4709  -1.4709  -0.5675  -0.5675  -0.5675  -0.4447
    -0.4447  -0.4447  -0.2301  -0.2301  -0.2301   1.0277   1.0277   1.0277
    22.9387  22.9387  23.2207  24.1292  24.1292  24.1292  24.2108  24.2108
    24.2108  24.6668  24.6668  24.9109  24.9235  25.0531  25.0531  25.0531
    26.0813  26.2149  26.2149  26.3198  26.3198  26.3198  29.7048  29.7048
    29.7048  29.8704  29.8704  30.1745  30.1745  30.1745  31.2267  31.2267
    31.2267  33.1911  33.1911  34.0019  34.0019  34.0019  34.6791  34.6791
    34.6791  37.9780  37.9780  37.9781  37.9833  39.5091  39.5094  40.8433

          k = 0.0000 0.0000 0.1298 (  2657 PWs)   bands (ev):

   -43.7271 -43.6975 -26.0769 -25.8983 -25.8595 -25.2542 -25.2137 -25.2137
   -12.0711 -12.0711 -12.0571 -12.0469 -12.0469 -12.0390  -3.4384  -3.3642
    -2.9943  -1.4736  -1.4736  -1.4258  -0.6335  -0.6335  -0.5752  -0.4980
    -0.3881  -0.3881  -0.2704  -0.2697  -0.2697   0.7697   1.0188   1.0188
    22.8508  23.1324  23.4386  23.6711  23.9221  23.9221  24.1320  24.3912
    24.3912  24.3943  24.7377  24.8372  24.9352  24.9352  25.0684  25.8345
    26.1158  26.2321  26.4683  26.5021  26.5154  26.5154  29.4069  29.4069
    29.4456  29.5634  29.6651  30.2653  30.4074  30.4074  31.3719  31.3719
    31.8717  32.8305  32.8420  33.9135  33.9135  34.3277  34.3653  34.3653
    34.8580  36.6266  37.9777  37.9778  38.1903  38.9030  39.8233  41.5515

          k = 0.0000 0.0000 0.2597 (  2677 PWs)   bands (ev):

   -43.7360 -43.7197 -26.0495 -25.9251 -25.7864 -25.3590 -25.2172 -25.2172
   -12.0823 -12.0823 -12.0713 -12.0590 -12.0590 -12.0557  -3.4056  -3.3027
    -2.5748  -1.4733  -1.4733  -1.2997  -0.6826  -0.6696  -0.6696  -0.5311
    -0.3216  -0.3198  -0.3198  -0.3012  -0.3012   0.0570   1.0102   1.0102
    22.5897  23.4459  23.5682  23.5682  23.6653  23.6871  24.1541  24.1622
    24.5370  24.6096  24.6237  24.6237  24.9220  24.9220  25.3411  25.8325
    25.9329  26.8751  26.8751  27.2538  27.5312  27.5520  28.6308  29.1164
    29.1164  29.2592  29.4807  30.1545  30.1629  30.1629  31.6913  31.6913
    32.2212  32.3059  32.6088  33.8494  33.8494  34.3355  34.3355  34.5456
    34.7676  35.0941  37.5373  37.5373  37.7189  39.2324  39.2921  41.0761

          k = 0.0000 0.0000 0.3895 (  2658 PWs)   bands (ev):

   -43.7141 -43.7124 -26.0029 -25.9535 -25.6569 -25.5036 -25.2142 -25.2142
   -12.0710 -12.0710 -12.0563 -12.0563 -12.0320 -12.0202  -3.3638  -3.3242
    -1.8027  -1.4762  -1.4762  -1.1023  -0.9436  -0.8113  -0.6768  -0.6768
    -0.4628  -0.3871  -0.3433  -0.3433  -0.2411  -0.2411   1.0119   1.0119
    22.5909  22.9799  23.3143  23.3143  23.8425  23.9232  24.2104  24.3291
    24.4243  24.5051  24.5814  24.5814  25.2611  25.2611  25.5779  25.7633
    26.1620  27.1417  27.1417  27.3929  28.1591  28.7781  28.8818  28.8818
    28.9793  29.0771  29.4139  29.6979  29.6979  30.4428  31.8543  31.9271
    31.9609  31.9609  32.1542  32.2465  33.4984  33.4984  35.0624  35.1713
    35.2914  35.2914  36.8392  36.8392  37.6006  38.3611  40.6994  40.6994

          k = 0.0000 0.1515 0.0000 (  2653 PWs)   bands (ev):

   -43.7219 -43.6974 -26.0706 -25.8989 -25.8498 -25.2678 -25.2139 -25.2139
   -12.0676 -12.0676 -12.0470 -12.0470 -12.0470 -12.0371  -3.4339  -3.3436
    -2.9559  -1.4712  -1.4712  -1.4040  -0.6411  -0.6411  -0.5696  -0.5204
    -0.3730  -0.3730  -0.2768  -0.2748  -0.2748   0.6829   1.0197   1.0197
    22.8106  23.1875  23.5201  23.6267  23.8673  23.8673  24.1342  24.3035
    24.4395  24.4395  24.7244  24.7836  24.9091  24.9091  25.1162  25.9605
    26.0725  26.3373  26.5735  26.5735  26.5829  26.6037  29.3349  29.3529
    29.3529  29.5008  29.6484  30.2590  30.4121  30.4121  31.4247  31.4247
    32.0319  32.7407  32.7409  33.9197  33.9197  34.2823  34.2823  34.4062
    34.9036  36.3054  37.9459  37.9459  38.2482  38.7693  39.7933  41.7681

          k = 0.0000 0.1515 0.1298 (  2662 PWs)   bands (ev):

   -43.7340 -43.7001 -26.0635 -25.8855 -25.8470 -25.2690 -25.2530 -25.2150
   -12.0818 -12.0728 -12.0673 -12.0590 -12.0430 -12.0241  -3.3911  -3.2416
    -2.9266  -1.4642  -1.4267  -1.4053  -0.6991  -0.6921  -0.5281  -0.4714
    -0.4174  -0.3424  -0.3377  -0.2941  -0.2369   0.6682   0.7630   1.0174
    22.9049  23.2117  23.6215  23.6701  23.7575  23.7999  23.8231  24.0177
    24.3938  24.5854  24.6423  24.7044  24.8706  25.1573  25.5938  26.0518
    26.3096  26.3924  26.5554  26.6798  26.7986  26.8377  28.9223  29.2800
    29.3685  29.5288  29.7120  29.9358  30.5438  30.6600  31.3468  31.6973
    32.0692  32.4187  32.6983  33.8224  34.0037  34.0448  34.1328  34.5662
    34.6831  36.1910  36.7770  38.1014  38.5733  38.7295  39.6458  41.3765

          k = 0.0000 0.1515 0.2597 (  2666 PWs)   bands (ev):

   -43.7263 -43.7147 -26.0274 -25.8977 -25.7828 -25.3615 -25.2681 -25.2158
   -12.0792 -12.0748 -12.0647 -12.0610 -12.0463 -12.0260  -3.3623  -3.1079
    -2.5782  -1.4503  -1.4098  -1.2993  -0.7911  -0.7347  -0.5552  -0.5161
    -0.3734  -0.3731  -0.3323  -0.2830  -0.2350   0.0757   0.6697   1.0134
    22.7257  23.3838  23.4449  23.4462  23.5784  23.8389  23.9983  24.1306
    24.3644  24.4558  24.5131  24.7079  24.9856  25.2545  25.7942  26.1371
    26.3363  26.7100  27.2012  27.4741  27.4920  27.7104  28.3445  29.0929
    29.1242  29.3197  29.3488  30.0050  30.1803  30.6181  31.3050  31.8859
    31.9095  32.4938  32.7481  33.5146  33.8638  33.9733  34.0024  34.5744
    34.6288  35.0194  36.1772  37.9864  38.0530  38.6978  39.4909  41.1101

          k = 0.0000 0.1515 0.3895 (  2658 PWs)   bands (ev):

   -43.7182 -43.7096 -25.9821 -25.9263 -25.6592 -25.5048 -25.2661 -25.2177
   -12.0733 -12.0731 -12.0603 -12.0584 -12.0289 -12.0086  -3.3469  -3.0998
    -1.8209  -1.4393  -1.4058  -1.1237  -0.9472  -0.8415  -0.7381  -0.6141
    -0.5585  -0.3747  -0.3589  -0.2895  -0.2544  -0.2337   0.6684   1.0166
    22.6553  22.9553  23.1679  23.4596  23.7586  23.9475  24.0425  24.1432
    24.3749  24.3795  24.6572  24.6774  25.3553  25.3878  25.9587  26.1837
    26.3110  27.0785  27.5073  27.5176  28.2182  28.5798  28.7821  28.7894
    29.0900  29.2717  29.4269  29.5855  29.8974  30.6473  31.3383  31.4718
    31.7841  32.1014  32.5594  32.8349  33.3122  33.5422  34.1238  34.7465
    34.7685  35.5179  35.7297  37.2976  37.8202  37.9656  40.6551  40.7038

          k = 0.0000 0.3030 0.0000 (  2677 PWs)   bands (ev):

   -43.7359 -43.7192 -26.0355 -25.9368 -25.7472 -25.4109 -25.2141 -25.2141
   -12.0833 -12.0833 -12.0687 -12.0687 -12.0553 -12.0416  -3.3920  -3.3029
    -2.3563  -1.4755  -1.4755  -1.2433  -0.7640  -0.6750  -0.6750  -0.5100
    -0.3385  -0.3291  -0.3291  -0.2802  -0.2802  -0.2161   1.0043   1.0043
    22.5461  23.3764  23.4616  23.4616  23.6519  23.7481  24.1680  24.3639
    24.4569  24.5439  24.6180  24.6180  25.0337  25.0337  25.4212  25.8089
    25.8776  26.9840  26.9840  27.5504  27.9925  28.0920  28.3254  29.0282
    29.0282  29.1906  29.3570  29.9921  29.9921  30.1584  31.7886  31.7886
    32.0525  32.1551  32.6135  33.7074  33.7074  33.7725  34.6467  34.6467
    34.8849  35.1395  37.3034  37.3035  37.5386  38.9905  39.6831  41.0654

          k = 0.0000 0.3030 0.1298 (  2660 PWs)   bands (ev):

   -43.7189 -43.7124 -26.0142 -25.9117 -25.7464 -25.4055 -25.2551 -25.2164
   -12.0797 -12.0679 -12.0601 -12.0546 -12.0425 -12.0168  -3.3593  -3.1641
    -2.3531  -1.4521  -1.4247  -1.2390  -0.8171  -0.7260  -0.6017  -0.5146
    -0.3797  -0.3630  -0.3306  -0.2645  -0.2494  -0.1881   0.7591   1.0170
    22.6428  23.2547  23.3671  23.5456  23.5994  23.8517  24.0453  24.1615
    24.4024  24.4508  24.5316  24.6741  25.1021  25.2940  25.7296  26.0397
    26.1566  26.8957  27.2476  27.6810  27.9852  28.1210  28.2032  29.0326
    29.0757  29.2636  29.2698  29.7798  29.9924  30.5515  31.3730  31.7956
    31.9090  32.6013  32.6662  33.3093  33.7667  33.9073  34.1105  34.3411
    34.7663  35.1555  36.2755  37.7504  37.8262  38.5440  39.8458  40.9768

          k = 0.0000 0.3030 0.2597 (  2658 PWs)   bands (ev):

   -43.7225 -43.7073 -25.9822 -25.8556 -25.7389 -25.4135 -25.3546 -25.2191
   -12.0753 -12.0648 -12.0640 -12.0542 -12.0280 -12.0122  -3.3442  -2.6744
    -2.3467  -1.4039  -1.3147  -1.2484  -0.8766  -0.7978  -0.6255  -0.5518
    -0.4391  -0.3924  -0.3113  -0.2433  -0.2040  -0.1879   0.1044   1.0140
    22.7369  23.0686  23.1010  23.3280  23.5301  23.8972  24.0131  24.1748
    24.5264  24.5733  24.6476  24.6941  25.1779  25.4401  25.8720  26.4480
    27.2660  27.3026  27.6971  27.7138  27.9929  28.0043  28.3465  28.6688
    28.8698  28.9201  29.2285  29.5780  30.7632  31.1059  31.1518  31.3731
    32.1111  32.4754  33.0074  33.1522  33.3763  33.5281  33.7784  33.8595
    34.2566  34.5912  35.4458  36.9963  37.8296  38.6342  40.2850  40.3512

          k = 0.0000 0.3030 0.3895 (  2654 PWs)   bands (ev):

   -43.7130 -43.7092 -25.9662 -25.8130 -25.6624 -25.5129 -25.3999 -25.2164
   -12.0841 -12.0770 -12.0632 -12.0527 -11.9997 -11.9912  -3.3350  -2.4166
    -1.8424  -1.3616  -1.2842  -1.1897  -0.9207  -0.8553  -0.8186  -0.7308
    -0.5844  -0.4383  -0.3827  -0.2556  -0.2192  -0.1887  -0.1595   1.0055
    22.6563  22.8102  22.8448  23.3901  23.5621  23.8646  24.1499  24.1829
    24.5629  24.6963  24.7309  24.9935  25.1584  25.6165  25.9144  26.6179
    27.2912  27.7288  27.8277  27.9124  28.0986  28.3373  28.5195  28.6679
    28.9577  29.1927  29.3787  29.4531  31.0055  31.1774  31.2165  31.3430
    31.7644  32.0501  32.6875  33.0047  33.0526  33.3604  33.6666  33.7015
    33.7242  34.0815  35.6823  35.7652  37.4571  39.1715  39.8375  40.4115

          k = 0.0000-0.4544 0.0000 (  2666 PWs)   bands (ev):

   -43.7188 -43.7188 -25.9799 -25.9799 -25.5826 -25.5826 -25.2147 -25.2147
   -12.0741 -12.0741 -12.0640 -12.0640 -12.0307 -12.0307  -3.3471  -3.3471
    -1.4766  -1.4766  -1.3530  -1.3530  -0.9979  -0.9979  -0.6785  -0.6785
    -0.4259  -0.4259  -0.3523  -0.3523  -0.2341  -0.2341   1.0112   1.0112
    22.7402  22.7402  23.2788  23.2788  23.9473  23.9473  24.2602  24.2602
    24.4299  24.4299  24.5707  24.5707  25.3272  25.3272  25.6743  25.6743
    26.7396  26.7396  27.1787  27.1787  28.5957  28.5957  28.8398  28.8398
    28.9807  28.9807  29.6166  29.6166  30.3556  30.3556  31.7257  31.7257
    31.8407  31.8407  32.0127  32.0127  33.4427  33.4427  35.1407  35.1407
    35.5254  35.5254  36.6637  36.6637  37.9268  37.9268  40.5786  40.5793

          k = 0.0000-0.4544 0.1298 (  2666 PWs)   bands (ev):

   -43.7192 -43.7191 -25.9762 -25.9482 -25.5866 -25.5833 -25.2533 -25.2161
   -12.0814 -12.0736 -12.0722 -12.0655 -12.0245 -12.0206  -3.3428  -3.1651
    -1.4925  -1.4474  -1.3467  -1.3038  -1.0517  -0.9778  -0.7233  -0.6387
    -0.5414  -0.3738  -0.3711  -0.2741  -0.2680  -0.2323   0.7532   1.0120
    22.7043  22.8209  23.1691  23.4080  23.8935  23.9390  24.0944  24.1614
    24.3256  24.4123  24.6055  24.6368  25.3842  25.4183  25.9237  26.1436
    26.4740  26.8549  27.4090  27.4707  28.5138  28.5960  28.6805  28.7691
    28.9863  29.3095  29.5239  29.7424  30.3101  30.5972  31.2258  31.4033
    31.4981  31.7696  32.5174  32.7162  33.2360  33.4765  34.3357  34.8708
    35.1279  35.5945  35.8723  37.3147  37.5618  37.9197  40.5204  40.7134

          k = 0.0000-0.4544 0.2597 (  2658 PWs)   bands (ev):

   -43.7139 -43.7138 -25.9655 -25.8520 -25.5925 -25.5859 -25.3570 -25.2188
   -12.0868 -12.0828 -12.0658 -12.0558 -12.0019 -11.9947  -3.3393  -2.6454
    -1.5218  -1.3805  -1.3265  -1.2024  -1.1407  -0.9196  -0.8000  -0.7030
    -0.5880  -0.4280  -0.3527  -0.2738  -0.2288  -0.2034   0.0981   1.0058
    22.6530  22.8746  22.8769  23.4850  23.4977  23.8980  24.0854  24.1699
    24.4935  24.5923  24.7042  24.9625  25.2031  25.7656  25.8087  26.7149
    27.1642  27.3909  27.7229  27.7965  27.8697  28.4893  28.4995  28.5630
    29.0475  29.2996  29.6664  30.3851  30.5499  30.9632  31.0317  31.0375
    31.2336  31.9342  32.8958  32.9991  33.2143  33.5430  33.6483  33.8941
    34.1875  34.2769  35.7525  35.9457  37.5948  38.8900  39.9904  40.3189

          k = 0.0000-0.4544 0.3895 (  2662 PWs)   bands (ev):

   -43.7170 -43.7170 -25.9655 -25.7287 -25.5996 -25.5949 -25.4846 -25.2152
   -12.0840 -12.0836 -12.0729 -12.0611 -12.0000 -11.9909  -3.3265  -1.8922
    -1.5442  -1.3457  -1.3078  -1.1984  -1.1268  -0.8747  -0.8593  -0.8398
    -0.8283  -0.4779  -0.4535  -0.4533  -0.2100  -0.2075  -0.1732   0.9982
    22.6044  22.6279  22.6405  23.5361  23.5473  23.8252  24.2859  24.2887
    24.6103  24.7480  24.9306  25.1786  25.2681  25.2995  26.3138  26.4324
    26.8534  27.8885  28.0363  28.0603  28.0783  28.6977  28.7449  28.8833
    29.2184  29.3926  29.5551  30.4559  30.4750  30.7896  31.3072  31.4343
    31.6923  31.7094  32.2380  32.7565  32.8258  33.2779  33.3825  33.5807
    33.6572  34.1789  34.3558  35.9512  36.9590  39.5462  39.8390  40.0281

          k = 0.1818 0.0000 0.0000 (  2661 PWs)   bands (ev):

   -43.7352 -43.6970 -26.0704 -25.9045 -25.8353 -25.2896 -25.2141 -25.2141
   -12.0789 -12.0789 -12.0618 -12.0471 -12.0471 -12.0340  -3.4265  -3.3213
    -2.8806  -1.4715  -1.4715  -1.3777  -0.6518  -0.6518  -0.5638  -0.5603
    -0.3551  -0.3551  -0.2871  -0.2824  -0.2824   0.5313   1.0147   1.0147
    22.7450  23.2665  23.6003  23.6481  23.7851  23.7851  24.1380  24.1678
    24.5097  24.5097  24.7002  24.7096  24.8801  24.8801  25.1833  26.0006
    26.0007  26.6291  26.6569  26.6569  26.7566  26.7923  29.1646  29.2823
    29.2823  29.4209  29.6172  30.2359  30.3840  30.3840  31.5026  31.5026
    32.2450  32.5924  32.6147  33.9619  33.9619  34.1653  34.1653  34.5145
    34.9650  35.8369  37.8691  37.8691  38.2116  38.7132  39.7051  41.2805

          k = 0.1818 0.0000 0.1298 (  2667 PWs)   bands (ev):

   -43.7296 -43.7120 -26.0564 -25.8898 -25.8346 -25.2901 -25.2537 -25.2172
   -12.0835 -12.0817 -12.0676 -12.0505 -12.0504 -12.0332  -3.3846  -3.2068
    -2.8649  -1.4625  -1.4262  -1.3812  -0.7214  -0.7047  -0.5200  -0.4960
    -0.3995  -0.3537  -0.3305  -0.3006  -0.2377   0.5218   0.7585   1.0164
    22.8542  23.2741  23.5983  23.6623  23.7168  23.8044  23.8261  24.0147
    24.3495  24.6031  24.6410  24.6551  24.8434  25.1858  25.6579  26.0860
    26.2867  26.4641  26.8003  26.8390  26.8892  26.9839  28.7981  29.2399
    29.2905  29.4886  29.6904  29.8959  30.4940  30.6626  31.3516  31.7541
    32.1903  32.2895  32.6769  33.8174  33.9647  33.9668  34.1184  34.5557
    34.7601  35.7822  36.6865  38.0889  38.4874  38.7992  39.4757  41.3933

          k = 0.1818 0.0000 0.2597 (  2659 PWs)   bands (ev):

   -43.7194 -43.7117 -26.0163 -25.8868 -25.7805 -25.3615 -25.2888 -25.2166
   -12.0673 -12.0669 -12.0641 -12.0577 -12.0391 -12.0229  -3.3573  -3.0102
    -2.5725  -1.4413  -1.3846  -1.2989  -0.8059  -0.7534  -0.5343  -0.5282
    -0.3873  -0.3647  -0.3433  -0.2752  -0.2258   0.0767   0.5317   1.0153
    22.7601  23.3306  23.3822  23.4087  23.5492  23.8698  23.9599  24.2088
    24.3434  24.4328  24.5288  24.7051  25.0432  25.2435  25.8852  26.2448
    26.5762  26.7212  27.3099  27.4711  27.5628  27.7694  28.2606  29.0316
[...]

          k = 0.1680-0.4199 0.0000 (  4474 PWs)   bands (ev):

   -50.7695 -50.7695 -33.3066 -33.2787 -33.1415 -33.1400 -33.0127 -32.9813
   -19.1175 -19.1162 -19.1144 -19.1130 -19.1013 -19.1001  -9.6793  -9.4820
    -8.6191  -8.5783  -8.5231  -8.4850  -8.3728  -8.3136  -8.2281  -8.1626
    -8.1494  -8.0623  -8.0196  -8.0169  -7.9843  -7.9823  -7.6004  -7.3601
    17.0968  17.1731  17.3608  17.6184  17.7959  17.8453  18.0280  18.0294
    18.1073  18.2158  18.2766  18.3992  18.8418  19.4211  19.5508  19.6013
    19.9889  20.0484  20.6255  20.7847  21.1994  21.6327  21.6497  21.6643
    21.9128  22.0627  22.0651  22.4606  22.6240  22.8035  23.2979  23.5966
    23.6873  23.8251  24.5034  24.8015  24.8944  25.1274  25.3827  25.8845
    25.9033  26.3582  26.6236  27.4155  28.3559  28.6624  30.9597  31.0903

          k = 0.1680-0.4199 0.1200 (  4474 PWs)   bands (ev):

   -50.7695 -50.7695 -33.2914 -33.2780 -33.1416 -33.1409 -33.0127 -32.9977
   -19.1154 -19.1146 -19.1107 -19.1103 -19.1053 -19.1046  -9.5777  -9.4818
    -8.6135  -8.5991  -8.4894  -8.4765  -8.3665  -8.3423  -8.2076  -8.1916
    -8.1163  -8.0903  -8.0164  -8.0020  -8.0001  -7.9905  -7.6003  -7.4863
    17.1458  17.1756  17.4620  17.5862  17.7797  17.8135  18.0173  18.0570
    18.0995  18.1546  18.1952  18.2625  19.0882  19.3738  19.7716  19.8946
    19.9363  20.0849  20.7658  20.8382  21.1680  21.3606  21.7608  21.7761
    22.0277  22.0881  22.2637  22.4782  22.6619  22.7096  23.1694  23.3038
    23.7845  23.8596  24.6360  24.7589  24.9077  24.9638  25.1940  25.2468
    25.9419  26.3010  27.0532  27.3719  27.8924  28.0258  30.9439  30.9993

          k = 0.1680-0.4199 0.2399 (  4472 PWs)   bands (ev):

   -50.7696 -50.7696 -33.2759 -33.2487 -33.1431 -33.1420 -33.0427 -33.0128
   -19.1130 -19.1122 -19.1095 -19.1093 -19.1067 -19.1065  -9.4805  -9.2877
    -8.6224  -8.6030  -8.4544  -8.4451  -8.3837  -8.3400  -8.2072  -8.2066
    -8.1182  -8.1014  -8.0401  -8.0095  -7.9998  -7.9889  -7.8237  -7.6010
    17.1878  17.2050  17.4346  17.6341  17.6435  17.7678  17.9357  17.9731
    17.9927  18.0889  18.3952  18.4484  19.2842  19.7615  19.9020  19.9845
    20.2210  20.5465  20.7798  20.9254  21.0900  21.2021  21.8395  21.8604
    22.0828  22.1236  22.3104  22.6326  22.7686  22.7896  23.0491  23.3132
    23.7554  23.8457  24.5210  24.5789  24.7164  24.8691  24.9453  25.0268
    25.2557  26.0278  26.6548  26.7389  27.4905  28.0505  30.1013  30.3440

          k = 0.1680-0.4199 0.3599 (  4502 PWs)   bands (ev):

   -50.7737 -50.7737 -33.2744 -33.1894 -33.1451 -33.1432 -33.1038 -33.0135
   -19.1225 -19.1214 -19.1177 -19.1174 -19.1139 -19.1129  -9.4818  -8.8622
    -8.6356  -8.5972  -8.4514  -8.4315  -8.4181  -8.3126  -8.2810  -8.2220
    -8.2219  -8.1182  -8.0890  -8.0830  -7.9979  -7.9973  -7.9922  -7.6028
    17.1519  17.1822  17.2231  17.6800  17.6950  17.8685  17.8908  17.9100
    17.9381  18.0918  18.6918  18.7125  19.1714  19.5727  19.9540  20.2451
    20.3257  21.0642  21.1624  21.2031  21.3660  21.3874  21.6981  21.8585
    21.9581  22.0880  22.1867  22.5157  22.6451  22.7467  23.4107  23.6059
    23.6225  23.8838  23.9708  24.2485  24.5980  24.7199  24.7440  25.1464
    25.2005  25.6370  25.7216  26.1178  27.3690  28.7758  29.1116  29.7180

          k = 0.3359 0.0000 0.0000 (  4492 PWs)   bands (ev):

   -50.7724 -50.7707 -33.3204 -33.2973 -33.1859 -33.0922 -32.9814 -32.9814
   -19.1232 -19.1232 -19.1164 -19.1164 -19.1142 -19.0994  -9.6963  -9.6644
    -8.9235  -8.5533  -8.5533  -8.4051  -8.2807  -8.2042  -8.1934  -8.1934
    -8.0818  -8.0361  -8.0361  -8.0352  -7.9936  -7.9936  -7.3613  -7.3613
    16.9520  17.3213  17.5685  17.5685  17.6460  17.8853  17.8909  18.0758
    18.1078  18.2370  18.3817  18.3817  19.0566  19.1434  19.1434  19.2679
    19.5409  20.3698  20.3698  20.4670  21.2587  21.4395  21.4691  21.8386
    21.8386  21.9965  21.9968  22.2942  22.2942  22.6852  24.0403  24.0403
    24.0947  24.1467  24.1558  24.2303  25.2211  25.2211  26.0906  26.1720
    26.2604  26.2605  27.8323  27.8323  28.1695  28.7742  31.3457  31.5807

          k = 0.3359 0.0000 0.1200 (  4484 PWs)   bands (ev):

   -50.7708 -50.7704 -33.3139 -33.2877 -33.1864 -33.0926 -32.9976 -32.9814
   -19.1213 -19.1180 -19.1147 -19.1124 -19.1080 -19.1048  -9.6818  -9.5758
    -8.9278  -8.5389  -8.5322  -8.4079  -8.2899  -8.2178  -8.2144  -8.1634
    -8.1124  -8.0470  -8.0389  -8.0093  -7.9948  -7.9899  -7.4873  -7.3602
    17.0110  17.3127  17.4828  17.6074  17.7011  17.8860  17.9411  18.0411
    18.1214  18.1827  18.2237  18.4046  18.8837  19.2364  19.3807  19.5309
    19.7330  20.2480  20.5323  20.5642  21.3100  21.4046  21.4457  21.7731
    21.8473  21.9515  21.9969  22.2927  22.3681  22.9426  23.6892  23.9053
    23.9127  24.1453  24.3549  24.5774  25.1176  25.2370  25.5833  25.9553
    25.9867  26.4536  26.9728  28.0901  28.3491  28.5117  31.1617  31.4086

          k = 0.3359 0.0000 0.2399 (  4478 PWs)   bands (ev):

   -50.7721 -50.7681 -33.3074 -33.2509 -33.1865 -33.0940 -33.0420 -32.9814
   -19.1192 -19.1150 -19.1133 -19.1125 -19.1108 -19.0981  -9.6792  -9.2905
    -8.9345  -8.5036  -8.4830  -8.4219  -8.2906  -8.2472  -8.2267  -8.1808
    -8.1384  -8.0719  -8.0454  -8.0010  -7.9818  -7.9690  -7.8250  -7.3594
    17.0832  17.2712  17.2859  17.5752  17.6521  17.9413  17.9774  18.0175
    18.1807  18.2770  18.3511  18.4244  18.7168  19.4225  19.5299  19.9565
    20.2412  20.4523  20.5883  20.9204  21.0485  21.4008  21.4298  21.5918
    21.8412  21.9174  21.9485  22.0832  23.1905  23.3250  23.5026  23.5570
    23.8939  23.9906  24.4568  24.8688  24.9032  25.0842  25.1025  25.3268
    25.5489  25.6531  26.6103  27.0830  28.2908  29.2492  30.7237  30.9515

          k = 0.3359 0.0000 0.3599 (  4481 PWs)   bands (ev):

   -50.7715 -50.7700 -33.3043 -33.2090 -33.1702 -33.1127 -33.0872 -32.9817
   -19.1180 -19.1172 -19.1163 -19.1082 -19.1072 -19.1065  -9.6794  -8.9632
    -8.8395  -8.4663  -8.4542  -8.4354  -8.3215  -8.2728  -8.2648  -8.2383
    -8.2346  -8.0997  -8.0821  -8.0797  -7.9787  -7.9746  -7.9618  -7.3586
    17.0734  17.1054  17.1405  17.6047  17.6824  17.9531  18.0260  18.0397
    18.3207  18.4363  18.4843  18.5496  18.6125  19.1457  19.9141  20.0385
    20.1918  20.8505  20.9595  21.1535  21.2462  21.5457  21.5869  21.6796
    21.7030  21.7184  22.0003  22.0991  23.3060  23.4533  23.5042  23.6650
    23.7261  23.8816  24.0812  24.3098  24.6327  24.8028  24.9199  25.2797
    25.2956  25.4532  26.0442  26.7583  28.0114  29.9302  30.4044  30.5132

          k = 0.3359 0.1400 0.0000 (  4476 PWs)   bands (ev):

   -50.7702 -50.7691 -33.3124 -33.2834 -33.1866 -33.0926 -33.0033 -32.9813
   -19.1151 -19.1148 -19.1136 -19.1126 -19.1060 -19.1033  -9.6812  -9.5405
    -8.9282  -8.5339  -8.5254  -8.4091  -8.2908  -8.2202  -8.2198  -8.1574
    -8.1229  -8.0496  -8.0319  -8.0134  -7.9907  -7.9865  -7.5297  -7.3600
    17.0274  17.3109  17.4528  17.6179  17.7004  17.8890  17.9538  18.0289
    18.1065  18.1835  18.2286  18.4094  18.8574  19.2714  19.4498  19.5391
    19.8478  20.2185  20.5450  20.6225  21.3266  21.3877  21.4204  21.7206
    21.8531  21.9389  21.9907  22.2785  22.4865  22.9933  23.6426  23.8523
    23.8935  24.1230  24.3851  24.6594  25.0876  25.2289  25.4831  25.8450
    25.9387  26.4797  26.7516  27.9697  28.4695  28.4938  31.1090  31.3472

          k = 0.3359 0.1400 0.1200 (  4472 PWs)   bands (ev):

   -50.7695 -50.7688 -33.3009 -33.2788 -33.1873 -33.0929 -33.0033 -32.9975
   -19.1174 -19.1132 -19.1109 -19.1102 -19.1078 -19.0988  -9.5830  -9.5359
    -8.9320  -8.5147  -8.5131  -8.4056  -8.3198  -8.2282  -8.1887  -8.1769
    -8.1070  -8.0832  -8.0129  -8.0079  -8.0020  -7.9904  -7.5296  -7.4862
    17.0897  17.2971  17.5254  17.5956  17.7025  17.8660  17.9829  18.0527
    18.0786  18.1063  18.2078  18.2233  19.0295  19.2722  19.6157  19.8252
    19.9190  20.3069  20.4423  20.7518  21.3042  21.3433  21.5292  21.5820
    21.8333  22.0672  22.1850  22.2947  22.5175  23.0105  23.4386  23.5548
    24.0586  24.1501  24.5044  24.6349  24.9698  25.1798  25.2427  25.4074
    26.0672  26.1956  27.1341  27.5339  28.0926  28.3594  30.9880  31.2450

          k = 0.3359 0.1400 0.2399 (  4480 PWs)   bands (ev):

   -50.7709 -50.7701 -33.2876 -33.2484 -33.1880 -33.0942 -33.0425 -33.0035
   -19.1171 -19.1159 -19.1147 -19.1111 -19.1099 -19.1025  -9.5416  -9.2886
    -8.9381  -8.4840  -8.4727  -8.4102  -8.3450  -8.2290  -8.2001  -8.1860
    -8.1280  -8.0841  -8.0416  -8.0045  -8.0007  -7.9830  -7.8241  -7.5305
    17.1733  17.2605  17.4240  17.5781  17.6848  17.8211  17.9117  17.9688
    18.1032  18.1491  18.2730  18.3489  19.0867  19.6619  19.7977  20.1249
    20.2300  20.5114  20.5686  20.8880  21.1269  21.3146  21.4000  21.6541
    21.8648  22.1329  22.1739  22.3616  22.9630  23.0966  23.3260  23.4502
    23.9193  24.1163  24.4149  24.6873  24.7324  24.8251  24.9540  25.2416
    25.3865  26.1724  26.2587  27.2549  27.5376  28.6311  30.0921  30.7802

          k = 0.3359 0.1400 0.3599 (  4490 PWs)   bands (ev):

   -50.7721 -50.7720 -33.2838 -33.2063 -33.1723 -33.1120 -33.0891 -33.0039
   -19.1191 -19.1171 -19.1170 -19.1137 -19.1105 -19.1092  -9.5406  -8.9606
    -8.8441  -8.4567  -8.4518  -8.4338  -8.3460  -8.2912  -8.2507  -8.2155
    -8.2032  -8.1100  -8.0792  -8.0742  -7.9926  -7.9919  -7.9815  -7.5305
    17.1531  17.1622  17.2445  17.6176  17.7097  17.8884  17.9269  17.9547
    18.0272  18.1553  18.5423  18.6063  19.0082  19.5425  19.9755  20.1899
    20.3311  20.8761  20.9742  21.1484  21.3482  21.3874  21.5453  21.7077
    21.8750  21.9531  22.1794  22.2190  22.8859  23.2099  23.5641  23.6587
    23.6977  23.8948  24.0424  24.3335  24.5067  24.7234  24.7346  25.1556
    25.3464  25.5468  26.2083  26.3043  27.5481  29.0257  29.4644  30.1984

          k = 0.3359 0.2799 0.0000 (  4479 PWs)   bands (ev):

   -50.7714 -50.7694 -33.3061 -33.2347 -33.1851 -33.0953 -33.0608 -32.9815
   -19.1169 -19.1165 -19.1136 -19.1114 -19.1094 -19.1027  -9.6785  -9.1624
    -8.9347  -8.4903  -8.4667  -8.4283  -8.2856  -8.2557  -8.2305  -8.2029
    -8.1418  -8.0810  -8.0594  -7.9905  -7.9792  -7.9638  -7.9618  -7.3595
    17.0852  17.2023  17.2428  17.5582  17.6625  17.9655  17.9786  18.0246
    18.2924  18.2968  18.4194  18.4280  18.6672  19.3310  19.6625  20.0386
    20.3642  20.5232  20.8222  20.9566  21.0177  21.4270  21.4787  21.5953
    21.7991  21.8530  21.9034  22.0414  23.4056  23.4557  23.4903  23.5428
    23.8786  23.9922  24.4092  24.5866  24.7633  24.9434  25.1432  25.1826
    25.3246  25.5429  26.6653  26.7025  28.1961  29.5240  30.5805  30.7819

          k = 0.3359 0.2799 0.1200 (  4487 PWs)   bands (ev):

   -50.7730 -50.7699 -33.2911 -33.2328 -33.1866 -33.0953 -33.0615 -32.9979
   -19.1222 -19.1179 -19.1144 -19.1142 -19.1103 -19.1037  -9.5769  -9.1616
    -8.9376  -8.4757  -8.4613  -8.4221  -8.3325  -8.2316  -8.2106  -8.2028
    -8.1354  -8.0880  -8.0567  -7.9994  -7.9972  -7.9775  -7.9571  -7.4864
    17.1551  17.2146  17.3319  17.5697  17.6893  17.8878  17.9309  17.9680
    18.1294  18.1852  18.3570  18.4237  18.9494  19.5956  19.8383  20.1493
    20.4457  20.4532  20.8082  20.9042  21.1426  21.3594  21.4376  21.6448
    21.8339  21.9836  22.1035  22.2374  23.1108  23.2267  23.4061  23.5960
    23.8757  24.0514  24.3626  24.5514  24.6693  24.7855  24.8810  25.0922
    25.3871  25.8409  26.3535  26.8350  27.7097  28.9800  29.9737  30.6300

          k = 0.3359 0.2799 0.2399 (  4488 PWs)   bands (ev):

   -50.7723 -50.7715 -33.2506 -33.2262 -33.1901 -33.0952 -33.0631 -33.0432
   -19.1166 -19.1164 -19.1151 -19.1129 -19.1109 -19.1102  -9.2886  -9.1566
    -8.9432  -8.4696  -8.4414  -8.3968  -8.3634  -8.2290  -8.2053  -8.1711
    -8.1389  -8.0896  -8.0500  -8.0355  -8.0117  -8.0068  -7.9563  -7.8235
    17.2901  17.3026  17.4944  17.5231  17.6437  17.6895  17.7562  17.8397
    17.9639  18.0062  18.4766  18.6345  19.7845  19.9532  20.0321  20.3661
    20.4559  20.5639  20.7528  20.9111  21.0835  21.1493  21.2633  21.6226
    22.2724  22.3595  22.4879  22.6528  22.7361  22.9620  23.2859  23.3717
    23.9138  24.1705  24.2172  24.4013  24.4637  24.6657  24.7612  24.8328
    25.2877  25.5132  26.1113  26.6709  27.2575  27.9431  28.7928  29.7977

          k = 0.3359 0.2799 0.3599 (  4489 PWs)   bands (ev):

   -50.7733 -50.7707 -33.2274 -33.1987 -33.1771 -33.1105 -33.0934 -33.0637
   -19.1195 -19.1156 -19.1134 -19.1132 -19.1113 -19.1086  -9.1559  -8.9540
    -8.8532  -8.4680  -8.4613  -8.4054  -8.3515  -8.2844  -8.2261  -8.1917
    -8.1608  -8.1242  -8.0781  -8.0628  -8.0414  -8.0278  -8.0267  -7.9573
    17.3022  17.3460  17.4520  17.5316  17.6327  17.6511  17.7174  17.7789
    17.8540  17.8985  18.7728  18.8839  19.9628  20.0376  20.2426  20.4869
    20.5638  20.7681  20.7909  20.9154  21.0772  21.3500  21.5018  21.6785
    22.2016  22.2314  22.4559  22.7619  22.8194  23.2055  23.3398  23.4300
    23.6976  23.9413  24.1368  24.2459  24.4280  24.5909  24.6443  24.7583
    24.8031  25.4889  25.7996  26.5246  26.7450  27.6241  27.9762  28.7851

          k = 0.3359-0.4199 0.0000 (  4484 PWs)   bands (ev):

   -50.7712 -50.7712 -33.3041 -33.2045 -33.1445 -33.1414 -33.0895 -32.9816
   -19.1172 -19.1155 -19.1143 -19.1126 -19.1095 -19.1093  -9.6783  -8.9559
    -8.6430  -8.5755  -8.4591  -8.4270  -8.4087  -8.2725  -8.2651  -8.2486
    -8.2393  -8.1041  -8.0872  -8.0850  -7.9757  -7.9728  -7.9603  -7.3585
    17.0699  17.0820  17.1100  17.6461  17.6677  17.9507  18.0293  18.0496
    18.3253  18.4397  18.5283  18.5872  18.6237  19.0853  19.9764  19.9952
    20.1877  20.8373  21.0110  21.1953  21.3276  21.4437  21.6445  21.6507
    21.6584  21.8892  22.1204  22.5708  22.7123  23.2660  23.5142  23.5717
    23.8084  23.8836  23.9400  24.4895  24.6069  24.8429  24.8584  25.2513
    25.2996  25.4679  25.8261  26.7849  27.9554  30.0372  30.3664  30.4398

          k = 0.3359-0.4199 0.1200 (  4488 PWs)   bands (ev):

   -50.7717 -50.7717 -33.2887 -33.2029 -33.1446 -33.1421 -33.0907 -32.9981
   -19.1193 -19.1178 -19.1137 -19.1132 -19.1099 -19.1095  -9.5768  -8.9546
    -8.6379  -8.5890  -8.4383  -8.4281  -8.4211  -8.2925  -8.2649  -8.2309
    -8.2093  -8.1096  -8.0838  -8.0794  -7.9879  -7.9857  -7.9744  -7.4858
    17.1195  17.1311  17.1926  17.6603  17.6847  17.9148  17.9519  17.9929
    18.0783  18.1957  18.5855  18.6373  18.8811  19.4279  19.9808  20.1218
    20.2819  20.8885  21.0872  21.2670  21.2881  21.4218  21.6682  21.6940
    21.8814  21.9145  22.1624  22.6204  22.6539  22.9032  23.3785  23.6403
    23.7873  23.9206  24.0376  24.4212  24.4642  24.7734  24.7780  25.1655
    25.2632  25.6253  25.8761  26.4532  27.6470  29.1836  29.7166  30.1949

          k = 0.3359-0.4199 0.2399 (  4498 PWs)   bands (ev):

   -50.7732 -50.7731 -33.2457 -33.1990 -33.1450 -33.1438 -33.0934 -33.0438
   -19.1208 -19.1203 -19.1162 -19.1155 -19.1125 -19.1125  -9.2863  -8.9535
    -8.6273  -8.6088  -8.4560  -8.4508  -8.3723  -8.2923  -8.2501  -8.1978
    -8.1729  -8.1257  -8.0791  -8.0710  -8.0261  -8.0162  -8.0158  -7.8241
    17.2442  17.2795  17.3737  17.6154  17.6313  17.7428  17.7718  17.8235
    17.8646  17.9413  18.7764  18.7895  19.8172  19.8338  20.0044  20.4247
    20.5167  20.8396  20.9175  20.9465  21.2625  21.2705  21.8454  21.9929
    21.9991  22.1002  22.4694  22.5318  22.7171  22.8955  23.4332  23.4696
    23.7400  23.8075  23.9984  24.1896  24.5002  24.6542  24.8292  24.9702
    25.0396  25.3304  25.9813  26.1434  26.9453  27.8123  28.5697  28.9994

          k = 0.3359-0.4199 0.3599 (  4506 PWs)   bands (ev):

   -50.7739 -50.7738 -33.1958 -33.1828 -33.1454 -33.1452 -33.1088 -33.0953
   -19.1200 -19.1199 -19.1180 -19.1179 -19.1151 -19.1151  -8.9514  -8.8581
    -8.6199  -8.6169  -8.4751  -8.4732  -8.3957  -8.3321  -8.2201  -8.1966
    -8.1634  -8.1444  -8.1013  -8.0981  -8.0684  -8.0660  -8.0518  -8.0512
    17.3785  17.3978  17.4897  17.5261  17.5910  17.5978  17.6986  17.7091
    17.7514  17.7600  19.0922  19.0928  20.0787  20.0940  20.4766  20.4796
    20.5579  20.5671  20.8578  21.0704  21.3915  21.3981  21.8136  21.8691
    21.9571  22.0460  22.5803  22.6303  23.0838  23.2394  23.3694  23.4175
    23.5660  23.6981  24.0627  24.1782  24.3357  24.4008  24.5215  24.5980
    25.2700  25.3093  26.0672  26.2849  26.4970  26.8345  27.5029  27.6131

     the Fermi energy is    24.4571 ev

!    total energy              =   -1368.27762712 Ry
     Harris-Foulkes estimate   =   -1368.27762734 Ry
     estimated scf accuracy    <       0.00000025 Ry

     The total energy is the sum of the following terms:

     one-electron contribution =    -105.64631347 Ry
     hartree contribution      =     157.15625580 Ry
     xc contribution           =    -142.44393436 Ry
     ewald contribution        =   -1276.79176957 Ry
     smearing contrib. (-TS)   =      -0.55186553 Ry

     convergence has been achieved in  12 iterations

     Forces acting on atoms (Ry/au):

     atom    1 type  1   force =     0.00000000    0.00000000    0.00000000
     atom    2 type  1   force =     0.00000000    0.00000000    0.00000000
     atom    3 type  1   force =     0.00000000    0.00000000    0.00000000
     atom    4 type  1   force =     0.00000000    0.00000000    0.00000000
     atom    5 type  1   force =     0.00000000    0.00000000    0.00000000
     atom    6 type  1   force =     0.00000000    0.00000000    0.00000000
     atom    7 type  2   force =     0.00000000    0.00000000    0.00000000
     atom    8 type  2   force =     0.00000000    0.00000000    0.00000000

     Total force =     0.000000     Total SCF correction =     0.000000


     entering subroutine stress ...

          total   stress  (Ry/bohr**3)                   (kbar)     P=  -44.45
  -0.00030214   0.00000000   0.00000000        -44.45      0.00      0.00
   0.00000000  -0.00030214   0.00000000          0.00    -44.45      0.00
   0.00000000   0.00000000  -0.00030214          0.00      0.00    -44.45


     Writing output data file Prototype-La-cP8-Cr3Si.save
 
     init_run     :      6.92s CPU      8.81s WALL (       2 calls)
     electrons    :   1127.40s CPU   1267.06s WALL (       5 calls)
     update_pot   :      1.29s CPU      1.31s WALL (       3 calls)
     forces       :      4.92s CPU      5.43s WALL (       5 calls)
     stress       :     11.98s CPU     12.46s WALL (       5 calls)

     Called by init_run:
     wfcinit      :      6.35s CPU      8.20s WALL (       2 calls)
     potinit      :      0.22s CPU      0.22s WALL (       2 calls)

     Called by electrons:
     c_bands      :   1082.59s CPU   1207.45s WALL (      46 calls)
     sum_band     :     44.46s CPU     50.66s WALL (      46 calls)
     v_of_rho     :      0.06s CPU      0.07s WALL (      51 calls)
     mix_rho      :      0.06s CPU      0.07s WALL (      46 calls)

     Called by c_bands:
     init_us_2    :      2.34s CPU      3.19s WALL (    4992 calls)
     ccgdiagg     :    963.04s CPU   1051.92s WALL (    2447 calls)
     wfcrot       :    123.08s CPU    158.92s WALL (    2495 calls)

     Called by *cgdiagg:
     h_psi        :    754.06s CPU    856.57s WALL (  921373 calls)
     cdiaghg      :      5.89s CPU      6.28s WALL (    2495 calls)

     Called by h_psi:
     add_vuspsi   :     79.65s CPU     87.73s WALL (  921373 calls)

     General routines
     calbec       :    256.22s CPU    260.41s WALL ( 1840731 calls)
     fft          :      0.13s CPU      0.14s WALL (     227 calls)
     fftw         :    532.55s CPU    596.95s WALL ( 2413596 calls)
     davcio       :      2.30s CPU      4.41s WALL (    7200 calls)
 
     Parallel routines
     fft_scatter  :    245.54s CPU    273.14s WALL ( 2413823 calls)
 
     PWSCF        : 19m13.16s CPU    21m37.83s WALL

 
   This run was terminated on:  19: 7:17  22Mar2018            

=------------------------------------------------------------------------------=
   JOB DONE.
=------------------------------------------------------------------------------=
