
     Program PWSCF v.5.0.2 starts on 22Mar2018 at 17:38:29 

     This program is part of the open-source Quantum ESPRESSO suite
     for quantum simulation of materials; please cite
         "P. Giannozzi et al., J. Phys.:Condens. Matter 21 395502 (2009);
          URL http://www.quantum-espresso.org", 
     in publications or presentations arising from this work. More details at
     http://www.quantum-espresso.org/quote.php

     Parallel version (MPI), running on     4 processors
     R & G space division:  proc/nbgrp/npool/nimage =       4

     Current dimensions of program PWSCF are:
     Max number of different atomic species (ntypx) = 10
     Max number of k-points (npk) =  40000
     Max angular momentum in pseudopotentials (lmaxx) =  3
     Waiting for input...
     Reading input from standard input

     Subspace diagonalization in iterative solution of the eigenvalue problem:
     a serial algorithm will be used

 
     Parallelization info
     --------------------
     sticks:   dense  smooth     PW     G-vecs:    dense   smooth      PW
     Min         238     238     75                 4969     4969     869
     Max         239     239     76                 4974     4974     872
     Sum         955     955    301                19891    19891    3479
 


     bravais-lattice index     =            0
     lattice parameter (alat)  =       9.3790  a.u.
     unit-cell volume          =     583.3913 (a.u.)^3
     number of atoms/cell      =            6
     number of atomic types    =            2
     number of electrons       =       130.00
     number of Kohn-Sham states=           78
     kinetic-energy cutoff     =      40.0000  Ry
     charge density cutoff     =     160.0000  Ry
     convergence threshold     =      1.0E-04
     mixing beta               =       0.7000
     number of iterations used =            8  plain     mixing
     Exchange-correlation      = SLA-PZ-NOGX-NOGC ( 1 1 0 0 0)
     EXX-fraction              =        0.00
     nstep                     =           50


     celldm(1)=   9.379038  celldm(2)=   0.000000  celldm(3)=   0.000000
     celldm(4)=   0.000000  celldm(5)=   0.000000  celldm(6)=   0.000000

     crystal axes: (cart. coord. in units of alat)
               a(1) = (   1.000000   0.000000   0.000000 )  
               a(2) = (   0.500000   0.866025   0.000000 )  
               a(3) = (   0.500000   0.288675   0.816497 )  

     reciprocal axes: (cart. coord. in units 2 pi/alat)
               b(1) = (  1.000000 -0.577350 -0.408248 )  
               b(2) = (  0.000000  1.154701 -0.408248 )  
               b(3) = (  0.000000  0.000000  1.224745 )  


     PseudoPot. # 1 for Tb read from file:
     /home/cwx6513/pp.La/Tb.UPF
     MD5 check sum: 3d6088a3f0cf7fd2e110c43f7f8e95c2
     Pseudo is Norm-conserving, Zval = 19.0
     Generated in analytical, separable form
     Using radial grid of 1263 points,  6 beta functions with: 
                l(1) =   0
                l(2) =   0
                l(3) =   1
                l(4) =   1
                l(5) =   2
                l(6) =   3

     PseudoPot. # 2 for Tm read from file:
     /home/cwx6513/pp.La/Tm.UPF
     MD5 check sum: 245516e0878b5372ceeb9443ded2c4e1
     Pseudo is Norm-conserving, Zval = 23.0
     Generated in analytical, separable form
     Using radial grid of 1269 points,  6 beta functions with: 
                l(1) =   0
                l(2) =   0
                l(3) =   1
                l(4) =   1
                l(5) =   2
                l(6) =   3

     atomic species   valence    mass     pseudopotential
        Mg            19.00    24.30500     Tb( 1.00)
        Cu            23.00    63.54600     Tm( 1.00)

     12 Sym. Ops., with inversion, found ( 6 have fractional translation)



   Cartesian axes

     site n.     atom                  positions (alat units)
         1           Mg  tau(   1) = (   1.5000000   0.8660254   0.6123724  )
         2           Mg  tau(   2) = (   1.0000000   0.5773503   0.4082483  )
         3           Cu  tau(   3) = (   0.2500000   0.1443376   0.1020621  )
         4           Cu  tau(   4) = (   0.7500000   0.1443376   0.1020621  )
         5           Cu  tau(   5) = (   0.5000000   0.5773503   0.1020621  )
         6           Cu  tau(   6) = (   0.5000000   0.2886751   0.5103104  )

     number of k points=   170  gaussian smearing, width (Ry)=  0.1000

     Number of k-points >= 100: set verbosity='high' to print them.

     Dense  grid:    19891 G-vectors     FFT dimensions: (  40,  40,  40)

     Largest allocated arrays     est. size (Mb)     dimensions
        Kohn-Sham Wavefunctions         0.77 Mb     (    644,   78)
        NL pseudopotentials             1.18 Mb     (    644,  120)
        Each V/rho on FFT grid          0.24 Mb     (  16000)
        Each G-vector array             0.04 Mb     (   4969)
        G-vector shells                 0.04 Mb     (   4969)
     Largest temporary arrays     est. size (Mb)     dimensions
        Each subspace H/S matrix        0.09 Mb     (  78,  78)
        Each <psi_i|beta_j> matrix      0.14 Mb     (    120,   78)
        Arrays for rho mixing           1.95 Mb     (  16000,   8)

     Initial potential from superposition of free atoms

     Starting from uniform charge
     Starting wfc are    0 randomized atomic wfcs

     total cpu time spent up to now is       11.0 secs

     Self-consistent Calculation

     iteration #  1     ecut=    40.00 Ry     beta=0.70
     CG style diagonalization
     c_bands:  1 eigenvalues not converged
     ethr =  1.00E-02,  avg # of iterations = 21.0

     total cpu time spent up to now is      277.1 secs

     total energy              =   -1226.81400059 Ry
     Harris-Foulkes estimate   =   -2446.11913185 Ry
     estimated scf accuracy    <    1459.25113125 Ry

     iteration #  2     ecut=    40.00 Ry     beta=0.70
     CG style diagonalization
     ethr =  1.00E-02,  avg # of iterations = 18.6

     total cpu time spent up to now is      512.1 secs

     total energy              =   -1319.06759034 Ry
     Harris-Foulkes estimate   =   -2708.47791993 Ry
     estimated scf accuracy    <    3033.92701731 Ry

     iteration #  3     ecut=    40.00 Ry     beta=0.70
     CG style diagonalization
     c_bands:  1 eigenvalues not converged
     c_bands:  1 eigenvalues not converged
     c_bands:  1 eigenvalues not converged
     c_bands:  1 eigenvalues not converged
     c_bands:  1 eigenvalues not converged
     c_bands:  1 eigenvalues not converged
     c_bands:  1 eigenvalues not converged
     c_bands:  1 eigenvalues not converged
     c_bands:  1 eigenvalues not converged
     c_bands:  1 eigenvalues not converged
     c_bands:  1 eigenvalues not converged
     c_bands:  1 eigenvalues not converged
     c_bands:  1 eigenvalues not converged
     ethr =  1.00E-02,  avg # of iterations = 12.0

     total cpu time spent up to now is      665.5 secs

     total energy              =   -1897.04942837 Ry
     Harris-Foulkes estimate   =   -1950.17777351 Ry
     estimated scf accuracy    <     115.30940215 Ry

     iteration #  4     ecut=    40.00 Ry     beta=0.70
     CG style diagonalization
     ethr =  1.00E-02,  avg # of iterations =  5.8

     total cpu time spent up to now is      742.6 secs

     total energy              =   -1922.75977969 Ry
     Harris-Foulkes estimate   =   -1925.49462348 Ry
     estimated scf accuracy    <       6.26371362 Ry

     iteration #  5     ecut=    40.00 Ry     beta=0.70
     CG style diagonalization
     ethr =  4.82E-03,  avg # of iterations =  3.3

     total cpu time spent up to now is      785.5 secs

     total energy              =   -1923.23047515 Ry
     Harris-Foulkes estimate   =   -1923.57714366 Ry
     estimated scf accuracy    <       0.63620917 Ry

     iteration #  6     ecut=    40.00 Ry     beta=0.70
     CG style diagonalization
     c_bands:  1 eigenvalues not converged
     c_bands:  1 eigenvalues not converged
     ethr =  4.89E-04,  avg # of iterations =  4.1

     total cpu time spent up to now is      838.1 secs

     total energy              =   -1923.41710598 Ry
     Harris-Foulkes estimate   =   -1923.45864309 Ry
     estimated scf accuracy    <       0.06539342 Ry

     iteration #  7     ecut=    40.00 Ry     beta=0.70
     CG style diagonalization
     c_bands:  2 eigenvalues not converged
     c_bands:  1 eigenvalues not converged
     c_bands:  1 eigenvalues not converged
     c_bands:  1 eigenvalues not converged
     c_bands:  1 eigenvalues not converged
     c_bands:  1 eigenvalues not converged
     c_bands:  1 eigenvalues not converged
     c_bands:  1 eigenvalues not converged
     c_bands:  1 eigenvalues not converged
     c_bands:  1 eigenvalues not converged
     c_bands:  1 eigenvalues not converged
     c_bands:  1 eigenvalues not converged
     c_bands:  1 eigenvalues not converged
     c_bands:  1 eigenvalues not converged
     c_bands:  1 eigenvalues not converged
     c_bands:  1 eigenvalues not converged
     c_bands:  1 eigenvalues not converged
     c_bands:  1 eigenvalues not converged
     c_bands:  1 eigenvalues not converged
     c_bands:  1 eigenvalues not converged
     c_bands:  2 eigenvalues not converged
     c_bands:  1 eigenvalues not converged
     c_bands:  1 eigenvalues not converged
     c_bands:  1 eigenvalues not converged
     c_bands:  1 eigenvalues not converged
     c_bands:  1 eigenvalues not converged
     c_bands:  1 eigenvalues not converged
     c_bands:  1 eigenvalues not converged
     c_bands:  1 eigenvalues not converged
     c_bands:  1 eigenvalues not converged
     c_bands:  1 eigenvalues not converged
     c_bands:  2 eigenvalues not converged
     c_bands:  1 eigenvalues not converged
     c_bands:  2 eigenvalues not converged
     c_bands:  1 eigenvalues not converged
     ethr =  5.03E-05,  avg # of iterations =  4.0

     total cpu time spent up to now is      890.9 secs

     total energy              =   -1923.44202896 Ry
     Harris-Foulkes estimate   =   -1923.44891861 Ry
     estimated scf accuracy    <       0.01618626 Ry

     iteration #  8     ecut=    40.00 Ry     beta=0.70
     CG style diagonalization
     c_bands:  1 eigenvalues not converged
     c_bands:  1 eigenvalues not converged
     c_bands:  1 eigenvalues not converged
     c_bands:  1 eigenvalues not converged
     c_bands:  1 eigenvalues not converged
     c_bands:  1 eigenvalues not converged
     c_bands:  1 eigenvalues not converged
     c_bands:  1 eigenvalues not converged
     c_bands:  1 eigenvalues not converged
     c_bands:  1 eigenvalues not converged
     c_bands:  1 eigenvalues not converged
     ethr =  1.25E-05,  avg # of iterations =  3.5

     total cpu time spent up to now is      937.2 secs

     total energy              =   -1923.44375914 Ry
     Harris-Foulkes estimate   =   -1923.44436388 Ry
     estimated scf accuracy    <       0.00115006 Ry

     iteration #  9     ecut=    40.00 Ry     beta=0.70
     CG style diagonalization
     c_bands:  1 eigenvalues not converged
     c_bands:  1 eigenvalues not converged
     c_bands:  1 eigenvalues not converged
     c_bands:  1 eigenvalues not converged
     c_bands:  1 eigenvalues not converged
     c_bands:  1 eigenvalues not converged
     c_bands:  1 eigenvalues not converged
     c_bands:  1 eigenvalues not converged
     c_bands:  1 eigenvalues not converged
     c_bands:  1 eigenvalues not converged
     c_bands:  1 eigenvalues not converged
     ethr =  8.85E-07,  avg # of iterations =  4.5

     total cpu time spent up to now is      995.0 secs

     End of self-consistent calculation

     Number of k-points >= 100: set verbosity='high' to print the bands.

     the Fermi energy is    42.1015 ev

!    total energy              =   -1923.44420167 Ry
     Harris-Foulkes estimate   =   -1923.44427459 Ry
     estimated scf accuracy    <       0.00008108 Ry

     The total energy is the sum of the following terms:

     one-electron contribution =    -288.38498810 Ry
     hartree contribution      =     276.39664975 Ry
     xc contribution           =    -168.24308979 Ry
     ewald contribution        =   -1743.00283727 Ry
     smearing contrib. (-TS)   =      -0.20993627 Ry

     convergence has been achieved in   9 iterations

     Forces acting on atoms (Ry/au):

     atom    1 type  1   force =     0.00000000    0.00000000   -0.03608681
     atom    2 type  1   force =     0.00000000    0.00000000    0.03608681
     atom    3 type  2   force =     0.00000000    0.00000000    0.00000000
     atom    4 type  2   force =     0.00000000    0.00000000    0.00000000
     atom    5 type  2   force =     0.00000000    0.00000000    0.00000000
     atom    6 type  2   force =     0.00000000    0.00000000    0.00000000

     Total force =     0.051034     Total SCF correction =     0.000000


     entering subroutine stress ...

          total   stress  (Ry/bohr**3)                   (kbar)     P= 2632.73
   0.01791692   0.00000000   0.00000000       2635.67      0.00      0.00
   0.00000000   0.01791692   0.00000000          0.00   2635.67      0.00
   0.00000000   0.00000000   0.01785691          0.00      0.00   2626.84


     BFGS Geometry Optimization

     number of scf cycles    =   1
     number of bfgs steps    =   0

     enthalpy new            =   -1923.4442016652 Ry

     new trust radius        =       0.5000000000 bohr
     new conv_thr            =       0.0001000000 Ry

     new unit-cell volume =    783.69312 a.u.^3 (   116.13134 Ang^3 )

CELL_PARAMETERS (alat=  9.37903830)
   1.103504695   0.000000000   0.000000000
   0.551752347   0.955663099   0.000000000
   0.551752347   0.318554366   0.900724761

ATOMIC_POSITIONS (crystal)
Mg       0.750362970   0.750362970   0.748911089
Mg       0.499637030   0.499637030   0.501088911
Cu       0.125000000   0.125000000   0.125000000
Cu       0.625000000   0.125000000   0.125000000
Cu       0.125000000   0.625000000   0.125000000
Cu       0.125000000   0.125000000   0.625000000



     Writing output data file Prototype-La-cF24-Cu2Mg.save
     NEW-OLD atomic charge density approx. for the potential
     NEW k-points: (use verbosity='high' to print them)

     total cpu time spent up to now is     1004.7 secs

     Self-consistent Calculation

     iteration #  1     ecut=    40.00 Ry     beta=0.70
     CG style diagonalization
     c_bands:  1 eigenvalues not converged
     c_bands:  1 eigenvalues not converged
     c_bands:  1 eigenvalues not converged
     c_bands:  2 eigenvalues not converged
     c_bands:  1 eigenvalues not converged
     c_bands:  1 eigenvalues not converged
     c_bands:  1 eigenvalues not converged
     c_bands:  1 eigenvalues not converged
     c_bands:  1 eigenvalues not converged
     c_bands:  1 eigenvalues not converged
     c_bands:  1 eigenvalues not converged
     c_bands:  1 eigenvalues not converged
     c_bands:  1 eigenvalues not converged
     c_bands:  1 eigenvalues not converged
     c_bands:  1 eigenvalues not converged
     c_bands:  1 eigenvalues not converged
     c_bands:  1 eigenvalues not converged
     c_bands:  1 eigenvalues not converged
     c_bands:  1 eigenvalues not converged
     c_bands:  1 eigenvalues not converged
     c_bands:  1 eigenvalues not converged
     ethr =  1.00E-06,  avg # of iterations = 23.6

     total cpu time spent up to now is     1294.9 secs

     total energy              =   -1911.81890437 Ry
     Harris-Foulkes estimate   =   -1942.36953006 Ry
     estimated scf accuracy    <      38.35639597 Ry

     iteration #  2     ecut=    40.00 Ry     beta=0.70
     CG style diagonalization
     ethr =  1.00E-02,  avg # of iterations =  4.1

     total cpu time spent up to now is     1346.2 secs

     total energy              =   -1922.93376411 Ry
     Harris-Foulkes estimate   =   -1926.78648904 Ry
     estimated scf accuracy    <       5.79899836 Ry

     iteration #  3     ecut=    40.00 Ry     beta=0.70
     CG style diagonalization
     ethr =  4.46E-03,  avg # of iterations =  3.7

     total cpu time spent up to now is     1393.3 secs

     total energy              =   -1924.43594141 Ry
     Harris-Foulkes estimate   =   -1924.58246978 Ry
     estimated scf accuracy    <       0.25750391 Ry

     iteration #  4     ecut=    40.00 Ry     beta=0.70
     CG style diagonalization
     ethr =  1.98E-04,  avg # of iterations =  3.6

     total cpu time spent up to now is     1440.2 secs

     total energy              =   -1924.51770953 Ry
     Harris-Foulkes estimate   =   -1924.52885557 Ry
     estimated scf accuracy    <       0.02017623 Ry

     iteration #  5     ecut=    40.00 Ry     beta=0.70
     CG style diagonalization
     c_bands:  1 eigenvalues not converged
     c_bands:  1 eigenvalues not converged
     ethr =  1.55E-05,  avg # of iterations =  3.6

     total cpu time spent up to now is     1491.1 secs

     total energy              =   -1924.52161191 Ry
     Harris-Foulkes estimate   =   -1924.52250835 Ry
     estimated scf accuracy    <       0.00148254 Ry

     iteration #  6     ecut=    40.00 Ry     beta=0.70
     CG style diagonalization
     ethr =  1.14E-06,  avg # of iterations =  4.1

     total cpu time spent up to now is     1544.8 secs

     End of self-consistent calculation

     Number of k-points >= 100: set verbosity='high' to print the bands.

     the Fermi energy is    30.2355 ev

!    total energy              =   -1924.52207323 Ry
     Harris-Foulkes estimate   =   -1924.52207851 Ry
     estimated scf accuracy    <       0.00001796 Ry

     The total energy is the sum of the following terms:

     one-electron contribution =    -524.00716745 Ry
     hartree contribution      =     344.04240141 Ry
     xc contribution           =    -164.69210321 Ry
     ewald contribution        =   -1579.67856004 Ry
     smearing contrib. (-TS)   =      -0.18664393 Ry

     convergence has been achieved in   6 iterations

     Forces acting on atoms (Ry/au):

     atom    1 type  1   force =     0.00000000    0.00000000    0.00565890
     atom    2 type  1   force =     0.00000000    0.00000000   -0.00565890
     atom    3 type  2   force =     0.00000000    0.00000000    0.00000000
     atom    4 type  2   force =     0.00000000    0.00000000    0.00000000
     atom    5 type  2   force =     0.00000000    0.00000000    0.00000000
     atom    6 type  2   force =     0.00000000    0.00000000    0.00000000

     Total force =     0.008003     Total SCF correction =     0.000000


     entering subroutine stress ...

          total   stress  (Ry/bohr**3)                   (kbar)     P= -526.31
  -0.00358973   0.00000000   0.00000000       -528.07      0.00      0.00
   0.00000000  -0.00358973   0.00000000          0.00   -528.07      0.00
   0.00000000   0.00000000  -0.00355382          0.00      0.00   -522.78


     number of scf cycles    =   2
     number of bfgs steps    =   1

     enthalpy old            =   -1923.4442016652 Ry
     enthalpy new            =   -1924.5220732254 Ry

     CASE: enthalpy_new < enthalpy_old

     small trust_radius: resetting bfgs history

     new trust radius        =       0.5024637140 bohr
     new conv_thr            =       0.0000056589 Ry

     new unit-cell volume =    591.65139 a.u.^3 (    87.67369 Ang^3 )

CELL_PARAMETERS (alat=  9.37903830)
   1.004472619   0.000000000   0.000000000
   0.502236309   0.869898805   0.000000000
   0.502236309   0.289966268   0.820699421

ATOMIC_POSITIONS (crystal)
Mg       0.750139685   0.750139685   0.749580945
Mg       0.499860315   0.499860315   0.500419055
Cu       0.125000000   0.125000000   0.125000000
Cu       0.625000000   0.125000000   0.125000000
Cu       0.125000000   0.625000000   0.125000000
Cu       0.125000000   0.125000000   0.625000000



     Writing output data file Prototype-La-cF24-Cu2Mg.save
     NEW-OLD atomic charge density approx. for the potential
     NEW k-points: (use verbosity='high' to print them)

     total cpu time spent up to now is     1553.3 secs

     Self-consistent Calculation

     iteration #  1     ecut=    40.00 Ry     beta=0.70
     CG style diagonalization
     c_bands:  1 eigenvalues not converged
     c_bands:  2 eigenvalues not converged
     c_bands:  1 eigenvalues not converged
     c_bands:  1 eigenvalues not converged
     c_bands:  1 eigenvalues not converged
     c_bands:  1 eigenvalues not converged
     c_bands:  1 eigenvalues not converged
     c_bands:  1 eigenvalues not converged
     c_bands:  1 eigenvalues not converged
     c_bands:  1 eigenvalues not converged
     c_bands:  1 eigenvalues not converged
     c_bands:  2 eigenvalues not converged
     c_bands:  1 eigenvalues not converged
     c_bands:  1 eigenvalues not converged
     c_bands:  1 eigenvalues not converged
     c_bands:  1 eigenvalues not converged
     c_bands:  1 eigenvalues not converged
     c_bands:  1 eigenvalues not converged
     c_bands:  2 eigenvalues not converged
     c_bands:  2 eigenvalues not converged
     c_bands:  1 eigenvalues not converged
     c_bands:  1 eigenvalues not converged
     c_bands:  2 eigenvalues not converged
     c_bands:  1 eigenvalues not converged
     c_bands:  1 eigenvalues not converged
     c_bands:  1 eigenvalues not converged
     c_bands:  1 eigenvalues not converged
     c_bands:  2 eigenvalues not converged
     c_bands:  1 eigenvalues not converged
     c_bands:  1 eigenvalues not converged
     c_bands:  1 eigenvalues not converged
     c_bands:  1 eigenvalues not converged
     c_bands:  1 eigenvalues not converged
     c_bands:  2 eigenvalues not converged
     c_bands:  2 eigenvalues not converged
     c_bands:  1 eigenvalues not converged
     c_bands:  2 eigenvalues not converged
     c_bands:  1 eigenvalues not converged
     c_bands:  2 eigenvalues not converged
     c_bands:  2 eigenvalues not converged
     c_bands:  1 eigenvalues not converged
     c_bands:  1 eigenvalues not converged
     c_bands:  2 eigenvalues not converged
     c_bands:  2 eigenvalues not converged
     c_bands:  1 eigenvalues not converged
     c_bands:  1 eigenvalues not converged
     c_bands:  2 eigenvalues not converged
     c_bands:  1 eigenvalues not converged
     c_bands:  1 eigenvalues not converged
     c_bands:  1 eigenvalues not converged
     c_bands:  1 eigenvalues not converged
     c_bands:  2 eigenvalues not converged
     c_bands:  1 eigenvalues not converged
     ethr =  1.00E-06,  avg # of iterations = 23.9

     total cpu time spent up to now is     1851.7 secs

     total energy              =   -1909.57876819 Ry
     Harris-Foulkes estimate   =   -1941.33133811 Ry
     estimated scf accuracy    <      39.43745302 Ry

     iteration #  2     ecut=    40.00 Ry     beta=0.70
     CG style diagonalization
     ethr =  1.00E-02,  avg # of iterations =  4.6

     total cpu time spent up to now is     1910.6 secs

     total energy              =   -1922.28133583 Ry
     Harris-Foulkes estimate   =   -1926.34560290 Ry
     estimated scf accuracy    <       6.18682473 Ry

     iteration #  3     ecut=    40.00 Ry     beta=0.70
     CG style diagonalization
     ethr =  4.76E-03,  avg # of iterations =  3.6

     total cpu time spent up to now is     1957.7 secs

     total energy              =   -1923.54237439 Ry
     Harris-Foulkes estimate   =   -1923.60064424 Ry
     estimated scf accuracy    <       0.08380565 Ry

     iteration #  4     ecut=    40.00 Ry     beta=0.70
     CG style diagonalization
     c_bands:  1 eigenvalues not converged
     c_bands:  1 eigenvalues not converged
     c_bands:  1 eigenvalues not converged
     c_bands:  1 eigenvalues not converged
     c_bands:  1 eigenvalues not converged
     c_bands:  1 eigenvalues not converged
     c_bands:  1 eigenvalues not converged
     c_bands:  1 eigenvalues not converged
     c_bands:  2 eigenvalues not converged
     c_bands:  1 eigenvalues not converged
     c_bands:  1 eigenvalues not converged
     c_bands:  1 eigenvalues not converged
     c_bands:  1 eigenvalues not converged
     c_bands:  1 eigenvalues not converged
     c_bands:  1 eigenvalues not converged
     c_bands:  1 eigenvalues not converged
     c_bands:  2 eigenvalues not converged
     c_bands:  1 eigenvalues not converged
     c_bands:  1 eigenvalues not converged
     c_bands:  1 eigenvalues not converged
     c_bands:  1 eigenvalues not converged
     c_bands:  1 eigenvalues not converged
     c_bands:  1 eigenvalues not converged
     c_bands:  1 eigenvalues not converged
     ethr =  6.45E-05,  avg # of iterations =  4.5

     total cpu time spent up to now is     2019.7 secs

     total energy              =   -1923.57355335 Ry
     Harris-Foulkes estimate   =   -1923.60072224 Ry
     estimated scf accuracy    <       0.04724835 Ry

     iteration #  5     ecut=    40.00 Ry     beta=0.70
     CG style diagonalization
     c_bands:  1 eigenvalues not converged
     c_bands:  1 eigenvalues not converged
     c_bands:  1 eigenvalues not converged
     c_bands:  1 eigenvalues not converged
     c_bands:  1 eigenvalues not converged
     c_bands:  1 eigenvalues not converged
     c_bands:  1 eigenvalues not converged
     c_bands:  1 eigenvalues not converged
     c_bands:  1 eigenvalues not converged
     c_bands:  1 eigenvalues not converged
     c_bands:  2 eigenvalues not converged
     c_bands:  1 eigenvalues not converged
     ethr =  3.63E-05,  avg # of iterations =  3.5

     total cpu time spent up to now is     2069.6 secs

     total energy              =   -1923.58506642 Ry
     Harris-Foulkes estimate   =   -1923.58820048 Ry
     estimated scf accuracy    <       0.00618187 Ry

     iteration #  6     ecut=    40.00 Ry     beta=0.70
     CG style diagonalization
     c_bands:  1 eigenvalues not converged
     c_bands:  1 eigenvalues not converged
     c_bands:  1 eigenvalues not converged
     c_bands:  1 eigenvalues not converged
     c_bands:  1 eigenvalues not converged
     c_bands:  1 eigenvalues not converged
     c_bands:  1 eigenvalues not converged
     c_bands:  1 eigenvalues not converged
     c_bands:  1 eigenvalues not converged
     c_bands:  2 eigenvalues not converged
     c_bands:  1 eigenvalues not converged
     c_bands:  1 eigenvalues not converged
     c_bands:  1 eigenvalues not converged
     ethr =  4.76E-06,  avg # of iterations =  3.6

     total cpu time spent up to now is     2121.8 secs

     total energy              =   -1923.58643378 Ry
     Harris-Foulkes estimate   =   -1923.58650653 Ry
     estimated scf accuracy    <       0.00014230 Ry

     iteration #  7     ecut=    40.00 Ry     beta=0.70
     CG style diagonalization
     c_bands:  1 eigenvalues not converged
     c_bands:  1 eigenvalues not converged
     c_bands:  1 eigenvalues not converged
     ethr =  1.09E-07,  avg # of iterations =  4.4

     total cpu time spent up to now is     2185.8 secs

     total energy              =   -1923.58652274 Ry
     Harris-Foulkes estimate   =   -1923.58652768 Ry
     estimated scf accuracy    <       0.00001046 Ry

     iteration #  8     ecut=    40.00 Ry     beta=0.70
     CG style diagonalization
     ethr =  8.05E-09,  avg # of iterations =  3.8

     total cpu time spent up to now is     2241.8 secs

     End of self-consistent calculation

     Number of k-points >= 100: set verbosity='high' to print the bands.

     the Fermi energy is    41.4726 ev

!    total energy              =   -1923.58652390 Ry
     Harris-Foulkes estimate   =   -1923.58652756 Ry
     estimated scf accuracy    <       0.00000441 Ry

     The total energy is the sum of the following terms:

     one-electron contribution =    -299.98107250 Ry
     hartree contribution      =     279.50793994 Ry
     xc contribution           =    -168.05421568 Ry
     ewald contribution        =   -1734.85308392 Ry
     smearing contrib. (-TS)   =      -0.20609175 Ry

     convergence has been achieved in   8 iterations

     Forces acting on atoms (Ry/au):

     atom    1 type  1   force =     0.00000000    0.00000000    0.00123082
     atom    2 type  1   force =     0.00000000    0.00000000   -0.00123082
     atom    3 type  2   force =     0.00000000    0.00000000    0.00000000
     atom    4 type  2   force =     0.00000000    0.00000000    0.00000000
     atom    5 type  2   force =     0.00000000    0.00000000    0.00000000
     atom    6 type  2   force =     0.00000000    0.00000000    0.00000000

     Total force =     0.001741     Total SCF correction =     0.000000


     entering subroutine stress ...

          total   stress  (Ry/bohr**3)                   (kbar)     P= 2439.32
   0.01659295   0.00000000   0.00000000       2440.91      0.00      0.00
   0.00000000   0.01659295   0.00000000          0.00   2440.91      0.00
   0.00000000   0.00000000   0.01656064          0.00      0.00   2436.15


     number of scf cycles    =   3
     number of bfgs steps    =   2

     enthalpy old            =   -1924.5220732254 Ry
     enthalpy new            =   -1923.5865239004 Ry

     CASE: enthalpy_new > enthalpy_old

     new trust radius        =       0.1068994137 bohr

     trust_radius < trust_radius_min

     resetting bfgs history

     Message from routine bfgs:
     history already reset at previous step: stopping
     new conv_thr            =       0.0000056589 Ry

     new unit-cell volume =    584.15735 a.u.^3 (    86.56319 Ang^3 )

CELL_PARAMETERS (alat=  9.37903830)
   1.000265366   0.000000000   0.000000000
   0.500132683   0.866255218   0.000000000
   0.500132683   0.288751739   0.817135010

ATOMIC_POSITIONS (crystal)
Mg       0.750107502   0.750107502   0.749677495
Mg       0.499892498   0.499892498   0.500322505
Cu       0.125000000   0.125000000   0.125000000
Cu       0.625000000   0.125000000   0.125000000
Cu       0.125000000   0.625000000   0.125000000
Cu       0.125000000   0.125000000   0.625000000



     Writing output data file Prototype-La-cF24-Cu2Mg.save
     NEW-OLD atomic charge density approx. for the potential
     NEW k-points: (use verbosity='high' to print them)

     total cpu time spent up to now is     2250.2 secs

     Self-consistent Calculation

     iteration #  1     ecut=    40.00 Ry     beta=0.70
     CG style diagonalization
     c_bands:  1 eigenvalues not converged
     c_bands:  1 eigenvalues not converged
     c_bands:  1 eigenvalues not converged
     c_bands:  1 eigenvalues not converged
     ethr =  1.00E-06,  avg # of iterations =  6.3

     total cpu time spent up to now is     2338.3 secs

     total energy              =   -1923.43125112 Ry
     Harris-Foulkes estimate   =   -1923.49305936 Ry
     estimated scf accuracy    <       0.07742887 Ry

     iteration #  2     ecut=    40.00 Ry     beta=0.70
     CG style diagonalization
     ethr =  5.96E-05,  avg # of iterations =  3.8

     total cpu time spent up to now is     2395.6 secs

     total energy              =   -1923.45509161 Ry
     Harris-Foulkes estimate   =   -1923.46269754 Ry
     estimated scf accuracy    <       0.01150457 Ry

     iteration #  3     ecut=    40.00 Ry     beta=0.70
     CG style diagonalization
     ethr =  8.85E-06,  avg # of iterations =  3.7

     total cpu time spent up to now is     2453.1 secs

     total energy              =   -1923.45779116 Ry
     Harris-Foulkes estimate   =   -1923.45801307 Ry
     estimated scf accuracy    <       0.00033892 Ry

     iteration #  4     ecut=    40.00 Ry     beta=0.70
     CG style diagonalization
     ethr =  2.61E-07,  avg # of iterations =  3.8

     total cpu time spent up to now is     2513.1 secs

     total energy              =   -1923.45792493 Ry
     Harris-Foulkes estimate   =   -1923.45796405 Ry
     estimated scf accuracy    <       0.00007456 Ry

     iteration #  5     ecut=    40.00 Ry     beta=0.70
     CG style diagonalization
     ethr =  5.74E-08,  avg # of iterations =  3.4

     total cpu time spent up to now is     2567.4 secs

     End of self-consistent calculation

     Number of k-points >= 100: set verbosity='high' to print the bands.

     the Fermi energy is    42.0424 ev

!    total energy              =   -1923.45794191 Ry
     Harris-Foulkes estimate   =   -1923.45794475 Ry
     estimated scf accuracy    <       0.00000339 Ry

     The total energy is the sum of the following terms:

     one-electron contribution =    -289.45475218 Ry
     hartree contribution      =     276.67305705 Ry
     xc contribution           =    -168.22635263 Ry
     ewald contribution        =   -1742.24040539 Ry
     smearing contrib. (-TS)   =      -0.20948876 Ry

     convergence has been achieved in   5 iterations

     Forces acting on atoms (Ry/au):

     atom    1 type  1   force =     0.00000000    0.00000000   -0.00129593
     atom    2 type  1   force =     0.00000000    0.00000000    0.00129593
     atom    3 type  2   force =     0.00000000    0.00000000    0.00000000
     atom    4 type  2   force =     0.00000000    0.00000000    0.00000000
     atom    5 type  2   force =     0.00000000    0.00000000    0.00000000
     atom    6 type  2   force =     0.00000000    0.00000000    0.00000000

     Total force =     0.001833     Total SCF correction =     0.000000


     entering subroutine stress ...

          total   stress  (Ry/bohr**3)                   (kbar)     P= 2612.53
   0.01776965   0.00000000   0.00000000       2614.01      0.00      0.00
   0.00000000   0.01776965   0.00000000          0.00   2614.01      0.00
   0.00000000   0.00000000   0.01773964          0.00      0.00   2609.59


     The maximum number of steps has been reached.

     End of BFGS Geometry Optimization
Begin final coordinates
     new unit-cell volume =    584.15735 a.u.^3 (    86.56319 Ang^3 )

CELL_PARAMETERS (alat=  9.37903830)
   1.000265366   0.000000000   0.000000000
   0.500132683   0.866255218   0.000000000
   0.500132683   0.288751739   0.817135010

ATOMIC_POSITIONS (crystal)
Mg       0.750107502   0.750107502   0.749677495
Mg       0.499892498   0.499892498   0.500322505
Cu       0.125000000   0.125000000   0.125000000
Cu       0.625000000   0.125000000   0.125000000
Cu       0.125000000   0.625000000   0.125000000
Cu       0.125000000   0.125000000   0.625000000
End final coordinates



     A final scf calculation at the relaxed structure.
     The G-vectors are recalculated for the final unit cell
     Results may differ from those at the preceding step.
 
     Parallelization info
     --------------------
     sticks:   dense  smooth     PW     G-vecs:    dense   smooth      PW
     Min         238     238     75                 4969     4969     869
     Max         239     239     76                 4974     4974     872
     Sum         955     955    301                19891    19891    3479
 


     bravais-lattice index     =            0
     lattice parameter (alat)  =       9.3790  a.u.
     unit-cell volume          =     584.1573 (a.u.)^3
     number of atoms/cell      =            6
     number of atomic types    =            2
     number of electrons       =       130.00
     number of Kohn-Sham states=           78
     kinetic-energy cutoff     =      40.0000  Ry
     charge density cutoff     =     160.0000  Ry
     convergence threshold     =      5.7E-06
     mixing beta               =       0.7000
     number of iterations used =            8  plain     mixing
     Exchange-correlation      = SLA-PZ-NOGX-NOGC ( 1 1 0 0 0)
     EXX-fraction              =        0.00

     celldm(1)=   9.379038  celldm(2)=   0.000000  celldm(3)=   0.000000
     celldm(4)=   0.000000  celldm(5)=   0.000000  celldm(6)=   0.000000

     crystal axes: (cart. coord. in units of alat)
               a(1) = (   1.000265   0.000000   0.000000 )  
               a(2) = (   0.500133   0.866255   0.000000 )  
               a(3) = (   0.500133   0.288752   0.817135 )  

     reciprocal axes: (cart. coord. in units 2 pi/alat)
               b(1) = (  0.999735 -0.577197 -0.407929 )  
               b(2) = (  0.000000  1.154394 -0.407929 )  
               b(3) = (  0.000000  0.000000  1.223788 )  


     PseudoPot. # 1 for Tb read from file:
     /home/cwx6513/pp.La/Tb.UPF
     MD5 check sum: 3d6088a3f0cf7fd2e110c43f7f8e95c2
     Pseudo is Norm-conserving, Zval = 19.0
     Generated in analytical, separable form
     Using radial grid of 1263 points,  6 beta functions with: 
                l(1) =   0
                l(2) =   0
                l(3) =   1
                l(4) =   1
                l(5) =   2
                l(6) =   3

     PseudoPot. # 2 for Tm read from file:
     /home/cwx6513/pp.La/Tm.UPF
     MD5 check sum: 245516e0878b5372ceeb9443ded2c4e1
     Pseudo is Norm-conserving, Zval = 23.0
     Generated in analytical, separable form
     Using radial grid of 1269 points,  6 beta functions with: 
                l(1) =   0
                l(2) =   0
                l(3) =   1
                l(4) =   1
                l(5) =   2
                l(6) =   3

     atomic species   valence    mass     pseudopotential
        Mg            19.00    24.30500     Tb( 1.00)
        Cu            23.00    63.54600     Tm( 1.00)

     12 Sym. Ops., with inversion, found ( 6 have fractional translation)



   Cartesian axes

     site n.     atom                  positions (alat units)
         1           Mg  tau(   1) = (   1.5003980   0.8662552   0.6125877  )
         2           Mg  tau(   2) = (   1.0002654   0.5775035   0.4088310  )
         3           Cu  tau(   3) = (   0.2500663   0.1443759   0.1021419  )
         4           Cu  tau(   4) = (   0.7501990   0.1443759   0.1021419  )
         5           Cu  tau(   5) = (   0.5001327   0.5775035   0.1021419  )
         6           Cu  tau(   6) = (   0.5001327   0.2887517   0.5107094  )

     number of k points=   170  gaussian smearing, width (Ry)=  0.1000

     Number of k-points >= 100: set verbosity='high' to print them.

     Dense  grid:    19891 G-vectors     FFT dimensions: (  40,  40,  40)

     Largest allocated arrays     est. size (Mb)     dimensions
        Kohn-Sham Wavefunctions         0.77 Mb     (    645,   78)
        NL pseudopotentials             1.18 Mb     (    645,  120)
        Each V/rho on FFT grid          0.24 Mb     (  16000)
        Each G-vector array             0.04 Mb     (   4969)
        G-vector shells                 0.01 Mb     (   1438)
     Largest temporary arrays     est. size (Mb)     dimensions
        Each subspace H/S matrix        0.09 Mb     (  78,  78)
        Each <psi_i|beta_j> matrix      0.14 Mb     (    120,   78)
        Arrays for rho mixing           1.95 Mb     (  16000,   8)

     Initial potential from superposition of free atoms

     Starting from uniform charge
     Starting wfc are    0 randomized atomic wfcs

     Writing output data file Prototype-La-cF24-Cu2Mg.save

     total cpu time spent up to now is     2587.6 secs

     Self-consistent Calculation

     iteration #  1     ecut=    40.00 Ry     beta=0.70
     CG style diagonalization
     c_bands:  3 eigenvalues not converged
     c_bands:  4 eigenvalues not converged
     c_bands:  3 eigenvalues not converged
     c_bands:  3 eigenvalues not converged
     c_bands:  1 eigenvalues not converged
     c_bands:  4 eigenvalues not converged
     c_bands:  5 eigenvalues not converged
     c_bands:  1 eigenvalues not converged
     c_bands:  5 eigenvalues not converged
     c_bands:  5 eigenvalues not converged
     c_bands:  2 eigenvalues not converged
     c_bands:  5 eigenvalues not converged
     c_bands:  2 eigenvalues not converged
     c_bands:  2 eigenvalues not converged
     c_bands:  4 eigenvalues not converged
     c_bands:  4 eigenvalues not converged
     c_bands:  2 eigenvalues not converged
     c_bands:  2 eigenvalues not converged
     c_bands:  1 eigenvalues not converged
     c_bands:  2 eigenvalues not converged
     c_bands:  3 eigenvalues not converged
     c_bands:  1 eigenvalues not converged
     c_bands:  1 eigenvalues not converged
     c_bands:  2 eigenvalues not converged
     c_bands:  3 eigenvalues not converged
     c_bands:  1 eigenvalues not converged
     c_bands:  1 eigenvalues not converged
     c_bands:  5 eigenvalues not converged
     c_bands:  5 eigenvalues not converged
     c_bands:  3 eigenvalues not converged
     c_bands:  1 eigenvalues not converged
     c_bands:  5 eigenvalues not converged
     c_bands:  3 eigenvalues not converged
     c_bands:  5 eigenvalues not converged
     c_bands:  4 eigenvalues not converged
     c_bands:  2 eigenvalues not converged
     c_bands:  1 eigenvalues not converged
     c_bands:  1 eigenvalues not converged
     c_bands:  2 eigenvalues not converged
     c_bands:  5 eigenvalues not converged
     c_bands:  1 eigenvalues not converged
     c_bands:  1 eigenvalues not converged
     c_bands:  1 eigenvalues not converged
     c_bands:  4 eigenvalues not converged
     c_bands:  5 eigenvalues not converged
     c_bands:  4 eigenvalues not converged
     c_bands:  1 eigenvalues not converged
     c_bands:  5 eigenvalues not converged
     c_bands:  4 eigenvalues not converged
     c_bands:  5 eigenvalues not converged
     c_bands:  1 eigenvalues not converged
     c_bands:  1 eigenvalues not converged
     c_bands:  4 eigenvalues not converged
     c_bands:  5 eigenvalues not converged
     c_bands:  2 eigenvalues not converged
     c_bands:  5 eigenvalues not converged
     c_bands:  5 eigenvalues not converged
     c_bands:  3 eigenvalues not converged
     c_bands:  4 eigenvalues not converged
     c_bands:  1 eigenvalues not converged
     c_bands:  1 eigenvalues not converged
     c_bands:  4 eigenvalues not converged
     c_bands:  1 eigenvalues not converged
     c_bands:  5 eigenvalues not converged
     c_bands:  3 eigenvalues not converged
     c_bands:  4 eigenvalues not converged
     c_bands:  3 eigenvalues not converged
     c_bands:  5 eigenvalues not converged
     c_bands:  1 eigenvalues not converged
     c_bands:  1 eigenvalues not converged
     c_bands:  1 eigenvalues not converged
     c_bands:  3 eigenvalues not converged
     ethr =  1.00E-06,  avg # of iterations = 49.7

     total cpu time spent up to now is     3278.7 secs

     total energy              =   -1221.05962096 Ry
     Harris-Foulkes estimate   =   -2447.35804577 Ry
     estimated scf accuracy    <    1467.84255933 Ry

     iteration #  2     ecut=    40.00 Ry     beta=0.70
     CG style diagonalization
     c_bands:  5 eigenvalues not converged
     ethr =  1.00E-02,  avg # of iterations = 18.2

     total cpu time spent up to now is     3549.8 secs

     total energy              =   -1310.82752698 Ry
     Harris-Foulkes estimate   =   -2713.57904398 Ry
     estimated scf accuracy    <    3067.06008685 Ry

     iteration #  3     ecut=    40.00 Ry     beta=0.70
     CG style diagonalization
     c_bands:  1 eigenvalues not converged
     c_bands:  1 eigenvalues not converged
     c_bands:  1 eigenvalues not converged
     c_bands:  1 eigenvalues not converged
     c_bands:  1 eigenvalues not converged
     c_bands:  1 eigenvalues not converged
     c_bands:  1 eigenvalues not converged
     c_bands:  1 eigenvalues not converged
     c_bands:  1 eigenvalues not converged
     c_bands:  1 eigenvalues not converged
     c_bands:  1 eigenvalues not converged
     c_bands:  1 eigenvalues not converged
     c_bands:  1 eigenvalues not converged
     c_bands:  1 eigenvalues not converged
     c_bands:  1 eigenvalues not converged
     c_bands:  1 eigenvalues not converged
     c_bands:  1 eigenvalues not converged
     c_bands:  1 eigenvalues not converged
     c_bands:  1 eigenvalues not converged
     c_bands:  1 eigenvalues not converged
     c_bands:  3 eigenvalues not converged
     c_bands:  1 eigenvalues not converged
     c_bands:  1 eigenvalues not converged
     c_bands:  1 eigenvalues not converged
     ethr =  1.00E-02,  avg # of iterations = 12.0

     total cpu time spent up to now is     3732.5 secs

     total energy              =   -1896.71041195 Ry
     Harris-Foulkes estimate   =   -1951.05682301 Ry
     estimated scf accuracy    <     118.02043812 Ry

     iteration #  4     ecut=    40.00 Ry     beta=0.70
     CG style diagonalization
     ethr =  1.00E-02,  avg # of iterations =  5.8

     total cpu time spent up to now is     3823.2 secs

     total energy              =   -1922.76953825 Ry
     Harris-Foulkes estimate   =   -1925.51494305 Ry
     estimated scf accuracy    <       6.26260638 Ry

     iteration #  5     ecut=    40.00 Ry     beta=0.70
     CG style diagonalization
     c_bands:  1 eigenvalues not converged
     ethr =  4.82E-03,  avg # of iterations =  3.3

     total cpu time spent up to now is     3874.5 secs

     total energy              =   -1923.25454376 Ry
     Harris-Foulkes estimate   =   -1923.59470737 Ry
     estimated scf accuracy    <       0.62372710 Ry

     iteration #  6     ecut=    40.00 Ry     beta=0.70
     CG style diagonalization
     c_bands:  1 eigenvalues not converged
     c_bands:  1 eigenvalues not converged
     c_bands:  1 eigenvalues not converged
     c_bands:  1 eigenvalues not converged
     ethr =  4.80E-04,  avg # of iterations =  4.1

     total cpu time spent up to now is     3937.9 secs

     total energy              =   -1923.43903735 Ry
     Harris-Foulkes estimate   =   -1923.48147505 Ry
     estimated scf accuracy    <       0.06712664 Ry

     iteration #  7     ecut=    40.00 Ry     beta=0.70
     CG style diagonalization
     c_bands:  1 eigenvalues not converged
     c_bands:  1 eigenvalues not converged
     c_bands:  1 eigenvalues not converged
     c_bands:  1 eigenvalues not converged
     c_bands:  2 eigenvalues not converged
     c_bands:  2 eigenvalues not converged
     c_bands:  1 eigenvalues not converged
     c_bands:  1 eigenvalues not converged
     c_bands:  1 eigenvalues not converged
     c_bands:  1 eigenvalues not converged
     c_bands:  2 eigenvalues not converged
     c_bands:  1 eigenvalues not converged
     c_bands:  1 eigenvalues not converged
     c_bands:  1 eigenvalues not converged
     c_bands:  1 eigenvalues not converged
     c_bands:  1 eigenvalues not converged
     c_bands:  1 eigenvalues not converged
     c_bands:  1 eigenvalues not converged
     c_bands:  1 eigenvalues not converged
     c_bands:  1 eigenvalues not converged
     c_bands:  3 eigenvalues not converged
     c_bands:  1 eigenvalues not converged
     c_bands:  1 eigenvalues not converged
     c_bands:  1 eigenvalues not converged
     c_bands:  1 eigenvalues not converged
     c_bands:  1 eigenvalues not converged
     c_bands:  1 eigenvalues not converged
     c_bands:  1 eigenvalues not converged
     c_bands:  1 eigenvalues not converged
     c_bands:  1 eigenvalues not converged
     ethr =  5.16E-05,  avg # of iterations =  4.0

     total cpu time spent up to now is     4000.5 secs

     total energy              =   -1923.46403809 Ry
     Harris-Foulkes estimate   =   -1923.47083995 Ry
     estimated scf accuracy    <       0.01605415 Ry

     iteration #  8     ecut=    40.00 Ry     beta=0.70
     CG style diagonalization
     c_bands:  1 eigenvalues not converged
     c_bands:  1 eigenvalues not converged
     c_bands:  1 eigenvalues not converged
     c_bands:  1 eigenvalues not converged
     c_bands:  1 eigenvalues not converged
     c_bands:  1 eigenvalues not converged
     c_bands:  1 eigenvalues not converged
     c_bands:  1 eigenvalues not converged
     c_bands:  1 eigenvalues not converged
     c_bands:  1 eigenvalues not converged
     c_bands:  1 eigenvalues not converged
     c_bands:  1 eigenvalues not converged
     c_bands:  1 eigenvalues not converged
     c_bands:  1 eigenvalues not converged
     c_bands:  1 eigenvalues not converged
     c_bands:  1 eigenvalues not converged
     c_bands:  1 eigenvalues not converged
     ethr =  1.23E-05,  avg # of iterations =  3.5

     total cpu time spent up to now is     4054.9 secs

     total energy              =   -1923.46564575 Ry
     Harris-Foulkes estimate   =   -1923.46632385 Ry
     estimated scf accuracy    <       0.00121394 Ry

     iteration #  9     ecut=    40.00 Ry     beta=0.70
     CG style diagonalization
     c_bands:  1 eigenvalues not converged
     c_bands:  1 eigenvalues not converged
     c_bands:  1 eigenvalues not converged
     c_bands:  1 eigenvalues not converged
     c_bands:  1 eigenvalues not converged
     c_bands:  1 eigenvalues not converged
     c_bands:  1 eigenvalues not converged
     c_bands:  1 eigenvalues not converged
     c_bands:  1 eigenvalues not converged
     c_bands:  1 eigenvalues not converged
     c_bands:  1 eigenvalues not converged
     ethr =  9.34E-07,  avg # of iterations =  4.4

     total cpu time spent up to now is     4122.3 secs

     total energy              =   -1923.46617023 Ry
     Harris-Foulkes estimate   =   -1923.46623268 Ry
     estimated scf accuracy    <       0.00014834 Ry

     iteration # 10     ecut=    40.00 Ry     beta=0.70
     CG style diagonalization
     c_bands:  1 eigenvalues not converged
     ethr =  1.14E-07,  avg # of iterations =  3.6

     total cpu time spent up to now is     4176.0 secs

     total energy              =   -1923.46620129 Ry
     Harris-Foulkes estimate   =   -1923.46620627 Ry
     estimated scf accuracy    <       0.00001320 Ry

     iteration # 11     ecut=    40.00 Ry     beta=0.70
     CG style diagonalization
     ethr =  1.02E-08,  avg # of iterations =  3.6

     total cpu time spent up to now is     4230.6 secs

     End of self-consistent calculation

     Number of k-points >= 100: set verbosity='high' to print the bands.

     the Fermi energy is    42.0421 ev

!    total energy              =   -1923.46620373 Ry
     Harris-Foulkes estimate   =   -1923.46620476 Ry
     estimated scf accuracy    <       0.00000114 Ry

     The total energy is the sum of the following terms:

     one-electron contribution =    -289.46346842 Ry
     hartree contribution      =     276.67421425 Ry
     xc contribution           =    -168.22701173 Ry
     ewald contribution        =   -1742.24040539 Ry
     smearing contrib. (-TS)   =      -0.20953244 Ry

     convergence has been achieved in  11 iterations

     Forces acting on atoms (Ry/au):

     atom    1 type  1   force =     0.00000000    0.00000000    0.00091437
     atom    2 type  1   force =     0.00000000    0.00000000   -0.00091437
     atom    3 type  2   force =     0.00000000    0.00000000    0.00000000
     atom    4 type  2   force =     0.00000000    0.00000000    0.00000000
     atom    5 type  2   force =     0.00000000    0.00000000    0.00000000
     atom    6 type  2   force =     0.00000000    0.00000000    0.00000000

     Total force =     0.001293     Total SCF correction =     0.000000


     entering subroutine stress ...

          total   stress  (Ry/bohr**3)                   (kbar)     P= 2617.60
   0.01779833   0.00000000   0.00000000       2618.22      0.00      0.00
   0.00000000   0.01779833   0.00000000          0.00   2618.22      0.00
   0.00000000   0.00000000   0.01778562          0.00      0.00   2616.35


     Writing output data file Prototype-La-cF24-Cu2Mg.save
 
     init_run     :     17.62s CPU     23.22s WALL (       2 calls)
     electrons    :   3900.38s CPU   4172.80s WALL (       5 calls)
     update_pot   :      1.14s CPU      1.16s WALL (       3 calls)
     forces       :      9.73s CPU     10.39s WALL (       5 calls)
     stress       :     25.80s CPU     26.40s WALL (       5 calls)

     Called by init_run:
     wfcinit      :     17.14s CPU     22.69s WALL (       2 calls)
     potinit      :      0.23s CPU      0.24s WALL (       2 calls)

     Called by electrons:
     c_bands      :   3755.94s CPU   4005.23s WALL (      39 calls)
     sum_band     :    144.18s CPU    158.97s WALL (      39 calls)
     v_of_rho     :      0.05s CPU      0.06s WALL (      44 calls)
     mix_rho      :      0.05s CPU      0.06s WALL (      39 calls)

     Called by c_bands:
     init_us_2    :      4.97s CPU      6.80s WALL (   15300 calls)
     ccgdiagg     :   3374.27s CPU   3497.66s WALL (    7850 calls)
     wfcrot       :    392.26s CPU    516.02s WALL (    8020 calls)

     Called by *cgdiagg:
     h_psi        :   2834.96s CPU   3063.98s WALL ( 3407075 calls)
     cdiaghg      :     18.52s CPU     19.83s WALL (    8020 calls)

     Called by h_psi:
     add_vuspsi   :    162.19s CPU    193.34s WALL ( 3407075 calls)

     General routines
     calbec       :    785.47s CPU    756.29s WALL ( 6807830 calls)
     fft          :      0.10s CPU      0.11s WALL (     199 calls)
     fftw         :   2140.07s CPU   2268.40s WALL ( 8566370 calls)
     davcio       :      5.73s CPU     13.11s WALL (   21930 calls)
 
     Parallel routines
     fft_scatter  :    889.44s CPU    938.47s WALL ( 8566569 calls)
 
     PWSCF        :     1h 5m CPU        1h10m WALL

 
   This run was terminated on:  18:49: 7  22Mar2018            

=------------------------------------------------------------------------------=
   JOB DONE.
=------------------------------------------------------------------------------=
