
     Program PWSCF v.5.0.2 starts on 23Mar2018 at  0:58:45 

     This program is part of the open-source Quantum ESPRESSO suite
     for quantum simulation of materials; please cite
         "P. Giannozzi et al., J. Phys.:Condens. Matter 21 395502 (2009);
          URL http://www.quantum-espresso.org", 
     in publications or presentations arising from this work. More details at
     http://www.quantum-espresso.org/quote.php

     Parallel version (MPI), running on     4 processors
     R & G space division:  proc/nbgrp/npool/nimage =       4

     Current dimensions of program PWSCF are:
     Max number of different atomic species (ntypx) = 10
     Max number of k-points (npk) =  40000
     Max angular momentum in pseudopotentials (lmaxx) =  3
     Waiting for input...
     Reading input from standard input

     Subspace diagonalization in iterative solution of the eigenvalue problem:
     a serial algorithm will be used

 
     Parallelization info
     --------------------
     sticks:   dense  smooth     PW     G-vecs:    dense   smooth      PW
     Min         256     256     78                 5240     5240     876
     Max         257     257     79                 5243     5243     879
     Sum        1027    1027    313                20965    20965    3509
 


     bravais-lattice index     =            0
     lattice parameter (alat)  =       9.6483  a.u.
     unit-cell volume          =     613.3683 (a.u.)^3
     number of atoms/cell      =            6
     number of atomic types    =            2
     number of electrons       =       101.00
     number of Kohn-Sham states=           61
     kinetic-energy cutoff     =      40.0000  Ry
     charge density cutoff     =     160.0000  Ry
     convergence threshold     =      1.0E-04
     mixing beta               =       0.7000
     number of iterations used =            8  plain     mixing
     Exchange-correlation      = SLA-PZ-NOGX-NOGC ( 1 1 0 0 0)
     EXX-fraction              =        0.00
     nstep                     =           50


     celldm(1)=   9.648295  celldm(2)=   0.000000  celldm(3)=   0.000000
     celldm(4)=   0.000000  celldm(5)=   0.000000  celldm(6)=   0.000000

     crystal axes: (cart. coord. in units of alat)
               a(1) = (   1.000000   0.000000   0.000000 )  
               a(2) = (  -0.500000   0.866025   0.000000 )  
               a(3) = (   0.000000   0.000000   0.788568 )  

     reciprocal axes: (cart. coord. in units 2 pi/alat)
               b(1) = (  1.000000  0.577350  0.000000 )  
               b(2) = (  0.000000  1.154701  0.000000 )  
               b(3) = (  0.000000  0.000000  1.268122 )  


     PseudoPot. # 1 for Ho read from file:
     /home/cwx6513/pp.La/Ho.UPF
     MD5 check sum: f307ee11bce99f5b724fa279e3790763
     Pseudo is Norm-conserving, Zval = 21.0
     Generated in analytical, separable form
     Using radial grid of 1265 points,  6 beta functions with: 
                l(1) =   0
                l(2) =   0
                l(3) =   1
                l(4) =   1
                l(5) =   2
                l(6) =   3

     PseudoPot. # 2 for Sm read from file:
     /home/cwx6513/pp.La/Sm.UPF
     MD5 check sum: 5079e8b144a06bfcdbc14fb02b96ab09
     Pseudo is Norm-conserving, Zval = 16.0
     Generated in analytical, separable form
     Using radial grid of 1259 points,  6 beta functions with: 
                l(1) =   0
                l(2) =   0
                l(3) =   1
                l(4) =   1
                l(5) =   2
                l(6) =   3

     atomic species   valence    mass     pseudopotential
        Ca            21.00    40.07800     Ho( 1.00)
        Cu            16.00    63.54600     Sm( 1.00)

     24 Sym. Ops., with inversion, found



   Cartesian axes

     site n.     atom                  positions (alat units)
         1           Ca  tau(   1) = (   0.0000000   0.0000000   0.0000000  )
         2           Cu  tau(   2) = (  -0.0000005   0.5773506   0.0000000  )
         3           Cu  tau(   3) = (   0.5000005   0.2886748   0.0000000  )
         4           Cu  tau(   4) = (   0.5000000   0.0000000   0.3942838  )
         5           Cu  tau(   5) = (   0.2500000   0.4330127   0.3942838  )
         6           Cu  tau(   6) = (  -0.2500000   0.4330127   0.3942838  )

     number of k points=   110  gaussian smearing, width (Ry)=  0.1000

     Number of k-points >= 100: set verbosity='high' to print them.

     Dense  grid:    20965 G-vectors     FFT dimensions: (  40,  40,  32)

     Largest allocated arrays     est. size (Mb)     dimensions
        Kohn-Sham Wavefunctions         0.62 Mb     (    670,   61)
        NL pseudopotentials             1.23 Mb     (    670,  120)
        Each V/rho on FFT grid          0.20 Mb     (  12800)
        Each G-vector array             0.04 Mb     (   5243)
        G-vector shells                 0.04 Mb     (   5243)
     Largest temporary arrays     est. size (Mb)     dimensions
        Each subspace H/S matrix        0.06 Mb     (  61,  61)
        Each <psi_i|beta_j> matrix      0.11 Mb     (    120,   61)
        Arrays for rho mixing           1.56 Mb     (  12800,   8)

     Initial potential from superposition of free atoms

     Starting from uniform charge
     Starting wfc are    0 randomized atomic wfcs

     total cpu time spent up to now is        6.1 secs

     Self-consistent Calculation

     iteration #  1     ecut=    40.00 Ry     beta=0.70
     CG style diagonalization
     c_bands:  1 eigenvalues not converged
     c_bands:  1 eigenvalues not converged
     ethr =  1.00E-02,  avg # of iterations = 19.6

     total cpu time spent up to now is      132.8 secs

     total energy              =    -874.62950754 Ry
     Harris-Foulkes estimate   =   -1217.51247549 Ry
     estimated scf accuracy    <     430.40931513 Ry

     iteration #  2     ecut=    40.00 Ry     beta=0.70
     CG style diagonalization
     c_bands:  1 eigenvalues not converged
     c_bands:  1 eigenvalues not converged
     c_bands:  1 eigenvalues not converged
     c_bands:  2 eigenvalues not converged
     c_bands:  1 eigenvalues not converged
     c_bands:  1 eigenvalues not converged
     c_bands:  1 eigenvalues not converged
     c_bands:  1 eigenvalues not converged
     c_bands:  1 eigenvalues not converged
     c_bands:  2 eigenvalues not converged
     c_bands:  1 eigenvalues not converged
     c_bands:  1 eigenvalues not converged
     c_bands:  1 eigenvalues not converged
     c_bands:  1 eigenvalues not converged
     c_bands:  1 eigenvalues not converged
     c_bands:  1 eigenvalues not converged
     c_bands:  2 eigenvalues not converged
     c_bands:  1 eigenvalues not converged
     c_bands:  1 eigenvalues not converged
     c_bands:  1 eigenvalues not converged
     c_bands:  1 eigenvalues not converged
     c_bands:  1 eigenvalues not converged
     c_bands:  3 eigenvalues not converged
     c_bands:  1 eigenvalues not converged
     c_bands:  1 eigenvalues not converged
     c_bands:  1 eigenvalues not converged
     c_bands:  1 eigenvalues not converged
     c_bands:  1 eigenvalues not converged
     c_bands:  1 eigenvalues not converged
     c_bands:  1 eigenvalues not converged
     c_bands:  2 eigenvalues not converged
     c_bands:  2 eigenvalues not converged
     c_bands:  1 eigenvalues not converged
     c_bands:  2 eigenvalues not converged
     c_bands:  1 eigenvalues not converged
     c_bands:  1 eigenvalues not converged
     c_bands:  1 eigenvalues not converged
     c_bands:  2 eigenvalues not converged
     c_bands:  1 eigenvalues not converged
     c_bands:  1 eigenvalues not converged
     c_bands:  1 eigenvalues not converged
     c_bands:  2 eigenvalues not converged
     c_bands:  1 eigenvalues not converged
     c_bands:  3 eigenvalues not converged
     c_bands:  1 eigenvalues not converged
     c_bands:  3 eigenvalues not converged
     c_bands:  1 eigenvalues not converged
     c_bands:  1 eigenvalues not converged
     c_bands:  1 eigenvalues not converged
     c_bands:  3 eigenvalues not converged
     c_bands:  1 eigenvalues not converged
     c_bands:  1 eigenvalues not converged
     c_bands:  1 eigenvalues not converged
     c_bands:  3 eigenvalues not converged
     c_bands:  1 eigenvalues not converged
     c_bands:  1 eigenvalues not converged
     c_bands:  1 eigenvalues not converged
     c_bands:  3 eigenvalues not converged
     c_bands:  1 eigenvalues not converged
     c_bands:  1 eigenvalues not converged
     c_bands:  2 eigenvalues not converged
     c_bands:  2 eigenvalues not converged
     c_bands:  2 eigenvalues not converged
     c_bands:  1 eigenvalues not converged
     c_bands:  1 eigenvalues not converged
     c_bands:  1 eigenvalues not converged
     c_bands:  1 eigenvalues not converged
     c_bands:  1 eigenvalues not converged
     ethr =  1.00E-02,  avg # of iterations =  8.3

     total cpu time spent up to now is      186.7 secs

     total energy              =    -968.54606188 Ry
     Harris-Foulkes estimate   =   -1195.93093902 Ry
     estimated scf accuracy    <     402.35711977 Ry

     iteration #  3     ecut=    40.00 Ry     beta=0.70
     CG style diagonalization
     c_bands:  1 eigenvalues not converged
     c_bands:  1 eigenvalues not converged
     c_bands:  1 eigenvalues not converged
     ethr =  1.00E-02,  avg # of iterations =  9.5

     total cpu time spent up to now is      249.2 secs

     total energy              =   -1038.03650977 Ry
     Harris-Foulkes estimate   =   -1058.89175125 Ry
     estimated scf accuracy    <      36.21202369 Ry

     iteration #  4     ecut=    40.00 Ry     beta=0.70
     CG style diagonalization
     ethr =  1.00E-02,  avg # of iterations =  5.4

     total cpu time spent up to now is      285.4 secs

     total energy              =   -1048.83336287 Ry
     Harris-Foulkes estimate   =   -1051.19368826 Ry
     estimated scf accuracy    <       6.09547622 Ry

     iteration #  5     ecut=    40.00 Ry     beta=0.70
     CG style diagonalization
     ethr =  6.04E-03,  avg # of iterations =  3.4

     total cpu time spent up to now is      306.0 secs

     total energy              =   -1049.30168368 Ry
     Harris-Foulkes estimate   =   -1049.95592460 Ry
     estimated scf accuracy    <       1.17815404 Ry

     iteration #  6     ecut=    40.00 Ry     beta=0.70
     CG style diagonalization
     ethr =  1.17E-03,  avg # of iterations =  3.9

     total cpu time spent up to now is      330.5 secs

     total energy              =   -1049.65525967 Ry
     Harris-Foulkes estimate   =   -1049.72728202 Ry
     estimated scf accuracy    <       0.16502534 Ry

     iteration #  7     ecut=    40.00 Ry     beta=0.70
     CG style diagonalization
     c_bands:  1 eigenvalues not converged
     c_bands:  2 eigenvalues not converged
     c_bands:  1 eigenvalues not converged
     c_bands:  1 eigenvalues not converged
     ethr =  1.63E-04,  avg # of iterations =  3.8

     total cpu time spent up to now is      354.5 secs

     total energy              =   -1049.69279277 Ry
     Harris-Foulkes estimate   =   -1049.69543924 Ry
     estimated scf accuracy    <       0.00491492 Ry

     iteration #  8     ecut=    40.00 Ry     beta=0.70
     CG style diagonalization
     c_bands:  1 eigenvalues not converged
     c_bands:  1 eigenvalues not converged
     c_bands:  3 eigenvalues not converged
     c_bands:  1 eigenvalues not converged
     c_bands:  1 eigenvalues not converged
     c_bands:  1 eigenvalues not converged
     c_bands:  1 eigenvalues not converged
     c_bands:  1 eigenvalues not converged
     c_bands:  1 eigenvalues not converged
     c_bands:  1 eigenvalues not converged
     c_bands:  1 eigenvalues not converged
     ethr =  4.87E-06,  avg # of iterations =  5.1

     total cpu time spent up to now is      388.1 secs

     total energy              =   -1049.69627082 Ry
     Harris-Foulkes estimate   =   -1049.69663527 Ry
     estimated scf accuracy    <       0.00086956 Ry

     iteration #  9     ecut=    40.00 Ry     beta=0.70
     CG style diagonalization
     c_bands:  1 eigenvalues not converged
     ethr =  8.61E-07,  avg # of iterations =  3.5

     total cpu time spent up to now is      409.8 secs

     End of self-consistent calculation

     Number of k-points >= 100: set verbosity='high' to print the bands.

     the Fermi energy is    33.4783 ev

!    total energy              =   -1049.69638046 Ry
     Harris-Foulkes estimate   =   -1049.69641985 Ry
     estimated scf accuracy    <       0.00005927 Ry

     The total energy is the sum of the following terms:

     one-electron contribution =     -16.64650111 Ry
     hartree contribution      =     114.64923511 Ry
     xc contribution           =    -111.58735266 Ry
     ewald contribution        =   -1035.81604399 Ry
     smearing contrib. (-TS)   =      -0.29571782 Ry

     convergence has been achieved in   9 iterations

     Forces acting on atoms (Ry/au):

     atom    1 type  1   force =     0.00000000    0.00000000    0.00000000
     atom    2 type  2   force =     0.00000000    0.00000000    0.00000000
     atom    3 type  2   force =     0.00000000    0.00000000    0.00000000
     atom    4 type  2   force =     0.00000000    0.00000000    0.00000000
     atom    5 type  2   force =     0.00000000    0.00000000    0.00000000
     atom    6 type  2   force =     0.00000000    0.00000000    0.00000000

     Total force =     0.000000     Total SCF correction =     0.000000


     entering subroutine stress ...

          total   stress  (Ry/bohr**3)                   (kbar)     P= 1846.81
   0.01062300   0.00000000   0.00000000       1562.70      0.00      0.00
   0.00000000   0.01062300   0.00000000          0.00   1562.70      0.00
   0.00000000   0.00000000   0.01641715          0.00      0.00   2415.05


     BFGS Geometry Optimization

     number of scf cycles    =   1
     number of bfgs steps    =   0

     enthalpy new            =   -1049.6963804615 Ry

     new trust radius        =       0.5000000000 bohr
     new conv_thr            =       0.0001000000 Ry

     new unit-cell volume =    766.38057 a.u.^3 (   113.56588 Ang^3 )

CELL_PARAMETERS (alat=  9.64829493)
   1.065317416   0.000000000   0.000000000
  -0.532658708   0.922591946   0.000000000
   0.000000000   0.000000000   0.868168629

ATOMIC_POSITIONS (crystal)
Ca       0.000000000   0.000000000   0.000000000
Cu       0.333333000   0.666667000   0.000000000
Cu       0.666667000   0.333333000   0.000000000
Cu       0.500000000   0.000000000   0.500000000
Cu       0.500000000   0.500000000   0.500000000
Cu       0.000000000   0.500000000   0.500000000



     Writing output data file Prototype-La-hP6-CaCu5.save
     NEW-OLD atomic charge density approx. for the potential
     NEW k-points: (use verbosity='high' to print them)

     total cpu time spent up to now is      416.2 secs

     Self-consistent Calculation

     iteration #  1     ecut=    40.00 Ry     beta=0.70
     CG style diagonalization
     c_bands:  4 eigenvalues not converged
     c_bands:  3 eigenvalues not converged
     c_bands:  3 eigenvalues not converged
     c_bands:  1 eigenvalues not converged
     c_bands:  3 eigenvalues not converged
     c_bands:  1 eigenvalues not converged
     c_bands:  3 eigenvalues not converged
     c_bands:  5 eigenvalues not converged
     c_bands:  3 eigenvalues not converged
     c_bands:  5 eigenvalues not converged
     c_bands:  5 eigenvalues not converged
     c_bands:  4 eigenvalues not converged
     c_bands:  2 eigenvalues not converged
     c_bands:  5 eigenvalues not converged
     c_bands:  1 eigenvalues not converged
     c_bands:  3 eigenvalues not converged
     c_bands:  5 eigenvalues not converged
     c_bands:  3 eigenvalues not converged
     ethr =  1.00E-06,  avg # of iterations = 19.1

     total cpu time spent up to now is      528.4 secs

     total energy              =   -1046.68604299 Ry
     Harris-Foulkes estimate   =   -1055.87139063 Ry
     estimated scf accuracy    <      11.93414059 Ry

     iteration #  2     ecut=    40.00 Ry     beta=0.70
     CG style diagonalization
     ethr =  1.00E-02,  avg # of iterations =  3.9

     total cpu time spent up to now is      552.7 secs

     total energy              =   -1049.86635558 Ry
     Harris-Foulkes estimate   =   -1051.57511592 Ry
     estimated scf accuracy    <       2.70417672 Ry

     iteration #  3     ecut=    40.00 Ry     beta=0.70
     CG style diagonalization
     ethr =  2.68E-03,  avg # of iterations =  3.6

     total cpu time spent up to now is      575.2 secs

     total energy              =   -1050.34401618 Ry
     Harris-Foulkes estimate   =   -1050.93991394 Ry
     estimated scf accuracy    <       1.53592502 Ry

     iteration #  4     ecut=    40.00 Ry     beta=0.70
     CG style diagonalization
     ethr =  1.52E-03,  avg # of iterations =  3.2

     total cpu time spent up to now is      595.2 secs

     total energy              =   -1050.62501469 Ry
     Harris-Foulkes estimate   =   -1050.71867111 Ry
     estimated scf accuracy    <       0.27646306 Ry

     iteration #  5     ecut=    40.00 Ry     beta=0.70
     CG style diagonalization
     ethr =  2.74E-04,  avg # of iterations =  3.1

     total cpu time spent up to now is      613.9 secs

     total energy              =   -1050.67109780 Ry
     Harris-Foulkes estimate   =   -1050.67360754 Ry
     estimated scf accuracy    <       0.00470061 Ry

     iteration #  6     ecut=    40.00 Ry     beta=0.70
     CG style diagonalization
     c_bands:  1 eigenvalues not converged
     ethr =  4.65E-06,  avg # of iterations =  4.2

     total cpu time spent up to now is      640.6 secs

     total energy              =   -1050.67306947 Ry
     Harris-Foulkes estimate   =   -1050.67333847 Ry
     estimated scf accuracy    <       0.00050505 Ry

     iteration #  7     ecut=    40.00 Ry     beta=0.70
     CG style diagonalization
     ethr =  5.00E-07,  avg # of iterations =  3.6

     total cpu time spent up to now is      662.5 secs

     End of self-consistent calculation

     Number of k-points >= 100: set verbosity='high' to print the bands.

     the Fermi energy is    25.7935 ev

!    total energy              =   -1050.67319350 Ry
     Harris-Foulkes estimate   =   -1050.67321177 Ry
     estimated scf accuracy    <       0.00002030 Ry

     The total energy is the sum of the following terms:

     one-electron contribution =    -117.83487518 Ry
     hartree contribution      =     138.95197365 Ry
     xc contribution           =    -108.92752080 Ry
     ewald contribution        =    -962.47970170 Ry
     smearing contrib. (-TS)   =      -0.38306947 Ry

     convergence has been achieved in   7 iterations

     Forces acting on atoms (Ry/au):

     atom    1 type  1   force =     0.00000000    0.00000000    0.00000000
     atom    2 type  2   force =     0.00000000    0.00000000    0.00000000
     atom    3 type  2   force =     0.00000000    0.00000000    0.00000000
     atom    4 type  2   force =     0.00000000    0.00000000    0.00000000
     atom    5 type  2   force =     0.00000000    0.00000000    0.00000000
     atom    6 type  2   force =     0.00000000    0.00000000    0.00000000

     Total force =     0.000000     Total SCF correction =     0.000000


     entering subroutine stress ...

          total   stress  (Ry/bohr**3)                   (kbar)     P=  167.09
   0.00052923   0.00000000   0.00000000         77.85      0.00      0.00
   0.00000000   0.00052923   0.00000000          0.00     77.85      0.00
   0.00000000   0.00000000   0.00234901          0.00      0.00    345.55


     number of scf cycles    =   2
     number of bfgs steps    =   1

     enthalpy old            =   -1049.6963804615 Ry
     enthalpy new            =   -1050.6731934983 Ry

     CASE: enthalpy_new < enthalpy_old

     small trust_radius: resetting bfgs history

     new trust radius        =       0.3251455152 bohr
     new conv_thr            =       0.0000010000 Ry

     new unit-cell volume =    832.99907 a.u.^3 (   123.43772 Ang^3 )

CELL_PARAMETERS (alat=  9.64829493)
   1.079412362   0.000000000   0.000000000
  -0.539706181   0.934798527   0.000000000
   0.000000000   0.000000000   0.919152126

ATOMIC_POSITIONS (crystal)
Ca       0.000000000   0.000000000   0.000000000
Cu       0.333333000   0.666667000   0.000000000
Cu       0.666667000   0.333333000   0.000000000
Cu       0.500000000   0.000000000   0.500000000
Cu       0.500000000   0.500000000   0.500000000
Cu       0.000000000   0.500000000   0.500000000



     Writing output data file Prototype-La-hP6-CaCu5.save
     NEW-OLD atomic charge density approx. for the potential
     NEW k-points: (use verbosity='high' to print them)

     total cpu time spent up to now is      668.6 secs

     Self-consistent Calculation

     iteration #  1     ecut=    40.00 Ry     beta=0.70
     CG style diagonalization
     c_bands:  2 eigenvalues not converged
     c_bands:  3 eigenvalues not converged
     c_bands:  3 eigenvalues not converged
     c_bands:  2 eigenvalues not converged
     c_bands:  1 eigenvalues not converged
     c_bands:  3 eigenvalues not converged
     c_bands:  5 eigenvalues not converged
     c_bands:  3 eigenvalues not converged
     c_bands:  3 eigenvalues not converged
     c_bands:  3 eigenvalues not converged
     c_bands:  4 eigenvalues not converged
     c_bands:  3 eigenvalues not converged
     c_bands:  3 eigenvalues not converged
     c_bands:  3 eigenvalues not converged
     c_bands:  2 eigenvalues not converged
     c_bands:  4 eigenvalues not converged
     c_bands:  3 eigenvalues not converged
     c_bands:  2 eigenvalues not converged
     c_bands:  3 eigenvalues not converged
     c_bands:  4 eigenvalues not converged
     c_bands:  2 eigenvalues not converged
     c_bands:  5 eigenvalues not converged
     c_bands:  1 eigenvalues not converged
     c_bands:  1 eigenvalues not converged
     c_bands:  3 eigenvalues not converged
     c_bands:  5 eigenvalues not converged
     c_bands:  1 eigenvalues not converged
     c_bands:  3 eigenvalues not converged
     c_bands:  4 eigenvalues not converged
     c_bands:  4 eigenvalues not converged
     c_bands:  1 eigenvalues not converged
     c_bands:  1 eigenvalues not converged
     c_bands:  5 eigenvalues not converged
     c_bands:  2 eigenvalues not converged
     c_bands:  3 eigenvalues not converged
     c_bands:  3 eigenvalues not converged
     c_bands:  1 eigenvalues not converged
     c_bands:  1 eigenvalues not converged
     c_bands:  2 eigenvalues not converged
     c_bands:  1 eigenvalues not converged
     c_bands:  1 eigenvalues not converged
     c_bands:  1 eigenvalues not converged
     c_bands:  4 eigenvalues not converged
     c_bands:  3 eigenvalues not converged
     c_bands:  2 eigenvalues not converged
     c_bands:  2 eigenvalues not converged
     c_bands:  3 eigenvalues not converged
     ethr =  1.00E-06,  avg # of iterations = 14.5

     total cpu time spent up to now is      759.4 secs

     total energy              =   -1049.98338163 Ry
     Harris-Foulkes estimate   =   -1051.58168144 Ry
     estimated scf accuracy    <       2.08839581 Ry

     iteration #  2     ecut=    40.00 Ry     beta=0.70
     CG style diagonalization
     ethr =  2.07E-03,  avg # of iterations =  3.8

     total cpu time spent up to now is      784.8 secs

     total energy              =   -1050.37740641 Ry
     Harris-Foulkes estimate   =   -1050.84329773 Ry
     estimated scf accuracy    <       0.73310343 Ry

     iteration #  3     ecut=    40.00 Ry     beta=0.70
     CG style diagonalization
     ethr =  7.26E-04,  avg # of iterations =  3.6

     total cpu time spent up to now is      809.1 secs

     total energy              =   -1050.38816511 Ry
     Harris-Foulkes estimate   =   -1050.99458010 Ry
     estimated scf accuracy    <       2.44126608 Ry

     iteration #  4     ecut=    40.00 Ry     beta=0.70
     CG style diagonalization
     ethr =  7.26E-04,  avg # of iterations =  3.3

     total cpu time spent up to now is      830.1 secs

     total energy              =   -1050.66472974 Ry
     Harris-Foulkes estimate   =   -1050.66836622 Ry
     estimated scf accuracy    <       0.00602583 Ry

     iteration #  5     ecut=    40.00 Ry     beta=0.70
     CG style diagonalization
     c_bands:  1 eigenvalues not converged
     ethr =  5.97E-06,  avg # of iterations =  4.6

     total cpu time spent up to now is      859.7 secs

     total energy              =   -1050.66847435 Ry
     Harris-Foulkes estimate   =   -1050.66957191 Ry
     estimated scf accuracy    <       0.00255944 Ry

     iteration #  6     ecut=    40.00 Ry     beta=0.70
     CG style diagonalization
     ethr =  2.53E-06,  avg # of iterations =  3.4

     total cpu time spent up to now is      882.6 secs

     total energy              =   -1050.66888381 Ry
     Harris-Foulkes estimate   =   -1050.66901106 Ry
     estimated scf accuracy    <       0.00033414 Ry

     iteration #  7     ecut=    40.00 Ry     beta=0.70
     CG style diagonalization
     ethr =  3.31E-07,  avg # of iterations =  3.3

     total cpu time spent up to now is      904.9 secs

     total energy              =   -1050.66894715 Ry
     Harris-Foulkes estimate   =   -1050.66894994 Ry
     estimated scf accuracy    <       0.00000481 Ry

     iteration #  8     ecut=    40.00 Ry     beta=0.70
     CG style diagonalization
     ethr =  4.76E-09,  avg # of iterations =  4.3

     total cpu time spent up to now is      932.6 secs

     total energy              =   -1050.66895049 Ry
     Harris-Foulkes estimate   =   -1050.66895080 Ry
     estimated scf accuracy    <       0.00000101 Ry

     iteration #  9     ecut=    40.00 Ry     beta=0.70
     CG style diagonalization
     ethr =  9.97E-10,  avg # of iterations =  3.2

     total cpu time spent up to now is      953.0 secs

     End of self-consistent calculation

     Number of k-points >= 100: set verbosity='high' to print the bands.

     the Fermi energy is    23.2910 ev

!    total energy              =   -1050.66895065 Ry
     Harris-Foulkes estimate   =   -1050.66895065 Ry
     estimated scf accuracy    <       0.00000001 Ry

     The total energy is the sum of the following terms:

     one-electron contribution =    -153.54330122 Ry
     hartree contribution      =     148.14110800 Ry
     xc contribution           =    -108.05717461 Ry
     ewald contribution        =    -936.79732750 Ry
     smearing contrib. (-TS)   =      -0.41225531 Ry

     convergence has been achieved in   9 iterations

     Forces acting on atoms (Ry/au):

     atom    1 type  1   force =     0.00000000    0.00000000    0.00000000
     atom    2 type  2   force =     0.00000000    0.00000000    0.00000000
     atom    3 type  2   force =     0.00000000    0.00000000    0.00000000
     atom    4 type  2   force =     0.00000000    0.00000000    0.00000000
     atom    5 type  2   force =     0.00000000    0.00000000    0.00000000
     atom    6 type  2   force =     0.00000000    0.00000000    0.00000000

     Total force =     0.000000     Total SCF correction =     0.000000


     entering subroutine stress ...

          total   stress  (Ry/bohr**3)                   (kbar)     P= -243.79
  -0.00161301   0.00000000   0.00000000       -237.28      0.00      0.00
   0.00000000  -0.00161301   0.00000000          0.00   -237.28      0.00
   0.00000000   0.00000000  -0.00174576          0.00      0.00   -256.81


     number of scf cycles    =   3
     number of bfgs steps    =   2

     enthalpy old            =   -1050.6731934983 Ry
     enthalpy new            =   -1050.6689506459 Ry

     CASE: enthalpy_new > enthalpy_old

     new trust radius        =       0.1544623737 bohr

     trust_radius < trust_radius_min

     resetting bfgs history

     Message from routine bfgs:
     history already reset at previous step: stopping
     new conv_thr            =       0.0000010000 Ry

     new unit-cell volume =    833.23492 a.u.^3 (   123.47267 Ang^3 )

CELL_PARAMETERS (alat=  9.64829493)
   1.078630545   0.000000000   0.000000000
  -0.539315272   0.934121453   0.000000000
   0.000000000   0.000000000   0.920745678

ATOMIC_POSITIONS (crystal)
Ca       0.000000000   0.000000000   0.000000000
Cu       0.333333000   0.666667000   0.000000000
Cu       0.666667000   0.333333000   0.000000000
Cu       0.500000000   0.000000000   0.500000000
Cu       0.500000000   0.500000000   0.500000000
Cu       0.000000000   0.500000000   0.500000000



     Writing output data file Prototype-La-hP6-CaCu5.save
     NEW-OLD atomic charge density approx. for the potential
     NEW k-points: (use verbosity='high' to print them)

     total cpu time spent up to now is      959.4 secs

     Self-consistent Calculation

     iteration #  1     ecut=    40.00 Ry     beta=0.70
     CG style diagonalization
     ethr =  1.00E-06,  avg # of iterations =  4.4

     total cpu time spent up to now is      986.2 secs

     total energy              =   -1050.66800632 Ry
     Harris-Foulkes estimate   =   -1050.66882307 Ry
     estimated scf accuracy    <       0.00115420 Ry

     iteration #  2     ecut=    40.00 Ry     beta=0.70
     CG style diagonalization
     ethr =  1.14E-06,  avg # of iterations =  3.8

     total cpu time spent up to now is     1010.5 secs

     total energy              =   -1050.66801043 Ry
     Harris-Foulkes estimate   =   -1050.66844131 Ry
     estimated scf accuracy    <       0.00069800 Ry

     iteration #  3     ecut=    40.00 Ry     beta=0.70
     CG style diagonalization
     ethr =  6.91E-07,  avg # of iterations =  3.4

     total cpu time spent up to now is     1033.8 secs

     total energy              =   -1050.66803110 Ry
     Harris-Foulkes estimate   =   -1050.66863066 Ry
     estimated scf accuracy    <       0.00249142 Ry

     iteration #  4     ecut=    40.00 Ry     beta=0.70
     CG style diagonalization
     ethr =  6.91E-07,  avg # of iterations =  3.3

     total cpu time spent up to now is     1056.0 secs

     total energy              =   -1050.66831494 Ry
     Harris-Foulkes estimate   =   -1050.66832781 Ry
     estimated scf accuracy    <       0.00002639 Ry

     iteration #  5     ecut=    40.00 Ry     beta=0.70
     CG style diagonalization
     ethr =  2.61E-08,  avg # of iterations =  3.5

     total cpu time spent up to now is     1079.3 secs

     End of self-consistent calculation

     Number of k-points >= 100: set verbosity='high' to print the bands.

     the Fermi energy is    23.2816 ev

!    total energy              =   -1050.66832192 Ry
     Harris-Foulkes estimate   =   -1050.66832235 Ry
     estimated scf accuracy    <       0.00000058 Ry

     The total energy is the sum of the following terms:

     one-electron contribution =    -153.61560455 Ry
     hartree contribution      =     148.14811441 Ry
     xc contribution           =    -108.05280504 Ry
     ewald contribution        =    -936.73601453 Ry
     smearing contrib. (-TS)   =      -0.41201221 Ry

     convergence has been achieved in   5 iterations

     Forces acting on atoms (Ry/au):

     atom    1 type  1   force =     0.00000000    0.00000000    0.00000000
     atom    2 type  2   force =     0.00000000    0.00000000    0.00000000
     atom    3 type  2   force =     0.00000000    0.00000000    0.00000000
     atom    4 type  2   force =     0.00000000    0.00000000    0.00000000
     atom    5 type  2   force =     0.00000000    0.00000000    0.00000000
     atom    6 type  2   force =     0.00000000    0.00000000    0.00000000

     Total force =     0.000000     Total SCF correction =     0.000000


     entering subroutine stress ...

          total   stress  (Ry/bohr**3)                   (kbar)     P= -245.67
  -0.00159820   0.00000000   0.00000000       -235.10      0.00      0.00
   0.00000000  -0.00159820   0.00000000          0.00   -235.10      0.00
   0.00000000   0.00000000  -0.00181359          0.00      0.00   -266.79


     The maximum number of steps has been reached.

     End of BFGS Geometry Optimization
Begin final coordinates
     new unit-cell volume =    833.23492 a.u.^3 (   123.47267 Ang^3 )

CELL_PARAMETERS (alat=  9.64829493)
   1.078630545   0.000000000   0.000000000
  -0.539315272   0.934121453   0.000000000
   0.000000000   0.000000000   0.920745678

ATOMIC_POSITIONS (crystal)
Ca       0.000000000   0.000000000   0.000000000
Cu       0.333333000   0.666667000   0.000000000
Cu       0.666667000   0.333333000   0.000000000
Cu       0.500000000   0.000000000   0.500000000
Cu       0.500000000   0.500000000   0.500000000
Cu       0.000000000   0.500000000   0.500000000
End final coordinates



     A final scf calculation at the relaxed structure.
     The G-vectors are recalculated for the final unit cell
     Results may differ from those at the preceding step.
 
     Parallelization info
     --------------------
     sticks:   dense  smooth     PW     G-vecs:    dense   smooth      PW
     Min         297     297     90                 7121     7121    1158
     Max         298     298     91                 7124     7124    1161
     Sum        1189    1189    361                28487    28487    4639
 


     bravais-lattice index     =            0
     lattice parameter (alat)  =       9.6483  a.u.
     unit-cell volume          =     833.2349 (a.u.)^3
     number of atoms/cell      =            6
     number of atomic types    =            2
     number of electrons       =       101.00
     number of Kohn-Sham states=           61
     kinetic-energy cutoff     =      40.0000  Ry
     charge density cutoff     =     160.0000  Ry
     convergence threshold     =      1.0E-06
     mixing beta               =       0.7000
     number of iterations used =            8  plain     mixing
     Exchange-correlation      = SLA-PZ-NOGX-NOGC ( 1 1 0 0 0)
     EXX-fraction              =        0.00

     celldm(1)=   9.648295  celldm(2)=   0.000000  celldm(3)=   0.000000
     celldm(4)=   0.000000  celldm(5)=   0.000000  celldm(6)=   0.000000

     crystal axes: (cart. coord. in units of alat)
               a(1) = (   1.078631   0.000000   0.000000 )  
               a(2) = (  -0.539315   0.934121   0.000000 )  
               a(3) = (   0.000000   0.000000   0.920746 )  

     reciprocal axes: (cart. coord. in units 2 pi/alat)
               b(1) = (  0.927102  0.535262  0.000000 )  
               b(2) = (  0.000000  1.070525  0.000000 )  
               b(3) = (  0.000000  0.000000  1.086076 )  


     PseudoPot. # 1 for Ho read from file:
     /home/cwx6513/pp.La/Ho.UPF
     MD5 check sum: f307ee11bce99f5b724fa279e3790763
     Pseudo is Norm-conserving, Zval = 21.0
     Generated in analytical, separable form
     Using radial grid of 1265 points,  6 beta functions with: 
                l(1) =   0
                l(2) =   0
                l(3) =   1
                l(4) =   1
                l(5) =   2
                l(6) =   3

     PseudoPot. # 2 for Sm read from file:
     /home/cwx6513/pp.La/Sm.UPF
     MD5 check sum: 5079e8b144a06bfcdbc14fb02b96ab09
     Pseudo is Norm-conserving, Zval = 16.0
     Generated in analytical, separable form
     Using radial grid of 1259 points,  6 beta functions with: 
                l(1) =   0
                l(2) =   0
                l(3) =   1
                l(4) =   1
                l(5) =   2
                l(6) =   3

     atomic species   valence    mass     pseudopotential
        Ca            21.00    40.07800     Ho( 1.00)
        Cu            16.00    63.54600     Sm( 1.00)

     24 Sym. Ops., with inversion, found



   Cartesian axes

     site n.     atom                  positions (alat units)
         1           Ca  tau(   1) = (   0.0000000   0.0000000   0.0000000  )
         2           Cu  tau(   2) = (  -0.0000005   0.6227479   0.0000000  )
         3           Cu  tau(   3) = (   0.5393158   0.3113735   0.0000000  )
         4           Cu  tau(   4) = (   0.5393153   0.0000000   0.4603728  )
         5           Cu  tau(   5) = (   0.2696576   0.4670607   0.4603728  )
         6           Cu  tau(   6) = (  -0.2696576   0.4670607   0.4603728  )

     number of k points=   110  gaussian smearing, width (Ry)=  0.1000

     Number of k-points >= 100: set verbosity='high' to print them.

     Dense  grid:    28487 G-vectors     FFT dimensions: (  45,  45,  36)

     Largest allocated arrays     est. size (Mb)     dimensions
        Kohn-Sham Wavefunctions         0.84 Mb     (    901,   61)
        NL pseudopotentials             1.65 Mb     (    901,  120)
        Each V/rho on FFT grid          0.28 Mb     (  18225)
        Each G-vector array             0.05 Mb     (   7124)
        G-vector shells                 0.01 Mb     (   1276)
     Largest temporary arrays     est. size (Mb)     dimensions
        Each subspace H/S matrix        0.06 Mb     (  61,  61)
        Each <psi_i|beta_j> matrix      0.11 Mb     (    120,   61)
        Arrays for rho mixing           2.22 Mb     (  18225,   8)

     Initial potential from superposition of free atoms

     Starting from uniform charge
     Starting wfc are    0 randomized atomic wfcs

     Writing output data file Prototype-La-hP6-CaCu5.save

     total cpu time spent up to now is     1092.6 secs

     Self-consistent Calculation

     iteration #  1     ecut=    40.00 Ry     beta=0.70
     CG style diagonalization
     c_bands:  2 eigenvalues not converged
     c_bands:  3 eigenvalues not converged
     c_bands:  2 eigenvalues not converged
     c_bands:  1 eigenvalues not converged
     c_bands:  2 eigenvalues not converged
     c_bands:  5 eigenvalues not converged
     c_bands:  5 eigenvalues not converged
     c_bands:  3 eigenvalues not converged
     c_bands:  2 eigenvalues not converged
     c_bands:  1 eigenvalues not converged
     c_bands:  3 eigenvalues not converged
     c_bands:  3 eigenvalues not converged
     c_bands:  3 eigenvalues not converged
     c_bands:  3 eigenvalues not converged
     c_bands:  3 eigenvalues not converged
     c_bands:  4 eigenvalues not converged
     c_bands:  4 eigenvalues not converged
     c_bands:  3 eigenvalues not converged
     c_bands:  1 eigenvalues not converged
     c_bands:  3 eigenvalues not converged
     c_bands:  4 eigenvalues not converged
     c_bands:  4 eigenvalues not converged
     c_bands:  4 eigenvalues not converged
     c_bands:  3 eigenvalues not converged
     c_bands:  4 eigenvalues not converged
     c_bands:  5 eigenvalues not converged
     c_bands:  4 eigenvalues not converged
     c_bands:  4 eigenvalues not converged
     c_bands:  2 eigenvalues not converged
     c_bands:  1 eigenvalues not converged
     c_bands:  3 eigenvalues not converged
     c_bands:  4 eigenvalues not converged
     c_bands:  4 eigenvalues not converged
     c_bands:  3 eigenvalues not converged
     c_bands:  5 eigenvalues not converged
     c_bands:  4 eigenvalues not converged
     c_bands:  5 eigenvalues not converged
     c_bands:  3 eigenvalues not converged
     c_bands:  3 eigenvalues not converged
     c_bands:  3 eigenvalues not converged
     c_bands:  3 eigenvalues not converged
     c_bands:  3 eigenvalues not converged
     c_bands:  4 eigenvalues not converged
     c_bands:  3 eigenvalues not converged
     c_bands:  5 eigenvalues not converged
     c_bands:  4 eigenvalues not converged
     c_bands:  2 eigenvalues not converged
     c_bands:  4 eigenvalues not converged
     c_bands:  2 eigenvalues not converged
     c_bands:  3 eigenvalues not converged
     c_bands:  4 eigenvalues not converged
     c_bands:  1 eigenvalues not converged
     c_bands:  2 eigenvalues not converged
     c_bands:  3 eigenvalues not converged
     c_bands:  2 eigenvalues not converged
     c_bands:  4 eigenvalues not converged
     c_bands:  2 eigenvalues not converged
     c_bands:  4 eigenvalues not converged
     c_bands:  5 eigenvalues not converged
     c_bands:  4 eigenvalues not converged
     c_bands:  4 eigenvalues not converged
     c_bands:  3 eigenvalues not converged
     c_bands:  5 eigenvalues not converged
     c_bands:  3 eigenvalues not converged
     c_bands:  1 eigenvalues not converged
     c_bands:  4 eigenvalues not converged
     c_bands:  2 eigenvalues not converged
     c_bands:  2 eigenvalues not converged
     c_bands:  1 eigenvalues not converged
     c_bands:  1 eigenvalues not converged
     c_bands:  4 eigenvalues not converged
     c_bands:  2 eigenvalues not converged
     c_bands:  5 eigenvalues not converged
     c_bands:  3 eigenvalues not converged
     c_bands:  5 eigenvalues not converged
     c_bands:  5 eigenvalues not converged
     c_bands:  4 eigenvalues not converged
     c_bands:  3 eigenvalues not converged
     c_bands:  3 eigenvalues not converged
     c_bands:  4 eigenvalues not converged
     c_bands:  2 eigenvalues not converged
     c_bands:  4 eigenvalues not converged
     c_bands:  2 eigenvalues not converged
     c_bands:  5 eigenvalues not converged
     c_bands:  3 eigenvalues not converged
     c_bands:  4 eigenvalues not converged
     c_bands:  5 eigenvalues not converged
     c_bands:  4 eigenvalues not converged
     c_bands:  4 eigenvalues not converged
     c_bands:  3 eigenvalues not converged
     c_bands:  4 eigenvalues not converged
     c_bands:  2 eigenvalues not converged
     c_bands:  5 eigenvalues not converged
     c_bands:  4 eigenvalues not converged
     c_bands:  4 eigenvalues not converged
     c_bands:  5 eigenvalues not converged
     c_bands:  4 eigenvalues not converged
     c_bands:  2 eigenvalues not converged
     c_bands:  5 eigenvalues not converged
     c_bands:  2 eigenvalues not converged
     c_bands:  5 eigenvalues not converged
     c_bands:  5 eigenvalues not converged
     c_bands:  4 eigenvalues not converged
     c_bands:  5 eigenvalues not converged
     c_bands:  2 eigenvalues not converged
     c_bands:  2 eigenvalues not converged
     c_bands:  5 eigenvalues not converged
     ethr =  1.00E-06,  avg # of iterations = 52.2

     total cpu time spent up to now is     1556.8 secs

     total energy              =    -827.62526238 Ry
     Harris-Foulkes estimate   =   -1282.75640367 Ry
     estimated scf accuracy    <     567.38007171 Ry

     iteration #  2     ecut=    40.00 Ry     beta=0.70
     CG style diagonalization
     c_bands:  3 eigenvalues not converged
     c_bands:  2 eigenvalues not converged
     c_bands:  1 eigenvalues not converged
     c_bands:  1 eigenvalues not converged
     c_bands:  1 eigenvalues not converged
     c_bands:  2 eigenvalues not converged
     c_bands:  1 eigenvalues not converged
     c_bands:  2 eigenvalues not converged
     c_bands:  4 eigenvalues not converged
     c_bands:  1 eigenvalues not converged
     c_bands:  1 eigenvalues not converged
     c_bands:  1 eigenvalues not converged
     c_bands:  3 eigenvalues not converged
     c_bands:  2 eigenvalues not converged
     c_bands:  2 eigenvalues not converged
     c_bands:  3 eigenvalues not converged
     c_bands:  1 eigenvalues not converged
     c_bands:  4 eigenvalues not converged
     c_bands:  4 eigenvalues not converged
     c_bands:  1 eigenvalues not converged
     c_bands:  1 eigenvalues not converged
     c_bands:  3 eigenvalues not converged
     c_bands:  3 eigenvalues not converged
     c_bands:  3 eigenvalues not converged
     c_bands:  2 eigenvalues not converged
     c_bands:  1 eigenvalues not converged
     c_bands:  2 eigenvalues not converged
     c_bands:  2 eigenvalues not converged
     c_bands:  2 eigenvalues not converged
     c_bands:  3 eigenvalues not converged
     c_bands:  1 eigenvalues not converged
     c_bands:  1 eigenvalues not converged
     c_bands:  4 eigenvalues not converged
     c_bands:  3 eigenvalues not converged
     c_bands:  3 eigenvalues not converged
     c_bands:  1 eigenvalues not converged
     c_bands:  2 eigenvalues not converged
     c_bands:  4 eigenvalues not converged
     c_bands:  2 eigenvalues not converged
     c_bands:  1 eigenvalues not converged
     c_bands:  2 eigenvalues not converged
     c_bands:  5 eigenvalues not converged
     c_bands:  1 eigenvalues not converged
     c_bands:  1 eigenvalues not converged
     c_bands:  2 eigenvalues not converged
     c_bands:  3 eigenvalues not converged
     c_bands:  2 eigenvalues not converged
     c_bands:  2 eigenvalues not converged
     c_bands:  3 eigenvalues not converged
     c_bands:  2 eigenvalues not converged
     c_bands:  2 eigenvalues not converged
     c_bands:  1 eigenvalues not converged
     c_bands:  1 eigenvalues not converged
     c_bands:  3 eigenvalues not converged
     c_bands:  5 eigenvalues not converged
     c_bands:  4 eigenvalues not converged
     c_bands:  2 eigenvalues not converged
     c_bands:  3 eigenvalues not converged
     c_bands:  1 eigenvalues not converged
     c_bands:  1 eigenvalues not converged
     c_bands:  4 eigenvalues not converged
     c_bands:  1 eigenvalues not converged
     c_bands:  2 eigenvalues not converged
     c_bands:  2 eigenvalues not converged
     c_bands:  1 eigenvalues not converged
     c_bands:  2 eigenvalues not converged
     c_bands:  1 eigenvalues not converged
     c_bands:  2 eigenvalues not converged
     c_bands:  4 eigenvalues not converged
     c_bands:  2 eigenvalues not converged
     c_bands:  1 eigenvalues not converged
     c_bands:  1 eigenvalues not converged
     c_bands:  5 eigenvalues not converged
     c_bands:  3 eigenvalues not converged
     c_bands:  1 eigenvalues not converged
     c_bands:  1 eigenvalues not converged
     c_bands:  3 eigenvalues not converged
     c_bands:  3 eigenvalues not converged
     c_bands:  3 eigenvalues not converged
     c_bands:  1 eigenvalues not converged
     c_bands:  1 eigenvalues not converged
     c_bands:  1 eigenvalues not converged
     c_bands:  2 eigenvalues not converged
     c_bands:  2 eigenvalues not converged
     c_bands:  4 eigenvalues not converged
     c_bands:  3 eigenvalues not converged
     c_bands:  1 eigenvalues not converged
     c_bands:  2 eigenvalues not converged
     c_bands:  5 eigenvalues not converged
     c_bands:  2 eigenvalues not converged
     c_bands:  1 eigenvalues not converged
     c_bands:  1 eigenvalues not converged
     c_bands:  1 eigenvalues not converged
     c_bands:  1 eigenvalues not converged
     c_bands:  1 eigenvalues not converged
     c_bands:  3 eigenvalues not converged
     ethr =  1.00E-02,  avg # of iterations =  8.5

     total cpu time spent up to now is     1635.2 secs

     total energy              =    -977.38817301 Ry
     Harris-Foulkes estimate   =   -1247.13159057 Ry
     estimated scf accuracy    <     462.07106510 Ry

     iteration #  3     ecut=    40.00 Ry     beta=0.70
     CG style diagonalization
     c_bands:  1 eigenvalues not converged
     c_bands:  1 eigenvalues not converged
     c_bands:  1 eigenvalues not converged
     c_bands:  1 eigenvalues not converged
     ethr =  1.00E-02,  avg # of iterations =  9.1

     total cpu time spent up to now is     1717.4 secs

     total energy              =   -1037.28612759 Ry
     Harris-Foulkes estimate   =   -1061.40999846 Ry
     estimated scf accuracy    <      40.01245548 Ry

     iteration #  4     ecut=    40.00 Ry     beta=0.70
     CG style diagonalization
     ethr =  1.00E-02,  avg # of iterations =  6.6

     total cpu time spent up to now is     1779.2 secs

     total energy              =   -1048.04791215 Ry
     Harris-Foulkes estimate   =   -1058.20034817 Ry
     estimated scf accuracy    <      33.79618823 Ry

     iteration #  5     ecut=    40.00 Ry     beta=0.70
     CG style diagonalization
     ethr =  1.00E-02,  avg # of iterations =  3.7

     total cpu time spent up to now is     1814.0 secs

     total energy              =   -1050.64962778 Ry
     Harris-Foulkes estimate   =   -1052.08339587 Ry
     estimated scf accuracy    <       2.61650386 Ry

     iteration #  6     ecut=    40.00 Ry     beta=0.70
     CG style diagonalization
     ethr =  2.59E-03,  avg # of iterations =  3.8

     total cpu time spent up to now is     1849.2 secs

     total energy              =   -1051.35235270 Ry
     Harris-Foulkes estimate   =   -1051.47672401 Ry
     estimated scf accuracy    <       0.35973671 Ry

     iteration #  7     ecut=    40.00 Ry     beta=0.70
     CG style diagonalization
     c_bands:  1 eigenvalues not converged
     c_bands:  1 eigenvalues not converged
     ethr =  3.56E-04,  avg # of iterations =  3.6

     total cpu time spent up to now is     1881.2 secs

     total energy              =   -1051.43402004 Ry
     Harris-Foulkes estimate   =   -1051.44185320 Ry
     estimated scf accuracy    <       0.01871556 Ry

     iteration #  8     ecut=    40.00 Ry     beta=0.70
     CG style diagonalization
     c_bands:  1 eigenvalues not converged
     c_bands:  1 eigenvalues not converged
     c_bands:  1 eigenvalues not converged
     c_bands:  1 eigenvalues not converged
     c_bands:  1 eigenvalues not converged
     c_bands:  2 eigenvalues not converged
     ethr =  1.85E-05,  avg # of iterations =  4.4

     total cpu time spent up to now is     1919.7 secs

     total energy              =   -1051.43991876 Ry
     Harris-Foulkes estimate   =   -1051.44226404 Ry
     estimated scf accuracy    <       0.00695085 Ry

     iteration #  9     ecut=    40.00 Ry     beta=0.70
     CG style diagonalization
     ethr =  6.88E-06,  avg # of iterations =  3.3

     total cpu time spent up to now is     1948.4 secs

     total energy              =   -1051.44108430 Ry
     Harris-Foulkes estimate   =   -1051.44113536 Ry
     estimated scf accuracy    <       0.00009484 Ry

     iteration # 10     ecut=    40.00 Ry     beta=0.70
     CG style diagonalization
     c_bands:  1 eigenvalues not converged
     ethr =  9.39E-08,  avg # of iterations =  4.9

     total cpu time spent up to now is     1992.0 secs

     total energy              =   -1051.44120585 Ry
     Harris-Foulkes estimate   =   -1051.44125118 Ry
     estimated scf accuracy    <       0.00014553 Ry

     iteration # 11     ecut=    40.00 Ry     beta=0.70
     CG style diagonalization
     ethr =  9.39E-08,  avg # of iterations =  3.3

     total cpu time spent up to now is     2022.0 secs

     total energy              =   -1051.44122759 Ry
     Harris-Foulkes estimate   =   -1051.44122920 Ry
     estimated scf accuracy    <       0.00000425 Ry

     iteration # 12     ecut=    40.00 Ry     beta=0.70
     CG style diagonalization
     ethr =  4.21E-09,  avg # of iterations =  3.8

     total cpu time spent up to now is     2054.6 secs

     End of self-consistent calculation

     Number of k-points >= 100: set verbosity='high' to print the bands.

     the Fermi energy is    23.2568 ev

!    total energy              =   -1051.44122824 Ry
     Harris-Foulkes estimate   =   -1051.44122879 Ry
     estimated scf accuracy    <       0.00000060 Ry

     The total energy is the sum of the following terms:

     one-electron contribution =    -154.71546695 Ry
     hartree contribution      =     148.56905539 Ry
     xc contribution           =    -108.14626549 Ry
     ewald contribution        =    -936.73601383 Ry
     smearing contrib. (-TS)   =      -0.41253737 Ry

     convergence has been achieved in  12 iterations

     Forces acting on atoms (Ry/au):

     atom    1 type  1   force =     0.00000000    0.00000000    0.00000000
     atom    2 type  2   force =     0.00000000    0.00000000    0.00000000
     atom    3 type  2   force =     0.00000000    0.00000000    0.00000000
     atom    4 type  2   force =     0.00000000    0.00000000    0.00000000
     atom    5 type  2   force =     0.00000000    0.00000000    0.00000000
     atom    6 type  2   force =     0.00000000    0.00000000    0.00000000

     Total force =     0.000000     Total SCF correction =     0.000000


     entering subroutine stress ...

          total   stress  (Ry/bohr**3)                   (kbar)     P=   94.48
   0.00033511   0.00000000   0.00000000         49.30      0.00      0.00
   0.00000000   0.00033511   0.00000000          0.00     49.30      0.00
   0.00000000   0.00000000   0.00125655          0.00      0.00    184.84


     Writing output data file Prototype-La-hP6-CaCu5.save
 
     init_run     :      9.74s CPU     12.90s WALL (       2 calls)
     electrons    :   1641.83s CPU   2016.47s WALL (       5 calls)
     update_pot   :      1.52s CPU      1.57s WALL (       3 calls)
     forces       :      6.68s CPU      7.12s WALL (       5 calls)
     stress       :     18.10s CPU     18.66s WALL (       5 calls)

     Called by init_run:
     wfcinit      :      9.07s CPU     12.22s WALL (       2 calls)
     potinit      :      0.27s CPU      0.27s WALL (       2 calls)

     Called by electrons:
     c_bands      :   1583.58s CPU   1916.58s WALL (      42 calls)
     sum_band     :     57.90s CPU     80.01s WALL (      42 calls)
     v_of_rho     :      0.06s CPU      0.07s WALL (      47 calls)
     mix_rho      :      0.05s CPU      0.07s WALL (      42 calls)

     Called by c_bands:
     init_us_2    :      5.72s CPU      7.35s WALL (   10560 calls)
     ccgdiagg     :   1409.79s CPU   1680.72s WALL (    5086 calls)
     wfcrot       :    177.05s CPU    238.59s WALL (    5196 calls)

     Called by *cgdiagg:
     h_psi        :   1147.13s CPU   1443.42s WALL ( 1517036 calls)
     cdiaghg      :     10.88s CPU     11.40s WALL (    5196 calls)

     Called by h_psi:
     add_vuspsi   :     79.88s CPU    123.03s WALL ( 1517036 calls)

     General routines
     calbec       :    340.91s CPU    363.78s WALL ( 3029976 calls)
     fft          :      0.09s CPU      0.10s WALL (     211 calls)
     fftw         :    818.08s CPU   1017.31s WALL ( 3939412 calls)
     davcio       :      3.77s CPU      7.77s WALL (   15180 calls)
 
     Parallel routines
     fft_scatter  :    389.93s CPU    470.20s WALL ( 3939623 calls)
 
     PWSCF        : 27m58.90s CPU    34m21.61s WALL

 
   This run was terminated on:   1:33: 7  23Mar2018            

=------------------------------------------------------------------------------=
   JOB DONE.
=------------------------------------------------------------------------------=
