
     Program PWSCF v.5.0.2 starts on 22Mar2018 at 18:45:39 

     This program is part of the open-source Quantum ESPRESSO suite
     for quantum simulation of materials; please cite
         "P. Giannozzi et al., J. Phys.:Condens. Matter 21 395502 (2009);
          URL http://www.quantum-espresso.org", 
     in publications or presentations arising from this work. More details at
     http://www.quantum-espresso.org/quote.php

     Parallel version (MPI), running on     4 processors
     R & G space division:  proc/nbgrp/npool/nimage =       4

     Current dimensions of program PWSCF are:
     Max number of different atomic species (ntypx) = 10
     Max number of k-points (npk) =  40000
     Max angular momentum in pseudopotentials (lmaxx) =  3
     Waiting for input...
     Reading input from standard input

     Subspace diagonalization in iterative solution of the eigenvalue problem:
     a serial algorithm will be used

 
     Parallelization info
     --------------------
     sticks:   dense  smooth     PW     G-vecs:    dense   smooth      PW
     Min         164     164     48                 3132     3132     524
     Max         165     165     49                 3135     3135     527
     Sum         657     657    193                12533    12533    2103
 


     bravais-lattice index     =            0
     lattice parameter (alat)  =       7.1317  a.u.
     unit-cell volume          =     362.7211 (a.u.)^3
     number of atoms/cell      =            4
     number of atomic types    =            2
     number of electrons       =        67.00
     number of Kohn-Sham states=           41
     kinetic-energy cutoff     =      40.0000  Ry
     charge density cutoff     =     160.0000  Ry
     convergence threshold     =      1.0E-04
     mixing beta               =       0.7000
     number of iterations used =            8  plain     mixing
     Exchange-correlation      = SLA-PZ-NOGX-NOGC ( 1 1 0 0 0)
     EXX-fraction              =        0.00
     nstep                     =           50


     celldm(1)=   7.131665  celldm(2)=   0.000000  celldm(3)=   0.000000
     celldm(4)=   0.000000  celldm(5)=   0.000000  celldm(6)=   0.000000

     crystal axes: (cart. coord. in units of alat)
               a(1) = (   1.000000   0.000000   0.000000 )  
               a(2) = (   0.000000   1.000000   0.000000 )  
               a(3) = (   0.000000   0.000000   1.000000 )  

     reciprocal axes: (cart. coord. in units 2 pi/alat)
               b(1) = (  1.000000  0.000000  0.000000 )  
               b(2) = (  0.000000  1.000000  0.000000 )  
               b(3) = (  0.000000  0.000000  1.000000 )  


     PseudoPot. # 1 for Sm read from file:
     /home/cwx6513/pp.La/Sm.UPF
     MD5 check sum: 5079e8b144a06bfcdbc14fb02b96ab09
     Pseudo is Norm-conserving, Zval = 16.0
     Generated in analytical, separable form
     Using radial grid of 1259 points,  6 beta functions with: 
                l(1) =   0
                l(2) =   0
                l(3) =   1
                l(4) =   1
                l(5) =   2
                l(6) =   3

     PseudoPot. # 2 for Tb read from file:
     /home/cwx6513/pp.La/Tb.UPF
     MD5 check sum: 3d6088a3f0cf7fd2e110c43f7f8e95c2
     Pseudo is Norm-conserving, Zval = 19.0
     Generated in analytical, separable form
     Using radial grid of 1263 points,  6 beta functions with: 
                l(1) =   0
                l(2) =   0
                l(3) =   1
                l(4) =   1
                l(5) =   2
                l(6) =   3

     atomic species   valence    mass     pseudopotential
        Cu            16.00    63.54600     Sm( 1.00)
        Au            19.00   196.96600     Tb( 1.00)

     48 Sym. Ops., with inversion, found



   Cartesian axes

     site n.     atom                  positions (alat units)
         1           Cu  tau(   1) = (   0.0000000   0.5000000   0.5000000  )
         2           Cu  tau(   2) = (   0.5000000   0.5000000   0.0000000  )
         3           Cu  tau(   3) = (   0.5000000   0.0000000   0.5000000  )
         4           Au  tau(   4) = (   0.0000000   0.0000000   0.0000000  )

     number of k points=   100  gaussian smearing, width (Ry)=  0.1000

     Number of k-points >= 100: set verbosity='high' to print them.

     Dense  grid:    12533 G-vectors     FFT dimensions: (  30,  30,  30)

     Largest allocated arrays     est. size (Mb)     dimensions
        Kohn-Sham Wavefunctions         0.25 Mb     (    400,   41)
        NL pseudopotentials             0.49 Mb     (    400,   80)
        Each V/rho on FFT grid          0.11 Mb     (   7200)
        Each G-vector array             0.02 Mb     (   3134)
        G-vector shells                 0.02 Mb     (   3134)
     Largest temporary arrays     est. size (Mb)     dimensions
        Each subspace H/S matrix        0.03 Mb     (  41,  41)
        Each <psi_i|beta_j> matrix      0.05 Mb     (     80,   41)
        Arrays for rho mixing           0.88 Mb     (   7200,   8)

     Initial potential from superposition of free atoms

     Starting from uniform charge
     Starting wfc are    0 randomized atomic wfcs

     total cpu time spent up to now is        2.0 secs

     Self-consistent Calculation

     iteration #  1     ecut=    40.00 Ry     beta=0.70
     CG style diagonalization
     c_bands:  3 eigenvalues not converged
     c_bands:  2 eigenvalues not converged
     c_bands:  1 eigenvalues not converged
     c_bands:  1 eigenvalues not converged
     c_bands:  1 eigenvalues not converged
     c_bands:  1 eigenvalues not converged
     c_bands:  1 eigenvalues not converged
     c_bands:  2 eigenvalues not converged
     c_bands:  1 eigenvalues not converged
     c_bands:  1 eigenvalues not converged
     c_bands:  2 eigenvalues not converged
     c_bands:  2 eigenvalues not converged
     c_bands:  1 eigenvalues not converged
     c_bands:  1 eigenvalues not converged
     c_bands:  1 eigenvalues not converged
     c_bands:  2 eigenvalues not converged
     c_bands:  2 eigenvalues not converged
     c_bands:  1 eigenvalues not converged
     c_bands:  2 eigenvalues not converged
     c_bands:  1 eigenvalues not converged
     c_bands:  2 eigenvalues not converged
     c_bands:  1 eigenvalues not converged
     c_bands:  1 eigenvalues not converged
     c_bands:  1 eigenvalues not converged
     c_bands:  2 eigenvalues not converged
     c_bands:  1 eigenvalues not converged
     c_bands:  1 eigenvalues not converged
     c_bands:  2 eigenvalues not converged
     c_bands:  1 eigenvalues not converged
     c_bands:  1 eigenvalues not converged
     c_bands:  1 eigenvalues not converged
     c_bands:  2 eigenvalues not converged
     c_bands:  1 eigenvalues not converged
     c_bands:  1 eigenvalues not converged
     c_bands:  2 eigenvalues not converged
     c_bands:  2 eigenvalues not converged
     c_bands:  1 eigenvalues not converged
     c_bands:  1 eigenvalues not converged
     c_bands:  1 eigenvalues not converged
     c_bands:  2 eigenvalues not converged
     c_bands:  1 eigenvalues not converged
     c_bands:  2 eigenvalues not converged
     c_bands:  2 eigenvalues not converged
     c_bands:  1 eigenvalues not converged
     c_bands:  1 eigenvalues not converged
     c_bands:  1 eigenvalues not converged
     c_bands:  2 eigenvalues not converged
     c_bands:  1 eigenvalues not converged
     c_bands:  1 eigenvalues not converged
     c_bands:  1 eigenvalues not converged
     ethr =  1.00E-02,  avg # of iterations = 10.7

     total cpu time spent up to now is       20.5 secs

     total energy              =    -509.95689989 Ry
     Harris-Foulkes estimate   =    -763.07845190 Ry
     estimated scf accuracy    <     314.46248958 Ry

     iteration #  2     ecut=    40.00 Ry     beta=0.70
     CG style diagonalization
     c_bands:  1 eigenvalues not converged
     c_bands:  1 eigenvalues not converged
     c_bands:  2 eigenvalues not converged
     c_bands:  3 eigenvalues not converged
     c_bands:  1 eigenvalues not converged
     c_bands:  1 eigenvalues not converged
     c_bands:  4 eigenvalues not converged
     c_bands:  4 eigenvalues not converged
     c_bands:  1 eigenvalues not converged
     c_bands:  1 eigenvalues not converged
     c_bands:  3 eigenvalues not converged
     c_bands:  3 eigenvalues not converged
     c_bands:  3 eigenvalues not converged
     c_bands:  4 eigenvalues not converged
     c_bands:  5 eigenvalues not converged
     c_bands:  3 eigenvalues not converged
     c_bands:  4 eigenvalues not converged
     c_bands:  3 eigenvalues not converged
     c_bands:  2 eigenvalues not converged
     c_bands:  3 eigenvalues not converged
     c_bands:  1 eigenvalues not converged
     c_bands:  4 eigenvalues not converged
     c_bands:  1 eigenvalues not converged
     c_bands:  2 eigenvalues not converged
     c_bands:  1 eigenvalues not converged
     c_bands:  5 eigenvalues not converged
     c_bands:  3 eigenvalues not converged
     c_bands:  3 eigenvalues not converged
     c_bands:  3 eigenvalues not converged
     c_bands:  2 eigenvalues not converged
     c_bands:  3 eigenvalues not converged
     c_bands:  3 eigenvalues not converged
     c_bands:  2 eigenvalues not converged
     c_bands:  2 eigenvalues not converged
     c_bands:  4 eigenvalues not converged
     c_bands:  2 eigenvalues not converged
     c_bands:  3 eigenvalues not converged
     c_bands:  3 eigenvalues not converged
     c_bands:  5 eigenvalues not converged
     c_bands:  5 eigenvalues not converged
     c_bands:  1 eigenvalues not converged
     c_bands:  2 eigenvalues not converged
     c_bands:  3 eigenvalues not converged
     c_bands:  3 eigenvalues not converged
     c_bands:  3 eigenvalues not converged
     c_bands:  4 eigenvalues not converged
     c_bands:  3 eigenvalues not converged
     c_bands:  4 eigenvalues not converged
     c_bands:  2 eigenvalues not converged
     c_bands:  2 eigenvalues not converged
     c_bands:  2 eigenvalues not converged
     c_bands:  1 eigenvalues not converged
     c_bands:  5 eigenvalues not converged
     c_bands:  4 eigenvalues not converged
     c_bands:  4 eigenvalues not converged
     c_bands:  1 eigenvalues not converged
     c_bands:  1 eigenvalues not converged
     c_bands:  3 eigenvalues not converged
     c_bands:  2 eigenvalues not converged
     c_bands:  3 eigenvalues not converged
     c_bands:  2 eigenvalues not converged
     c_bands:  4 eigenvalues not converged
     c_bands:  4 eigenvalues not converged
     c_bands:  1 eigenvalues not converged
     c_bands:  3 eigenvalues not converged
     c_bands:  3 eigenvalues not converged
     c_bands:  2 eigenvalues not converged
     c_bands:  3 eigenvalues not converged
     c_bands:  2 eigenvalues not converged
     c_bands:  3 eigenvalues not converged
     c_bands:  5 eigenvalues not converged
     c_bands:  3 eigenvalues not converged
     c_bands:  2 eigenvalues not converged
     c_bands:  3 eigenvalues not converged
     c_bands:  2 eigenvalues not converged
     c_bands:  5 eigenvalues not converged
     c_bands:  5 eigenvalues not converged
     c_bands:  2 eigenvalues not converged
     c_bands:  3 eigenvalues not converged
     c_bands:  2 eigenvalues not converged
     c_bands:  3 eigenvalues not converged
     c_bands:  1 eigenvalues not converged
     c_bands:  1 eigenvalues not converged
     c_bands:  4 eigenvalues not converged
     c_bands:  1 eigenvalues not converged
     c_bands:  2 eigenvalues not converged
     c_bands:  3 eigenvalues not converged
     c_bands:  2 eigenvalues not converged
     c_bands:  2 eigenvalues not converged
     ethr =  1.00E-02,  avg # of iterations = 11.2

     total cpu time spent up to now is       39.0 secs

     total energy              =    -642.44230383 Ry
     Harris-Foulkes estimate   =    -838.56149331 Ry
     estimated scf accuracy    <     368.17031310 Ry

     iteration #  3     ecut=    40.00 Ry     beta=0.70
     CG style diagonalization
     c_bands:  1 eigenvalues not converged
     ethr =  1.00E-02,  avg # of iterations =  9.1

     total cpu time spent up to now is       53.6 secs

     total energy              =    -681.06750046 Ry
     Harris-Foulkes estimate   =    -689.51243783 Ry
     estimated scf accuracy    <      16.45507057 Ry

     iteration #  4     ecut=    40.00 Ry     beta=0.70
     CG style diagonalization
     ethr =  1.00E-02,  avg # of iterations =  3.6

     total cpu time spent up to now is       59.3 secs

     total energy              =    -682.22327355 Ry
     Harris-Foulkes estimate   =    -683.33870572 Ry
     estimated scf accuracy    <       2.15266598 Ry

     iteration #  5     ecut=    40.00 Ry     beta=0.70
     CG style diagonalization
     ethr =  3.21E-03,  avg # of iterations =  3.8

     total cpu time spent up to now is       65.4 secs

     total energy              =    -682.90783288 Ry
     Harris-Foulkes estimate   =    -683.06019452 Ry
     estimated scf accuracy    <       0.23758295 Ry

     iteration #  6     ecut=    40.00 Ry     beta=0.70
     CG style diagonalization
     c_bands:  1 eigenvalues not converged
     ethr =  3.55E-04,  avg # of iterations =  4.1

     total cpu time spent up to now is       71.9 secs

     total energy              =    -682.98947474 Ry
     Harris-Foulkes estimate   =    -683.00738568 Ry
     estimated scf accuracy    <       0.03902432 Ry

     iteration #  7     ecut=    40.00 Ry     beta=0.70
     CG style diagonalization
     c_bands:  1 eigenvalues not converged
     c_bands:  1 eigenvalues not converged
     c_bands:  1 eigenvalues not converged
     ethr =  5.82E-05,  avg # of iterations =  3.7

     total cpu time spent up to now is       78.1 secs

     total energy              =    -682.99703474 Ry
     Harris-Foulkes estimate   =    -682.99745372 Ry
     estimated scf accuracy    <       0.00074719 Ry

     iteration #  8     ecut=    40.00 Ry     beta=0.70
     CG style diagonalization
     c_bands:  1 eigenvalues not converged
     c_bands:  1 eigenvalues not converged
     c_bands:  1 eigenvalues not converged
     c_bands:  1 eigenvalues not converged
     c_bands:  1 eigenvalues not converged
     c_bands:  1 eigenvalues not converged
     c_bands:  1 eigenvalues not converged
     ethr =  1.12E-06,  avg # of iterations =  5.4

     total cpu time spent up to now is       86.7 secs

     total energy              =    -682.99799585 Ry
     Harris-Foulkes estimate   =    -682.99808925 Ry
     estimated scf accuracy    <       0.00020706 Ry

     iteration #  9     ecut=    40.00 Ry     beta=0.70
     CG style diagonalization
     c_bands:  1 eigenvalues not converged
     c_bands:  1 eigenvalues not converged
     ethr =  3.09E-07,  avg # of iterations =  3.4

     total cpu time spent up to now is       92.2 secs

     End of self-consistent calculation

     Number of k-points >= 100: set verbosity='high' to print the bands.

     the Fermi energy is    37.9034 ev

!    total energy              =    -682.99802539 Ry
     Harris-Foulkes estimate   =    -682.99803106 Ry
     estimated scf accuracy    <       0.00000662 Ry

     The total energy is the sum of the following terms:

     one-electron contribution =      64.49415380 Ry
     hartree contribution      =      50.19715221 Ry
     xc contribution           =     -73.90418627 Ry
     ewald contribution        =    -723.61521489 Ry
     smearing contrib. (-TS)   =      -0.16993025 Ry

     convergence has been achieved in   9 iterations

     Forces acting on atoms (Ry/au):

     atom    1 type  1   force =     0.00000000    0.00000000    0.00000000
     atom    2 type  1   force =     0.00000000    0.00000000    0.00000000
     atom    3 type  1   force =     0.00000000    0.00000000    0.00000000
     atom    4 type  2   force =     0.00000000    0.00000000    0.00000000

     Total force =     0.000000     Total SCF correction =     0.000000


     entering subroutine stress ...

          total   stress  (Ry/bohr**3)                   (kbar)     P= 2252.39
   0.01531146   0.00000000   0.00000000       2252.39      0.00      0.00
   0.00000000   0.01531146   0.00000000          0.00   2252.39      0.00
   0.00000000   0.00000000   0.01531146          0.00      0.00   2252.39


     BFGS Geometry Optimization

     number of scf cycles    =   1
     number of bfgs steps    =   0

     enthalpy new            =    -682.9980253947 Ry

     new trust radius        =       0.5000000000 bohr
     new conv_thr            =       0.0001000000 Ry

     new unit-cell volume =    525.13076 a.u.^3 (    77.81635 Ang^3 )

CELL_PARAMETERS (alat=  7.13166486)
   1.131266415   0.000000000   0.000000000
   0.000000000   1.131266415   0.000000000
   0.000000000   0.000000000   1.131266415

ATOMIC_POSITIONS (crystal)
Cu       0.000000000   0.500000000   0.500000000
Cu       0.500000000   0.500000000   0.000000000
Cu       0.500000000   0.000000000   0.500000000
Au       0.000000000   0.000000000   0.000000000



     Writing output data file Prototype-La-cP4-Cu3Au.save
     NEW-OLD atomic charge density approx. for the potential
     NEW k-points: (use verbosity='high' to print them)

     total cpu time spent up to now is       94.9 secs

     Self-consistent Calculation

     iteration #  1     ecut=    40.00 Ry     beta=0.70
     CG style diagonalization
     c_bands:  5 eigenvalues not converged
     c_bands:  1 eigenvalues not converged
     c_bands:  4 eigenvalues not converged
     c_bands:  4 eigenvalues not converged
     c_bands:  5 eigenvalues not converged
     c_bands:  4 eigenvalues not converged
     c_bands:  1 eigenvalues not converged
     c_bands:  3 eigenvalues not converged
     c_bands:  5 eigenvalues not converged
     c_bands:  3 eigenvalues not converged
     c_bands:  5 eigenvalues not converged
     c_bands:  4 eigenvalues not converged
     c_bands:  5 eigenvalues not converged
     c_bands:  5 eigenvalues not converged
     c_bands:  5 eigenvalues not converged
     c_bands:  4 eigenvalues not converged
     c_bands:  2 eigenvalues not converged
     ethr =  1.00E-06,  avg # of iterations = 18.9

     total cpu time spent up to now is      124.7 secs

     total energy              =    -675.83166558 Ry
     Harris-Foulkes estimate   =    -692.98329142 Ry
     estimated scf accuracy    <      22.41823512 Ry

     iteration #  2     ecut=    40.00 Ry     beta=0.70
     CG style diagonalization
     ethr =  1.00E-02,  avg # of iterations =  4.1

     total cpu time spent up to now is      132.3 secs

     total energy              =    -682.21904618 Ry
     Harris-Foulkes estimate   =    -685.07184951 Ry
     estimated scf accuracy    <       4.58177029 Ry

     iteration #  3     ecut=    40.00 Ry     beta=0.70
     CG style diagonalization
     ethr =  6.84E-03,  avg # of iterations =  3.5

     total cpu time spent up to now is      140.9 secs

     total energy              =    -683.37577544 Ry
     Harris-Foulkes estimate   =    -683.84547153 Ry
     estimated scf accuracy    <       1.20745673 Ry

     iteration #  4     ecut=    40.00 Ry     beta=0.70
     CG style diagonalization
     ethr =  1.80E-03,  avg # of iterations =  3.2

     total cpu time spent up to now is      146.6 secs

     total energy              =    -683.46415997 Ry
     Harris-Foulkes estimate   =    -683.51548571 Ry
     estimated scf accuracy    <       0.10763600 Ry

     iteration #  5     ecut=    40.00 Ry     beta=0.70
     CG style diagonalization
     ethr =  1.61E-04,  avg # of iterations =  3.8

     total cpu time spent up to now is      153.2 secs

     total energy              =    -683.49987134 Ry
     Harris-Foulkes estimate   =    -683.50317785 Ry
     estimated scf accuracy    <       0.00951083 Ry

     iteration #  6     ecut=    40.00 Ry     beta=0.70
     CG style diagonalization
     ethr =  1.42E-05,  avg # of iterations =  3.6

     total cpu time spent up to now is      158.8 secs

     total energy              =    -683.49923128 Ry
     Harris-Foulkes estimate   =    -683.50128165 Ry
     estimated scf accuracy    <       0.00353526 Ry

     iteration #  7     ecut=    40.00 Ry     beta=0.70
     CG style diagonalization
     ethr =  5.28E-06,  avg # of iterations =  3.6

     total cpu time spent up to now is      165.0 secs

     total energy              =    -683.50039100 Ry
     Harris-Foulkes estimate   =    -683.50073906 Ry
     estimated scf accuracy    <       0.00089238 Ry

     iteration #  8     ecut=    40.00 Ry     beta=0.70
     CG style diagonalization
     ethr =  1.33E-06,  avg # of iterations =  3.2

     total cpu time spent up to now is      169.9 secs

     End of self-consistent calculation

     Number of k-points >= 100: set verbosity='high' to print the bands.

     the Fermi energy is    24.3552 ev

!    total energy              =    -683.50048588 Ry
     Harris-Foulkes estimate   =    -683.50051599 Ry
     estimated scf accuracy    <       0.00003214 Ry

     The total energy is the sum of the following terms:

     one-electron contribution =     -49.48251035 Ry
     hartree contribution      =      76.95714826 Ry
     xc contribution           =     -71.05007583 Ry
     ewald contribution        =    -639.65057886 Ry
     smearing contrib. (-TS)   =      -0.27446910 Ry

     convergence has been achieved in   8 iterations

     Forces acting on atoms (Ry/au):

     atom    1 type  1   force =     0.00000000    0.00000000    0.00000000
     atom    2 type  1   force =     0.00000000    0.00000000    0.00000000
     atom    3 type  1   force =     0.00000000    0.00000000    0.00000000
     atom    4 type  2   force =     0.00000000    0.00000000    0.00000000

     Total force =     0.000000     Total SCF correction =     0.000000


     entering subroutine stress ...

          total   stress  (Ry/bohr**3)                   (kbar)     P= -591.33
  -0.00401979   0.00000000   0.00000000       -591.33      0.00      0.00
   0.00000000  -0.00401979   0.00000000          0.00   -591.33      0.00
   0.00000000   0.00000000  -0.00401979          0.00      0.00   -591.33


     number of scf cycles    =   2
     number of bfgs steps    =   1

     enthalpy old            =    -682.9980253947 Ry
     enthalpy new            =    -683.5004858767 Ry

     CASE: enthalpy_new < enthalpy_old

     small trust_radius: resetting bfgs history

     new trust radius        =       0.4605826246 bohr
     new conv_thr            =       0.0000010000 Ry

     new unit-cell volume =    382.18920 a.u.^3 (    56.63460 Ang^3 )

CELL_PARAMETERS (alat=  7.13166486)
   1.017579960   0.000000000   0.000000000
   0.000000000   1.017579960   0.000000000
   0.000000000   0.000000000   1.017579960

ATOMIC_POSITIONS (crystal)
Cu       0.000000000   0.500000000   0.500000000
Cu       0.500000000   0.500000000   0.000000000
Cu       0.500000000   0.000000000   0.500000000
Au       0.000000000   0.000000000   0.000000000



     Writing output data file Prototype-La-cP4-Cu3Au.save
     NEW-OLD atomic charge density approx. for the potential
     NEW k-points: (use verbosity='high' to print them)

     total cpu time spent up to now is      171.8 secs

     Self-consistent Calculation

     iteration #  1     ecut=    40.00 Ry     beta=0.70
     CG style diagonalization
     c_bands:  2 eigenvalues not converged
     c_bands:  2 eigenvalues not converged
     c_bands:  1 eigenvalues not converged
     c_bands:  1 eigenvalues not converged
     c_bands:  1 eigenvalues not converged
     c_bands:  1 eigenvalues not converged
     c_bands:  4 eigenvalues not converged
     c_bands:  1 eigenvalues not converged
     c_bands:  1 eigenvalues not converged
     c_bands:  4 eigenvalues not converged
     c_bands:  2 eigenvalues not converged
     c_bands:  4 eigenvalues not converged
     c_bands:  1 eigenvalues not converged
     c_bands:  1 eigenvalues not converged
     c_bands:  1 eigenvalues not converged
     c_bands:  1 eigenvalues not converged
     c_bands:  1 eigenvalues not converged
     c_bands:  1 eigenvalues not converged
     c_bands:  1 eigenvalues not converged
     c_bands:  1 eigenvalues not converged
     c_bands:  3 eigenvalues not converged
     c_bands:  5 eigenvalues not converged
     c_bands:  2 eigenvalues not converged
     c_bands:  4 eigenvalues not converged
     c_bands:  1 eigenvalues not converged
     c_bands:  1 eigenvalues not converged
     c_bands:  1 eigenvalues not converged
     c_bands:  4 eigenvalues not converged
     c_bands:  1 eigenvalues not converged
     c_bands:  1 eigenvalues not converged
     c_bands:  1 eigenvalues not converged
     c_bands:  1 eigenvalues not converged
     c_bands:  1 eigenvalues not converged
     c_bands:  1 eigenvalues not converged
     c_bands:  1 eigenvalues not converged
     c_bands:  2 eigenvalues not converged
     c_bands:  1 eigenvalues not converged
     ethr =  1.00E-06,  avg # of iterations = 19.4

     total cpu time spent up to now is      201.3 secs

     total energy              =    -678.90515045 Ry
     Harris-Foulkes estimate   =    -690.15957127 Ry
     estimated scf accuracy    <      14.42467270 Ry

     iteration #  2     ecut=    40.00 Ry     beta=0.70
     CG style diagonalization
     ethr =  1.00E-02,  avg # of iterations =  4.1

     total cpu time spent up to now is      207.5 secs

     total energy              =    -682.06338728 Ry
     Harris-Foulkes estimate   =    -684.47035190 Ry
     estimated scf accuracy    <       3.53543298 Ry

     iteration #  3     ecut=    40.00 Ry     beta=0.70
     CG style diagonalization
     ethr =  5.28E-03,  avg # of iterations =  3.6

     total cpu time spent up to now is      215.7 secs

     total energy              =    -682.85795424 Ry
     Harris-Foulkes estimate   =    -683.53411763 Ry
     estimated scf accuracy    <       1.41178757 Ry

     iteration #  4     ecut=    40.00 Ry     beta=0.70
     CG style diagonalization
     ethr =  2.11E-03,  avg # of iterations =  3.4

     total cpu time spent up to now is      223.4 secs

     total energy              =    -683.24113205 Ry
     Harris-Foulkes estimate   =    -683.26622500 Ry
     estimated scf accuracy    <       0.04656538 Ry

     iteration #  5     ecut=    40.00 Ry     beta=0.70
     CG style diagonalization
     c_bands:  1 eigenvalues not converged
     c_bands:  1 eigenvalues not converged
     ethr =  6.95E-05,  avg # of iterations =  3.9

     total cpu time spent up to now is      232.3 secs

     total energy              =    -683.25205714 Ry
     Harris-Foulkes estimate   =    -683.25264370 Ry
     estimated scf accuracy    <       0.00097192 Ry

     iteration #  6     ecut=    40.00 Ry     beta=0.70
     CG style diagonalization
     c_bands:  1 eigenvalues not converged
     c_bands:  1 eigenvalues not converged
     c_bands:  1 eigenvalues not converged
     c_bands:  1 eigenvalues not converged
     c_bands:  1 eigenvalues not converged
     c_bands:  1 eigenvalues not converged
     c_bands:  1 eigenvalues not converged
     c_bands:  1 eigenvalues not converged
     ethr =  1.45E-06,  avg # of iterations =  4.2

     total cpu time spent up to now is      238.8 secs

     total energy              =    -683.25238683 Ry
     Harris-Foulkes estimate   =    -683.25244801 Ry
     estimated scf accuracy    <       0.00010606 Ry

     iteration #  7     ecut=    40.00 Ry     beta=0.70
     CG style diagonalization
     ethr =  1.58E-07,  avg # of iterations =  3.6

     total cpu time spent up to now is      244.3 secs

     total energy              =    -683.25240995 Ry
     Harris-Foulkes estimate   =    -683.25241589 Ry
     estimated scf accuracy    <       0.00000984 Ry

     iteration #  8     ecut=    40.00 Ry     beta=0.70
     CG style diagonalization
     ethr =  1.47E-08,  avg # of iterations =  4.0

     total cpu time spent up to now is      250.4 secs

     End of self-consistent calculation

     Number of k-points >= 100: set verbosity='high' to print the bands.

     the Fermi energy is    35.6971 ev

!    total energy              =    -683.25241368 Ry
     Harris-Foulkes estimate   =    -683.25241391 Ry
     estimated scf accuracy    <       0.00000029 Ry

     The total energy is the sum of the following terms:

     one-electron contribution =      47.84637660 Ry
     hartree contribution      =      53.61365788 Ry
     xc contribution           =     -73.41626654 Ry
     ewald contribution        =    -711.11386147 Ry
     smearing contrib. (-TS)   =      -0.18232015 Ry

     convergence has been achieved in   8 iterations

     Forces acting on atoms (Ry/au):

     atom    1 type  1   force =     0.00000000    0.00000000    0.00000000
     atom    2 type  1   force =     0.00000000    0.00000000    0.00000000
     atom    3 type  1   force =     0.00000000    0.00000000    0.00000000
     atom    4 type  2   force =     0.00000000    0.00000000    0.00000000

     Total force =     0.000000     Total SCF correction =     0.000000


     entering subroutine stress ...

          total   stress  (Ry/bohr**3)                   (kbar)     P= 1616.48
   0.01098862   0.00000000   0.00000000       1616.48      0.00      0.00
   0.00000000   0.01098862   0.00000000          0.00   1616.48      0.00
   0.00000000   0.00000000   0.01098862          0.00      0.00   1616.48


     number of scf cycles    =   3
     number of bfgs steps    =   2

     enthalpy old            =    -683.5004858767 Ry
     enthalpy new            =    -683.2524136799 Ry

     CASE: enthalpy_new > enthalpy_old

     new trust radius        =       0.1571546010 bohr

     trust_radius < trust_radius_min

     resetting bfgs history

     Message from routine bfgs:
     history already reset at previous step: stopping
     new conv_thr            =       0.0000010000 Ry

     new unit-cell volume =    368.05576 a.u.^3 (    54.54024 Ang^3 )

CELL_PARAMETERS (alat=  7.13166486)
   1.004878639   0.000000000   0.000000000
   0.000000000   1.004878639   0.000000000
   0.000000000   0.000000000   1.004878639

ATOMIC_POSITIONS (crystal)
Cu       0.000000000   0.500000000   0.500000000
Cu       0.500000000   0.500000000   0.000000000
Cu       0.500000000   0.000000000   0.500000000
Au       0.000000000   0.000000000   0.000000000



     Writing output data file Prototype-La-cP4-Cu3Au.save
     NEW-OLD atomic charge density approx. for the potential
     NEW k-points: (use verbosity='high' to print them)

     total cpu time spent up to now is      252.3 secs

     Self-consistent Calculation

     iteration #  1     ecut=    40.00 Ry     beta=0.70
     CG style diagonalization
     c_bands:  1 eigenvalues not converged
     c_bands:  2 eigenvalues not converged
     c_bands:  1 eigenvalues not converged
     c_bands:  1 eigenvalues not converged
     c_bands:  1 eigenvalues not converged
     c_bands:  1 eigenvalues not converged
     c_bands:  1 eigenvalues not converged
     c_bands:  1 eigenvalues not converged
     ethr =  1.00E-06,  avg # of iterations =  7.8

     total cpu time spent up to now is      265.2 secs

     total energy              =    -683.01626036 Ry
     Harris-Foulkes estimate   =    -683.16511276 Ry
     estimated scf accuracy    <       0.19309441 Ry

     iteration #  2     ecut=    40.00 Ry     beta=0.70
     CG style diagonalization
     ethr =  2.88E-04,  avg # of iterations =  3.8

     total cpu time spent up to now is      271.1 secs

     total energy              =    -683.05538020 Ry
     Harris-Foulkes estimate   =    -683.09341624 Ry
     estimated scf accuracy    <       0.05707416 Ry

     iteration #  3     ecut=    40.00 Ry     beta=0.70
     CG style diagonalization
     ethr =  8.52E-05,  avg # of iterations =  3.6

     total cpu time spent up to now is      277.4 secs

     total energy              =    -683.07202247 Ry
     Harris-Foulkes estimate   =    -683.08165190 Ry
     estimated scf accuracy    <       0.02004429 Ry

     iteration #  4     ecut=    40.00 Ry     beta=0.70
     CG style diagonalization
     ethr =  2.99E-05,  avg # of iterations =  3.4

     total cpu time spent up to now is      283.5 secs

     total energy              =    -683.07611280 Ry
     Harris-Foulkes estimate   =    -683.07616757 Ry
     estimated scf accuracy    <       0.00009272 Ry

     iteration #  5     ecut=    40.00 Ry     beta=0.70
     CG style diagonalization
     c_bands:  1 eigenvalues not converged
     c_bands:  1 eigenvalues not converged
     c_bands:  1 eigenvalues not converged
     c_bands:  1 eigenvalues not converged
     ethr =  1.38E-07,  avg # of iterations =  4.6

     total cpu time spent up to now is      293.3 secs

     total energy              =    -683.07619292 Ry
     Harris-Foulkes estimate   =    -683.07621488 Ry
     estimated scf accuracy    <       0.00004764 Ry

     iteration #  6     ecut=    40.00 Ry     beta=0.70
     CG style diagonalization
     ethr =  7.11E-08,  avg # of iterations =  3.3

     total cpu time spent up to now is      299.1 secs

     total energy              =    -683.07619771 Ry
     Harris-Foulkes estimate   =    -683.07619932 Ry
     estimated scf accuracy    <       0.00000390 Ry

     iteration #  7     ecut=    40.00 Ry     beta=0.70
     CG style diagonalization
     ethr =  5.82E-09,  avg # of iterations =  3.6

     total cpu time spent up to now is      304.6 secs

     End of self-consistent calculation

     Number of k-points >= 100: set verbosity='high' to print the bands.

     the Fermi energy is    37.2769 ev

!    total energy              =    -683.07619841 Ry
     Harris-Foulkes estimate   =    -683.07619854 Ry
     estimated scf accuracy    <       0.00000014 Ry

     The total energy is the sum of the following terms:

     one-electron contribution =      59.83061682 Ry
     hartree contribution      =      51.13284698 Ry
     xc contribution           =     -73.76427803 Ry
     ewald contribution        =    -720.10209671 Ry
     smearing contrib. (-TS)   =      -0.17328747 Ry

     convergence has been achieved in   7 iterations

     Forces acting on atoms (Ry/au):

     atom    1 type  1   force =     0.00000000    0.00000000    0.00000000
     atom    2 type  1   force =     0.00000000    0.00000000    0.00000000
     atom    3 type  1   force =     0.00000000    0.00000000    0.00000000
     atom    4 type  2   force =     0.00000000    0.00000000    0.00000000

     Total force =     0.000000     Total SCF correction =     0.000000


     entering subroutine stress ...

          total   stress  (Ry/bohr**3)                   (kbar)     P= 2062.34
   0.01401949   0.00000000   0.00000000       2062.34      0.00      0.00
   0.00000000   0.01401949   0.00000000          0.00   2062.34      0.00
   0.00000000   0.00000000   0.01401949          0.00      0.00   2062.34


     The maximum number of steps has been reached.

     End of BFGS Geometry Optimization
Begin final coordinates
     new unit-cell volume =    368.05576 a.u.^3 (    54.54024 Ang^3 )

CELL_PARAMETERS (alat=  7.13166486)
   1.004878639   0.000000000   0.000000000
   0.000000000   1.004878639   0.000000000
   0.000000000   0.000000000   1.004878639

ATOMIC_POSITIONS (crystal)
Cu       0.000000000   0.500000000   0.500000000
Cu       0.500000000   0.500000000   0.000000000
Cu       0.500000000   0.000000000   0.500000000
Au       0.000000000   0.000000000   0.000000000
End final coordinates



     A final scf calculation at the relaxed structure.
     The G-vectors are recalculated for the final unit cell
     Results may differ from those at the preceding step.
 
     Parallelization info
     --------------------
     sticks:   dense  smooth     PW     G-vecs:    dense   smooth      PW
     Min         165     165     49                 3139     3139     527
     Max         167     167     50                 3140     3140     528
     Sum         665     665    197                12557    12557    2109
 


     bravais-lattice index     =            0
     lattice parameter (alat)  =       7.1317  a.u.
     unit-cell volume          =     368.0558 (a.u.)^3
     number of atoms/cell      =            4
     number of atomic types    =            2
     number of electrons       =        67.00
     number of Kohn-Sham states=           41
     kinetic-energy cutoff     =      40.0000  Ry
     charge density cutoff     =     160.0000  Ry
     convergence threshold     =      1.0E-06
     mixing beta               =       0.7000
     number of iterations used =            8  plain     mixing
     Exchange-correlation      = SLA-PZ-NOGX-NOGC ( 1 1 0 0 0)
     EXX-fraction              =        0.00

     celldm(1)=   7.131665  celldm(2)=   0.000000  celldm(3)=   0.000000
     celldm(4)=   0.000000  celldm(5)=   0.000000  celldm(6)=   0.000000

     crystal axes: (cart. coord. in units of alat)
               a(1) = (   1.004879   0.000000   0.000000 )  
               a(2) = (   0.000000   1.004879   0.000000 )  
               a(3) = (   0.000000   0.000000   1.004879 )  

     reciprocal axes: (cart. coord. in units 2 pi/alat)
               b(1) = (  0.995145  0.000000  0.000000 )  
               b(2) = (  0.000000  0.995145  0.000000 )  
               b(3) = (  0.000000  0.000000  0.995145 )  


     PseudoPot. # 1 for Sm read from file:
     /home/cwx6513/pp.La/Sm.UPF
     MD5 check sum: 5079e8b144a06bfcdbc14fb02b96ab09
     Pseudo is Norm-conserving, Zval = 16.0
     Generated in analytical, separable form
     Using radial grid of 1259 points,  6 beta functions with: 
                l(1) =   0
                l(2) =   0
                l(3) =   1
                l(4) =   1
                l(5) =   2
                l(6) =   3

     PseudoPot. # 2 for Tb read from file:
     /home/cwx6513/pp.La/Tb.UPF
     MD5 check sum: 3d6088a3f0cf7fd2e110c43f7f8e95c2
     Pseudo is Norm-conserving, Zval = 19.0
     Generated in analytical, separable form
     Using radial grid of 1263 points,  6 beta functions with: 
                l(1) =   0
                l(2) =   0
                l(3) =   1
                l(4) =   1
                l(5) =   2
                l(6) =   3

     atomic species   valence    mass     pseudopotential
        Cu            16.00    63.54600     Sm( 1.00)
        Au            19.00   196.96600     Tb( 1.00)

     48 Sym. Ops., with inversion, found



   Cartesian axes

     site n.     atom                  positions (alat units)
         1           Cu  tau(   1) = (   0.0000000   0.5024393   0.5024393  )
         2           Cu  tau(   2) = (   0.5024393   0.5024393   0.0000000  )
         3           Cu  tau(   3) = (   0.5024393   0.0000000   0.5024393  )
         4           Au  tau(   4) = (   0.0000000   0.0000000   0.0000000  )

     number of k points=   100  gaussian smearing, width (Ry)=  0.1000

     Number of k-points >= 100: set verbosity='high' to print them.

     Dense  grid:    12557 G-vectors     FFT dimensions: (  30,  30,  30)

     Largest allocated arrays     est. size (Mb)     dimensions
        Kohn-Sham Wavefunctions         0.25 Mb     (    402,   41)
        NL pseudopotentials             0.49 Mb     (    402,   80)
        Each V/rho on FFT grid          0.11 Mb     (   7200)
        Each G-vector array             0.02 Mb     (   3140)
        G-vector shells                 0.00 Mb     (    175)
     Largest temporary arrays     est. size (Mb)     dimensions
        Each subspace H/S matrix        0.03 Mb     (  41,  41)
        Each <psi_i|beta_j> matrix      0.05 Mb     (     80,   41)
        Arrays for rho mixing           0.88 Mb     (   7200,   8)

     Initial potential from superposition of free atoms

     Starting from uniform charge
     Starting wfc are    0 randomized atomic wfcs

     Writing output data file Prototype-La-cP4-Cu3Au.save

     total cpu time spent up to now is      308.0 secs

     Self-consistent Calculation

     iteration #  1     ecut=    40.00 Ry     beta=0.70
     CG style diagonalization
     c_bands:  2 eigenvalues not converged
     c_bands:  1 eigenvalues not converged
     c_bands:  1 eigenvalues not converged
     c_bands:  1 eigenvalues not converged
     c_bands:  1 eigenvalues not converged
     c_bands:  1 eigenvalues not converged
     c_bands:  1 eigenvalues not converged
     c_bands:  1 eigenvalues not converged
     c_bands:  1 eigenvalues not converged
     c_bands:  1 eigenvalues not converged
     c_bands:  1 eigenvalues not converged
     c_bands:  1 eigenvalues not converged
     c_bands:  1 eigenvalues not converged
     c_bands:  1 eigenvalues not converged
     c_bands:  5 eigenvalues not converged
     c_bands:  1 eigenvalues not converged
     c_bands:  1 eigenvalues not converged
     c_bands:  1 eigenvalues not converged
     c_bands:  1 eigenvalues not converged
     c_bands:  1 eigenvalues not converged
     c_bands:  1 eigenvalues not converged
     c_bands:  1 eigenvalues not converged
     c_bands:  3 eigenvalues not converged
     ethr =  1.00E-06,  avg # of iterations = 42.0

     total cpu time spent up to now is      370.8 secs

     total energy              =    -507.12723606 Ry
     Harris-Foulkes estimate   =    -765.31629002 Ry
     estimated scf accuracy    <     320.52070353 Ry

     iteration #  2     ecut=    40.00 Ry     beta=0.70
     CG style diagonalization
     c_bands:  1 eigenvalues not converged
     c_bands:  1 eigenvalues not converged
     c_bands:  2 eigenvalues not converged
     c_bands:  1 eigenvalues not converged
     c_bands:  2 eigenvalues not converged
     c_bands:  1 eigenvalues not converged
     c_bands:  1 eigenvalues not converged
     c_bands:  2 eigenvalues not converged
     c_bands:  1 eigenvalues not converged
     c_bands:  1 eigenvalues not converged
     c_bands:  1 eigenvalues not converged
     c_bands:  2 eigenvalues not converged
     c_bands:  5 eigenvalues not converged
     c_bands:  1 eigenvalues not converged
     c_bands:  2 eigenvalues not converged
     c_bands:  5 eigenvalues not converged
     c_bands:  3 eigenvalues not converged
     c_bands:  1 eigenvalues not converged
     c_bands:  3 eigenvalues not converged
     c_bands:  4 eigenvalues not converged
     c_bands:  2 eigenvalues not converged
     c_bands:  2 eigenvalues not converged
     c_bands:  3 eigenvalues not converged
     c_bands:  2 eigenvalues not converged
     c_bands:  1 eigenvalues not converged
     c_bands:  2 eigenvalues not converged
     c_bands:  2 eigenvalues not converged
     c_bands:  2 eigenvalues not converged
     c_bands:  4 eigenvalues not converged
     c_bands:  1 eigenvalues not converged
     c_bands:  3 eigenvalues not converged
     c_bands:  2 eigenvalues not converged
     c_bands:  4 eigenvalues not converged
     c_bands:  4 eigenvalues not converged
     c_bands:  1 eigenvalues not converged
     c_bands:  3 eigenvalues not converged
     c_bands:  1 eigenvalues not converged
     c_bands:  1 eigenvalues not converged
     c_bands:  5 eigenvalues not converged
     c_bands:  3 eigenvalues not converged
     c_bands:  2 eigenvalues not converged
     c_bands:  2 eigenvalues not converged
     c_bands:  1 eigenvalues not converged
     c_bands:  1 eigenvalues not converged
     c_bands:  1 eigenvalues not converged
     c_bands:  1 eigenvalues not converged
     c_bands:  1 eigenvalues not converged
     c_bands:  2 eigenvalues not converged
     c_bands:  1 eigenvalues not converged
     c_bands:  2 eigenvalues not converged
     c_bands:  4 eigenvalues not converged
     c_bands:  3 eigenvalues not converged
     c_bands:  1 eigenvalues not converged
     c_bands:  2 eigenvalues not converged
     c_bands:  2 eigenvalues not converged
     c_bands:  1 eigenvalues not converged
     c_bands:  5 eigenvalues not converged
     c_bands:  3 eigenvalues not converged
     c_bands:  1 eigenvalues not converged
     c_bands:  1 eigenvalues not converged
     c_bands:  4 eigenvalues not converged
     c_bands:  3 eigenvalues not converged
     c_bands:  3 eigenvalues not converged
     c_bands:  4 eigenvalues not converged
     c_bands:  3 eigenvalues not converged
     c_bands:  3 eigenvalues not converged
     c_bands:  1 eigenvalues not converged
     c_bands:  4 eigenvalues not converged
     c_bands:  4 eigenvalues not converged
     c_bands:  1 eigenvalues not converged
     c_bands:  5 eigenvalues not converged
     c_bands:  2 eigenvalues not converged
     c_bands:  2 eigenvalues not converged
     c_bands:  2 eigenvalues not converged
     c_bands:  5 eigenvalues not converged
     c_bands:  4 eigenvalues not converged
     c_bands:  4 eigenvalues not converged
     c_bands:  3 eigenvalues not converged
     c_bands:  4 eigenvalues not converged
     c_bands:  3 eigenvalues not converged
     c_bands:  2 eigenvalues not converged
     c_bands:  2 eigenvalues not converged
     c_bands:  4 eigenvalues not converged
     c_bands:  3 eigenvalues not converged
     c_bands:  2 eigenvalues not converged
     c_bands:  5 eigenvalues not converged
     c_bands:  1 eigenvalues not converged
     c_bands:  2 eigenvalues not converged
     c_bands:  3 eigenvalues not converged
     ethr =  1.00E-02,  avg # of iterations = 10.4

     total cpu time spent up to now is      387.7 secs

     total energy              =    -643.37201481 Ry
     Harris-Foulkes estimate   =    -842.34576640 Ry
     estimated scf accuracy    <     372.92125702 Ry

     iteration #  3     ecut=    40.00 Ry     beta=0.70
     CG style diagonalization
     c_bands:  1 eigenvalues not converged
     c_bands:  1 eigenvalues not converged
     c_bands:  1 eigenvalues not converged
     c_bands:  1 eigenvalues not converged
     ethr =  1.00E-02,  avg # of iterations =  9.0

     total cpu time spent up to now is      404.2 secs

     total energy              =    -681.03663539 Ry
     Harris-Foulkes estimate   =    -689.88475223 Ry
     estimated scf accuracy    <      17.36962645 Ry

     iteration #  4     ecut=    40.00 Ry     beta=0.70
     CG style diagonalization
     ethr =  1.00E-02,  avg # of iterations =  3.7

     total cpu time spent up to now is      413.5 secs

     total energy              =    -682.32652683 Ry
     Harris-Foulkes estimate   =    -683.41974014 Ry
     estimated scf accuracy    <       2.11041910 Ry

     iteration #  5     ecut=    40.00 Ry     beta=0.70
     CG style diagonalization
     ethr =  3.15E-03,  avg # of iterations =  3.9

     total cpu time spent up to now is      420.1 secs

     total energy              =    -682.99860059 Ry
     Harris-Foulkes estimate   =    -683.16253750 Ry
     estimated scf accuracy    <       0.25269638 Ry

     iteration #  6     ecut=    40.00 Ry     beta=0.70
     CG style diagonalization
     c_bands:  1 eigenvalues not converged
     ethr =  3.77E-04,  avg # of iterations =  4.1

     total cpu time spent up to now is      426.2 secs

     total energy              =    -683.08366165 Ry
     Harris-Foulkes estimate   =    -683.10719729 Ry
     estimated scf accuracy    <       0.05033364 Ry

     iteration #  7     ecut=    40.00 Ry     beta=0.70
     CG style diagonalization
     c_bands:  1 eigenvalues not converged
     c_bands:  1 eigenvalues not converged
     ethr =  7.51E-05,  avg # of iterations =  3.6

     total cpu time spent up to now is      432.8 secs

     total energy              =    -683.09357603 Ry
     Harris-Foulkes estimate   =    -683.09388499 Ry
     estimated scf accuracy    <       0.00055904 Ry

     iteration #  8     ecut=    40.00 Ry     beta=0.70
     CG style diagonalization
     c_bands:  1 eigenvalues not converged
     c_bands:  1 eigenvalues not converged
     c_bands:  1 eigenvalues not converged
     c_bands:  1 eigenvalues not converged
     c_bands:  2 eigenvalues not converged
     c_bands:  1 eigenvalues not converged
     c_bands:  1 eigenvalues not converged
     c_bands:  1 eigenvalues not converged
     c_bands:  1 eigenvalues not converged
     c_bands:  1 eigenvalues not converged
     c_bands:  1 eigenvalues not converged
     ethr =  8.34E-07,  avg # of iterations =  5.5

     total cpu time spent up to now is      441.3 secs

     total energy              =    -683.09457130 Ry
     Harris-Foulkes estimate   =    -683.09467163 Ry
     estimated scf accuracy    <       0.00022888 Ry

     iteration #  9     ecut=    40.00 Ry     beta=0.70
     CG style diagonalization
     ethr =  3.42E-07,  avg # of iterations =  3.4

     total cpu time spent up to now is      446.5 secs

     total energy              =    -683.09460156 Ry
     Harris-Foulkes estimate   =    -683.09460700 Ry
     estimated scf accuracy    <       0.00000865 Ry

     iteration # 10     ecut=    40.00 Ry     beta=0.70
     CG style diagonalization
     ethr =  1.29E-08,  avg # of iterations =  4.0

     total cpu time spent up to now is      452.6 secs

     total energy              =    -683.09460532 Ry
     Harris-Foulkes estimate   =    -683.09460755 Ry
     estimated scf accuracy    <       0.00000378 Ry

     iteration # 11     ecut=    40.00 Ry     beta=0.70
     CG style diagonalization
     ethr =  5.64E-09,  avg # of iterations =  3.5

     total cpu time spent up to now is      458.0 secs

     End of self-consistent calculation

     Number of k-points >= 100: set verbosity='high' to print the bands.

     the Fermi energy is    37.2743 ev

!    total energy              =    -683.09460637 Ry
     Harris-Foulkes estimate   =    -683.09460671 Ry
     estimated scf accuracy    <       0.00000037 Ry

     The total energy is the sum of the following terms:

     one-electron contribution =      59.80395654 Ry
     hartree contribution      =      51.14331164 Ry
     xc contribution           =     -73.76650542 Ry
     ewald contribution        =    -720.10209671 Ry
     smearing contrib. (-TS)   =      -0.17327242 Ry

     convergence has been achieved in  11 iterations

     Forces acting on atoms (Ry/au):

     atom    1 type  1   force =     0.00000000    0.00000000    0.00000000
     atom    2 type  1   force =     0.00000000    0.00000000    0.00000000
     atom    3 type  1   force =     0.00000000    0.00000000    0.00000000
     atom    4 type  2   force =     0.00000000    0.00000000    0.00000000

     Total force =     0.000000     Total SCF correction =     0.000000


     entering subroutine stress ...

          total   stress  (Ry/bohr**3)                   (kbar)     P= 2080.81
   0.01414505   0.00000000   0.00000000       2080.81      0.00      0.00
   0.00000000   0.01414505   0.00000000          0.00   2080.81      0.00
   0.00000000   0.00000000   0.01414505          0.00      0.00   2080.81


     Writing output data file Prototype-La-cP4-Cu3Au.save
 
     init_run     :      2.75s CPU      3.12s WALL (       2 calls)
     electrons    :    411.12s CPU    446.19s WALL (       5 calls)
     update_pot   :      0.71s CPU      0.73s WALL (       3 calls)
     forces       :      1.86s CPU      2.11s WALL (       5 calls)
     stress       :      4.66s CPU      4.79s WALL (       5 calls)

     Called by init_run:
     wfcinit      :      2.43s CPU      2.76s WALL (       2 calls)
     potinit      :      0.13s CPU      0.13s WALL (       2 calls)

     Called by electrons:
     c_bands      :    392.39s CPU    415.69s WALL (      43 calls)
     sum_band     :     18.45s CPU     19.60s WALL (      43 calls)
     v_of_rho     :      0.03s CPU      0.03s WALL (      48 calls)
     mix_rho      :      0.03s CPU      0.03s WALL (      43 calls)

     Called by c_bands:
     init_us_2    :      1.96s CPU      2.29s WALL (    9800 calls)
     ccgdiagg     :    326.53s CPU    339.54s WALL (    4668 calls)
     wfcrot       :     66.23s CPU     71.96s WALL (    4768 calls)

     Called by *cgdiagg:
     h_psi        :    267.06s CPU    287.12s WALL (  910590 calls)
     cdiaghg      :      2.93s CPU      3.16s WALL (    4768 calls)

     Called by h_psi:
     add_vuspsi   :     15.60s CPU     23.70s WALL (  910590 calls)

     General routines
     calbec       :     70.89s CPU     71.03s WALL ( 1817412 calls)
     fft          :      0.05s CPU      0.07s WALL (     215 calls)
     fftw         :    211.61s CPU    216.42s WALL ( 2378920 calls)
     davcio       :      1.85s CPU      6.58s WALL (   14100 calls)
 
     Parallel routines
     fft_scatter  :    100.57s CPU    102.78s WALL ( 2379135 calls)
 
     PWSCF        :  7m 1.94s CPU     7m39.43s WALL

 
   This run was terminated on:  18:53:18  22Mar2018            

=------------------------------------------------------------------------------=
   JOB DONE.
=------------------------------------------------------------------------------=
