
     Program PWSCF v.5.0.2 starts on 22Mar2018 at 18:45:40 

     This program is part of the open-source Quantum ESPRESSO suite
     for quantum simulation of materials; please cite
         "P. Giannozzi et al., J. Phys.:Condens. Matter 21 395502 (2009);
          URL http://www.quantum-espresso.org", 
     in publications or presentations arising from this work. More details at
     http://www.quantum-espresso.org/quote.php

     Parallel version (MPI), running on     4 processors
     R & G space division:  proc/nbgrp/npool/nimage =       4

     Current dimensions of program PWSCF are:
     Max number of different atomic species (ntypx) = 10
     Max number of k-points (npk) =  40000
     Max angular momentum in pseudopotentials (lmaxx) =  3
     Waiting for input...
     Reading input from standard input

     Subspace diagonalization in iterative solution of the eigenvalue problem:
     a serial algorithm will be used

 
     Parallelization info
     --------------------
     sticks:   dense  smooth     PW     G-vecs:    dense   smooth      PW
     Min         396     396    112                10116    10116    1566
     Max         397     397    113                10119    10119    1567
     Sum        1585    1585    451                40467    40467    6267
 


     bravais-lattice index     =            0
     lattice parameter (alat)  =      12.0168  a.u.
     unit-cell volume          =    1187.3413 (a.u.)^3
     number of atoms/cell      =            8
     number of atomic types    =            2
     number of electrons       =       134.00
     number of Kohn-Sham states=           80
     kinetic-energy cutoff     =      40.0000  Ry
     charge density cutoff     =     160.0000  Ry
     convergence threshold     =      1.0E-04
     mixing beta               =       0.7000
     number of iterations used =            8  plain     mixing
     Exchange-correlation      = SLA-PZ-NOGX-NOGC ( 1 1 0 0 0)
     EXX-fraction              =        0.00
     nstep                     =           50


     celldm(1)=  12.016801  celldm(2)=   0.000000  celldm(3)=   0.000000
     celldm(4)=   0.000000  celldm(5)=   0.000000  celldm(6)=   0.000000

     crystal axes: (cart. coord. in units of alat)
               a(1) = (   1.000000   0.000000   0.000000 )  
               a(2) = (  -0.500000   0.866025   0.000000 )  
               a(3) = (   0.000000   0.000000   0.790093 )  

     reciprocal axes: (cart. coord. in units 2 pi/alat)
               b(1) = (  1.000000  0.577350  0.000000 )  
               b(2) = (  0.000000  1.154701  0.000000 )  
               b(3) = (  0.000000  0.000000  1.265674 )  


     PseudoPot. # 1 for Sm read from file:
     /home/cwx6513/pp.La/Sm.UPF
     MD5 check sum: 5079e8b144a06bfcdbc14fb02b96ab09
     Pseudo is Norm-conserving, Zval = 16.0
     Generated in analytical, separable form
     Using radial grid of 1259 points,  6 beta functions with: 
                l(1) =   0
                l(2) =   0
                l(3) =   1
                l(4) =   1
                l(5) =   2
                l(6) =   3

     PseudoPot. # 2 for Tb read from file:
     /home/cwx6513/pp.La/Tb.UPF
     MD5 check sum: 3d6088a3f0cf7fd2e110c43f7f8e95c2
     Pseudo is Norm-conserving, Zval = 19.0
     Generated in analytical, separable form
     Using radial grid of 1263 points,  6 beta functions with: 
                l(1) =   0
                l(2) =   0
                l(3) =   1
                l(4) =   1
                l(5) =   2
                l(6) =   3

     atomic species   valence    mass     pseudopotential
        Mg            16.00    24.30500     Sm( 1.00)
        Cd            19.00   112.41100     Tb( 1.00)

     24 Sym. Ops., with inversion, found (12 have fractional translation)



   Cartesian axes

     site n.     atom                  positions (alat units)
         1           Mg  tau(   1) = (   0.2478935   0.7204716   0.1975233  )
         2           Mg  tau(   2) = (   0.7478935   0.1455538   0.5925699  )
         3           Mg  tau(   3) = (   0.2521065   0.1455538   0.5925699  )
         4           Mg  tau(   4) = (  -0.2478935   0.7204716   0.1975233  )
         5           Mg  tau(   5) = (   0.0000000   0.2911075   0.1975233  )
         6           Mg  tau(   6) = (   0.5000000   0.5749179   0.5925699  )
         7           Cd  tau(   7) = (   0.5000005   0.2886748   0.1975233  )
         8           Cd  tau(   8) = (  -0.0000005   0.5773506   0.5925699  )

     number of k points=    64  gaussian smearing, width (Ry)=  0.1000
                       cart. coord. in units 2pi/alat
        k(    1) = (   0.0000000   0.0000000   0.0000000), wk =   0.0095238
        k(    2) = (   0.0000000   0.0000000   0.1808105), wk =   0.0190476
        k(    3) = (   0.0000000   0.0000000   0.3616210), wk =   0.0190476
        k(    4) = (   0.0000000   0.0000000   0.5424315), wk =   0.0190476
        k(    5) = (   0.0000000   0.1924501   0.0000000), wk =   0.0190476
        k(    6) = (   0.0000000   0.1924501   0.1808105), wk =   0.0380952
        k(    7) = (   0.0000000   0.1924501   0.3616210), wk =   0.0380952
        k(    8) = (   0.0000000   0.1924501   0.5424315), wk =   0.0380952
        k(    9) = (   0.0000000   0.3849002   0.0000000), wk =   0.0190476
        k(   10) = (   0.0000000   0.3849002   0.1808105), wk =   0.0380952
        k(   11) = (   0.0000000   0.3849002   0.3616210), wk =   0.0380952
        k(   12) = (   0.0000000   0.3849002   0.5424315), wk =   0.0380952
        k(   13) = (   0.0000000  -0.5773503   0.0000000), wk =   0.0095238
        k(   14) = (   0.0000000  -0.5773503   0.1808105), wk =   0.0190476
        k(   15) = (   0.0000000  -0.5773503   0.3616210), wk =   0.0190476
        k(   16) = (   0.0000000  -0.5773503   0.5424315), wk =   0.0190476
        k(   17) = (   0.2000000   0.1154701   0.0000000), wk =   0.0190476
        k(   18) = (   0.2000000   0.1154701   0.1808105), wk =   0.0380952
        k(   19) = (   0.2000000   0.1154701   0.3616210), wk =   0.0380952
        k(   20) = (   0.2000000   0.1154701   0.5424315), wk =   0.0380952
        k(   21) = (   0.2000000   0.3079201   0.0000000), wk =   0.0190476
        k(   22) = (   0.2000000   0.3079201   0.1808105), wk =   0.0380952
        k(   23) = (   0.2000000   0.3079201   0.3616210), wk =   0.0380952
        k(   24) = (   0.2000000   0.3079201   0.5424315), wk =   0.0380952
        k(   25) = (   0.2000000   0.5003702   0.0000000), wk =   0.0190476
        k(   26) = (   0.2000000   0.5003702   0.1808105), wk =   0.0380952
        k(   27) = (   0.2000000   0.5003702   0.3616210), wk =   0.0380952
        k(   28) = (   0.2000000   0.5003702   0.5424315), wk =   0.0380952
        k(   29) = (   0.2000000  -0.4618802   0.0000000), wk =   0.0190476
        k(   30) = (   0.2000000  -0.4618802   0.1808105), wk =   0.0380952
        k(   31) = (   0.2000000  -0.4618802   0.3616210), wk =   0.0380952
        k(   32) = (   0.2000000  -0.4618802   0.5424315), wk =   0.0380952
        k(   33) = (   0.2000000  -0.2694301   0.0000000), wk =   0.0190476
        k(   34) = (   0.2000000  -0.2694301   0.1808105), wk =   0.0380952
        k(   35) = (   0.2000000  -0.2694301   0.3616210), wk =   0.0380952
        k(   36) = (   0.2000000  -0.2694301   0.5424315), wk =   0.0380952
        k(   37) = (   0.2000000  -0.0769800   0.0000000), wk =   0.0190476
        k(   38) = (   0.2000000  -0.0769800   0.1808105), wk =   0.0380952
        k(   39) = (   0.2000000  -0.0769800   0.3616210), wk =   0.0380952
        k(   40) = (   0.2000000  -0.0769800   0.5424315), wk =   0.0380952
        k(   41) = (   0.4000000   0.2309401   0.0000000), wk =   0.0190476
        k(   42) = (   0.4000000   0.2309401   0.1808105), wk =   0.0380952
        k(   43) = (   0.4000000   0.2309401   0.3616210), wk =   0.0380952
        k(   44) = (   0.4000000   0.2309401   0.5424315), wk =   0.0380952
        k(   45) = (   0.4000000   0.4233902   0.0000000), wk =   0.0190476
        k(   46) = (   0.4000000   0.4233902   0.1808105), wk =   0.0380952
        k(   47) = (   0.4000000   0.4233902   0.3616210), wk =   0.0380952
        k(   48) = (   0.4000000   0.4233902   0.5424315), wk =   0.0380952
        k(   49) = (   0.4000000   0.6158403   0.0000000), wk =   0.0190476
        k(   50) = (   0.4000000   0.6158403   0.1808105), wk =   0.0380952
        k(   51) = (   0.4000000   0.6158403   0.3616210), wk =   0.0380952
        k(   52) = (   0.4000000   0.6158403   0.5424315), wk =   0.0380952
        k(   53) = (   0.4000000  -0.3464102   0.0000000), wk =   0.0190476
        k(   54) = (   0.4000000  -0.3464102   0.1808105), wk =   0.0380952
        k(   55) = (   0.4000000  -0.3464102   0.3616210), wk =   0.0380952
        k(   56) = (   0.4000000  -0.3464102   0.5424315), wk =   0.0380952
        k(   57) = (   0.4000000  -0.1539601   0.0000000), wk =   0.0190476
        k(   58) = (   0.4000000  -0.1539601   0.1808105), wk =   0.0380952
        k(   59) = (   0.4000000  -0.1539601   0.3616210), wk =   0.0380952
        k(   60) = (   0.4000000  -0.1539601   0.5424315), wk =   0.0380952
        k(   61) = (   0.4000000   0.0384900   0.0000000), wk =   0.0190476
        k(   62) = (   0.4000000   0.0384900   0.1808105), wk =   0.0380952
        k(   63) = (   0.4000000   0.0384900   0.3616210), wk =   0.0380952
        k(   64) = (   0.4000000   0.0384900   0.5424315), wk =   0.0380952

     Dense  grid:    40467 G-vectors     FFT dimensions: (  50,  50,  40)

     Largest allocated arrays     est. size (Mb)     dimensions
        Kohn-Sham Wavefunctions         1.58 Mb     (   1298,   80)
        NL pseudopotentials             3.17 Mb     (   1298,  160)
        Each V/rho on FFT grid          0.38 Mb     (  25000)
        Each G-vector array             0.08 Mb     (  10119)
        G-vector shells                 0.08 Mb     (  10119)
     Largest temporary arrays     est. size (Mb)     dimensions
        Each subspace H/S matrix        0.10 Mb     (  80,  80)
        Each <psi_i|beta_j> matrix      0.20 Mb     (    160,   80)
        Arrays for rho mixing           3.05 Mb     (  25000,   8)

     Initial potential from superposition of free atoms

     Starting from uniform charge
     Starting wfc are    0 randomized atomic wfcs

     total cpu time spent up to now is        9.0 secs

     Self-consistent Calculation

     iteration #  1     ecut=    40.00 Ry     beta=0.70
     CG style diagonalization
     c_bands:  5 eigenvalues not converged
     ethr =  1.00E-02,  avg # of iterations = 15.8

     total cpu time spent up to now is      207.7 secs

     total energy              =    -944.99964683 Ry
     Harris-Foulkes estimate   =   -1666.86125183 Ry
     estimated scf accuracy    <     890.11759864 Ry

     iteration #  2     ecut=    40.00 Ry     beta=0.70
     CG style diagonalization
     c_bands:  3 eigenvalues not converged
     c_bands:  3 eigenvalues not converged
     c_bands:  4 eigenvalues not converged
     c_bands:  4 eigenvalues not converged
     c_bands:  4 eigenvalues not converged
     c_bands:  2 eigenvalues not converged
     c_bands:  4 eigenvalues not converged
     c_bands:  1 eigenvalues not converged
     c_bands:  3 eigenvalues not converged
     c_bands:  4 eigenvalues not converged
     c_bands:  2 eigenvalues not converged
     c_bands:  3 eigenvalues not converged
     c_bands:  2 eigenvalues not converged
     c_bands:  1 eigenvalues not converged
     c_bands:  4 eigenvalues not converged
     c_bands:  4 eigenvalues not converged
     c_bands:  5 eigenvalues not converged
     c_bands:  2 eigenvalues not converged
     c_bands:  2 eigenvalues not converged
     c_bands:  4 eigenvalues not converged
     c_bands:  1 eigenvalues not converged
     c_bands:  5 eigenvalues not converged
     c_bands:  5 eigenvalues not converged
     c_bands:  4 eigenvalues not converged
     c_bands:  2 eigenvalues not converged
     c_bands:  1 eigenvalues not converged
     c_bands:  5 eigenvalues not converged
     c_bands:  1 eigenvalues not converged
     c_bands:  2 eigenvalues not converged
     c_bands:  3 eigenvalues not converged
     c_bands:  4 eigenvalues not converged
     c_bands:  4 eigenvalues not converged
     c_bands:  5 eigenvalues not converged
     c_bands:  3 eigenvalues not converged
     c_bands:  4 eigenvalues not converged
     c_bands:  2 eigenvalues not converged
     c_bands:  3 eigenvalues not converged
     c_bands:  2 eigenvalues not converged
     c_bands:  4 eigenvalues not converged
     c_bands:  4 eigenvalues not converged
     c_bands:  3 eigenvalues not converged
     c_bands:  3 eigenvalues not converged
     c_bands:  5 eigenvalues not converged
     c_bands:  2 eigenvalues not converged
     c_bands:  5 eigenvalues not converged
     c_bands:  2 eigenvalues not converged
     c_bands:  3 eigenvalues not converged
     ethr =  1.00E-02,  avg # of iterations = 13.2

     total cpu time spent up to now is      377.5 secs

     total energy              =   -1246.84278470 Ry
     Harris-Foulkes estimate   =   -1772.47853026 Ry
     estimated scf accuracy    <     963.63888214 Ry

     iteration #  3     ecut=    40.00 Ry     beta=0.70
     CG style diagonalization
     c_bands:  1 eigenvalues not converged
     c_bands:  1 eigenvalues not converged
     c_bands:  1 eigenvalues not converged
     c_bands:  1 eigenvalues not converged
     c_bands:  1 eigenvalues not converged
     ethr =  1.00E-02,  avg # of iterations = 10.1

     total cpu time spent up to now is      490.0 secs

     total energy              =   -1341.21420439 Ry
     Harris-Foulkes estimate   =   -1409.88078193 Ry
     estimated scf accuracy    <     126.66581873 Ry

     iteration #  4     ecut=    40.00 Ry     beta=0.70
     CG style diagonalization
     ethr =  1.00E-02,  avg # of iterations =  6.5

     total cpu time spent up to now is      559.7 secs

     total energy              =   -1364.40238977 Ry
     Harris-Foulkes estimate   =   -1372.63481293 Ry
     estimated scf accuracy    <      19.11280267 Ry

     iteration #  5     ecut=    40.00 Ry     beta=0.70
     CG style diagonalization
     ethr =  1.00E-02,  avg # of iterations =  3.6

     total cpu time spent up to now is      596.7 secs

     total energy              =   -1368.17268494 Ry
     Harris-Foulkes estimate   =   -1368.58124669 Ry
     estimated scf accuracy    <       0.72578631 Ry

     iteration #  6     ecut=    40.00 Ry     beta=0.70
     CG style diagonalization
     ethr =  5.42E-04,  avg # of iterations =  4.4

     total cpu time spent up to now is      643.7 secs

     total energy              =   -1368.48086444 Ry
     Harris-Foulkes estimate   =   -1368.54700367 Ry
     estimated scf accuracy    <       0.10829139 Ry

     iteration #  7     ecut=    40.00 Ry     beta=0.70
     CG style diagonalization
     c_bands:  1 eigenvalues not converged
     ethr =  8.08E-05,  avg # of iterations =  3.9

     total cpu time spent up to now is      684.2 secs

     total energy              =   -1368.50213940 Ry
     Harris-Foulkes estimate   =   -1368.51398998 Ry
     estimated scf accuracy    <       0.01722405 Ry

     iteration #  8     ecut=    40.00 Ry     beta=0.70
     CG style diagonalization
     c_bands:  1 eigenvalues not converged
     ethr =  1.29E-05,  avg # of iterations =  4.2

     total cpu time spent up to now is      728.1 secs

     total energy              =   -1368.50503250 Ry
     Harris-Foulkes estimate   =   -1368.51537876 Ry
     estimated scf accuracy    <       0.01947127 Ry

     iteration #  9     ecut=    40.00 Ry     beta=0.70
     CG style diagonalization
     ethr =  1.29E-05,  avg # of iterations =  3.6

     total cpu time spent up to now is      765.6 secs

     total energy              =   -1368.50938888 Ry
     Harris-Foulkes estimate   =   -1368.50956916 Ry
     estimated scf accuracy    <       0.00036981 Ry

     iteration # 10     ecut=    40.00 Ry     beta=0.70
     CG style diagonalization
     ethr =  2.76E-07,  avg # of iterations =  4.2

     total cpu time spent up to now is      807.7 secs

     total energy              =   -1368.50944867 Ry
     Harris-Foulkes estimate   =   -1368.50953568 Ry
     estimated scf accuracy    <       0.00014932 Ry

     iteration # 11     ecut=    40.00 Ry     beta=0.70
     CG style diagonalization
     ethr =  1.11E-07,  avg # of iterations =  3.6

     total cpu time spent up to now is      842.3 secs

     End of self-consistent calculation

          k = 0.0000 0.0000 0.0000 (  5047 PWs)   bands (ev):

   -53.9858 -53.9843 -36.5787 -36.4852 -36.4851 -36.4687 -36.4310 -36.4309
   -22.3074 -22.2977 -22.2566 -22.2565 -22.2503 -22.2503 -12.0453 -12.0056
   -11.8644 -11.7480 -11.7480 -11.7468 -11.7467 -11.7089 -11.7088 -11.5285
   -11.3804 -11.3803 -11.2760 -11.2760 -11.2504 -11.2462 -11.2462 -11.2376
    13.9502  14.3266  14.3266  14.4340  14.4557  14.6432  14.6432  14.8801
    14.8802  15.4118  15.6100  15.6100  15.9217  17.1031  17.4677  17.4677
    17.5802  17.8251  17.8251  18.0011  18.4114  18.4114  18.6176  18.6177
    18.6718  19.1004  19.1721  19.1721  19.2558  19.2559  21.0306  21.0306
    21.3208  21.3208  21.3858  21.3858  21.5868  21.5869  21.8076  22.3252
    22.7739  22.8401  23.3343  24.3099  24.3100  24.7065  25.5686  25.5687

          k = 0.0000 0.0000 0.1808 (  5065 PWs)   bands (ev):

   -53.9885 -53.9863 -36.5738 -36.4830 -36.4830 -36.4743 -36.4335 -36.4335
   -22.3028 -22.3012 -22.2655 -22.2655 -22.2563 -22.2562 -12.0467 -12.0072
   -11.8446 -11.8446 -11.8343 -11.7413 -11.7413 -11.6292 -11.6292 -11.5122
   -11.3708 -11.3707 -11.2886 -11.2780 -11.2779 -11.2537 -11.2445 -11.2445
    14.1211  14.3845  14.3845  14.4076  14.4076  14.4667  14.5472  15.0653
    15.1178  15.1178  15.5610  15.5611  16.4930  16.7586  17.5269  17.5683
    17.5684  17.7525  17.7525  18.0029  18.0029  18.0313  18.1588  18.4299
    18.4299  19.3353  19.3353  20.0760  20.0760  20.0881  21.0332  21.0333
    21.0993  21.0994  21.1377  21.3307  21.3308  21.6006  21.6006  22.1855
    22.5839  22.7576  23.0772  23.9657  23.9657  24.5820  25.3862  25.3863

          k = 0.0000 0.0000 0.3616 (  5047 PWs)   bands (ev):

   -53.9871 -53.9835 -36.5592 -36.4890 -36.4754 -36.4753 -36.4409 -36.4409
   -22.2924 -22.2817 -22.2637 -22.2637 -22.2587 -22.2587 -12.0358 -12.0075
   -11.8985 -11.8985 -11.8114 -11.8114 -11.7518 -11.5053 -11.5053 -11.4744
   -11.3856 -11.3575 -11.3575 -11.2947 -11.2755 -11.2754 -11.2460 -11.2460
    14.2499  14.2499  14.4980  14.5125  14.5125  14.5228  14.8716  14.9016
    15.2719  15.2720  15.3494  15.3494  16.0150  16.7189  17.5569  17.5570
    17.6817  17.6905  17.6906  17.7924  17.7924  18.0024  18.4901  18.4901
    18.6214  19.6740  19.6741  19.8205  20.7986  20.7987  20.8810  20.8811
    21.0980  21.0980  21.1150  21.1427  21.1428  21.3565  21.8876  21.8876
    22.4776  22.5152  22.7126  23.0702  23.0703  24.2235  24.8208  24.8209

          k = 0.0000 0.0000 0.5424 (  5041 PWs)   bands (ev):

   -53.9864 -53.9831 -36.5366 -36.5119 -36.4640 -36.4640 -36.4522 -36.4521
   -22.2948 -22.2835 -22.2598 -22.2598 -22.2555 -22.2555 -12.0197 -12.0125
   -11.9088 -11.9088 -11.8750 -11.8750 -11.6388 -11.5072 -11.4177 -11.4113
   -11.4112 -11.3632 -11.3632 -11.3526 -11.2743 -11.2743 -11.2580 -11.2580
    14.3139  14.3140  14.5091  14.5091  14.6513  14.7358  14.9660  15.1585
    15.1714  15.1714  15.2415  15.2415  15.7280  16.2850  17.5393  17.5393
    17.6117  17.6118  17.7096  17.9879  17.9879  18.3043  18.3758  18.3758
    19.3572  19.4816  20.3080  20.3989  20.3989  20.6057  20.6058  20.6741
    20.6990  20.6990  21.1608  21.1608  21.3522  21.3522  21.9251  21.9251
    22.5719  22.6453  22.8285  22.8771  22.8771  23.6312  23.9336  23.9336

          k = 0.0000 0.1925 0.0000 (  5083 PWs)   bands (ev):

   -53.9908 -53.9879 -36.5740 -36.4916 -36.4858 -36.4678 -36.4315 -36.4312
   -22.3131 -22.3049 -22.2687 -22.2644 -22.2605 -22.2592 -12.0131 -11.9972
   -11.8374 -11.7549 -11.7545 -11.7497 -11.7441 -11.6973 -11.6754 -11.5390
   -11.3913 -11.3808 -11.3249 -11.2980 -11.2839 -11.2603 -11.2454 -11.2451
    14.1490  14.4234  14.4795  14.5529  14.5728  14.6684  14.7227  14.9363
    15.0023  15.4820  15.5059  15.6048  16.1770  17.0417  17.4002  17.5419
    17.6454  17.7712  17.9250  17.9289  18.2190  18.3853  18.5496  18.6867
    18.7178  18.7204  18.8421  18.9853  19.1578  19.2347  20.2783  20.8808
    20.9461  21.0829  21.1843  21.3626  21.5281  21.6203  22.1652  22.3836
    22.4743  22.7409  23.1278  23.1888  24.1328  25.7635  26.1523  26.9078

          k = 0.0000 0.1925 0.1808 (  5077 PWs)   bands (ev):

   -53.9907 -53.9868 -36.5689 -36.4887 -36.4831 -36.4726 -36.4347 -36.4339
   -22.3089 -22.3010 -22.2676 -22.2654 -22.2611 -22.2584 -12.0093 -11.9931
   -11.8469 -11.8342 -11.8143 -11.7374 -11.7151 -11.6378 -11.6316 -11.5167
   -11.3880 -11.3732 -11.3264 -11.2982 -11.2851 -11.2675 -11.2640 -11.2467
    14.3096  14.4635  14.4773  14.5215  14.5429  14.5786  14.6514  15.1138
    15.2020  15.2280  15.5424  15.5477  16.6165  16.8095  17.3971  17.5001
    17.6357  17.6957  17.7875  17.8842  18.0167  18.0407  18.1233  18.4351
    18.4468  19.2119  19.3378  19.6123  19.6560  19.8496  20.0283  20.8313
    20.9321  20.9676  21.0076  21.4109  21.4233  21.5847  22.1385  22.2925
    22.2926  22.4824  22.6985  22.9988  24.0100  25.5869  25.8788  26.2432

          k = 0.0000 0.1925 0.3616 (  5061 PWs)   bands (ev):

   -53.9893 -53.9846 -36.5543 -36.4882 -36.4791 -36.4754 -36.4434 -36.4411
   -22.2979 -22.2853 -22.2702 -22.2670 -22.2608 -22.2562 -12.0004 -11.9874
   -11.8991 -11.8839 -11.8088 -11.7868 -11.7393 -11.5467 -11.5143 -11.4499
   -11.4088 -11.3773 -11.3484 -11.3196 -11.3013 -11.2837 -11.2673 -11.2437
    14.3441  14.3463  14.5627  14.6274  14.6640  14.7024  14.9410  15.0634
    15.3295  15.3302  15.3592  15.3668  16.1326  16.8689  17.2680  17.5579
    17.5755  17.6190  17.6506  17.8191  17.9274  18.1107  18.3324  18.5437
    18.5819  19.2679  19.5784  19.6540  20.1793  20.2945  20.5509  20.5683
    20.9837  21.0178  21.0365  21.0556  21.2860  21.3361  21.6924  21.7029
    22.2257  22.2741  22.6231  22.7599  23.6158  24.8528  24.9928  25.1674

          k = 0.0000 0.1925 0.5424 (  5050 PWs)   bands (ev):

   -53.9874 -53.9843 -36.5325 -36.5085 -36.4684 -36.4644 -36.4555 -36.4522
   -22.2914 -22.2809 -22.2658 -22.2657 -22.2640 -22.2552 -11.9919 -11.9862
   -11.9075 -11.8916 -11.8731 -11.8550 -11.6320 -11.5092 -11.4766 -11.4212
   -11.4159 -11.3758 -11.3698 -11.3224 -11.3063 -11.2805 -11.2798 -11.2584
    14.4112  14.4129  14.5873  14.6260  14.7447  14.8539  15.1284  15.1949
    15.2146  15.2482  15.2982  15.3255  15.9189  16.4337  17.3034  17.3961
    17.6244  17.6808  17.7325  17.8640  18.0577  18.2149  18.4120  18.4128
    19.0879  19.3918  19.7791  19.9385  20.0518  20.1908  20.3241  20.5963
    20.8956  20.9055  20.9524  21.0106  21.2566  21.2870  21.5016  21.6283
    22.1786  22.3859  22.4482  23.1895  23.5349  23.6570  24.1068  24.3505

          k = 0.0000 0.3849 0.0000 (  5079 PWs)   bands (ev):

   -53.9917 -53.9869 -36.5607 -36.5075 -36.4861 -36.4640 -36.4330 -36.4310
   -22.3049 -22.2960 -22.2738 -22.2735 -22.2590 -22.2558 -11.9795 -11.9254
   -11.8032 -11.7704 -11.7491 -11.7333 -11.7141 -11.6431 -11.6043 -11.5603
   -11.4448 -11.4031 -11.3856 -11.3769 -11.3615 -11.2930 -11.2440 -11.2310
    14.5369  14.7011  14.7235  14.7752  14.8610  14.8991  14.9837  15.0310
    15.2806  15.3691  15.5906  15.8004  16.6608  16.6650  17.3351  17.5322
    17.5324  17.8108  17.8134  17.8903  17.9255  18.0486  18.1247  18.3378
    18.6313  18.6477  18.8018  18.8448  19.0550  19.2419  19.4904  20.3545
    20.4549  20.7468  20.8119  21.0183  21.3712  21.3749  21.4061  21.6205
    22.2543  22.5583  22.7989  24.1110  24.8793  26.3488  26.9629  27.0018

          k = 0.0000 0.3849 0.1808 (  5090 PWs)   bands (ev):

   -53.9923 -53.9885 -36.5556 -36.5048 -36.4836 -36.4677 -36.4377 -36.4337
   -22.3078 -22.2995 -22.2747 -22.2720 -22.2626 -22.2622 -11.9656 -11.9302
   -11.8450 -11.8054 -11.7841 -11.6911 -11.6660 -11.6385 -11.6282 -11.5238
   -11.4505 -11.4302 -11.3977 -11.3421 -11.3408 -11.2829 -11.2576 -11.2499
    14.5919  14.6442  14.7114  14.7730  14.8564  14.9174  15.0385  15.1238
    15.3861  15.4251  15.5004  15.7272  16.7271  16.9141  17.0749  17.4201
    17.5728  17.5922  17.6625  17.8159  17.8519  18.0943  18.1321  18.4097
    18.4875  18.9125  19.0322  19.1780  19.2942  19.3604  19.3719  20.2692
    20.4143  20.5506  20.8186  20.9922  21.2182  21.2636  21.4174  21.5352
    22.1260  22.4492  22.8712  24.0891  24.2177  26.1525  26.4671  26.6950

          k = 0.0000 0.3849 0.3616 (  5078 PWs)   bands (ev):

   -53.9909 -53.9869 -36.5414 -36.4982 -36.4768 -36.4757 -36.4496 -36.4412
   -22.3066 -22.2919 -22.2691 -22.2684 -22.2628 -22.2619 -11.9526 -11.9369
   -11.8677 -11.8478 -11.8030 -11.7255 -11.6896 -11.6050 -11.5479 -11.4573
   -11.4533 -11.4319 -11.4092 -11.3248 -11.3185 -11.3108 -11.2792 -11.2524
    14.5712  14.5873  14.7375  14.8161  15.0156  15.0192  15.1668  15.2693
    15.2714  15.4478  15.5594  15.7406  16.4616  16.8134  17.0749  17.3387
    17.4919  17.5595  17.6033  17.8902  17.9766  18.1718  18.2070  18.3490
    18.6815  18.8233  19.0039  19.2444  19.4888  19.5156  20.0505  20.1578
    20.2024  20.5593  20.7353  20.7566  21.0579  21.1472  21.2942  21.4754
    21.5756  22.7115  22.8394  23.1376  24.3101  24.5352  25.8032  25.8485

          k = 0.0000 0.3849 0.5424 (  5051 PWs)   bands (ev):

   -53.9874 -53.9844 -36.5213 -36.5016 -36.4778 -36.4646 -36.4644 -36.4521
   -22.2955 -22.2851 -22.2641 -22.2613 -22.2588 -22.2564 -11.9544 -11.9378
   -11.8596 -11.8466 -11.8381 -11.8023 -11.6226 -11.5459 -11.5454 -11.4869
   -11.4472 -11.4266 -11.3557 -11.3396 -11.3189 -11.2996 -11.2958 -11.2627
    14.6337  14.6564  14.7745  14.8394  14.9256  15.0219  15.1710  15.2457
    15.3645  15.5344  15.6686  15.7824  16.3684  16.7416  16.9100  17.1779
    17.4402  17.7401  17.7754  17.8772  17.9601  18.3512  18.3732  18.4982
    18.6914  18.7325  18.8875  19.0997  19.5106  19.5507  19.8292  19.9587
    20.4010  20.6277  20.7569  21.0203  21.1454  21.1818  21.3326  21.3550
    21.8590  22.0262  22.5401  22.9299  23.7367  24.4620  24.6650  24.9250

          k = 0.0000-0.5774 0.0000 (  5068 PWs)   bands (ev):

   -53.9888 -53.9874 -36.5489 -36.5204 -36.4864 -36.4617 -36.4344 -36.4304
   -22.3072 -22.3012 -22.2631 -22.2623 -22.2583 -22.2533 -11.9721 -11.8624
   -11.8122 -11.7819 -11.7499 -11.6838 -11.6759 -11.5970 -11.5527 -11.5458
   -11.5196 -11.4893 -11.4272 -11.4089 -11.3778 -11.3046 -11.2449 -11.2237
    14.6740  14.7538  14.8475  14.9695  14.9952  15.0160  15.1275  15.3386
    15.4354  15.5800  15.6899  15.9069  16.1347  17.1343  17.2342  17.3095
    17.3249  17.5789  17.7294  17.7426  17.7602  17.8050  18.0712  18.3075
    18.3116  18.8544  18.8697  18.9676  19.2226  19.4891  19.5491  19.6637
    20.0199  20.1648  20.4364  20.8375  20.9256  21.3440  21.4219  21.5682
    22.3003  22.4784  22.7630  24.1346  26.3723  26.4037  26.8462  26.9921

          k = 0.0000-0.5774 0.1808 (  5072 PWs)   bands (ev):

   -53.9886 -53.9882 -36.5436 -36.5177 -36.4835 -36.4645 -36.4399 -36.4332
   -22.3017 -22.2986 -22.2720 -22.2623 -22.2611 -22.2554 -11.9529 -11.9014
   -11.8185 -11.7842 -11.7788 -11.6714 -11.6351 -11.5808 -11.5713 -11.5413
   -11.5409 -11.5186 -11.4318 -11.3628 -11.3483 -11.2899 -11.2513 -11.2502
    14.7016  14.7380  14.8617  14.9350  14.9712  15.0927  15.1763  15.3302
    15.4273  15.5243  15.7646  15.9741  16.3089  16.8452  17.1489  17.3804
    17.4103  17.5650  17.5766  17.6165  17.7002  18.1418  18.1961  18.2947
    18.5084  18.7515  18.8406  19.0472  19.2187  19.4847  19.6956  19.7206
    19.9455  20.1016  20.1845  20.9143  20.9175  21.2027  21.2859  21.4410
    22.1063  22.4938  22.9015  24.3178  25.1879  25.4880  26.7120  27.2034

          k = 0.0000-0.5774 0.3616 (  5090 PWs)   bands (ev):

   -53.9908 -53.9897 -36.5289 -36.5110 -36.4759 -36.4716 -36.4549 -36.4414
   -22.3039 -22.3002 -22.2713 -22.2712 -22.2663 -22.2638 -11.9448 -11.9173
   -11.8257 -11.8234 -11.7773 -11.6815 -11.6374 -11.6218 -11.6044 -11.5183
   -11.4950 -11.4819 -11.4065 -11.3263 -11.3256 -11.3183 -11.2689 -11.2645
    14.7282  14.7845  14.8604  14.9019  15.0191  15.1342  15.2114  15.2936
    15.3172  15.6717  16.0108  16.0416  16.5197  16.7012  17.0494  17.0751
    17.4334  17.5483  17.5499  17.6564  17.8297  18.2768  18.3631  18.5267
    18.5566  18.6496  18.7547  18.9646  19.2843  19.3811  19.4308  19.8356
    20.1359  20.1853  20.1872  20.5868  21.0658  21.0711  21.1282  21.3993
    21.5489  22.7442  23.1980  23.5770  24.0534  24.5412  26.1711  26.2437

          k = 0.0000-0.5774 0.5424 (  5080 PWs)   bands (ev):

   -53.9904 -53.9879 -36.5097 -36.5032 -36.4796 -36.4740 -36.4646 -36.4526
   -22.2973 -22.2941 -22.2742 -22.2718 -22.2659 -22.2597 -11.9510 -11.9273
   -11.8176 -11.8016 -11.7802 -11.7658 -11.6276 -11.6106 -11.5870 -11.5327
   -11.4910 -11.4346 -11.3741 -11.3344 -11.3245 -11.3089 -11.2880 -11.2703
    14.7708  14.8942  14.9005  14.9174  14.9513  15.0657  15.1415  15.1919
    15.5085  15.6698  16.1845  16.3148  16.4833  16.7898  16.8917  17.0706
    17.1934  17.3719  17.8021  17.9670  18.0754  18.3481  18.3612  18.4029
    18.4662  18.5469  18.9294  18.9591  18.9641  19.0306  19.1561  19.6256
    20.0145  20.3729  20.7543  21.0080  21.1170  21.2073  21.2139  21.2228
    21.8858  22.2567  22.5850  22.5855  23.8940  24.7442  24.9027  25.1973

          k = 0.2000 0.1155 0.0000 (  5087 PWs)   bands (ev):

   -53.9915 -53.9882 -36.5722 -36.4942 -36.4859 -36.4673 -36.4315 -36.4312
   -22.3111 -22.3034 -22.2738 -22.2693 -22.2611 -22.2577 -11.9984 -11.9942
   -11.8283 -11.7573 -11.7553 -11.7493 -11.7400 -11.6905 -11.6627 -11.5420
   -11.3937 -11.3803 -11.3475 -11.3068 -11.3015 -11.2673 -11.2450 -11.2422
    14.2295  14.4622  14.5432  14.5971  14.6279  14.6784  14.7545  14.9568
    15.0517  15.4527  15.5485  15.6026  16.2621  17.0003  17.3824  17.5624
    17.6594  17.7623  17.9040  17.9551  18.1540  18.3763  18.5003  18.5687
    18.7101  18.7371  18.7487  18.9305  19.1162  19.2208  20.0737  20.8075
    20.9201  20.9618  21.1237  21.3595  21.5051  21.6274  22.0580  22.1697
    22.2968  22.7046  23.0064  23.5192  24.1131  25.9381  26.3258  27.1633

          k = 0.2000 0.1155 0.1808 (  5078 PWs)   bands (ev):

   -53.9909 -53.9869 -36.5669 -36.4914 -36.4831 -36.4718 -36.4351 -36.4337
   -22.3083 -22.3007 -22.2709 -22.2641 -22.2622 -22.2570 -11.9944 -11.9881
   -11.8483 -11.8290 -11.8059 -11.7330 -11.7039 -11.6402 -11.6325 -11.5171
   -11.3949 -11.3745 -11.3462 -11.3073 -11.2930 -11.2690 -11.2680 -11.2477
    14.3799  14.4982  14.5082  14.5713  14.6054  14.6227  14.6976  15.1197
    15.2363  15.2852  15.5344  15.5466  16.6611  16.8316  17.3333  17.4803
    17.6481  17.6785  17.7783  17.8505  18.0045  18.0590  18.1455  18.4205
    18.4361  19.1715  19.3372  19.4722  19.5203  19.7565  19.8326  20.7472
    20.8677  20.8806  20.9765  21.3905  21.4127  21.5548  22.0212  22.0831
    22.1778  22.4536  22.9121  22.9783  24.0476  25.7916  26.0417  26.3609

          k = 0.2000 0.1155 0.3616 (  5067 PWs)   bands (ev):

   -53.9898 -53.9854 -36.5523 -36.4887 -36.4799 -36.4756 -36.4444 -36.4411
   -22.2998 -22.2871 -22.2711 -22.2664 -22.2643 -22.2575 -11.9880 -11.9794
   -11.8980 -11.8780 -11.8080 -11.7773 -11.7332 -11.5589 -11.5182 -11.4452
   -11.4168 -11.3856 -11.3539 -11.3277 -11.3049 -11.2838 -11.2760 -11.2449
    14.3828  14.3863  14.5895  14.6657  14.7259  14.7826  14.9662  15.1221
    15.3217  15.3493  15.3891  15.3940  16.1860  16.9275  17.1716  17.5150
    17.5772  17.5789  17.6309  17.8679  17.9910  18.1117  18.2619  18.5401
    18.5903  19.1287  19.5015  19.6206  19.9938  20.1020  20.4502  20.4931
    20.9367  20.9437  20.9503  21.0429  21.2102  21.3589  21.5947  21.6177
    22.0688  22.2718  22.6440  22.8414  23.7803  24.8441  25.1595  25.2868

          k = 0.2000 0.1155 0.5424 (  5053 PWs)   bands (ev):

   -53.9877 -53.9846 -36.5306 -36.5072 -36.4701 -36.4645 -36.4570 -36.4524
   -22.2926 -22.2819 -22.2669 -22.2644 -22.2607 -22.2601 -11.9802 -11.9767
   -11.9041 -11.8841 -11.8712 -11.8462 -11.6299 -11.5113 -11.4908 -11.4306
   -11.4255 -11.3838 -11.3636 -11.3172 -11.3169 -11.2880 -11.2839 -11.2576
    14.4513  14.4522  14.6185  14.6703  14.7801  14.8938  15.1710  15.2076
    15.2348  15.2905  15.3507  15.3605  15.9977  16.4937  17.2199  17.3429
    17.6406  17.6528  17.7782  17.8358  18.0969  18.1659  18.4182  18.4303
    18.9884  19.3039  19.5913  19.7837  19.9435  20.0629  20.2611  20.5196
    20.8182  20.8667  20.9322  21.0255  21.2578  21.2751  21.3891  21.5470
    22.0639  22.2565  22.4617  23.2354  23.4932  23.8461  24.2244  24.4724

          k = 0.2000 0.3079 0.0000 (  5075 PWs)   bands (ev):

   -53.9904 -53.9871 -36.5620 -36.5020 -36.4922 -36.4614 -36.4328 -36.4317
   -22.3015 -22.3005 -22.2718 -22.2667 -22.2598 -22.2571 -11.9816 -11.9319
   -11.7837 -11.7666 -11.7525 -11.7460 -11.7376 -11.6587 -11.5967 -11.5633
   -11.4267 -11.3993 -11.3925 -11.3794 -11.3030 -11.2966 -11.2691 -11.2307
    14.5878  14.6820  14.6965  14.7059  14.7900  14.9137  14.9532  15.0676
    15.2073  15.3761  15.5933  15.7601  16.6050  16.8205  17.2348  17.3896
    17.5872  17.8146  17.8445  17.9413  17.9518  18.2518  18.2554  18.3298
    18.4226  18.4959  18.7762  18.9909  19.0457  19.2570  19.6004  20.3808
    20.4443  20.7329  20.8416  21.3210  21.4293  21.4958  21.5613  21.9473
    21.9843  22.1325  22.5647  24.6491  24.7360  25.4718  26.9061  27.2633

          k = 0.2000 0.3079 0.1808 (  5088 PWs)   bands (ev):

   -53.9914 -53.9889 -36.5567 -36.4993 -36.4907 -36.4646 -36.4363 -36.4354
   -22.3068 -22.3029 -22.2730 -22.2711 -22.2630 -22.2591 -11.9670 -11.9317
   -11.8493 -11.8142 -11.7706 -11.7257 -11.6518 -11.6493 -11.6255 -11.5252
   -11.4382 -11.4338 -11.3695 -11.3581 -11.2954 -11.2896 -11.2720 -11.2577
    14.6140  14.6831  14.6981  14.7533  14.7866  14.8208  15.0055  15.2003
    15.2723  15.4537  15.4977  15.6847  16.7921  16.9189  17.1750  17.3627
    17.4301  17.5515  17.6565  17.8087  17.9722  18.0765  18.2172  18.3510
    18.4696  19.0043  19.0906  19.1916  19.3375  19.3643  19.3683  20.1894
    20.3783  20.7706  20.8771  21.1535  21.2036  21.3799  21.5799  21.8699
    22.0665  22.2075  22.2906  23.9806  24.7531  25.4969  26.4194  26.7333

          k = 0.2000 0.3079 0.3616 (  5068 PWs)   bands (ev):

   -53.9900 -53.9858 -36.5427 -36.4911 -36.4886 -36.4700 -36.4472 -36.4428
   -22.3040 -22.2888 -22.2697 -22.2678 -22.2608 -22.2550 -11.9449 -11.9299
   -11.8931 -11.8552 -11.7835 -11.7573 -11.6845 -11.6059 -11.5244 -11.4671
   -11.4586 -11.4307 -11.3618 -11.3472 -11.3230 -11.2998 -11.2744 -11.2615
    14.5438  14.5886  14.7506  14.8519  14.9016  15.0398  15.1212  15.2805
    15.2929  15.3884  15.5138  15.6952  16.4583  16.8731  17.1798  17.2449
    17.3884  17.5158  17.7646  17.7811  18.0001  18.0789  18.2492  18.4438
    18.7287  18.7928  19.0771  19.2896  19.5569  19.6658  19.7969  20.1817
    20.2217  20.7606  20.8630  20.9161  21.0058  21.0229  21.4642  21.7385
    21.9880  22.1499  22.4457  22.8438  24.8276  24.9954  25.0657  25.5598

          k = 0.2000 0.3079 0.5424 (  5058 PWs)   bands (ev):

   -53.9873 -53.9861 -36.5225 -36.5017 -36.4778 -36.4667 -36.4602 -36.4532
   -22.2930 -22.2861 -22.2661 -22.2636 -22.2630 -22.2595 -11.9368 -11.9302
   -11.8945 -11.8784 -11.8251 -11.8040 -11.6229 -11.5629 -11.5086 -11.4920
   -11.4415 -11.3994 -11.3588 -11.3501 -11.3346 -11.3018 -11.2764 -11.2712
    14.6109  14.6486  14.7794  14.8160  14.9413  14.9994  15.2223  15.2596
    15.3163  15.3986  15.6817  15.7088  16.3528  16.7624  16.9662  17.1326
    17.4841  17.5274  17.8678  17.9103  18.0644  18.1055  18.4735  18.4956
    18.7119  18.8507  18.8809  19.2078  19.6487  19.6593  19.7110  20.0219
    20.3417  20.7068  20.8936  20.9222  21.0517  21.3781  21.4146  21.7825
    21.8586  22.3044  22.3413  22.5164  23.3555  23.5489  25.2938  25.5240

          k = 0.2000 0.5004 0.0000 (  5072 PWs)   bands (ev):

   -53.9892 -53.9879 -36.5479 -36.5140 -36.4989 -36.4531 -36.4366 -36.4318
   -22.3004 -22.2983 -22.2739 -22.2625 -22.2611 -22.2547 -11.9689 -11.8434
   -11.7744 -11.7715 -11.7584 -11.7121 -11.6963 -11.6357 -11.5961 -11.5449
   -11.4932 -11.4548 -11.4012 -11.3838 -11.3641 -11.3280 -11.2863 -11.2218
    14.7003  14.8456  14.9252  14.9869  15.0573  15.1067  15.1609  15.3237
    15.3469  15.5323  15.5804  15.9276  16.3844  16.8879  17.0679  17.1930
    17.3904  17.5872  17.7080  17.7516  17.8654  17.9602  17.9983  18.1598
    18.3552  18.4706  18.7899  19.1816  19.2521  19.4075  19.5363  19.7097
    20.1160  20.4569  20.6577  20.9407  21.2281  21.3368  21.4064  21.4897
    21.8020  21.8934  22.4502  24.8868  25.5382  26.2824  26.5118  27.2868

          k = 0.2000 0.5004 0.1808 (  5079 PWs)   bands (ev):

   -53.9908 -53.9879 -36.5428 -36.5115 -36.4968 -36.4554 -36.4400 -36.4364
   -22.3030 -22.2966 -22.2760 -22.2679 -22.2626 -22.2558 -11.9483 -11.8685
   -11.8219 -11.7956 -11.7634 -11.7065 -11.6393 -11.6145 -11.5619 -11.5480
   -11.5437 -11.5000 -11.3839 -11.3590 -11.3369 -11.3098 -11.2893 -11.2482
    14.7281  14.8785  14.9301  14.9745  15.0245  15.1286  15.1812  15.2908
    15.4027  15.4494  15.6628  15.9513  16.5727  16.8592  17.1812  17.2196
    17.2887  17.4132  17.5984  17.6109  17.8089  17.9461  18.1016  18.3800
    18.4330  18.7691  18.8940  19.1085  19.1484  19.3652  19.5547  19.7225
    19.9606  20.4176  20.6488  20.8230  21.1495  21.1966  21.2446  21.5096
    21.9207  22.0373  22.1765  25.0621  25.1683  25.7152  25.9784  26.6426

          k = 0.2000 0.5004 0.3616 (  5085 PWs)   bands (ev):

   -53.9915 -53.9884 -36.5285 -36.5045 -36.4919 -36.4611 -36.4525 -36.4452
   -22.3058 -22.2987 -22.2764 -22.2684 -22.2641 -22.2569 -11.9124 -11.8963
   -11.8551 -11.8234 -11.7750 -11.7332 -11.6291 -11.6129 -11.5544 -11.5456
   -11.5081 -11.4662 -11.3901 -11.3409 -11.3220 -11.3155 -11.2839 -11.2747
    14.7622  14.8691  14.9284  15.0090  15.0702  15.1466  15.1938  15.2574
    15.2974  15.5372  15.9520  16.0875  16.5789  16.8569  17.0645  17.1572
    17.2395  17.4802  17.5626  17.7603  17.8224  17.9285  18.3466  18.4474
    18.6023  18.6268  18.7041  18.7755  19.3100  19.4202  19.4607  19.9170
    20.0865  20.4144  20.4982  20.7225  20.9135  20.9555  21.3342  21.4995
    21.6234  22.1563  22.2639  23.6539  24.3859  24.9887  25.5337  26.2811

          k = 0.2000 0.5004 0.5424 (  5080 PWs)   bands (ev):

   -53.9897 -53.9885 -36.5093 -36.4981 -36.4873 -36.4735 -36.4607 -36.4546
   -22.2985 -22.2945 -22.2720 -22.2689 -22.2649 -22.2622 -11.9162 -11.8887
   -11.8588 -11.8349 -11.7860 -11.7739 -11.6180 -11.6160 -11.5464 -11.5447
   -11.4571 -11.4351 -11.3852 -11.3801 -11.3185 -11.3075 -11.2867 -11.2752
    14.8122  14.9087  14.9360  14.9581  15.0468  15.0971  15.1565  15.2443
    15.4452  15.5826  16.1663  16.2645  16.6183  16.8401  16.9728  17.0741
    17.2985  17.4324  17.6968  17.8181  17.9785  18.0431  18.1202  18.3901
    18.4366  18.5134  18.8056  18.8974  19.0392  19.1097  19.2846  19.7573
    20.2860  20.6106  20.7821  20.8795  21.0998  21.2645  21.3597  21.5166
    21.8129  22.1677  22.2903  22.4903  22.9540  23.4495  26.1600  26.6717

          k = 0.2000-0.4619 0.0000 (  5078 PWs)   bands (ev):

   -53.9905 -53.9879 -36.5504 -36.5117 -36.4983 -36.4544 -36.4359 -36.4319
   -22.3026 -22.3006 -22.2730 -22.2674 -22.2602 -22.2558 -11.9716 -11.8581
   -11.7741 -11.7672 -11.7578 -11.7223 -11.7068 -11.6344 -11.5944 -11.5288
   -11.5090 -11.4468 -11.4016 -11.3826 -11.3501 -11.3224 -11.2856 -11.2234
    14.7001  14.8209  14.9008  14.9415  15.0073  15.0768  15.1331  15.3202
    15.3319  15.4171  15.5823  15.9324  16.4917  16.8884  16.9792  17.3027
    17.4106  17.5727  17.7368  17.7829  17.9422  17.9903  18.0268  18.1756
    18.3654  18.4686  18.7375  19.1545  19.2088  19.4335  19.5915  19.7108
    20.1178  20.5096  20.6731  21.0554  21.3283  21.3569  21.4238  21.5019
    21.7976  21.9106  22.4639  24.8859  25.4874  25.9675  26.5690  27.2775

          k = 0.2000-0.4619 0.1808 (  5075 PWs)   bands (ev):

   -53.9900 -53.9876 -36.5452 -36.5090 -36.4962 -36.4568 -36.4390 -36.4364
   -22.3022 -22.2978 -22.2715 -22.2685 -22.2603 -22.2552 -11.9505 -11.8727
   -11.8347 -11.7977 -11.7547 -11.7148 -11.6417 -11.6246 -11.5643 -11.5475
   -11.5272 -11.4887 -11.3800 -11.3618 -11.3274 -11.3060 -11.2886 -11.2492
    14.7128  14.8547  14.9131  14.9278  14.9916  15.0663  15.1899  15.2655
    15.4034  15.4533  15.5724  15.9377  16.6419  16.8665  17.1886  17.2155
    17.3011  17.4211  17.6506  17.6829  17.7806  17.9416  18.0859  18.4393
    18.5013  18.7347  18.9210  19.0977  19.1478  19.3691  19.6028  19.7220
    19.9336  20.5045  20.6925  20.8791  21.1530  21.2267  21.3240  21.5689
    21.8977  22.0565  22.1837  24.9288  25.0803  25.6355  26.1212  26.6235

          k = 0.2000-0.4619 0.3616 (  5078 PWs)   bands (ev):

   -53.9909 -53.9874 -36.5311 -36.5016 -36.4917 -36.4628 -36.4512 -36.4449
   -22.3041 -22.2969 -22.2730 -22.2693 -22.2624 -22.2549 -11.9158 -11.8975
   -11.8652 -11.8315 -11.7698 -11.7384 -11.6322 -11.6245 -11.5429 -11.5319
   -11.5062 -11.4569 -11.3849 -11.3449 -11.3171 -11.3145 -11.2824 -11.2734
    14.7243  14.8187  14.8996  14.9976  15.0688  15.1437  15.2101  15.2190
    15.2928  15.5178  15.8684  16.0339  16.5988  16.8041  17.1257  17.1789
    17.2631  17.4883  17.5586  17.7900  17.8447  17.8979  18.3571  18.4750
    18.6237  18.6814  18.8011  18.8212  19.3575  19.4125  19.4371  19.9187
    20.0783  20.5008  20.5505  20.7620  20.9207  20.9576  21.4082  21.5166
    21.6783  22.1261  22.2769  23.4979  24.5178  24.9735  25.5213  26.1105

          k = 0.2000-0.4619 0.5424 (  5069 PWs)   bands (ev):

   -53.9887 -53.9871 -36.5120 -36.4976 -36.4861 -36.4723 -36.4606 -36.4543
   -22.2940 -22.2916 -22.2688 -22.2667 -22.2637 -22.2601 -11.9172 -11.8908
   -11.8670 -11.8503 -11.7837 -11.7765 -11.6191 -11.6120 -11.5394 -11.5352
   -11.4548 -11.4258 -11.3836 -11.3756 -11.3210 -11.3046 -11.2848 -11.2750
    14.7781  14.8629  14.9233  14.9306  15.0459  15.0828  15.1766  15.2481
    15.4175  15.5529  16.0912  16.1588  16.6363  16.8103  16.9708  17.0571
    17.3310  17.5270  17.6270  17.7856  18.0055  18.0821  18.1837  18.4034
    18.5547  18.6163  18.8805  18.9382  18.9731  19.1114  19.3474  19.7971
    20.2751  20.6290  20.7983  20.8871  21.0922  21.3108  21.3753  21.6018
    21.8277  22.1602  22.2583  22.4711  23.0328  23.4374  26.0857  26.4701

          k = 0.2000-0.2694 0.0000 (  5077 PWs)   bands (ev):

   -53.9902 -53.9878 -36.5645 -36.5003 -36.4903 -36.4632 -36.4325 -36.4315
   -22.3023 -22.2999 -22.2710 -22.2657 -22.2638 -22.2586 -11.9843 -11.9492
   -11.7955 -11.7650 -11.7512 -11.7487 -11.7388 -11.6667 -11.6145 -11.5566
   -11.4063 -11.3981 -11.3789 -11.3750 -11.3015 -11.2883 -11.2612 -11.2325
    14.4972  14.6233  14.6707  14.6942  14.7447  14.8667  14.8727  15.0372
    15.1756  15.3902  15.5958  15.7053  16.5208  16.8657  17.3292  17.4040
    17.6159  17.8347  17.8890  17.9248  17.9963  18.2910  18.3024  18.3746
    18.4627  18.5580  18.8061  18.9320  19.0436  19.2263  19.6733  20.4984
    20.5890  20.7619  20.9253  21.3278  21.5006  21.5174  21.5810  21.9680
    22.0655  22.3406  22.5963  24.4504  24.5209  25.5507  26.9948  27.2383

          k = 0.2000-0.2694 0.1808 (  5087 PWs)   bands (ev):

   -53.9919 -53.9882 -36.5594 -36.4975 -36.4885 -36.4666 -36.4362 -36.4347
   -22.3092 -22.3024 -22.2754 -22.2681 -22.2626 -22.2579 -11.9721 -11.9475
   -11.8491 -11.8177 -11.7800 -11.7271 -11.6631 -11.6487 -11.6306 -11.5224
   -11.4222 -11.4174 -11.3682 -11.3503 -11.2950 -11.2828 -11.2639 -11.2609
    14.5833  14.6112  14.6480  14.7113  14.7468  14.7740  14.9196  15.1784
    15.2631  15.4422  15.5069  15.6210  16.7734  16.9019  17.2010  17.4341
    17.4534  17.6108  17.6526  17.8306  17.9847  18.1128  18.2533  18.3077
    18.4445  19.0806  19.1595  19.2014  19.3500  19.4253  19.4522  20.3202
    20.5017  20.7965  20.9476  21.2298  21.2507  21.4078  21.5904  21.9335
    22.1024  22.2712  22.4160  23.7463  24.5815  25.5513  26.4213  26.7643

          k = 0.2000-0.2694 0.3616 (  5068 PWs)   bands (ev):

   -53.9903 -53.9855 -36.5452 -36.4905 -36.4862 -36.4717 -36.4467 -36.4422
   -22.3023 -22.2864 -22.2705 -22.2678 -22.2623 -22.2573 -11.9538 -11.9440
   -11.8940 -11.8604 -11.7919 -11.7596 -11.6993 -11.5952 -11.5234 -11.4571
   -11.4404 -11.4267 -11.3621 -11.3381 -11.3233 -11.2983 -11.2728 -11.2570
    14.5025  14.5358  14.7109  14.7997  14.8616  15.0080  15.0722  15.2659
    15.2988  15.3692  15.4617  15.6151  16.3847  16.9407  17.1191  17.2954
    17.4263  17.5404  17.7513  17.8378  18.0605  18.0771  18.2070  18.4538
    18.6843  18.8776  19.1355  19.4169  19.6075  19.7489  20.0339  20.2250
    20.3140  20.8090  20.9290  20.9544  21.0462  21.0920  21.4498  21.7189
    21.9822  22.2906  22.5359  22.6991  24.6669  24.8748  25.1503  25.5098

          k = 0.2000-0.2694 0.5424 (  5058 PWs)   bands (ev):

   -53.9878 -53.9856 -36.5246 -36.5032 -36.4760 -36.4658 -36.4598 -36.4528
   -22.2932 -22.2876 -22.2659 -22.2639 -22.2624 -22.2586 -11.9472 -11.9407
   -11.8972 -11.8790 -11.8384 -11.8145 -11.6242 -11.5483 -11.5059 -11.4767
   -11.4376 -11.3978 -11.3528 -11.3412 -11.3341 -11.3030 -11.2774 -11.2681
    14.5714  14.5979  14.7393  14.7829  14.9008  14.9806  15.2173  15.2576
    15.2955  15.3701  15.5811  15.6162  16.2626  16.6946  17.0220  17.1775
    17.5099  17.5700  17.8491  17.9682  18.0286  18.1325  18.4652  18.4728
    18.7685  18.9513  18.9937  19.3354  19.7370  19.7889  19.9096  20.0939
    20.4205  20.7330  20.8905  20.9550  21.0663  21.3662  21.3918  21.7224
    21.8914  22.2697  22.3835  22.7045  23.3527  23.7044  24.9766  25.3121

          k = 0.2000-0.0770 0.0000 (  5083 PWs)   bands (ev):

   -53.9908 -53.9880 -36.5730 -36.4930 -36.4860 -36.4674 -36.4316 -36.4311
   -22.3104 -22.3044 -22.2710 -22.2654 -22.2626 -22.2571 -12.0046 -11.9954
   -11.8319 -11.7564 -11.7548 -11.7493 -11.7422 -11.6933 -11.6688 -11.5408
   -11.3925 -11.3801 -11.3367 -11.3067 -11.2884 -11.2646 -11.2465 -11.2435
    14.1939  14.4464  14.5107  14.5787  14.6037  14.6733  14.7411  14.9487
    15.0284  15.4650  15.5291  15.6038  16.2243  17.0218  17.3931  17.5378
    17.6659  17.7653  17.9148  17.9411  18.1846  18.3767  18.5297  18.6428
    18.6804  18.7433  18.7781  18.9594  19.1343  19.2267  20.1605  20.8434
    20.9251  21.0185  21.1513  21.3580  21.5217  21.6199  22.1156  22.2804
    22.3721  22.7204  23.0060  23.3761  24.1654  25.7482  26.3730  27.0643

          k = 0.2000-0.0770 0.1808 (  5080 PWs)   bands (ev):

   -53.9908 -53.9875 -36.5678 -36.4901 -36.4834 -36.4721 -36.4350 -36.4338
   -22.3091 -22.3020 -22.2680 -22.2656 -22.2632 -22.2585 -12.0014 -11.9903
   -11.8479 -11.8316 -11.8093 -11.7354 -11.7088 -11.6391 -11.6327 -11.5174
   -11.3920 -11.3744 -11.3363 -11.3063 -11.2856 -11.2688 -11.2667 -11.2479
    14.3501  14.4815  14.4964  14.5456  14.5776  14.6030  14.6775  15.1205
    15.2114  15.2658  15.5380  15.5465  16.6418  16.8216  17.3671  17.4867
    17.6385  17.6862  17.7761  17.8736  18.0020  18.0618  18.1316  18.4226
    18.4470  19.1904  19.3358  19.5348  19.5768  19.7966  19.9169  20.7828
    20.8610  20.9421  21.0085  21.3958  21.4278  21.5580  22.0876  22.1863
    22.2378  22.4564  22.8353  22.9192  24.0687  25.6061  26.0574  26.3212

          k = 0.2000-0.0770 0.3616 (  5063 PWs)   bands (ev):

   -53.9897 -53.9846 -36.5532 -36.4883 -36.4800 -36.4752 -36.4439 -36.4411
   -22.3004 -22.2860 -22.2712 -22.2646 -22.2622 -22.2559 -11.9928 -11.9829
   -11.8986 -11.8809 -11.8079 -11.7821 -11.7359 -11.5535 -11.5159 -11.4473
   -11.4130 -11.3828 -11.3488 -11.3250 -11.3037 -11.2866 -11.2693 -11.2445
    14.3645  14.3693  14.5798  14.6484  14.6931  14.7496  14.9555  15.0970
    15.3263  15.3412  15.3662  15.3880  16.1618  16.9023  17.2170  17.5120
    17.5750  17.6101  17.6459  17.8496  17.9570  18.1119  18.2926  18.5437
    18.5879  19.1977  19.5024  19.6649  20.0615  20.2045  20.4796  20.5402
    20.8808  20.9655  21.0452  21.0719  21.2416  21.3562  21.5660  21.7600
    22.1334  22.2864  22.6038  22.7523  23.7529  24.8672  25.0679  25.2176

          k = 0.2000-0.0770 0.5424 (  5055 PWs)   bands (ev):

   -53.9875 -53.9853 -36.5314 -36.5078 -36.4695 -36.4645 -36.4563 -36.4522
   -22.2907 -22.2837 -22.2669 -22.2653 -22.2642 -22.2590 -11.9855 -11.9808
   -11.9065 -11.8881 -11.8720 -11.8500 -11.6309 -11.5105 -11.4838 -11.4255
   -11.4233 -11.3805 -11.3661 -11.3206 -11.3112 -11.2895 -11.2775 -11.2588
    14.4330  14.4351  14.6057  14.6495  14.7649  14.8762  15.1576  15.2017
    15.2236  15.2673  15.3206  15.3505  15.9624  16.4672  17.2594  17.3629
    17.6208  17.6792  17.7479  17.8587  18.0752  18.1892  18.4160  18.4214
    19.0342  19.3476  19.6581  19.8571  20.0003  20.1296  20.2841  20.5550
    20.8362  20.8973  20.9315  21.0213  21.2203  21.2985  21.4399  21.6078
    22.1172  22.3456  22.4466  23.1461  23.4945  23.8377  24.0877  24.4855

          k = 0.4000 0.2309 0.0000 (  5085 PWs)   bands (ev):

   -53.9914 -53.9883 -36.5543 -36.5145 -36.4864 -36.4629 -36.4340 -36.4308
   -22.3095 -22.2999 -22.2709 -22.2700 -22.2608 -22.2598 -11.9755 -11.8903
   -11.8059 -11.7783 -11.7503 -11.7056 -11.6994 -11.6060 -11.5923 -11.5503
   -11.4966 -11.4363 -11.4066 -11.3954 -11.3776 -11.3008 -11.2439 -11.2265
    14.6211  14.7419  14.8158  14.8549  14.9581  15.0153  15.0427  15.2702
    15.3483  15.3760  15.5844  15.9472  16.3844  16.8916  17.2950  17.4077
    17.4249  17.7650  17.7789  17.7808  17.8536  17.8748  18.0111  18.3218
    18.4677  18.7611  18.8344  18.9082  19.1832  19.3285  19.3391  20.0780
    20.2470  20.4696  20.5593  20.8553  21.0934  21.3676  21.3969  21.5957
    22.2795  22.5074  22.7728  24.1244  25.5583  26.3925  26.9822  27.2214

          k = 0.4000 0.2309 0.1808 (  5088 PWs)   bands (ev):

   -53.9914 -53.9890 -36.5493 -36.5119 -36.4836 -36.4658 -36.4391 -36.4334
   -22.3068 -22.3005 -22.2707 -22.2706 -22.2631 -22.2623 -11.9574 -11.9096
   -11.8332 -11.7935 -11.7800 -11.6681 -11.6611 -11.6114 -11.6105 -11.5302
   -11.4979 -11.4709 -11.4166 -11.3571 -11.3471 -11.2879 -11.2536 -11.2509
    14.6576  14.7009  14.8152  14.8408  14.9424  15.0683  15.1098  15.2791
    15.4215  15.4589  15.5073  15.9193  16.5314  16.9000  17.0919  17.4185
    17.4823  17.5591  17.6050  17.7370  17.7911  17.9891  18.1477  18.4664
    18.6484  18.6580  18.8826  19.1067  19.2314  19.3813  19.4101  20.0094
    20.2602  20.3402  20.3762  20.9292  21.0372  21.2244  21.3276  21.4698
    22.1122  22.4753  22.8882  24.2801  24.6136  25.9015  26.6372  26.9835

          k = 0.4000 0.2309 0.3616 (  5084 PWs)   bands (ev):

   -53.9914 -53.9879 -36.5350 -36.5047 -36.4760 -36.4739 -36.4524 -36.4413
   -22.3060 -22.2948 -22.2730 -22.2677 -22.2659 -22.2618 -11.9473 -11.9240
   -11.8412 -11.8329 -11.7940 -11.7013 -11.6594 -11.6249 -11.5720 -11.4816
   -11.4756 -11.4704 -11.4078 -11.3226 -11.3210 -11.3192 -11.2749 -11.2580
    14.6614  14.6913  14.8229  14.8598  15.0260  15.1235  15.2460  15.2590
    15.2648  15.6289  15.6602  15.9950  16.4786  16.7911  17.0025  17.2472
    17.4923  17.5468  17.5701  17.7611  17.9820  17.9973  18.3176  18.4934
    18.6510  18.7850  18.8661  18.9603  19.3406  19.4255  19.6790  20.0139
    20.0963  20.3495  20.4515  20.6451  21.0500  21.1060  21.1827  21.4534
    21.5269  22.7322  23.1061  23.2949  24.3098  24.4595  26.0242  26.0958

          k = 0.4000 0.2309 0.5424 (  5068 PWs)   bands (ev):

   -53.9889 -53.9866 -36.5156 -36.5007 -36.4802 -36.4693 -36.4646 -36.4523
   -22.2940 -22.2894 -22.2713 -22.2657 -22.2653 -22.2593 -11.9516 -11.9303
   -11.8297 -11.8267 -11.8096 -11.7811 -11.6250 -11.5781 -11.5703 -11.5144
   -11.4718 -11.4340 -11.3669 -11.3313 -11.3276 -11.3018 -11.2932 -11.2665
    14.7139  14.7694  14.8550  14.8843  14.9678  15.0619  15.1401  15.2297
    15.4452  15.6148  15.9171  16.0719  16.4838  16.7849  16.8589  17.1358
    17.3296  17.5610  17.7690  17.9676  18.0018  18.2622  18.3294  18.5573
    18.5835  18.6729  18.7705  18.8710  19.1893  19.3748  19.4117  19.7850
    20.1783  20.4708  20.7507  21.0127  21.1396  21.1544  21.2638  21.3008
    21.8693  22.1148  22.5688  22.7532  23.8366  24.6434  24.8143  25.0920

          k = 0.4000 0.4234 0.0000 (  5078 PWs)   bands (ev):

   -53.9897 -53.9888 -36.5467 -36.5174 -36.4964 -36.4542 -36.4363 -36.4317
   -22.3034 -22.2994 -22.2724 -22.2645 -22.2624 -22.2583 -11.9684 -11.8399
   -11.7884 -11.7770 -11.7567 -11.6982 -11.6809 -11.6335 -11.5904 -11.5539
   -11.4825 -11.4726 -11.4039 -11.3919 -11.3829 -11.3234 -11.2748 -11.2224
    14.7096  14.8153  14.9186  15.0132  15.0550  15.0992  15.1822  15.3239
    15.3882  15.5792  15.6791  15.8868  16.2359  17.0336  17.1042  17.1461
    17.3722  17.5921  17.6354  17.7311  17.8043  17.9620  17.9880  18.1807
    18.4014  18.4393  18.8811  19.2535  19.2842  19.3467  19.4028  19.7782
    20.0725  20.4472  20.5399  20.8067  21.0691  21.3455  21.3951  21.5027
    21.9868  22.0343  22.4485  24.7287  25.7223  26.5848  26.5933  27.1445

          k = 0.4000 0.4234 0.1808 (  5071 PWs)   bands (ev):

   -53.9893 -53.9876 -36.5414 -36.5148 -36.4941 -36.4563 -36.4402 -36.4356
   -22.2990 -22.2950 -22.2762 -22.2638 -22.2613 -22.2548 -11.9468 -11.8766
   -11.7997 -11.7953 -11.7813 -11.6872 -11.6404 -11.5920 -11.5770 -11.5533
   -11.5299 -11.5179 -11.3986 -11.3550 -11.3479 -11.3071 -11.2791 -11.2478
    14.7365  14.8501  14.9235  15.0002  15.0184  15.1287  15.1951  15.3296
    15.4060  15.4607  15.7758  15.9320  16.4542  16.8597  17.1996  17.2468
    17.3111  17.4223  17.5481  17.5950  17.7718  18.0529  18.1187  18.2829
    18.4492  18.7950  18.8275  19.1120  19.2025  19.4056  19.4679  19.7554
    20.0050  20.2876  20.4955  20.8162  21.0726  21.1823  21.2165  21.4595
    22.0357  22.1415  22.2743  24.9136  25.3630  25.6873  25.9199  26.8551

          k = 0.4000 0.4234 0.3616 (  5075 PWs)   bands (ev):

   -53.9897 -53.9878 -36.5266 -36.5083 -36.4889 -36.4610 -36.4542 -36.4440
   -22.3015 -22.2971 -22.2728 -22.2668 -22.2627 -22.2540 -11.9189 -11.8994
   -11.8414 -11.8131 -11.7832 -11.7170 -11.6268 -11.6092 -11.5690 -11.5522
   -11.4989 -11.4753 -11.3983 -11.3325 -11.3263 -11.3155 -11.2813 -11.2723
    14.7753  14.8979  14.9228  14.9788  15.0472  15.1366  15.1845  15.2939
    15.3209  15.5787  16.0283  16.0923  16.5676  16.8408  17.0447  17.1137
    17.2248  17.4463  17.6209  17.7511  17.7903  18.1044  18.2521  18.4695
    18.5569  18.6341  18.6393  18.8076  19.2717  19.4243  19.4769  19.8925
    20.1342  20.2761  20.4225  20.6484  20.9474  20.9801  21.2266  21.4559
    21.5815  22.3272  22.4433  23.7618  24.1716  25.1769  25.3369  26.5067

          k = 0.4000 0.4234 0.5424 (  5077 PWs)   bands (ev):

   -53.9894 -53.9883 -36.5070 -36.5008 -36.4855 -36.4743 -36.4618 -36.4541
   -22.2971 -22.2957 -22.2716 -22.2685 -22.2632 -22.2610 -11.9260 -11.8985
   -11.8426 -11.8077 -11.7953 -11.7684 -11.6199 -11.6179 -11.5587 -11.5476
   -11.4642 -11.4412 -11.3826 -11.3709 -11.3139 -11.3098 -11.2884 -11.2739
    14.8214  14.9267  14.9497  14.9750  15.0118  15.1106  15.1146  15.2273
    15.4814  15.6226  16.2144  16.3614  16.5471  16.9045  16.9330  17.0630
    17.2163  17.3393  17.8289  17.9169  18.0177  18.0606  18.1044  18.2905
    18.4206  18.4713  18.7958  18.8481  19.0854  19.1256  19.2163  19.7117
    20.2291  20.5403  20.7700  20.9075  21.0681  21.2275  21.3167  21.3946
    21.8225  22.2418  22.4548  22.5184  22.9496  23.6612  25.9311  26.6021

          k = 0.4000 0.6158 0.0000 (  5071 PWs)   bands (ev):

   -53.9889 -53.9881 -36.5443 -36.5131 -36.5050 -36.4483 -36.4397 -36.4319
   -22.3032 -22.2991 -22.2706 -22.2628 -22.2599 -22.2525 -11.9665 -11.8134
   -11.7723 -11.7642 -11.7513 -11.7209 -11.6876 -11.6575 -11.5991 -11.5748
   -11.4603 -11.4496 -11.3980 -11.3895 -11.3583 -11.3413 -11.3121 -11.2204
    14.6885  14.9427  14.9705  15.0715  15.1182  15.1862  15.2333  15.2957
    15.3253  15.5779  15.6716  15.8354  16.4310  16.7596  16.9473  17.1733
    17.4067  17.6509  17.6864  17.7278  17.8334  17.8792  17.9149  18.1119
    18.1989  18.6308  18.8064  19.1564  19.2240  19.3509  19.4183  19.9687
    20.1570  20.3710  20.7543  20.9847  21.2674  21.3515  21.3900  21.4123
    21.4321  21.6274  22.4271  25.1500  25.3736  26.2630  26.8273  27.2621

          k = 0.4000 0.6158 0.1808 (  5066 PWs)   bands (ev):

   -53.9886 -53.9872 -36.5390 -36.5107 -36.5029 -36.4503 -36.4420 -36.4374
   -22.2964 -22.2946 -22.2727 -22.2642 -22.2604 -22.2534 -11.9441 -11.8429
   -11.8188 -11.7900 -11.7567 -11.7206 -11.6248 -11.6083 -11.5803 -11.5749
   -11.5215 -11.5064 -11.3691 -11.3529 -11.3376 -11.3230 -11.3143 -11.2450
    14.7458  14.9597  14.9704  15.0768  15.1220  15.1718  15.2013  15.2846
    15.3872  15.3926  15.7839  15.8968  16.6693  16.8321  17.0273  17.1818
    17.3471  17.3838  17.4677  17.5503  17.9175  17.9761  18.0465  18.2310
    18.3056  18.8834  18.9515  19.0824  19.1570  19.2697  19.3157  19.9539
    20.0638  20.3308  20.7028  20.8078  21.0723  21.1610  21.3134  21.4917
    21.7056  21.7766  22.1145  25.3203  25.5161  25.6106  25.9897  26.3317

          k = 0.4000 0.6158 0.3616 (  5090 PWs)   bands (ev):

   -53.9912 -53.9900 -36.5242 -36.5046 -36.4978 -36.4565 -36.4528 -36.4483
   -22.3051 -22.3036 -22.2772 -22.2693 -22.2652 -22.2576 -11.8932 -11.8853
   -11.8620 -11.8050 -11.7796 -11.7543 -11.6102 -11.5962 -11.5714 -11.5566
   -11.5123 -11.4811 -11.3846 -11.3417 -11.3312 -11.3141 -11.2871 -11.2814
    14.8330  14.9543  14.9758  15.0584  15.1170  15.1333  15.1927  15.2759
    15.3000  15.4904  16.0688  16.1033  16.6798  16.8123  16.9801  17.2260
    17.3405  17.4050  17.5776  17.6635  17.7578  17.8709  18.3054  18.3842
    18.4725  18.6081  18.6207  18.6917  19.2391  19.4688  19.4916  20.0346
    20.1213  20.3557  20.4579  20.7738  20.8396  20.9164  21.3930  21.4971
    21.6504  21.9008  21.9659  23.9419  24.3888  24.6798  25.8909  26.2327

          k = 0.4000 0.6158 0.5424 (  5076 PWs)   bands (ev):

   -53.9894 -53.9880 -36.5040 -36.4971 -36.4922 -36.4749 -36.4591 -36.4560
   -22.2954 -22.2922 -22.2737 -22.2681 -22.2654 -22.2600 -11.8946 -11.8693
   -11.8578 -11.8304 -11.7998 -11.7811 -11.6133 -11.6110 -11.5552 -11.5469
   -11.4524 -11.4389 -11.4028 -11.3877 -11.3152 -11.3115 -11.2836 -11.2780
    14.8845  14.9589  14.9723  14.9902  15.0611  15.0832  15.2132  15.2584
    15.4511  15.5778  16.2706  16.3346  16.6933  16.8146  16.9322  17.1804
    17.4158  17.4618  17.6790  17.7322  17.8743  17.9402  18.0312  18.0827
    18.3693  18.4279  18.7109  18.8218  19.1671  19.1745  19.2266  19.7328
    20.4234  20.6848  20.7633  20.8172  21.1561  21.2268  21.4096  21.5590
    21.7985  21.9707  22.0060  22.5598  22.9335  23.1434  26.6896  27.0454

          k = 0.4000-0.3464 0.0000 (  5079 PWs)   bands (ev):

   -53.9900 -53.9886 -36.5494 -36.5178 -36.4907 -36.4588 -36.4348 -36.4312
   -22.3038 -22.3000 -22.2759 -22.2648 -22.2608 -22.2568 -11.9700 -11.8632
   -11.8034 -11.7787 -11.7531 -11.6950 -11.6851 -11.6149 -11.5807 -11.5351
   -11.5108 -11.4723 -11.4065 -11.4009 -11.3801 -11.3105 -11.2553 -11.2234
    14.7148  14.7300  14.8702  14.9493  15.0292  15.0432  15.1188  15.3364
    15.3997  15.5384  15.5809  15.9770  16.2188  17.0643  17.1538  17.2883
    17.3590  17.6156  17.6715  17.7469  17.7995  17.9598  18.0194  18.2563
    18.3589  18.6282  18.8441  19.1196  19.2893  19.3071  19.5399  19.7192
    20.1115  20.3279  20.5507  20.8154  21.0267  21.3460  21.4082  21.5503
    22.1755  22.4383  22.4726  24.4117  26.0317  26.1511  26.8424  27.2479

          k = 0.4000-0.3464 0.1808 (  5074 PWs)   bands (ev):

   -53.9893 -53.9881 -36.5442 -36.5151 -36.4881 -36.4612 -36.4397 -36.4342
   -22.2991 -22.2964 -22.2698 -22.2680 -22.2612 -22.2594 -11.9510 -11.8932
   -11.8162 -11.7936 -11.7755 -11.6779 -11.6463 -11.6010 -11.5706 -11.5437
   -11.5293 -11.5075 -11.4134 -11.3593 -11.3464 -11.2952 -11.2614 -11.2498
    14.7190  14.7571  14.8797  14.9240  14.9877  15.1112  15.1577  15.3257
    15.4185  15.4950  15.6525  15.9886  16.4102  16.8672  17.1652  17.3364
    17.3820  17.4680  17.6284  17.6476  17.7194  18.0211  18.1672  18.4043
    18.5108  18.7303  18.8272  19.0934  19.2028  19.4400  19.5889  19.7057
    19.9979  20.2826  20.3838  20.8747  21.0094  21.1973  21.2728  21.4577
    22.0890  22.3522  22.5988  24.5908  25.0493  25.7298  26.2162  27.1792

          k = 0.4000-0.3464 0.3616 (  5081 PWs)   bands (ev):

   -53.9907 -53.9880 -36.5298 -36.5081 -36.4829 -36.4663 -36.4540 -36.4422
   -22.3039 -22.2961 -22.2742 -22.2647 -22.2644 -22.2606 -11.9358 -11.9108
   -11.8339 -11.8250 -11.7815 -11.7012 -11.6362 -11.6257 -11.5789 -11.5275
   -11.4883 -11.4742 -11.4029 -11.3297 -11.3220 -11.3170 -11.2753 -11.2657
    14.7258  14.8012  14.8887  14.9110  15.0322  15.1391  15.2143  15.2880
    15.2979  15.6184  15.8981  16.1063  16.4877  16.8272  17.0023  17.1676
    17.2914  17.4883  17.6280  17.7695  17.8265  18.0857  18.3779  18.4628
    18.5865  18.7200  18.7497  18.8834  19.2966  19.4224  19.4440  19.8789
    20.0949  20.2932  20.3800  20.6171  21.0163  21.0345  21.1815  21.4377
    21.5579  22.5733  22.8305  23.5419  24.1800  24.9089  25.5493  26.5134

          k = 0.4000-0.3464 0.5424 (  5079 PWs)   bands (ev):

   -53.9891 -53.9890 -36.5108 -36.5011 -36.4824 -36.4730 -36.4632 -36.4530
   -22.2953 -22.2942 -22.2714 -22.2711 -22.2647 -22.2639 -11.9422 -11.9172
   -11.8336 -11.8118 -11.7889 -11.7685 -11.6244 -11.6118 -11.5666 -11.5366
   -11.4741 -11.4361 -11.3763 -11.3507 -11.3192 -11.3063 -11.2906 -11.2708
    14.7737  14.8769  14.9082  14.9247  14.9920  15.0824  15.1279  15.2161
    15.4817  15.6353  16.1206  16.2802  16.5113  16.8430  16.8972  17.0781
    17.2286  17.3961  17.7882  17.9876  18.0489  18.1450  18.2018  18.4701
    18.5270  18.5558  18.8748  18.9361  18.9579  19.0952  19.2653  19.7119
    20.1294  20.4647  20.7723  20.9704  21.0640  21.2053  21.2856  21.3235
    21.8552  22.2345  22.5020  22.6534  23.3236  24.1355  25.3321  25.9693

          k = 0.4000-0.1540 0.0000 (  5078 PWs)   bands (ev):

   -53.9905 -53.9878 -36.5568 -36.5107 -36.4880 -36.4621 -36.4336 -36.4311
   -22.3021 -22.2988 -22.2709 -22.2701 -22.2613 -22.2579 -11.9760 -11.9041
   -11.7988 -11.7743 -11.7507 -11.7203 -11.7096 -11.6306 -11.5869 -11.5607
   -11.4723 -11.4190 -11.4037 -11.3781 -11.3668 -11.2994 -11.2495 -11.2270
    14.6094  14.7258  14.7830  14.8224  14.9359  14.9485  15.0525  15.1381
    15.3293  15.3554  15.5871  15.8808  16.5386  16.7890  17.2864  17.4128
    17.4894  17.7429  17.7876  17.8339  17.9453  18.0096  18.0309  18.3031
    18.5037  18.7016  18.7223  18.9733  19.1034  19.3084  19.4160  20.1358
    20.4209  20.4775  20.8365  20.8541  21.2693  21.3574  21.4112  21.5960
    22.2123  22.5231  22.6239  24.2607  25.2734  26.1274  26.9315  27.2567

          k = 0.4000-0.1540 0.1808 (  5082 PWs)   bands (ev):

   -53.9913 -53.9878 -36.5519 -36.5081 -36.4855 -36.4651 -36.4384 -36.4339
   -22.3056 -22.2991 -22.2719 -22.2682 -22.2617 -22.2593 -11.9602 -11.9130
   -11.8393 -11.8017 -11.7764 -11.6867 -11.6597 -11.6282 -11.6130 -11.5274
   -11.4764 -11.4568 -11.3992 -11.3539 -11.3387 -11.2875 -11.2556 -11.2547
    14.6477  14.6816  14.7807  14.8199  14.9104  14.9909  15.1295  15.1838
    15.3968  15.4380  15.4989  15.8344  16.6554  16.9130  17.0847  17.4179
    17.4674  17.5499  17.6360  17.7900  17.8152  17.9980  18.1669  18.4338
    18.5657  18.7849  18.9436  19.1566  19.2424  19.3351  19.3965  20.0538
    20.2762  20.4893  20.6692  20.9150  21.1564  21.2408  21.3608  21.5144
    22.1079  22.3988  22.7343  24.3861  24.4126  26.0620  26.2337  27.1036

          k = 0.4000-0.1540 0.3616 (  5080 PWs)   bands (ev):

   -53.9907 -53.9876 -36.5377 -36.5012 -36.4805 -36.4712 -36.4510 -36.4415
   -22.3048 -22.2944 -22.2701 -22.2678 -22.2657 -22.2601 -11.9455 -11.9253
   -11.8563 -11.8411 -11.7939 -11.7192 -11.6684 -11.6189 -11.5553 -11.4779
   -11.4708 -11.4477 -11.4027 -11.3278 -11.3218 -11.3126 -11.2788 -11.2574
    14.6234  14.6598  14.7944  14.8558  15.0253  15.0880  15.2174  15.2623
    15.2658  15.5246  15.6255  15.8806  16.5129  16.7787  17.0629  17.2851
    17.4093  17.5635  17.6581  17.7797  17.9583  18.0414  18.2928  18.4145
    18.7288  18.7556  18.9149  19.0823  19.4045  19.4540  19.7519  20.0836
    20.1129  20.5111  20.6137  20.6930  21.0353  21.0893  21.2695  21.4938
    21.5545  22.6381  22.9161  23.1335  24.4386  24.6159  25.6316  26.1233

          k = 0.4000-0.1540 0.5424 (  5062 PWs)   bands (ev):

   -53.9884 -53.9858 -36.5181 -36.5005 -36.4800 -36.4680 -36.4635 -36.4524
   -22.2934 -22.2874 -22.2671 -22.2660 -22.2631 -22.2588 -11.9488 -11.9285
   -11.8496 -11.8449 -11.8137 -11.7888 -11.6229 -11.5762 -11.5445 -11.5078
   -11.4550 -11.4307 -11.3651 -11.3375 -11.3280 -11.2988 -11.2937 -11.2664
    14.6829  14.7274  14.8279  14.8704  14.9638  15.0457  15.1612  15.2438
    15.4012  15.5606  15.8225  15.9409  16.4634  16.7963  16.8670  17.1335
    17.3822  17.6549  17.7328  17.9026  18.0138  18.2400  18.3691  18.5549
    18.5913  18.7506  18.7714  18.9510  19.3113  19.4552  19.5428  19.8759
    20.2736  20.5671  20.7813  20.9951  21.0809  21.2256  21.3326  21.3720
    21.8527  22.0769  22.5178  22.8492  23.4831  24.3080  24.9070  25.4462

          k = 0.4000 0.0385 0.0000 (  5079 PWs)   bands (ev):

   -53.9922 -53.9862 -36.5591 -36.5048 -36.4935 -36.4597 -36.4336 -36.4318
   -22.3046 -22.2986 -22.2765 -22.2699 -22.2565 -22.2562 -11.9777 -11.9122
   -11.7775 -11.7696 -11.7536 -11.7413 -11.7308 -11.6492 -11.5795 -11.5712
   -11.4510 -11.4106 -11.4007 -11.3801 -11.3172 -11.3022 -11.2711 -11.2294
    14.6628  14.7001  14.7430  14.7715  14.8376  14.9556  15.0397  15.1039
    15.2483  15.3627  15.5903  15.8198  16.7009  16.7430  17.1420  17.3840
    17.5593  17.7446  17.7943  17.9002  17.9750  18.1763  18.2009  18.2583
    18.4277  18.4761  18.7453  19.0445  19.0634  19.3079  19.5335  20.2273
    20.3245  20.6727  20.7805  21.2954  21.3210  21.4734  21.5530  21.7421
    21.9543  22.1149  22.5337  24.6939  25.0497  25.5045  26.8230  27.2736

          k = 0.4000 0.0385 0.1808 (  5082 PWs)   bands (ev):

   -53.9906 -53.9884 -36.5538 -36.5022 -36.4917 -36.4627 -36.4368 -36.4355
   -22.3042 -22.3006 -22.2712 -22.2709 -22.2616 -22.2580 -11.9619 -11.9147
   -11.8475 -11.8093 -11.7636 -11.7211 -11.6512 -11.6409 -11.6139 -11.5286
   -11.4608 -11.4483 -11.3739 -11.3612 -11.3058 -11.2924 -11.2749 -11.2553
    14.6434  14.7265  14.7574  14.8205  14.8356  14.8765  15.0961  15.2017
    15.3101  15.4550  15.4906  15.7624  16.7849  16.9228  17.1415  17.3116
    17.4245  17.4958  17.6684  17.7779  17.9246  18.0342  18.1644  18.4026
    18.5102  18.9042  19.0267  19.1787  19.2597  19.3220  19.3954  20.0727
    20.2337  20.7112  20.8147  21.0538  21.1852  21.3453  21.4995  21.7848
    21.9915  22.1819  22.2900  24.2314  24.8325  25.5552  26.3491  26.7370

          k = 0.4000 0.0385 0.3616 (  5063 PWs)   bands (ev):

   -53.9894 -53.9854 -36.5398 -36.4943 -36.4885 -36.4684 -36.4483 -36.4430
   -22.3029 -22.2890 -22.2675 -22.2657 -22.2595 -22.2541 -11.9366 -11.9182
   -11.8875 -11.8487 -11.7782 -11.7499 -11.6693 -11.6160 -11.5284 -11.4777
   -11.4770 -11.4350 -11.3710 -11.3464 -11.3209 -11.3025 -11.2771 -11.2639
    14.5904  14.6460  14.7896  14.8906  14.9661  15.0633  15.1657  15.2751
    15.2854  15.4262  15.5917  15.7869  16.5367  16.8009  17.1832  17.2441
    17.3598  17.4995  17.6957  17.7905  17.9442  18.0469  18.2962  18.4388
    18.7162  18.7771  18.9910  19.1878  19.4961  19.5341  19.6433  20.1169
    20.1423  20.7022  20.7559  20.8607  20.9806  21.0053  21.4727  21.6411
    21.8618  22.1921  22.4319  23.0092  24.7539  25.0567  25.1599  25.7078

          k = 0.4000 0.0385 0.5424 (  5064 PWs)   bands (ev):

   -53.9877 -53.9870 -36.5200 -36.5005 -36.4802 -36.4680 -36.4607 -36.4533
   -22.2943 -22.2911 -22.2680 -22.2658 -22.2615 -22.2586 -11.9311 -11.9187
   -11.8859 -11.8748 -11.8116 -11.7942 -11.6220 -11.5771 -11.5151 -11.5061
   -11.4458 -11.4076 -11.3682 -11.3563 -11.3316 -11.3017 -11.2804 -11.2721
    14.6548  14.7037  14.8190  14.8514  14.9788  15.0197  15.2124  15.2603
    15.3405  15.4479  15.7886  15.8213  16.4475  16.8277  16.9047  17.0989
    17.4331  17.5362  17.8208  17.8719  18.0463  18.1241  18.4373  18.5100
    18.6462  18.7823  18.8413  19.0728  19.4262  19.5305  19.5824  19.9519
    20.2985  20.6805  20.8616  20.9238  21.0484  21.3703  21.4159  21.7439
    21.8438  22.1901  22.3315  22.5610  23.2402  23.5700  25.5073  25.7468

     the Fermi energy is    20.8440 ev

!    total energy              =   -1368.50945722 Ry
     Harris-Foulkes estimate   =   -1368.50951878 Ry
     estimated scf accuracy    <       0.00006478 Ry

     The total energy is the sum of the following terms:

     one-electron contribution =    -175.38296190 Ry
     hartree contribution      =     175.79088318 Ry
     xc contribution           =    -141.00569878 Ry
     ewald contribution        =   -1227.29272487 Ry
     smearing contrib. (-TS)   =      -0.61895486 Ry

     convergence has been achieved in  11 iterations

     Forces acting on atoms (Ry/au):

     atom    1 type  1   force =     0.01187823    0.00685790    0.00000000
     atom    2 type  1   force =     0.01187823   -0.00685790    0.00000000
     atom    3 type  1   force =    -0.01187823   -0.00685790    0.00000000
     atom    4 type  1   force =    -0.01187823    0.00685790    0.00000000
     atom    5 type  1   force =     0.00000000   -0.01371580    0.00000000
     atom    6 type  1   force =     0.00000000    0.01371580    0.00000000
     atom    7 type  2   force =     0.00000000    0.00000000    0.00000000
     atom    8 type  2   force =     0.00000000    0.00000000    0.00000000

     Total force =     0.033597     Total SCF correction =     0.000000


     entering subroutine stress ...

          total   stress  (Ry/bohr**3)                   (kbar)     P= -336.56
  -0.00237438   0.00000000   0.00000000       -349.28      0.00      0.00
   0.00000000  -0.00237438   0.00000000          0.00   -349.28      0.00
   0.00000000   0.00000000  -0.00211493          0.00      0.00   -311.12


     BFGS Geometry Optimization

     number of scf cycles    =   1
     number of bfgs steps    =   0

     enthalpy new            =   -1368.5094572185 Ry

     new trust radius        =       0.4090800495 bohr
     new conv_thr            =       0.0001000000 Ry

     new unit-cell volume =    995.01817 a.u.^3 (   147.44648 Ang^3 )

CELL_PARAMETERS (alat= 12.01680127)
   0.940640461   0.000000000   0.000000000
  -0.470320231   0.814618535   0.000000000
   0.000000000   0.000000000   0.748318414

ATOMIC_POSITIONS (crystal)
Mg       0.665175958   0.832587979   0.250000000
Mg       0.832587979   0.167412021   0.750000000
Mg       0.334824042   0.167412021   0.750000000
Mg       0.167412021   0.832587979   0.250000000
Mg       0.167412021   0.334824042   0.250000000
Mg       0.832587979   0.665175958   0.750000000
Cd       0.666667000   0.333333000   0.250000000
Cd       0.333333000   0.666667000   0.750000000



     Writing output data file Prototype-La-hP8-Mg3Cd.save
     NEW-OLD atomic charge density approx. for the potential
     NEW k-points:
        k(    1) = (   0.0000000   0.0000000   0.0000000), wk =   0.0095238
        k(    2) = (   0.0000000   0.0000000   0.1909042), wk =   0.0190476
        k(    3) = (   0.0000000   0.0000000   0.3818084), wk =   0.0190476
        k(    4) = (   0.0000000   0.0000000   0.5727127), wk =   0.0190476
        k(    5) = (   0.0000000   0.2045947   0.0000000), wk =   0.0190476
        k(    6) = (   0.0000000   0.2045947   0.1909042), wk =   0.0380952
        k(    7) = (   0.0000000   0.2045947   0.3818084), wk =   0.0380952
        k(    8) = (   0.0000000   0.2045947   0.5727127), wk =   0.0380952
        k(    9) = (   0.0000000   0.4091895   0.0000000), wk =   0.0190476
        k(   10) = (   0.0000000   0.4091895   0.1909042), wk =   0.0380952
        k(   11) = (   0.0000000   0.4091895   0.3818084), wk =   0.0380952
        k(   12) = (   0.0000000   0.4091895   0.5727127), wk =   0.0380952
        k(   13) = (   0.0000000  -0.6137842   0.0000000), wk =   0.0095238
        k(   14) = (   0.0000000  -0.6137842   0.1909042), wk =   0.0190476
        k(   15) = (   0.0000000  -0.6137842   0.3818084), wk =   0.0190476
        k(   16) = (   0.0000000  -0.6137842   0.5727127), wk =   0.0190476
        k(   17) = (   0.2126211   0.1227568   0.0000000), wk =   0.0190476
        k(   18) = (   0.2126211   0.1227568   0.1909042), wk =   0.0380952
        k(   19) = (   0.2126211   0.1227568   0.3818084), wk =   0.0380952
        k(   20) = (   0.2126211   0.1227568   0.5727127), wk =   0.0380952
        k(   21) = (   0.2126211   0.3273516   0.0000000), wk =   0.0190476
        k(   22) = (   0.2126211   0.3273516   0.1909042), wk =   0.0380952
        k(   23) = (   0.2126211   0.3273516   0.3818084), wk =   0.0380952
        k(   24) = (   0.2126211   0.3273516   0.5727127), wk =   0.0380952
        k(   25) = (   0.2126211   0.5319463   0.0000000), wk =   0.0190476
        k(   26) = (   0.2126211   0.5319463   0.1909042), wk =   0.0380952
        k(   27) = (   0.2126211   0.5319463   0.3818084), wk =   0.0380952
        k(   28) = (   0.2126211   0.5319463   0.5727127), wk =   0.0380952
        k(   29) = (   0.2126211  -0.4910274   0.0000000), wk =   0.0190476
        k(   30) = (   0.2126211  -0.4910274   0.1909042), wk =   0.0380952
        k(   31) = (   0.2126211  -0.4910274   0.3818084), wk =   0.0380952
        k(   32) = (   0.2126211  -0.4910274   0.5727127), wk =   0.0380952
        k(   33) = (   0.2126211  -0.2864326   0.0000000), wk =   0.0190476
        k(   34) = (   0.2126211  -0.2864326   0.1909042), wk =   0.0380952
        k(   35) = (   0.2126211  -0.2864326   0.3818084), wk =   0.0380952
        k(   36) = (   0.2126211  -0.2864326   0.5727127), wk =   0.0380952
        k(   37) = (   0.2126211  -0.0818379   0.0000000), wk =   0.0190476
        k(   38) = (   0.2126211  -0.0818379   0.1909042), wk =   0.0380952
        k(   39) = (   0.2126211  -0.0818379   0.3818084), wk =   0.0380952
        k(   40) = (   0.2126211  -0.0818379   0.5727127), wk =   0.0380952
        k(   41) = (   0.4252422   0.2455137   0.0000000), wk =   0.0190476
        k(   42) = (   0.4252422   0.2455137   0.1909042), wk =   0.0380952
        k(   43) = (   0.4252422   0.2455137   0.3818084), wk =   0.0380952
        k(   44) = (   0.4252422   0.2455137   0.5727127), wk =   0.0380952
        k(   45) = (   0.4252422   0.4501084   0.0000000), wk =   0.0190476
        k(   46) = (   0.4252422   0.4501084   0.1909042), wk =   0.0380952
        k(   47) = (   0.4252422   0.4501084   0.3818084), wk =   0.0380952
        k(   48) = (   0.4252422   0.4501084   0.5727127), wk =   0.0380952
        k(   49) = (   0.4252422   0.6547032   0.0000000), wk =   0.0190476
        k(   50) = (   0.4252422   0.6547032   0.1909042), wk =   0.0380952
        k(   51) = (   0.4252422   0.6547032   0.3818084), wk =   0.0380952
        k(   52) = (   0.4252422   0.6547032   0.5727127), wk =   0.0380952
        k(   53) = (   0.4252422  -0.3682705   0.0000000), wk =   0.0190476
        k(   54) = (   0.4252422  -0.3682705   0.1909042), wk =   0.0380952
        k(   55) = (   0.4252422  -0.3682705   0.3818084), wk =   0.0380952
        k(   56) = (   0.4252422  -0.3682705   0.5727127), wk =   0.0380952
        k(   57) = (   0.4252422  -0.1636758   0.0000000), wk =   0.0190476
        k(   58) = (   0.4252422  -0.1636758   0.1909042), wk =   0.0380952
        k(   59) = (   0.4252422  -0.1636758   0.3818084), wk =   0.0380952
        k(   60) = (   0.4252422  -0.1636758   0.5727127), wk =   0.0380952
        k(   61) = (   0.4252422   0.0409189   0.0000000), wk =   0.0190476
        k(   62) = (   0.4252422   0.0409189   0.1909042), wk =   0.0380952
        k(   63) = (   0.4252422   0.0409189   0.3818084), wk =   0.0380952
        k(   64) = (   0.4252422   0.0409189   0.5727127), wk =   0.0380952

     total cpu time spent up to now is      851.4 secs

     Self-consistent Calculation

     iteration #  1     ecut=    40.00 Ry     beta=0.70
     CG style diagonalization
     c_bands:  1 eigenvalues not converged
     c_bands:  2 eigenvalues not converged
     c_bands:  1 eigenvalues not converged
     c_bands:  1 eigenvalues not converged
     ethr =  1.00E-06,  avg # of iterations = 20.4

     total cpu time spent up to now is     1048.2 secs

     total energy              =   -1363.59839766 Ry
     Harris-Foulkes estimate   =   -1373.79286151 Ry
     estimated scf accuracy    <      12.81905187 Ry

     iteration #  2     ecut=    40.00 Ry     beta=0.70
     CG style diagonalization
     ethr =  9.57E-03,  avg # of iterations =  4.0

     total cpu time spent up to now is     1084.6 secs

     total energy              =   -1365.21373684 Ry
     Harris-Foulkes estimate   =   -1371.79098088 Ry
     estimated scf accuracy    <      11.90211279 Ry

     iteration #  3     ecut=    40.00 Ry     beta=0.70
     CG style diagonalization
     ethr =  8.88E-03,  avg # of iterations =  3.6

     total cpu time spent up to now is     1116.5 secs

     total energy              =   -1368.00027815 Ry
     Harris-Foulkes estimate   =   -1369.26648580 Ry
     estimated scf accuracy    <       3.04648533 Ry

     iteration #  4     ecut=    40.00 Ry     beta=0.70
     CG style diagonalization
     ethr =  2.27E-03,  avg # of iterations =  3.4

     total cpu time spent up to now is     1147.4 secs

     total energy              =   -1368.64172104 Ry
     Harris-Foulkes estimate   =   -1368.66386383 Ry
     estimated scf accuracy    <       0.04350502 Ry

     iteration #  5     ecut=    40.00 Ry     beta=0.70
     CG style diagonalization
     ethr =  3.25E-05,  avg # of iterations =  4.1

     total cpu time spent up to now is     1184.7 secs

     total energy              =   -1368.66025535 Ry
     Harris-Foulkes estimate   =   -1368.66299598 Ry
     estimated scf accuracy    <       0.00402252 Ry

     iteration #  6     ecut=    40.00 Ry     beta=0.70
     CG style diagonalization
     c_bands:  1 eigenvalues not converged
     ethr =  3.00E-06,  avg # of iterations =  4.0

     total cpu time spent up to now is     1222.0 secs

     total energy              =   -1368.66136658 Ry
     Harris-Foulkes estimate   =   -1368.66212971 Ry
     estimated scf accuracy    <       0.00129696 Ry

     iteration #  7     ecut=    40.00 Ry     beta=0.70
     CG style diagonalization
     ethr =  9.68E-07,  avg # of iterations =  3.6

     total cpu time spent up to now is     1255.1 secs

     total energy              =   -1368.66177401 Ry
     Harris-Foulkes estimate   =   -1368.66189627 Ry
     estimated scf accuracy    <       0.00024239 Ry

     iteration #  8     ecut=    40.00 Ry     beta=0.70
     CG style diagonalization
     ethr =  1.81E-07,  avg # of iterations =  3.6

     total cpu time spent up to now is     1288.6 secs

     End of self-consistent calculation

          k = 0.0000 0.0000 0.0000 (  5047 PWs)   bands (ev):

   -49.5418 -49.5410 -31.7181 -31.5153 -31.5153 -31.4861 -31.4009 -31.4008
   -18.0633 -18.0494 -18.0139 -18.0139 -18.0101 -18.0101  -7.6048  -7.4934
    -7.2793  -7.0652  -7.0651  -7.0425  -7.0424  -6.9900  -6.9899  -6.6496
    -6.4030  -6.4029  -6.2040  -6.2039  -6.1755  -6.1618  -6.1618  -6.1550
    17.8738  17.8738  17.8796  18.1584  18.1701  18.3977  18.3978  18.7826
    18.7826  19.3165  19.6318  19.7864  19.7864  21.3831  21.8247  21.8247
    22.0266  22.3066  22.3066  22.3580  23.0542  23.0542  23.1924  23.2037
    23.2038  23.8771  23.9867  23.9867  24.0120  24.0121  26.4924  26.4924
[...]

          k = 0.4236 0.4484 0.0000 (  4324 PWs)   bands (ev):

   -50.1233 -50.1229 -32.3395 -32.2603 -32.2227 -32.1408 -32.1224 -32.1045
   -18.4670 -18.4643 -18.4607 -18.4521 -18.4476 -18.4346  -8.0470  -7.8690
    -7.7307  -7.7077  -7.6764  -7.5950  -7.5324  -7.5059  -7.4390  -7.3978
    -7.2553  -7.2367  -7.0847  -7.0806  -7.0518  -6.9607  -6.8916  -6.7968
    17.9865  18.1368  18.3436  18.5376  18.6010  18.6093  18.6687  18.8748
    18.9299  19.2199  19.3812  19.6388  19.7864  20.6690  20.6884  20.8910
    21.0081  21.3493  21.3535  21.4381  21.6767  21.7819  21.8442  21.9919
    22.2480  22.3765  22.9390  23.3853  23.3945  23.4557  23.5063  24.0423
    24.3292  24.8479  24.9488  25.3471  25.4386  25.8434  26.0530  26.1768
    26.7638  27.0200  27.3880  30.1090  30.8567  31.7705  31.8785  32.5953

          k = 0.4236 0.4484 0.1881 (  4331 PWs)   bands (ev):

   -50.1246 -50.1240 -32.3294 -32.2556 -32.2186 -32.1455 -32.1327 -32.1097
   -18.4705 -18.4653 -18.4626 -18.4531 -18.4495 -18.4393  -8.0129  -7.9088
    -7.7640  -7.7499  -7.7386  -7.5451  -7.4850  -7.4343  -7.4126  -7.4025
    -7.3061  -7.2893  -7.0955  -7.0253  -7.0067  -6.9409  -6.8988  -6.8438
    18.0505  18.1804  18.3769  18.4790  18.5038  18.6600  18.6955  18.8702
    18.9775  19.0123  19.4617  19.6043  20.0639  20.4058  20.8379  20.9429
    20.9616  21.0951  21.3163  21.3611  21.4934  21.9338  22.0391  22.1763
    22.3719  22.7717  22.8388  23.1814  23.2445  23.5570  23.5849  24.0386
    24.2767  24.6810  24.9122  25.4075  25.4741  25.6415  25.8318  26.1102
    26.8863  27.0102  27.2604  30.3097  30.6126  31.0470  31.0850  32.2798

          k = 0.4236 0.4484 0.3763 (  4349 PWs)   bands (ev):

   -50.1282 -50.1260 -32.3007 -32.2435 -32.2088 -32.1624 -32.1549 -32.1244
   -18.4767 -18.4689 -18.4661 -18.4562 -18.4546 -18.4510  -7.9708  -7.9389
    -7.8292  -7.7866  -7.7678  -7.6308  -7.4432  -7.4388  -7.3696  -7.3393
    -7.2771  -7.2140  -7.1159  -6.9877  -6.9800  -6.9676  -6.9070  -6.8988
    18.1291  18.2637  18.3557  18.4495  18.5283  18.6024  18.7267  18.7914
    18.8463  19.1178  19.6190  19.7302  20.1169  20.5371  20.5908  20.6685
    20.8092  21.1041  21.3024  21.5720  21.7481  21.9813  22.1417  22.4262
    22.4724  22.5739  22.6563  22.8059  23.2378  23.5086  23.6773  24.2574
    24.5710  24.7048  24.8801  25.0796  25.4580  25.6205  25.7546  26.1026
    26.2489  27.3103  27.4715  28.8312  29.4129  30.4584  30.8133  31.7526

          k = 0.4236 0.4484 0.5644 (  4350 PWs)   bands (ev):

   -50.1295 -50.1255 -32.2602 -32.2324 -32.2043 -32.1975 -32.1582 -32.1434
   -18.4823 -18.4708 -18.4668 -18.4560 -18.4533 -18.4481  -7.9796  -7.9349
    -7.8378  -7.7960  -7.7763  -7.7341  -7.4173  -7.4076  -7.3425  -7.3333
    -7.2094  -7.1642  -7.0990  -7.0581  -6.9801  -6.9513  -6.9208  -6.9097
    18.1893  18.3270  18.3495  18.3816  18.4890  18.5647  18.6280  18.6779
    19.0560  19.2216  19.7732  19.8806  20.2292  20.4419  20.5882  20.6535
    20.7398  20.8903  21.5438  21.7110  21.8904  21.9614  22.0029  22.2557
    22.3736  22.4368  22.6847  22.7830  23.1874  23.2529  23.2941  23.9850
    24.6864  25.0178  25.4176  25.5798  25.6306  25.8700  25.9668  25.9927
    26.5814  27.0983  27.4272  27.4821  27.9746  28.7310  31.4763  32.1107

          k = 0.4236 0.6522 0.0000 (  4314 PWs)   bands (ev):

   -50.1233 -50.1206 -32.3357 -32.2528 -32.2378 -32.1306 -32.1198 -32.1132
   -18.4614 -18.4576 -18.4541 -18.4522 -18.4495 -18.4347  -8.0431  -7.8208
    -7.6999  -7.6860  -7.6623  -7.6228  -7.5744  -7.5471  -7.4450  -7.4375
    -7.2162  -7.1955  -7.0739  -7.0596  -7.0293  -6.9929  -6.9594  -6.7923
    17.9458  18.3821  18.4671  18.5782  18.6092  18.6902  18.7774  18.8398
    18.8609  19.2173  19.3791  19.5384  20.0918  20.4043  20.6561  20.6658
    20.9975  21.3975  21.4267  21.4465  21.6583  21.7328  21.7453  21.9269
    22.0746  22.5402  22.8132  23.1921  23.2480  23.4992  23.5693  24.3056
    24.4667  24.7943  25.2336  25.5688  25.7667  25.8553  26.0353  26.0756
    26.1571  26.2618  27.3504  30.3603  30.5011  31.5331  32.1861  32.5358

          k = 0.4236 0.6522 0.1881 (  4341 PWs)   bands (ev):

   -50.1265 -50.1248 -32.3256 -32.2484 -32.2341 -32.1366 -32.1291 -32.1187
   -18.4716 -18.4695 -18.4632 -18.4560 -18.4541 -18.4427  -8.0086  -7.8461
    -7.7996  -7.7624  -7.6768  -7.6103  -7.4752  -7.4468  -7.4441  -7.4181
    -7.2858  -7.2640  -7.0484  -7.0175  -6.9969  -6.9749  -6.9618  -6.8419
    18.0482  18.4111  18.4917  18.5431  18.5643  18.7125  18.7354  18.8218
    18.9203  18.9508  19.4679  19.5416  20.2913  20.4160  20.7493  20.8008
    20.9896  21.0031  21.1392  21.3676  21.7096  21.8240  21.9303  22.1263
    22.1797  22.8691  22.9237  23.1013  23.2145  23.3609  23.4207  24.3069
    24.3847  24.7699  25.2034  25.3497  25.5937  25.6850  25.8527  26.1351
    26.4783  26.5418  26.9276  30.5324  30.6772  30.8947  31.4144  31.7569

          k = 0.4236 0.6522 0.3763 (  4350 PWs)   bands (ev):

   -50.1275 -50.1270 -32.2966 -32.2365 -32.2238 -32.1616 -32.1444 -32.1319
   -18.4754 -18.4719 -18.4636 -18.4580 -18.4553 -18.4503  -7.9243  -7.9105
    -7.8655  -7.7891  -7.7416  -7.6848  -7.4391  -7.4190  -7.3780  -7.3423
    -7.2723  -7.2239  -7.0863  -7.0046  -6.9845  -6.9674  -6.9238  -6.9162
    18.2047  18.4008  18.4439  18.5753  18.6087  18.6180  18.6933  18.7862
    18.8035  18.9659  19.6704  19.7701  20.2081  20.3767  20.5218  20.8428
    20.9791  21.0901  21.3308  21.5185  21.6125  21.7328  22.2046  22.2966
    22.3912  22.5057  22.5684  22.6397  23.1639  23.6310  23.6814  24.4471
    24.5523  24.8520  24.8935  25.2877  25.4071  25.4403  25.9970  26.1414
    26.3186  26.7362  26.8190  29.0602  29.6477  29.9487  31.2332  31.4973

          k = 0.4236 0.6522 0.5644 (  4350 PWs)   bands (ev):

   -50.1281 -50.1272 -32.2551 -32.2240 -32.2160 -32.2009 -32.1532 -32.1471
   -18.4795 -18.4762 -18.4605 -18.4579 -18.4531 -18.4496  -7.9249  -7.8864
    -7.8616  -7.8276  -7.7803  -7.7664  -7.4031  -7.4000  -7.3612  -7.3235
    -7.1748  -7.1478  -7.1140  -7.1064  -6.9788  -6.9629  -6.9230  -6.9187
    18.2705  18.3810  18.3952  18.4317  18.5488  18.5772  18.6870  18.7393
    19.0177  19.1501  19.8624  19.9676  20.2060  20.3490  20.4621  20.7343
    21.1133  21.1448  21.4344  21.4882  21.6870  21.7820  21.8813  22.0055
    22.2762  22.3187  22.6389  22.7349  23.2352  23.3048  23.3511  24.0032
    24.9671  25.2283  25.3694  25.4476  25.7931  25.8971  26.0405  26.2260
    26.5207  26.8148  26.8726  27.4379  27.9269  28.1487  32.1942  32.5453

          k = 0.4236-0.3668 0.0000 (  4339 PWs)   bands (ev):

   -50.1256 -50.1246 -32.3438 -32.2615 -32.2132 -32.1497 -32.1220 -32.1007
   -18.4722 -18.4719 -18.4649 -18.4559 -18.4507 -18.4375  -8.0505  -7.9084
    -7.7633  -7.7105  -7.6719  -7.5929  -7.5418  -7.4628  -7.4377  -7.3482
    -7.3074  -7.2413  -7.0943  -7.0897  -7.0477  -6.9379  -6.8577  -6.7994
    17.9915  18.0316  18.2560  18.4170  18.5335  18.5644  18.6246  18.8782
    18.9442  19.1781  19.2229  19.6696  19.8336  20.6120  20.8575  20.9575
    21.1793  21.3531  21.4032  21.4637  21.6499  21.8053  21.8464  22.0960
    22.2151  22.6015  22.9240  23.2123  23.3957  23.4339  23.7565  23.8880
    24.3398  24.6577  24.9500  25.3749  25.4000  25.8486  26.0738  26.2455
    27.0183  27.4279  27.5625  29.8334  31.2317  31.4109  32.0112  32.6971

          k = 0.4236-0.3668 0.1881 (  4332 PWs)   bands (ev):

   -50.1247 -50.1242 -32.3337 -32.2567 -32.2085 -32.1550 -32.1317 -32.1058
   -18.4716 -18.4657 -18.4624 -18.4542 -18.4493 -18.4398  -8.0185  -7.9426
    -7.7862  -7.7517  -7.7325  -7.5256  -7.4901  -7.4501  -7.4041  -7.3647
    -7.3177  -7.2839  -7.1150  -7.0307  -7.0037  -6.9206  -6.8668  -6.8465
    18.0162  18.0693  18.2824  18.3953  18.4677  18.6141  18.6331  18.8724
    18.9924  19.0654  19.3052  19.6238  20.0441  20.4466  20.7452  21.0644
    21.1215  21.1585  21.3974  21.4023  21.4380  21.8619  22.0847  22.3528
    22.4579  22.7250  22.8595  23.1579  23.2802  23.6311  23.7625  23.9072
    24.2285  24.6546  24.7725  25.3688  25.5198  25.6614  25.8889  26.1133
    26.9446  27.2964  27.7309  30.0491  30.2704  31.0693  31.4025  32.5906

          k = 0.4236-0.3668 0.3763 (  4341 PWs)   bands (ev):

   -50.1273 -50.1248 -32.3054 -32.2442 -32.1979 -32.1693 -32.1564 -32.1206
   -18.4769 -18.4660 -18.4653 -18.4547 -18.4511 -18.4470  -7.9985  -7.9558
    -7.8161  -7.8079  -7.7611  -7.6094  -7.4642  -7.4483  -7.3600  -7.3194
    -7.2633  -7.2095  -7.1285  -6.9857  -6.9769  -6.9655  -6.8936  -6.8825
    18.0592  18.1206  18.3116  18.3422  18.5039  18.6089  18.7592  18.7805
    18.8103  19.1917  19.4947  19.7224  19.9910  20.4987  20.5511  20.7674
    20.9290  21.1230  21.3103  21.6398  21.7096  21.9202  22.3028  22.4209
    22.5797  22.6766  22.8477  22.9352  23.2797  23.4963  23.6181  24.2165
    24.5023  24.7130  24.8480  25.0295  25.4915  25.6713  25.7597  26.0814
    26.2488  27.6531  27.9712  28.5819  29.3954  30.4197  30.8421  31.8010

          k = 0.4236-0.3668 0.5644 (  4351 PWs)   bands (ev):

   -50.1282 -50.1271 -32.2661 -32.2356 -32.2011 -32.1903 -32.1615 -32.1414
   -18.4802 -18.4725 -18.4648 -18.4611 -18.4528 -18.4479  -8.0060  -7.9640
    -7.8245  -7.8038  -7.7703  -7.7234  -7.4306  -7.4003  -7.3424  -7.3139
    -7.2299  -7.1660  -7.0895  -7.0295  -6.9876  -6.9448  -6.9159  -6.9007
    18.1251  18.2250  18.2984  18.3222  18.4546  18.5436  18.6042  18.6880
    19.0458  19.2407  19.6493  19.7793  20.1614  20.4328  20.5159  20.6468
    20.7941  20.9731  21.4864  21.7870  21.9119  22.0670  22.1282  22.4134
    22.5474  22.5776  22.8390  22.9410  22.9904  23.1868  23.3768  23.9914
    24.5382  24.9105  25.4349  25.5938  25.6736  25.8165  25.9141  25.9613
    26.6373  27.0259  27.5473  27.6132  28.4707  29.2939  30.8435  31.4232

          k = 0.4236-0.1630 0.0000 (  4352 PWs)   bands (ev):

   -50.1279 -50.1254 -32.3554 -32.2508 -32.2090 -32.1596 -32.1168 -32.0995
   -18.4797 -18.4756 -18.4629 -18.4587 -18.4535 -18.4472  -8.0584  -7.9701
    -7.7741  -7.7039  -7.6680  -7.6415  -7.5948  -7.5092  -7.4188  -7.3934
    -7.2188  -7.1450  -7.0872  -7.0477  -7.0422  -6.9218  -6.8485  -6.8052
    17.8425  18.0369  18.1931  18.2926  18.3148  18.3808  18.5566  18.6393
    18.8501  18.8559  19.2366  19.4504  20.2184  20.3157  20.9827  21.2584
    21.2963  21.5967  21.6009  21.6349  21.7852  21.7925  21.8505  22.1837
    22.4113  22.6842  22.7465  23.0166  23.1601  23.4255  23.5259  24.4119
    24.7982  24.9035  25.3088  25.4624  25.7693  25.9121  26.0623  26.3073
    27.0828  27.4949  27.7982  29.6747  30.4279  31.4532  32.0577  32.6464

          k = 0.4236-0.1630 0.1881 (  4342 PWs)   bands (ev):

   -50.1259 -50.1254 -32.3456 -32.2457 -32.2043 -32.1664 -32.1247 -32.1048
   -18.4738 -18.4680 -18.4640 -18.4568 -18.4521 -18.4475  -8.0328  -7.9803
    -7.8245  -7.7602  -7.7368  -7.5722  -7.5054  -7.4838  -7.4732  -7.3296
    -7.2247  -7.1934  -7.0878  -7.0201  -6.9923  -6.9071  -6.8554  -6.8537
    17.8860  17.9909  18.1513  18.2766  18.3399  18.4386  18.5421  18.7121
    18.9541  19.0160  19.0868  19.3458  20.3220  20.5244  20.7005  21.1398
    21.2142  21.3258  21.4049  21.5945  21.6129  21.7568  22.1089  22.3503
    22.5656  22.8035  22.9879  23.2004  23.3586  23.4950  23.5705  24.2999
    24.6497  24.9346  25.1374  25.5524  25.6467  25.7548  25.9874  26.1899
    26.9747  27.3619  27.9084  29.5283  29.8501  31.3424  31.5426  32.5223

          k = 0.4236-0.1630 0.3763 (  4338 PWs)   bands (ev):

   -50.1262 -50.1247 -32.3177 -32.2336 -32.1957 -32.1802 -32.1463 -32.1194
   -18.4749 -18.4673 -18.4646 -18.4550 -18.4499 -18.4459  -8.0158  -7.9818
    -7.8622  -7.8251  -7.7730  -7.6381  -7.5434  -7.4256  -7.3363  -7.2279
    -7.2142  -7.1826  -7.1183  -6.9804  -6.9750  -6.9556  -6.8953  -6.8646
    17.9116  17.9493  18.1406  18.2774  18.4554  18.5437  18.6691  18.7507
    18.8319  19.0428  19.2212  19.4191  19.9806  20.3913  20.6472  20.8943
    21.0673  21.2755  21.3992  21.5927  21.7997  21.9326  22.1906  22.3761
    22.7427  22.8220  22.9728  23.1758  23.4782  23.6412  24.0057  24.4759
    24.4994  25.0098  25.1103  25.1538  25.5250  25.7638  25.8662  26.1606
    26.2614  27.7375  28.0254  28.1865  29.6229  30.0627  30.9203  31.4681

          k = 0.4236-0.1630 0.5644 (  4344 PWs)   bands (ev):

   -50.1278 -50.1250 -32.2784 -32.2395 -32.1976 -32.1763 -32.1624 -32.1406
   -18.4802 -18.4686 -18.4650 -18.4588 -18.4483 -18.4480  -8.0180  -7.9846
    -7.8584  -7.8482  -7.8011  -7.7480  -7.4535  -7.3571  -7.3146  -7.2573
    -7.1967  -7.1542  -7.0663  -7.0152  -6.9931  -6.9413  -6.9152  -6.8860
    17.9977  18.0367  18.1768  18.2523  18.4127  18.5273  18.5692  18.7210
    18.9009  19.1049  19.3132  19.4007  20.0518  20.3898  20.4245  20.6495
    21.0385  21.4010  21.4580  21.6864  21.8014  22.1244  22.3538  22.5170
    22.6161  22.7805  22.8232  22.9988  23.4489  23.6403  23.7629  24.1919
    24.7164  25.0561  25.4132  25.6058  25.7588  25.8434  26.0077  26.0193
    26.6311  26.8505  27.5855  27.7742  28.6507  29.4991  30.3406  30.8297

          k = 0.4236 0.0408 0.0000 (  4352 PWs)   bands (ev):

   -50.1289 -50.1243 -32.3588 -32.2407 -32.2188 -32.1580 -32.1115 -32.1031
   -18.4803 -18.4720 -18.4611 -18.4588 -18.4550 -18.4513  -8.0607  -7.9820
    -7.7412  -7.6958  -7.6727  -7.6653  -7.6535  -7.5292  -7.4176  -7.3959
    -7.1878  -7.1133  -7.0819  -7.0536  -6.9645  -6.9332  -6.8863  -6.8063
    17.9263  17.9860  18.0441  18.2691  18.3363  18.3582  18.5164  18.5478
    18.7508  18.8368  19.2452  19.3771  20.2064  20.3952  20.9747  21.0987
    21.3489  21.6417  21.6608  21.6882  21.8080  22.0033  22.0706  22.1409
    22.3207  22.4220  22.6966  23.1003  23.1601  23.4044  23.6822  24.5374
    24.7082  25.1418  25.2856  25.8987  25.9456  26.1401  26.2258  26.5151
    26.7774  27.0683  27.4998  30.0747  30.1821  30.8788  31.8703  32.5822

          k = 0.4236 0.0408 0.1881 (  4348 PWs)   bands (ev):

   -50.1268 -50.1257 -32.3491 -32.2352 -32.2151 -32.1646 -32.1194 -32.1082
   -18.4741 -18.4716 -18.4659 -18.4569 -18.4553 -18.4487  -8.0375  -7.9812
    -7.8396  -7.7681  -7.7154  -7.6432  -7.4995  -7.4908  -7.4761  -7.3300
    -7.1953  -7.1703  -7.0465  -7.0232  -6.9484  -6.9198  -6.8897  -6.8555
    17.9235  17.9973  18.1034  18.1550  18.2774  18.4303  18.5775  18.6065
    18.8217  19.0330  19.0917  19.2699  20.3743  20.5625  20.8127  21.1108
    21.1300  21.2320  21.3780  21.5846  21.7647  21.8480  22.0502  22.3461
    22.4684  22.9443  23.0766  23.3164  23.3592  23.4760  23.5586  24.3217
    24.6303  25.1882  25.3570  25.6650  25.6981  25.9560  26.1868  26.5981
    26.8746  27.0400  27.2582  29.3455  30.2083  30.9259  31.5869  32.1263

          k = 0.4236 0.0408 0.3763 (  4343 PWs)   bands (ev):

   -50.1271 -50.1249 -32.3212 -32.2218 -32.2111 -32.1772 -32.1391 -32.1226
   -18.4782 -18.4681 -18.4666 -18.4582 -18.4505 -18.4449  -8.0017  -7.9795
    -7.9114  -7.8379  -7.7451  -7.6913  -7.5507  -7.4224  -7.3129  -7.2157
    -7.2115  -7.1762  -7.0540  -7.0034  -6.9758  -6.9417  -6.9004  -6.8791
    17.8703  17.9523  18.1264  18.2675  18.3436  18.5684  18.6654  18.7585
    18.8092  18.8797  19.1687  19.3328  20.0523  20.3476  20.7856  20.8820
    20.9698  21.2036  21.5011  21.5339  21.7689  21.9661  22.2087  22.3694
    22.7102  22.8699  23.0612  23.3402  23.6753  23.7146  23.8739  24.5109
    24.5274  25.1790  25.2665  25.3898  25.5202  25.6495  26.1189  26.3886
    26.6894  27.1362  27.4562  28.0037  29.9367  30.2966  30.5431  31.1318

          k = 0.4236 0.0408 0.5644 (  4352 PWs)   bands (ev):

   -50.1277 -50.1270 -32.2817 -32.2404 -32.1966 -32.1763 -32.1575 -32.1426
   -18.4762 -18.4712 -18.4664 -18.4619 -18.4542 -18.4529  -7.9902  -7.9733
    -7.9169  -7.8897  -7.7943  -7.7602  -7.4579  -7.3613  -7.2776  -7.2604
    -7.1757  -7.1131  -7.0546  -7.0302  -7.0060  -6.9464  -6.9050  -6.8946
    17.9541  18.0238  18.1709  18.2160  18.4322  18.4958  18.6295  18.7441
    18.7958  18.8949  19.2588  19.3200  20.0779  20.3893  20.4802  20.6261
    21.0551  21.1905  21.5942  21.6660  21.8851  21.9764  22.4273  22.4751
    22.6893  22.8161  22.8517  23.2027  23.6278  23.7497  23.7909  24.2851
    24.7735  25.1878  25.4658  25.5308  25.7054  26.0110  26.1280  26.5246
    26.6461  27.0256  27.3361  27.5163  28.2083  28.6132  30.9334  31.1872

     the Fermi energy is    25.3841 ev

!    total energy              =   -1368.40507387 Ry
     Harris-Foulkes estimate   =   -1368.40507395 Ry
     estimated scf accuracy    <       0.00000008 Ry

     The total energy is the sum of the following terms:

     one-electron contribution =     -81.80053107 Ry
     hartree contribution      =     149.42355059 Ry
     xc contribution           =    -142.62210366 Ry
     ewald contribution        =   -1292.89187556 Ry
     smearing contrib. (-TS)   =      -0.51411417 Ry

     convergence has been achieved in  12 iterations

     Forces acting on atoms (Ry/au):

     atom    1 type  1   force =     0.00509647    0.00294245    0.00000000
     atom    2 type  1   force =     0.00509647   -0.00294245    0.00000000
     atom    3 type  1   force =    -0.00509647   -0.00294245    0.00000000
     atom    4 type  1   force =    -0.00509647    0.00294245    0.00000000
     atom    5 type  1   force =     0.00000000   -0.00588490    0.00000000
     atom    6 type  1   force =     0.00000000    0.00588490    0.00000000
     atom    7 type  2   force =     0.00000000    0.00000000    0.00000000
     atom    8 type  2   force =     0.00000000    0.00000000    0.00000000

     Total force =     0.014415     Total SCF correction =     0.000000


     entering subroutine stress ...

          total   stress  (Ry/bohr**3)                   (kbar)     P=  -19.78
  -0.00019628   0.00000000   0.00000000        -28.87      0.00      0.00
   0.00000000  -0.00019628   0.00000000          0.00    -28.87      0.00
   0.00000000   0.00000000  -0.00001085          0.00      0.00     -1.60


     Writing output data file Prototype-La-hP8-Mg3Cd.save
 
     init_run     :     11.73s CPU     14.94s WALL (       2 calls)
     electrons    :   2277.43s CPU   2731.75s WALL (       5 calls)
     update_pot   :      2.28s CPU      2.30s WALL (       3 calls)
     forces       :      9.48s CPU     10.23s WALL (       5 calls)
     stress       :     26.50s CPU     27.70s WALL (       5 calls)

     Called by init_run:
     wfcinit      :     10.36s CPU     13.35s WALL (       2 calls)
     potinit      :      0.86s CPU      0.99s WALL (       2 calls)

     Called by electrons:
     c_bands      :   2197.31s CPU   2622.13s WALL (      47 calls)
     sum_band     :     79.75s CPU    108.67s WALL (      47 calls)
     v_of_rho     :      0.32s CPU      0.34s WALL (      52 calls)
     mix_rho      :      0.08s CPU      0.11s WALL (      47 calls)

     Called by c_bands:
     init_us_2    :      5.64s CPU      6.62s WALL (    6784 calls)
     ccgdiagg     :   1958.87s CPU   2308.29s WALL (    3377 calls)
     wfcrot       :    243.09s CPU    316.72s WALL (    3441 calls)

     Called by *cgdiagg:
     h_psi        :   1532.49s CPU   1905.41s WALL ( 1317359 calls)
     cdiaghg      :      7.67s CPU      8.16s WALL (    3441 calls)

     Called by h_psi:
     add_vuspsi   :    140.67s CPU    183.59s WALL ( 1317359 calls)

     General routines
     calbec       :    515.61s CPU    545.23s WALL ( 2631917 calls)
     fft          :      0.47s CPU      0.59s WALL (     231 calls)
     fftw         :   1087.61s CPU   1336.95s WALL ( 3419036 calls)
     davcio       :      3.64s CPU      9.35s WALL (    9792 calls)
 
     Parallel routines
     fft_scatter  :    445.52s CPU    553.48s WALL ( 3419267 calls)
 
     PWSCF        : 38m48.05s CPU    46m28.23s WALL

 
   This run was terminated on:  19:32: 8  22Mar2018            

=------------------------------------------------------------------------------=
   JOB DONE.
=------------------------------------------------------------------------------=
