
     Program PWSCF v.5.0.2 starts on 22Mar2018 at 17:32:53 

     This program is part of the open-source Quantum ESPRESSO suite
     for quantum simulation of materials; please cite
         "P. Giannozzi et al., J. Phys.:Condens. Matter 21 395502 (2009);
          URL http://www.quantum-espresso.org", 
     in publications or presentations arising from this work. More details at
     http://www.quantum-espresso.org/quote.php

     Parallel version (MPI), running on     4 processors
     R & G space division:  proc/nbgrp/npool/nimage =       4

     Current dimensions of program PWSCF are:
     Max number of different atomic species (ntypx) = 10
     Max number of k-points (npk) =  40000
     Max angular momentum in pseudopotentials (lmaxx) =  3
     Waiting for input...
     Reading input from standard input

     Subspace diagonalization in iterative solution of the eigenvalue problem:
     a serial algorithm will be used

 
     Parallelization info
     --------------------
     sticks:   dense  smooth     PW     G-vecs:    dense   smooth      PW
     Min         207     207     61                 7381     7381    1191
     Max         208     208     62                 7386     7386    1192
     Sum         829     829    247                29529    29529    4767
 


     bravais-lattice index     =            0
     lattice parameter (alat)  =       7.0151  a.u.
     unit-cell volume          =     862.2778 (a.u.)^3
     number of atoms/cell      =           12
     number of atomic types    =            2
     number of electrons       =       180.00
     number of Kohn-Sham states=          108
     kinetic-energy cutoff     =      40.0000  Ry
     charge density cutoff     =     160.0000  Ry
     convergence threshold     =      1.0E-04
     mixing beta               =       0.7000
     number of iterations used =            8  plain     mixing
     Exchange-correlation      = SLA-PZ-NOGX-NOGC ( 1 1 0 0 0)
     EXX-fraction              =        0.00
     nstep                     =           50


     celldm(1)=   7.015105  celldm(2)=   0.000000  celldm(3)=   0.000000
     celldm(4)=   0.000000  celldm(5)=   0.000000  celldm(6)=   0.000000

     crystal axes: (cart. coord. in units of alat)
               a(1) = (   1.000000   0.000000   0.000000 )  
               a(2) = (   0.000000   1.315963   0.000000 )  
               a(3) = (   0.000000   0.000000   1.898020 )  

     reciprocal axes: (cart. coord. in units 2 pi/alat)
               b(1) = (  1.000000  0.000000  0.000000 )  
               b(2) = (  0.000000  0.759900  0.000000 )  
               b(3) = (  0.000000  0.000000  0.526865 )  


     PseudoPot. # 1 for Nd read from file:
     /home/cwx6513/pp.La/Nd.UPF
     MD5 check sum: c66c5b6abe7b5840ced9b1e244e3bed6
     Pseudo is Norm-conserving, Zval = 14.0
     Generated in analytical, separable form
     Using radial grid of 1257 points,  6 beta functions with: 
                l(1) =   0
                l(2) =   0
                l(3) =   1
                l(4) =   1
                l(5) =   2
                l(6) =   3

     PseudoPot. # 2 for Eu read from file:
     /home/cwx6513/pp.La/Eu.UPF
     MD5 check sum: 5efdbbfc50c6a10138933a6429836ad2
     Pseudo is Norm-conserving, Zval = 17.0
     Generated in analytical, separable form
     Using radial grid of 1261 points,  6 beta functions with: 
                l(1) =   0
                l(2) =   0
                l(3) =   1
                l(4) =   1
                l(5) =   2
                l(6) =   3

     atomic species   valence    mass     pseudopotential
        Co            14.00    58.93320     Nd( 1.00)
        Si            17.00    28.08550     Eu( 1.00)

      8 Sym. Ops., with inversion, found ( 6 have fractional translation)



   Cartesian axes

     site n.     atom                  positions (alat units)
         1           Co  tau(   1) = (   0.7500000   1.0875135   0.8270358  )
         2           Co  tau(   2) = (   0.2500000   0.2284499   1.0709846  )
         3           Co  tau(   3) = (   0.7500000   0.4295318   0.1219744  )
         4           Co  tau(   4) = (   0.2500000   0.8864316   1.7760460  )
         5           Co  tau(   5) = (   0.2500000   0.7067855   0.5358966  )
         6           Co  tau(   6) = (   0.7500000   0.6091779   1.3621238  )
         7           Co  tau(   7) = (   0.2500000   0.0488038   0.4131136  )
         8           Co  tau(   8) = (   0.7500000   1.2671596   1.4849068  )
         9           Si  tau(   9) = (   0.2500000   0.2669484   1.6960710  )
        10           Si  tau(  10) = (   0.7500000   1.0490149   0.2019494  )
        11           Si  tau(  11) = (   0.2500000   0.9249301   1.1509596  )
        12           Si  tau(  12) = (   0.7500000   0.3910333   0.7470608  )

     number of k points=    12  gaussian smearing, width (Ry)=  0.1000
                       cart. coord. in units 2pi/alat
        k(    1) = (   0.0000000   0.0000000   0.0000000), wk =   0.0833333
        k(    2) = (   0.0000000   0.0000000   0.1317162), wk =   0.1666667
        k(    3) = (   0.0000000   0.0000000  -0.2634324), wk =   0.0833333
        k(    4) = (   0.0000000   0.2532999   0.0000000), wk =   0.1666667
        k(    5) = (   0.0000000   0.2532999   0.1317162), wk =   0.3333333
        k(    6) = (   0.0000000   0.2532999  -0.2634324), wk =   0.1666667
        k(    7) = (  -0.5000000   0.0000000   0.0000000), wk =   0.0833333
        k(    8) = (  -0.5000000   0.0000000   0.1317162), wk =   0.1666667
        k(    9) = (  -0.5000000   0.0000000  -0.2634324), wk =   0.0833333
        k(   10) = (  -0.5000000   0.2532999   0.0000000), wk =   0.1666667
        k(   11) = (  -0.5000000   0.2532999   0.1317162), wk =   0.3333333
        k(   12) = (  -0.5000000   0.2532999  -0.2634324), wk =   0.1666667

     Dense  grid:    29529 G-vectors     FFT dimensions: (  30,  40,  54)

     Largest allocated arrays     est. size (Mb)     dimensions
        Kohn-Sham Wavefunctions         1.52 Mb     (    922,  108)
        NL pseudopotentials             3.38 Mb     (    922,  240)
        Each V/rho on FFT grid          0.26 Mb     (  16800)
        Each G-vector array             0.06 Mb     (   7386)
        G-vector shells                 0.06 Mb     (   7386)
     Largest temporary arrays     est. size (Mb)     dimensions
        Each subspace H/S matrix        0.18 Mb     ( 108, 108)
        Each <psi_i|beta_j> matrix      0.40 Mb     (    240,  108)
        Arrays for rho mixing           2.05 Mb     (  16800,   8)

     Initial potential from superposition of free atoms

     Starting from uniform charge
     Starting wfc are    0 randomized atomic wfcs

     total cpu time spent up to now is        2.1 secs

     Self-consistent Calculation

     iteration #  1     ecut=    40.00 Ry     beta=0.70
     CG style diagonalization
     c_bands:  5 eigenvalues not converged
     c_bands:  4 eigenvalues not converged
     ethr =  1.00E-02,  avg # of iterations = 15.2

     total cpu time spent up to now is       35.0 secs

     total energy              =   -1339.35179600 Ry
     Harris-Foulkes estimate   =   -1684.99836879 Ry
     estimated scf accuracy    <     437.61429896 Ry

     iteration #  2     ecut=    40.00 Ry     beta=0.70
     CG style diagonalization
     c_bands:  1 eigenvalues not converged
     ethr =  1.00E-02,  avg # of iterations = 10.8

     total cpu time spent up to now is       59.4 secs

     total energy              =   -1479.68336687 Ry
     Harris-Foulkes estimate   =   -1741.61064049 Ry
     estimated scf accuracy    <     497.67010420 Ry

     iteration #  3     ecut=    40.00 Ry     beta=0.70
     CG style diagonalization
     c_bands:  1 eigenvalues not converged
     ethr =  1.00E-02,  avg # of iterations =  9.3

     total cpu time spent up to now is       78.8 secs

     total energy              =   -1567.03393953 Ry
     Harris-Foulkes estimate   =   -1577.81643589 Ry
     estimated scf accuracy    <      17.57995847 Ry

     iteration #  4     ecut=    40.00 Ry     beta=0.70
     CG style diagonalization
     ethr =  9.77E-03,  avg # of iterations =  3.8

     total cpu time spent up to now is       86.5 secs

     total energy              =   -1571.20053648 Ry
     Harris-Foulkes estimate   =   -1573.72167529 Ry
     estimated scf accuracy    <       5.47120514 Ry

     iteration #  5     ecut=    40.00 Ry     beta=0.70
     CG style diagonalization
     ethr =  3.04E-03,  avg # of iterations =  3.6

     total cpu time spent up to now is       93.4 secs

     total energy              =   -1572.37257306 Ry
     Harris-Foulkes estimate   =   -1572.60361609 Ry
     estimated scf accuracy    <       0.44198503 Ry

     iteration #  6     ecut=    40.00 Ry     beta=0.70
     CG style diagonalization
     c_bands:  1 eigenvalues not converged
     c_bands:  1 eigenvalues not converged
     c_bands:  1 eigenvalues not converged
     ethr =  2.46E-04,  avg # of iterations =  4.5

     total cpu time spent up to now is      102.8 secs

     total energy              =   -1572.51718091 Ry
     Harris-Foulkes estimate   =   -1572.54760460 Ry
     estimated scf accuracy    <       0.05696813 Ry

     iteration #  7     ecut=    40.00 Ry     beta=0.70
     CG style diagonalization
     c_bands:  1 eigenvalues not converged
     c_bands:  1 eigenvalues not converged
     c_bands:  1 eigenvalues not converged
     ethr =  3.16E-05,  avg # of iterations =  4.6

     total cpu time spent up to now is      112.1 secs

     total energy              =   -1572.53945506 Ry
     Harris-Foulkes estimate   =   -1572.54687826 Ry
     estimated scf accuracy    <       0.01669243 Ry

     iteration #  8     ecut=    40.00 Ry     beta=0.70
     CG style diagonalization
     c_bands:  1 eigenvalues not converged
     ethr =  9.27E-06,  avg # of iterations =  3.8

     total cpu time spent up to now is      119.2 secs

     total energy              =   -1572.54239776 Ry
     Harris-Foulkes estimate   =   -1572.54345562 Ry
     estimated scf accuracy    <       0.00201304 Ry

     iteration #  9     ecut=    40.00 Ry     beta=0.70
     CG style diagonalization
     c_bands:  1 eigenvalues not converged
     ethr =  1.12E-06,  avg # of iterations =  4.2

     total cpu time spent up to now is      127.3 secs

     End of self-consistent calculation

          k = 0.0000 0.0000 0.0000 (  3675 PWs)   bands (ev):

   -19.3077 -19.1757 -19.1336 -19.0822  -3.8060  -3.4690  -3.3504  -2.3131
    -2.1134  -1.7722  -1.6645  -1.6622   5.8539   6.3861   6.4858   6.5447
     6.7352   6.8261   7.0625   7.1521   7.2488   7.4272   7.7066   8.0479
    14.8290  15.2796  15.6213  16.1808  17.0505  17.1816  17.4509  17.5844
    18.1642  18.2184  18.3896  18.7886  18.7905  18.9761  19.5836  19.7648
    19.8192  20.0994  20.2464  20.7324  21.9984  22.0523  22.3418  22.7491
    33.0052  33.3172  33.9769  34.6557  34.6987  34.7747  34.9059  35.1665
    36.0259  36.0980  36.7784  37.4375  37.5271  37.5912  38.6769  39.7076
    39.7733  39.8897  40.7733  41.2576  41.5616  41.8397  41.8908  41.9632
    42.1340  42.3694  42.3853  43.4186  43.4267  43.9508  44.4341  44.4870
    44.5153  45.1846  45.2530  45.3575  46.2226  46.5412  46.6337  46.8846
    47.2068  47.2577  47.8138  48.2032  48.8513  49.4495  49.7779  49.8307
    49.8960  50.8882  51.1073  51.8891  51.9508  52.7623  52.8271  53.0135
    53.0473  53.2946  53.3770  53.4021

          k = 0.0000 0.0000 0.1317 (  3675 PWs)   bands (ev):

   -19.2937 -19.2079 -19.1128 -19.0849  -3.8138  -3.6785  -3.0253  -2.3929
    -2.1054  -1.8355  -1.7095  -1.5855   5.9152   6.2534   6.6259   6.6286
     6.7247   6.7967   7.0140   7.1321   7.2351   7.5354   7.5888   7.9131
    14.8657  15.3573  15.7311  16.3435  17.2725  17.2831  17.3488  17.4438
    18.2363  18.2939  18.6097  18.7697  18.8073  18.8125  19.0418  19.5264
    19.9281  20.4370  20.5341  20.6411  21.5986  21.8460  22.3557  22.6684
    32.8986  33.3875  33.9644  34.1555  34.4662  34.8835  35.3658  35.4411
    36.0944  36.2712  37.1880  37.4564  37.7109  38.8701  38.9276  39.0760
    39.1787  39.6061  40.4278  40.6235  41.2741  41.9156  42.1309  42.1949
    42.5313  42.6742  43.1919  43.3925  43.7821  43.8073  44.0113  44.1859
    44.4537  44.6277  44.6657  45.6321  46.0480  46.1347  46.2429  46.8969
    47.6307  48.0537  48.2450  48.6902  48.7115  48.7587  49.0700  49.6854
    49.9680  49.9875  51.1793  51.6604  51.6786  51.7744  52.7892  52.8876
    52.9637  53.0921  54.2778  54.3359

          k = 0.0000 0.0000-0.2634 (  3690 PWs)   bands (ev):

   -19.2561 -19.2561 -19.0944 -19.0944  -3.7965  -3.7965  -2.6426  -2.6426
    -2.0209  -2.0209  -1.6116  -1.6116   6.0625   6.0625   6.6988   6.6988
     6.8067   6.8067   7.0628   7.0628   7.2564   7.2564   7.7252   7.7252
    15.0414  15.0414  16.6975  16.6975  16.7625  16.7625  17.7652  17.7652
    17.8347  17.8347  18.6929  18.6929  18.9192  18.9192  19.5471  19.5471
    19.8889  19.8889  20.7811  20.7811  21.3861  21.3861  22.4812  22.4812
    33.1310  33.1310  33.5798  33.5798  34.8693  34.8694  35.9873  35.9873
    36.9262  36.9262  37.0171  37.0171  38.1473  38.1473  38.6176  38.6176
    39.8055  39.8055  39.8639  39.8639  41.8238  41.8238  42.4770  42.4770
    42.6094  42.6094  43.5915  43.5915  43.7840  43.7840  44.1961  44.1961
    44.5351  44.5351  44.9191  44.9191  45.7681  45.7681  46.5773  46.5773
    47.3350  47.3350  47.9270  47.9270  48.4009  48.4009  49.8462  49.8463
    50.0413  50.0412  51.5452  51.5452  51.6191  51.6190  52.6968  52.6966
    53.3445  53.3445  54.1724  54.1721

          k = 0.0000 0.2533 0.0000 (  3664 PWs)   bands (ev):

   -19.2561 -19.1782 -19.1351 -19.1199  -3.7650  -3.5649  -3.3151  -2.8482
    -2.1755  -1.9331  -1.4242  -1.3398   6.0530   6.3855   6.5295   6.5547
     6.5641   6.6847   7.1748   7.3011   7.5678   7.7924   7.9999   8.0499
    15.1556  16.0107  16.2846  16.2941  16.3192  16.5240  16.6356  17.4733
    17.6458  17.8353  18.2785  18.6803  18.8714  19.5921  19.6013  19.8277
    20.1792  20.3640  20.4701  20.5389  20.9082  21.3855  21.4544  21.7176
    34.0024  34.0877  34.1858  34.8436  35.6752  35.8536  35.9522  36.3171
    36.3960  36.7199  36.8330  37.2253  37.4214  38.5318  38.5505  39.3027
    39.4085  39.9026  40.1863  40.7500  40.8312  41.0404  41.2352  41.3924
    42.5744  42.6938  43.0147  43.7849  44.1404  44.2508  44.5161  44.8387
    44.8994  45.3398  45.4649  45.6336  46.5162  46.5632  46.7797  47.0653
    47.4330  47.6098  47.8722  48.5701  48.5910  48.6700  49.0827  49.2428
    49.9083  50.1231  50.2126  50.5684  50.5902  51.3953  51.8794  52.4179
    53.3586  53.6498  53.7420  53.8241

          k = 0.0000 0.2533 0.1317 (  3669 PWs)   bands (ev):

   -19.2462 -19.1922 -19.1313 -19.1208  -3.7777  -3.6783  -3.1672  -2.8924
    -2.0709  -1.8423  -1.5329  -1.4049   6.0991   6.3244   6.5363   6.5711
     6.6840   6.7640   7.1645   7.3143   7.4264   7.7539   7.8557   8.0099
    15.4436  16.1110  16.1167  16.3547  16.4169  16.7891  16.8350  17.5335
    17.7449  17.7847  18.0993  18.4409  18.8576  19.5212  19.5294  19.8636
    19.9383  20.2332  20.4572  20.6595  20.9490  21.2689  21.3240  21.6595
    33.9058  34.0774  34.6601  34.7620  35.4323  35.9331  35.9619  36.3965
    36.6982  36.9000  37.0071  37.0695  37.8518  38.3460  39.0046  39.0774
    39.2806  39.3227  39.8610  40.7793  41.0209  41.0445  41.9431  42.1649
    42.5724  42.7682  43.1288  43.4192  43.7197  44.1520  44.1660  44.4305
    45.1605  45.2140  45.4420  45.8333  45.9939  46.1182  46.4283  46.5611
    47.2095  47.4839  47.8657  48.3509  48.7344  48.9296  49.2589  49.4888
    49.9158  50.2342  50.5794  50.6918  51.4114  51.7182  51.9536  52.1746
    52.5295  52.8704  52.9881  53.9927

          k = 0.0000 0.2533-0.2634 (  3666 PWs)   bands (ev):

   -19.2207 -19.2207 -19.1246 -19.1246  -3.7695  -3.7694  -2.9986  -2.9986
    -1.8304  -1.8304  -1.5852  -1.5852   6.2043   6.2043   6.5591   6.5591
     6.8968   6.8968   7.1788   7.1789   7.4242   7.4242   7.9234   7.9234
    15.9101  15.9101  16.3137  16.3137  16.6684  16.6684  17.3782  17.3782
    17.7764  17.7764  18.0929  18.0928  19.1194  19.1194  19.6884  19.6883
    19.7546  19.7546  20.8539  20.8539  20.9354  20.9354  21.4226  21.4226
    34.1639  34.1639  34.3156  34.3156  36.1338  36.1338  36.4293  36.4293
    36.6225  36.6225  37.5946  37.5946  37.9039  37.9039  38.5472  38.5472
    39.5277  39.5277  40.2933  40.2933  41.2511  41.2511  42.0403  42.0403
    42.1849  42.1849  43.3312  43.3312  44.2643  44.2643  44.8111  44.8111
    45.0499  45.0499  45.3178  45.3178  45.8338  45.8338  46.2030  46.2030
    47.0860  47.0860  48.0163  48.0163  48.6706  48.6706  49.4969  49.4969
    49.5971  49.5971  51.3646  51.3645  51.4702  51.4699  51.7477  51.7474
    52.7909  52.7907  53.6374  53.6374

          k =-0.5000 0.0000 0.0000 (  3722 PWs)   bands (ev):

   -19.1753 -19.1753 -19.0963 -19.0963  -3.6652  -3.6652  -2.9785  -2.9785
    -2.3963  -2.3963  -1.6450  -1.6450   5.9610   5.9610   6.3304   6.3304
     6.9875   6.9875   7.0707   7.0707   7.3378   7.3378   7.9173   7.9173
    14.9799  14.9799  16.7338  16.7338  16.8226  16.8226  17.3917  17.3917
    18.4357  18.4357  19.4702  19.4703  19.7328  19.7328  19.8642  19.8642
    20.3660  20.3660  20.8538  20.8538  21.2462  21.2462  22.0392  22.0392
    34.2423  34.2423  35.8698  35.8698  36.2304  36.2304  36.4292  36.4292
    36.7613  36.7613  36.8414  36.8414  37.6011  37.6011  38.4859  38.4859
    39.0374  39.0374  39.5500  39.5500  39.6887  39.6887  39.7857  39.7857
    40.8888  40.8888  41.8336  41.8336  42.8970  42.8970  44.0607  44.0607
    44.7972  44.7972  44.8281  44.8281  45.0154  45.0154  46.2876  46.2876
    46.4246  46.4246  48.1498  48.1498  49.3195  49.3194  49.7417  49.7417
    50.4006  50.4005  51.1318  51.1316  51.5525  51.5525  52.0501  52.0501
    53.0979  53.0976  53.5742  53.5744

          k =-0.5000 0.0000 0.1317 (  3710 PWs)   bands (ev):

   -19.1748 -19.1748 -19.0960 -19.0960  -3.7236  -3.7236  -2.9198  -2.9198
    -2.3777  -2.3777  -1.6442  -1.6442   6.0263   6.0263   6.2420   6.2420
     6.7184   6.7184   7.0913   7.0913   7.5711   7.5711   7.8994   7.8994
    15.0889  15.0889  16.8417  16.8417  16.9880  16.9880  17.6012  17.6012
    18.4501  18.4501  19.1503  19.1503  19.4434  19.4434  19.6130  19.6130
    20.5651  20.5651  20.8635  20.8635  21.2273  21.2273  22.0354  22.0354
    34.4416  34.4416  35.5330  35.5330  36.0573  36.0573  36.3943  36.3943
    37.0019  37.0019  37.2779  37.2779  37.5981  37.5981  38.4677  38.4677
    38.7783  38.7783  39.6615  39.6615  39.9663  39.9663  40.6686  40.6686
    40.7571  40.7571  41.5618  41.5618  42.6358  42.6358  43.4762  43.4762
    43.8460  43.8460  45.3099  45.3099  45.9103  45.9103  46.5183  46.5183
    46.9219  46.9219  47.7397  47.7397  48.1561  48.1561  48.9497  48.9497
    50.4925  50.4924  51.5720  51.5720  51.7523  51.7521  52.4366  52.4362
    52.8964  52.8961  53.5632  53.5630

          k =-0.5000 0.0000-0.2634 (  3680 PWs)   bands (ev):

   -19.1733 -19.1733 -19.0957 -19.0957  -3.7729  -3.7729  -2.8746  -2.8746
    -2.3523  -2.3523  -1.6452  -1.6452   6.0797   6.0797   6.1931   6.1931
     6.5528   6.5528   7.0783   7.0783   7.7001   7.7001   7.9030   7.9030
    15.1970  15.1970  16.9878  16.9878  17.1771  17.1771  17.9124  17.9124
    18.4572  18.4572  18.9151  18.9151  19.0535  19.0535  19.2650  19.2650
    20.6956  20.6956  21.0260  21.0260  21.0921  21.0921  22.0323  22.0323
    34.6722  34.6722  35.1478  35.1478  36.2802  36.2802  36.2856  36.2856
    37.2572  37.2572  37.4324  37.4324  37.8081  37.8081  38.1120  38.1120
    38.6985  38.6985  39.7408  39.7408  40.0926  40.0926  40.6575  40.6575
    41.3914  41.3914  41.5264  41.5264  43.1828  43.1828  43.2912  43.2912
    43.9008  43.9008  44.8684  44.8684  44.8863  44.8863  45.5036  45.5036
    47.0840  47.0840  47.8477  47.8477  49.1667  49.1667  49.6291  49.6291
    49.9347  49.9346  50.9482  50.9480  51.8839  51.8838  52.8665  52.8665
    53.3544  53.3542  53.4014  53.4014

          k =-0.5000 0.2533 0.0000 (  3686 PWs)   bands (ev):

   -19.1527 -19.1527 -19.1127 -19.1127  -3.4594  -3.4594  -3.1393  -3.1393
    -2.3792  -2.3792  -1.9875  -1.9875   6.3508   6.3508   6.4944   6.4944
     7.1410   7.1410   7.2351   7.2351   7.5092   7.5092   7.8084   7.8084
    15.4817  15.4817  15.7668  15.7668  17.1141  17.1141  17.9543  17.9543
    18.1590  18.1590  18.5615  18.5615  19.5533  19.5533  19.6514  19.6514
    20.4756  20.4756  20.5735  20.5735  21.1919  21.1919  21.3968  21.3968
    34.8484  34.8484  36.0625  36.0625  36.5861  36.5861  36.6432  36.6432
    37.2880  37.2880  37.4239  37.4239  38.5118  38.5118  38.6220  38.6220
    39.0297  39.0297  39.2133  39.2133  40.5021  40.5021  40.7565  40.7565
    41.9803  41.9803  42.0670  42.0670  42.6393  42.6393  43.0619  43.0619
    44.6843  44.6843  45.3511  45.3511  45.4551  45.4551  46.3516  46.3516
    46.5892  46.5892  47.8852  47.8852  48.3744  48.3744  49.1817  49.1817
    49.8431  49.8430  50.1058  50.1058  50.7528  50.7528  51.2044  51.2043
    51.8434  51.8433  52.1571  52.1573

          k =-0.5000 0.2533 0.1317 (  3692 PWs)   bands (ev):

   -19.1521 -19.1521 -19.1137 -19.1137  -3.5136  -3.5136  -3.1280  -3.1280
    -2.3393  -2.3393  -1.9591  -1.9591   6.2789   6.2789   6.4348   6.4348
     7.0184   7.0184   7.2362   7.2362   7.6501   7.6501   7.8393   7.8392
    15.6637  15.6637  16.0481  16.0481  17.1026  17.1026  17.7661  17.7661
    17.9967  17.9967  18.7116  18.7116  19.3313  19.3313  19.7770  19.7770
    20.3915  20.3915  20.7168  20.7168  20.9624  20.9624  21.3264  21.3265
    34.8151  34.8151  35.6970  35.6970  36.5490  36.5490  36.9166  36.9166
    37.4288  37.4288  37.7440  37.7440  38.3136  38.3136  38.7831  38.7831
    39.3721  39.3721  39.7346  39.7346  40.3955  40.3955  40.8450  40.8450
    41.8325  41.8325  42.0669  42.0669  42.7133  42.7133  43.0410  43.0410
    44.4972  44.4972  45.3035  45.3035  45.7868  45.7868  45.9591  45.9591
    46.4424  46.4424  47.3028  47.3028  48.1318  48.1318  48.7198  48.7198
    49.1011  49.1011  49.7149  49.7148  50.7347  50.7347  51.1214  51.1212
    52.2494  52.2495  52.6198  52.6198

          k =-0.5000 0.2533-0.2634 (  3704 PWs)   bands (ev):

   -19.1520 -19.1521 -19.1144 -19.1144  -3.5590  -3.5590  -3.1257  -3.1256
    -2.2972  -2.2972  -1.9328  -1.9328   6.1842   6.1842   6.4046   6.4046
     6.9699   6.9699   7.1920   7.1920   7.7739   7.7739   7.8446   7.8446
    15.8824  15.8824  16.4505  16.4505  17.0034  17.0034  17.6107  17.6107
    17.7707  17.7707  18.7117  18.7117  19.3644  19.3644  19.7753  19.7753
    20.4071  20.4071  20.5918  20.5918  20.9302  20.9302  21.2089  21.2089
    34.7197  34.7197  35.5228  35.5228  36.5980  36.5980  37.0885  37.0885
    37.5786  37.5786  37.9434  37.9434  38.5210  38.5210  38.7398  38.7398
    39.4042  39.4042  39.9687  39.9687  40.6751  40.6751  40.8794  40.8794
    41.6462  41.6462  42.1712  42.1712  42.7210  42.7210  44.0030  44.0030
    44.1716  44.1716  45.0340  45.0340  45.0926  45.0926  45.7551  45.7551
    46.0110  46.0110  47.4181  47.4181  47.7612  47.7612  48.3555  48.3555
    48.6286  48.6286  49.1674  49.1674  50.1404  50.1403  51.4601  51.4600
    52.7568  52.7567  53.0413  53.0409

     the Fermi energy is    47.4337 ev

!    total energy              =   -1572.54305642 Ry
     Harris-Foulkes estimate   =   -1572.54309798 Ry
     estimated scf accuracy    <       0.00004989 Ry

     The total energy is the sum of the following terms:

     one-electron contribution =     429.96071590 Ry
     hartree contribution      =      70.32301589 Ry
     xc contribution           =    -194.46814479 Ry
     ewald contribution        =   -1877.96643113 Ry
     smearing contrib. (-TS)   =      -0.39221229 Ry

     convergence has been achieved in   9 iterations

     Forces acting on atoms (Ry/au):

     atom    1 type  1   force =     0.00000000   -0.06799521   -0.10836665
     atom    2 type  1   force =     0.00000000    0.06799521    0.10836665
     atom    3 type  1   force =     0.00000000   -0.06799521    0.10836665
     atom    4 type  1   force =     0.00000000    0.06799521   -0.10836665
     atom    5 type  1   force =     0.00000000    0.15088183   -0.23895235
     atom    6 type  1   force =     0.00000000   -0.15088183    0.23895235
     atom    7 type  1   force =     0.00000000    0.15088183    0.23895235
     atom    8 type  1   force =     0.00000000   -0.15088183   -0.23895235
     atom    9 type  2   force =     0.00000000   -0.12703620   -0.05893955
     atom   10 type  2   force =     0.00000000    0.12703620    0.05893955
     atom   11 type  2   force =     0.00000000   -0.12703620    0.05893955
     atom   12 type  2   force =     0.00000000    0.12703620   -0.05893955

     Total force =     0.680712     Total SCF correction =     0.000000


     entering subroutine stress ...

          total   stress  (Ry/bohr**3)                   (kbar)     P= 6400.47
   0.04593323   0.00000000   0.00000000       6757.01      0.00      0.00
   0.00000000   0.04128365   0.00000000          0.00   6073.03      0.00
   0.00000000   0.00000000   0.04331167          0.00      0.00   6371.36


     BFGS Geometry Optimization

     number of scf cycles    =   1
     number of bfgs steps    =   0

     enthalpy new            =   -1572.5430564152 Ry

     new trust radius        =       0.5000000000 bohr
     new conv_thr            =       0.0001000000 Ry

     new unit-cell volume =   1088.14954 a.u.^3 (   161.24712 Ang^3 )

CELL_PARAMETERS (alat=  7.01510508)
   1.085136619   0.000000000   0.000000000
   0.000000000   1.416659169   0.000000000
   0.000000000   0.000000000   2.050388903

ATOMIC_POSITIONS (crystal)
Co       0.750000000   0.825854928   0.435132593
Co       0.250000000   0.174145072   0.564867407
Co       0.750000000   0.325854928   0.064867407
Co       0.250000000   0.674145072   0.935132593
Co       0.250000000   0.538297737   0.281014467
Co       0.750000000   0.461702263   0.718985533
Co       0.250000000   0.038297737   0.218985533
Co       0.750000000   0.961702263   0.781014467
Si       0.250000000   0.201833768   0.893271813
Si       0.750000000   0.798166232   0.106728187
Si       0.250000000   0.701833768   0.606728187
Si       0.750000000   0.298166232   0.393271813



     Writing output data file Prototype-La-oP12-Co2Si.save
     NEW-OLD atomic charge density approx. for the potential
     NEW k-points:
        k(    1) = (   0.0000000   0.0000000   0.0000000), wk =   0.0833333
        k(    2) = (   0.0000000   0.0000000   0.1219281), wk =   0.1666667
        k(    3) = (   0.0000000   0.0000000  -0.2438562), wk =   0.0833333
        k(    4) = (   0.0000000   0.2352954   0.0000000), wk =   0.1666667
        k(    5) = (   0.0000000   0.2352954   0.1219281), wk =   0.3333333
        k(    6) = (   0.0000000   0.2352954  -0.2438562), wk =   0.1666667
        k(    7) = (  -0.4607715   0.0000000   0.0000000), wk =   0.0833333
        k(    8) = (  -0.4607715   0.0000000   0.1219281), wk =   0.1666667
        k(    9) = (  -0.4607715   0.0000000  -0.2438562), wk =   0.0833333
        k(   10) = (  -0.4607715   0.2352954   0.0000000), wk =   0.1666667
        k(   11) = (  -0.4607715   0.2352954   0.1219281), wk =   0.3333333
        k(   12) = (  -0.4607715   0.2352954  -0.2438562), wk =   0.1666667

     total cpu time spent up to now is      130.5 secs

     Self-consistent Calculation

     iteration #  1     ecut=    40.00 Ry     beta=0.70
     CG style diagonalization
     c_bands:  2 eigenvalues not converged
     c_bands:  3 eigenvalues not converged
     ethr =  1.00E-06,  avg # of iterations = 20.8

     total cpu time spent up to now is      171.2 secs

     total energy              =   -1574.13489014 Ry
     Harris-Foulkes estimate   =   -1585.17815206 Ry
     estimated scf accuracy    <      14.70989949 Ry

     iteration #  2     ecut=    40.00 Ry     beta=0.70
     CG style diagonalization
     ethr =  8.17E-03,  avg # of iterations =  3.8

     total cpu time spent up to now is      178.1 secs

     total energy              =   -1574.76700814 Ry
     Harris-Foulkes estimate   =   -1581.11576795 Ry
     estimated scf accuracy    <      11.05825089 Ry

     iteration #  3     ecut=    40.00 Ry     beta=0.70
     CG style diagonalization
     ethr =  6.14E-03,  avg # of iterations =  3.5

     total cpu time spent up to now is      185.1 secs

     total energy              =   -1578.43338580 Ry
     Harris-Foulkes estimate   =   -1579.37711763 Ry
     estimated scf accuracy    <       2.08248138 Ry

     iteration #  4     ecut=    40.00 Ry     beta=0.70
     CG style diagonalization
     ethr =  1.16E-03,  avg # of iterations =  3.5

     total cpu time spent up to now is      192.3 secs

     total energy              =   -1578.72481632 Ry
     Harris-Foulkes estimate   =   -1578.79232047 Ry
     estimated scf accuracy    <       0.17730480 Ry

     iteration #  5     ecut=    40.00 Ry     beta=0.70
     CG style diagonalization
     ethr =  9.85E-05,  avg # of iterations =  3.6

     total cpu time spent up to now is      200.1 secs

     total energy              =   -1578.74654619 Ry
     Harris-Foulkes estimate   =   -1578.75731087 Ry
     estimated scf accuracy    <       0.02473319 Ry

     iteration #  6     ecut=    40.00 Ry     beta=0.70
     CG style diagonalization
     c_bands:  1 eigenvalues not converged
     ethr =  1.37E-05,  avg # of iterations =  4.1

     total cpu time spent up to now is      208.1 secs

     total energy              =   -1578.75336162 Ry
     Harris-Foulkes estimate   =   -1578.75504825 Ry
     estimated scf accuracy    <       0.00461000 Ry

     iteration #  7     ecut=    40.00 Ry     beta=0.70
     CG style diagonalization
     ethr =  2.56E-06,  avg # of iterations =  3.9

     total cpu time spent up to now is      216.8 secs

     total energy              =   -1578.75401802 Ry
     Harris-Foulkes estimate   =   -1578.75490887 Ry
     estimated scf accuracy    <       0.00220387 Ry

     iteration #  8     ecut=    40.00 Ry     beta=0.70
     CG style diagonalization
     ethr =  1.22E-06,  avg # of iterations =  3.3

     total cpu time spent up to now is      223.2 secs

     total energy              =   -1578.75425138 Ry
     Harris-Foulkes estimate   =   -1578.75431420 Ry
     estimated scf accuracy    <       0.00014162 Ry

     iteration #  9     ecut=    40.00 Ry     beta=0.70
     CG style diagonalization
     ethr =  7.87E-08,  avg # of iterations =  3.9

     total cpu time spent up to now is      230.5 secs

     End of self-consistent calculation

          k = 0.0000 0.0000 0.0000 (  3675 PWs)   bands (ev):

   -27.8614 -27.8229 -27.8170 -27.8059 -12.2940 -11.9212 -11.9074 -11.5056
   -11.3791 -11.1148 -11.0537 -11.0239  -1.4612  -1.2597  -1.1992  -1.1881
    -1.1318  -1.0919  -0.9329  -0.9151  -0.8979  -0.7734  -0.7225  -0.5408
     7.3246   7.8285   7.9273   8.4633   8.6625   8.7725   8.9923   9.0716
     9.4827   9.6582   9.6753   9.7299  10.0318  10.0745  10.5001  10.5140
    10.5489  10.6448  10.7565  11.0997  11.5761  11.6983  12.0605  12.2666
    26.3663  26.4142  26.6672  27.3273  27.4924  27.4962  27.5050  27.8159
    28.0563  28.5790  28.9506  29.2055  29.3563  29.5002  29.8229  30.3632
    30.5556  31.1440  31.4180  31.8245  31.9747  32.1988  32.6042  32.8880
    32.9574  33.1027  33.5195  33.7360  33.8120  34.0746  34.4074  34.4713
    34.4799  34.9450  35.1686  35.3945  35.9183  36.1712  36.6307  36.6841
    36.8387  37.0387  37.0873  37.8285  38.5501  38.7769  38.8048  38.9685
    40.1184  40.1397  40.3739  40.7284  40.7990  41.0476  41.2466  41.6643
    41.7646  41.7815  42.1532  42.3180

          k = 0.0000 0.0000 0.1219 (  3675 PWs)   bands (ev):

   -27.8576 -27.8327 -27.8092 -27.8080 -12.2750 -12.0884 -11.7254 -11.5242
   -11.3557 -11.1671 -11.0432 -11.0188  -1.4250  -1.3032  -1.1564  -1.1548
    -1.1083  -1.1048  -0.9681  -0.9321  -0.9208  -0.8316  -0.6781  -0.5587
     7.3713   7.7249   8.1033   8.4958   8.7162   8.7910   8.8991   9.1886
     9.4330   9.7247   9.7560   9.7625  10.0168  10.1391  10.1480  10.3986
    10.4528  10.9055  10.9613  11.0086  11.4876  11.5177  12.0774  12.2281
    26.2961  26.4377  26.9227  26.9606  27.0144  27.5254  27.8911  27.9896
    28.2391  28.5135  29.2881  29.4763  29.5125  30.0547  30.1039  30.3959
    30.5950  30.8315  30.9660  31.3444  31.5652  31.9688  32.7130  32.8176
    33.1075  33.3404  33.6775  33.7444  33.9097  34.1161  34.1969  34.2935
    34.4278  34.8919  35.1348  35.6100  35.8210  35.9858  36.4075  36.6385
    36.9821  37.3467  37.7121  37.8780  37.9602  38.6254  38.7214  38.7438
    38.9944  39.4426  40.0206  40.4126  40.8556  40.9934  41.4835  41.6576
    41.7820  42.4282  42.8289  42.9168

          k = 0.0000 0.0000-0.2439 (  3690 PWs)   bands (ev):

   -27.8471 -27.8471 -27.8107 -27.8107 -12.2104 -12.2104 -11.5880 -11.5880
   -11.2747 -11.2747 -11.0252 -11.0252  -1.3689  -1.3689  -1.1221  -1.1221
    -1.0595  -1.0595  -0.9935  -0.9935  -0.9486  -0.9486  -0.6187  -0.6187
     7.5093   7.5093   8.5537   8.5537   8.5941   8.5941   9.0961   9.0961
     9.4938   9.4938   9.8933   9.8933   9.9951   9.9951  10.3411  10.3411
    10.5483  10.5483  11.1071  11.1071  11.3302  11.3302  12.1413  12.1413
    26.4393  26.4393  26.5269  26.5269  27.4141  27.4141  28.3417  28.3417
    28.9111  28.9111  29.0016  29.0016  29.8408  29.8408  30.3029  30.3029
    30.7404  30.7404  30.8111  30.8111  31.7540  31.7540  32.7912  32.7912
    33.1951  33.1951  33.5608  33.5608  34.2251  34.2251  34.5305  34.5305
    34.9694  34.9694  35.0541  35.0541  35.3247  35.3247  36.4137  36.4137
    37.5059  37.5059  37.7169  37.7169  37.7404  37.7404  38.8720  38.8720
    38.9550  38.9550  40.4049  40.4050  40.5570  40.5570  41.3494  41.3494
    42.3779  42.3781  43.2382  43.2399

          k = 0.0000 0.2353 0.0000 (  3664 PWs)   bands (ev):

   -27.8513 -27.8275 -27.8121 -27.8057 -12.1951 -11.9942 -11.8418 -11.6762
   -11.3789 -11.1965 -11.0337 -10.9731  -1.3742  -1.2524  -1.1962  -1.1885
    -1.1559  -1.1349  -0.8552  -0.8228  -0.7266  -0.7167  -0.6352  -0.5543
     7.7113   8.3448   8.3730   8.4434   8.5067   8.5220   8.5689   9.0758
     9.1757   9.2424   9.5886   9.7122   9.8561  10.4234  10.5004  10.7267
    10.7303  10.8318  10.8892  11.0079  11.1572  11.2972  11.4898  11.5343
    27.0477  27.1783  27.2379  27.3881  27.9913  28.0766  28.2890  28.4481
    28.7212  28.9245  29.1433  29.2440  29.2896  29.9974  30.1880  30.4810
    30.7262  30.9682  31.2047  31.3530  31.4447  32.0358  32.0386  32.2897
    32.3052  33.1375  33.7691  33.8969  34.0076  34.3443  34.3880  34.4309
    34.7145  35.2905  35.5179  35.7543  36.1086  36.1894  36.4936  36.7486
    37.0174  37.1626  37.5950  37.6708  37.7518  37.9950  38.3420  38.6357
    39.0662  39.3173  39.5913  39.7017  40.0122  40.0304  40.7759  40.9193
    41.5757  41.6786  42.0676  42.9392

          k = 0.0000 0.2353 0.1219 (  3669 PWs)   bands (ev):

   -27.8478 -27.8295 -27.8134 -27.8106 -12.1827 -12.0579 -11.7958 -11.6985
   -11.3210 -11.1570 -11.0769 -10.9986  -1.3488  -1.2769  -1.1861  -1.1601
    -1.1427  -1.1086  -0.8792  -0.8263  -0.7908  -0.7642  -0.6223  -0.5613
     7.8197   8.2383   8.3767   8.4577   8.5406   8.5882   8.7501   9.1288
     9.1415   9.3963   9.5062   9.6065   9.8758  10.3569  10.4962  10.6044
    10.6132  10.6976  10.9244  11.0754  11.2281  11.2505  11.4162  11.5531
    26.9717  27.0417  27.3650  27.4979  27.7754  28.1819  28.4793  28.6018
    28.7185  29.0229  29.1201  29.2411  29.5697  29.9535  30.4315  30.5528
    30.5601  30.8226  30.8327  31.4801  31.7224  32.0126  32.2716  32.7018
    32.9480  33.0813  33.1690  33.5191  33.7716  33.9795  34.3750  34.5751
    35.1086  35.2509  35.4666  35.6910  35.7692  35.7893  36.2020  36.5405
    36.5650  36.7494  37.5547  37.7592  38.3122  38.3619  38.4992  38.5928
    38.8075  39.0817  39.5889  39.6841  40.0441  40.3341  40.5445  41.0265
    41.2620  41.3190  41.7910  42.2141

          k = 0.0000 0.2353-0.2439 (  3666 PWs)   bands (ev):

   -27.8379 -27.8379 -27.8122 -27.8122 -12.1383 -12.1383 -11.7421 -11.7421
   -11.1947 -11.1947 -11.0680 -11.0680  -1.3143  -1.3143  -1.1717  -1.1717
    -1.0669  -1.0669  -0.9043  -0.9043  -0.8024  -0.8024  -0.5832  -0.5832
     8.0427   8.0427   8.4622   8.4622   8.5920   8.5920   8.9993   8.9993
     9.3101   9.3101   9.5584   9.5584  10.0687  10.0687  10.4671  10.4671
    10.5268  10.5268  11.1203  11.1203  11.1772  11.1772  11.4749  11.4749
    26.9728  26.9728  27.2361  27.2361  28.3234  28.3234  28.7275  28.7275
    28.8373  28.8373  29.3257  29.3257  29.5796  29.5796  30.5194  30.5194
    30.7161  30.7161  31.1260  31.1260  32.1464  32.1464  32.5239  32.5239
    32.8332  32.8332  32.9967  32.9967  34.3940  34.3940  34.8361  34.8361
    35.0376  35.0376  35.1266  35.1266  35.4455  35.4455  36.0690  36.0690
    37.0172  37.0172  37.1992  37.1992  38.0484  38.0484  38.5794  38.5794
    38.6080  38.6080  40.0822  40.0823  40.4658  40.4658  40.5330  40.5331
    41.2950  41.2950  42.3667  42.3667

          k =-0.4608 0.0000 0.0000 (  3722 PWs)   bands (ev):

   -27.8373 -27.8373 -27.8150 -27.8150 -12.0086 -12.0086 -11.7337 -11.7337
   -11.4798 -11.4798 -11.0302 -11.0302  -1.3996  -1.3996  -1.2932  -1.2932
    -1.0105  -1.0105  -0.9946  -0.9946  -0.8614  -0.8614  -0.6233  -0.6233
     7.4960   7.4960   8.3954   8.3954   8.5437   8.5437   9.0295   9.0295
     9.3689   9.3689  10.1787  10.1787  10.3122  10.3122  10.5220  10.5220
    10.9063  10.9063  11.1776  11.1776  11.3709  11.3709  11.9727  11.9727
    26.8965  26.8965  28.2371  28.2371  28.4258  28.4258  28.5193  28.5193
    28.7852  28.7852  28.8961  28.8961  29.0768  29.0768  30.2654  30.2654
    30.4181  30.4181  30.9077  30.9077  31.1501  31.1501  31.3997  31.3997
    32.2122  32.2122  32.9160  32.9160  33.6179  33.6179  34.3140  34.3140
    35.3428  35.3428  35.4717  35.4717  35.6217  35.6217  36.6711  36.6711
    36.9860  36.9860  37.3331  37.3331  37.8118  37.8118  38.4884  38.4884
    39.1891  39.1891  40.1750  40.1750  40.7262  40.7262  41.1604  41.1604
    41.6188  41.6188  42.4505  42.4505

          k =-0.4608 0.0000 0.1219 (  3710 PWs)   bands (ev):

   -27.8359 -27.8359 -27.8123 -27.8123 -12.0245 -12.0245 -11.7221 -11.7221
   -11.4738 -11.4738 -11.0289 -11.0289  -1.3801  -1.3801  -1.3125  -1.3125
    -1.1195  -1.1195  -0.8853  -0.8853  -0.8397  -0.8397  -0.6360  -0.6360
     7.5145   7.5145   8.4084   8.4084   8.7197   8.7197   9.0775   9.0775
     9.4353   9.4353   9.9956   9.9956  10.1572  10.1572  10.4335  10.4335
    11.0310  11.0310  11.1549  11.1549  11.3700  11.3700  11.9689  11.9689
    27.0638  27.0638  27.9097  27.9097  28.2996  28.2996  28.5446  28.5446
    28.8155  28.8155  29.2175  29.2175  29.3762  29.3762  29.9001  29.9001
    30.2803  30.2803  31.2595  31.2595  31.3663  31.3663  31.8821  31.8821
    32.0089  32.0089  32.8945  32.8945  33.6821  33.6821  34.0398  34.0398
    34.6422  34.6422  35.1659  35.1659  36.0882  36.0882  36.4304  36.4304
    36.6024  36.6024  37.1829  37.1829  37.8464  37.8464  38.7973  38.7973
    39.4418  39.4418  40.2500  40.2500  40.9199  40.9201  41.1392  41.1392
    41.5271  41.5271  42.3827  42.3829

          k =-0.4608 0.0000-0.2439 (  3680 PWs)   bands (ev):

   -27.8291 -27.8291 -27.8096 -27.8096 -12.0384 -12.0384 -11.7128 -11.7128
   -11.4671 -11.4671 -11.0275 -11.0275  -1.3655  -1.3655  -1.3023  -1.3023
    -1.1808  -1.1808  -0.8652  -0.8652  -0.7723  -0.7723  -0.6450  -0.6450
     7.5206   7.5206   8.5191   8.5191   8.7948   8.7948   9.2512   9.2512
     9.4451   9.4451   9.8598   9.8598   9.9790   9.9790  10.2854  10.2854
    11.1061  11.1061  11.2607  11.2607  11.2893  11.2893  11.9724  11.9724
    27.2347  27.2347  27.6901  27.6901  28.2740  28.2740  28.5031  28.5031
    29.0719  29.0719  29.2926  29.2926  29.5871  29.5871  29.7230  29.7230
    30.0681  30.0681  31.3591  31.3591  31.5568  31.5568  31.9201  31.9201
    32.5255  32.5255  33.0259  33.0259  33.5471  33.5471  34.1007  34.1007
    34.2579  34.2579  35.0320  35.0320  35.2347  35.2347  35.7914  35.7914
    36.7552  36.7552  37.0040  37.0040  38.7172  38.7172  38.9298  38.9298
    39.3904  39.3904  40.2660  40.2660  41.0164  41.0164  41.2087  41.2087
    41.7104  41.7106  41.8929  41.8930

          k =-0.4608 0.2353 0.0000 (  3686 PWs)   bands (ev):

   -27.8279 -27.8279 -27.8137 -27.8137 -11.9082 -11.9082 -11.7812 -11.7812
   -11.4310 -11.4310 -11.1969 -11.1969  -1.2696  -1.2696  -1.2368  -1.2368
    -0.9643  -0.9643  -0.9577  -0.9577  -0.7708  -0.7708  -0.6379  -0.6379
     7.8220   7.8220   8.0305   8.0305   8.6702   8.6702   9.3495   9.3495
     9.4155   9.4155   9.7538   9.7538  10.2575  10.2575  10.3026  10.3026
    11.0064  11.0064  11.0175  11.0175  11.3481  11.3481  11.4847  11.4847
    27.5364  27.5364  28.4348  28.4348  28.5624  28.5624  28.8045  28.8045
    29.1480  29.1480  29.2770  29.2770  30.0492  30.0492  30.3706  30.3706
    30.5709  30.5709  30.7270  30.7270  31.6146  31.6146  31.8090  31.8090
    32.7933  32.7933  32.7946  32.7946  33.4774  33.4774  34.0728  34.0728
    34.8844  34.8844  35.4002  35.4002  35.4656  35.4656  36.0806  36.0806
    36.2736  36.2736  37.4703  37.4703  37.7209  37.7209  38.5848  38.5848
    39.0648  39.0648  39.5029  39.5029  39.7100  39.7100  40.2389  40.2389
    40.7987  40.7988  41.1169  41.1169

          k =-0.4608 0.2353 0.1219 (  3692 PWs)   bands (ev):

   -27.8251 -27.8251 -27.8181 -27.8181 -11.9221 -11.9221 -11.7792 -11.7792
   -11.4217 -11.4217 -11.1917 -11.1917  -1.2962  -1.2962  -1.2438  -1.2438
    -1.0213  -1.0213  -0.8859  -0.8859  -0.7834  -0.7834  -0.6307  -0.6307
     7.8999   7.8999   8.1582   8.1582   8.7331   8.7331   9.0886   9.0886
     9.3528   9.3528   9.8231   9.8231  10.1998  10.1998  10.4775  10.4775
    10.9318  10.9318  11.0685  11.0685  11.2370  11.2370  11.4509  11.4509
    27.5796  27.5796  28.2350  28.2350  28.5126  28.5126  28.8757  28.8757
    29.2233  29.2233  29.4784  29.4784  29.9978  29.9978  30.2313  30.2313
    30.8109  30.8109  31.0538  31.0538  31.6295  31.6295  31.9993  31.9993
    32.7927  32.7927  33.0535  33.0535  33.5065  33.5065  33.6495  33.6495
    34.7400  34.7400  35.1135  35.1135  35.5061  35.5061  35.8435  35.8435
    36.4846  36.4846  37.1650  37.1650  37.5384  37.5384  38.2407  38.2407
    38.5487  38.5487  38.9927  38.9927  39.8553  39.8554  40.3358  40.3358
    41.1787  41.1791  41.5981  41.5981

          k =-0.4608 0.2353-0.2439 (  3704 PWs)   bands (ev):

   -27.8253 -27.8253 -27.8217 -27.8217 -11.9346 -11.9346 -11.7785 -11.7785
   -11.4127 -11.4127 -11.1868 -11.1868  -1.3252  -1.3252  -1.2422  -1.2422
    -1.0473  -1.0473  -0.8673  -0.8673  -0.7821  -0.7821  -0.6343  -0.6343
     7.9663   7.9663   8.3820   8.3820   8.7827   8.7827   8.9211   8.9211
     9.1317   9.1317   9.8362   9.8362  10.2902  10.2902  10.5797  10.5797
    10.9180  10.9180  10.9428  10.9428  11.2357  11.2357  11.3896  11.3896
    27.5591  27.5591  28.1393  28.1393  28.4854  28.4854  29.0239  29.0239
    29.3224  29.3224  29.5888  29.5888  29.9007  29.9007  30.1821  30.1821
    31.0317  31.0317  31.0815  31.0815  32.1316  32.1316  32.1941  32.1941
    32.6281  32.6281  32.9201  32.9201  33.4821  33.4821  33.9694  33.9694
    34.0843  34.0843  35.0406  35.0406  35.3900  35.3900  36.0330  36.0330
    36.2119  36.2119  37.2624  37.2624  37.4556  37.4556  37.6813  37.6813
    37.9627  37.9627  38.6158  38.6158  39.5563  39.5563  40.6237  40.6237
    41.6995  41.6995  41.8104  41.8104

     the Fermi energy is    37.0787 ev

!    total energy              =   -1578.75430471 Ry
     Harris-Foulkes estimate   =   -1578.75431142 Ry
     estimated scf accuracy    <       0.00000734 Ry

     The total energy is the sum of the following terms:

     one-electron contribution =     249.22398810 Ry
     hartree contribution      =      97.76903614 Ry
     xc contribution           =    -187.03277181 Ry
     ewald contribution        =   -1738.21706810 Ry
     smearing contrib. (-TS)   =      -0.49748904 Ry

     convergence has been achieved in   9 iterations

     Forces acting on atoms (Ry/au):

     atom    1 type  1   force =     0.00000000   -0.05244694   -0.05977974
     atom    2 type  1   force =     0.00000000    0.05244694    0.05977974
     atom    3 type  1   force =     0.00000000   -0.05244694    0.05977974
     atom    4 type  1   force =     0.00000000    0.05244694   -0.05977974
     atom    5 type  1   force =     0.00000000    0.07771741   -0.12346275
     atom    6 type  1   force =     0.00000000   -0.07771741    0.12346275
     atom    7 type  1   force =     0.00000000    0.07771741    0.12346275
     atom    8 type  1   force =     0.00000000   -0.07771741   -0.12346275
     atom    9 type  2   force =     0.00000000   -0.06561529   -0.02675768
     atom   10 type  2   force =     0.00000000    0.06561529    0.02675768
     atom   11 type  2   force =     0.00000000   -0.06561529    0.02675768
     atom   12 type  2   force =     0.00000000    0.06561529   -0.02675768

     Total force =     0.361268     Total SCF correction =     0.000000


     entering subroutine stress ...

          total   stress  (Ry/bohr**3)                   (kbar)     P= 2206.78
   0.01587574   0.00000000   0.00000000       2335.40      0.00      0.00
   0.00000000   0.01415342   0.00000000          0.00   2082.04      0.00
   0.00000000   0.00000000   0.01497495          0.00      0.00   2202.89


     number of scf cycles    =   2
     number of bfgs steps    =   1

     enthalpy old            =   -1572.5430564152 Ry
     enthalpy new            =   -1578.7543047059 Ry

     CASE: enthalpy_new < enthalpy_old

     small trust_radius: resetting bfgs history

     new trust radius        =       2.6184745522 bohr
     new conv_thr            =       0.0001000000 Ry

     new unit-cell volume =   2828.28180 a.u.^3 (   419.10812 Ang^3 )

CELL_PARAMETERS (alat=  7.01510508)
   1.515820379   0.000000000   0.000000000
   0.000000000   1.917923499   0.000000000
   0.000000000   0.000000000   2.818000821

ATOMIC_POSITIONS (crystal)
Co       0.750000000   0.820577521   0.430976516
Co       0.250000000   0.179422479   0.569023484
Co       0.750000000   0.320577521   0.069023484
Co       0.250000000   0.679422479   0.930976516
Co       0.250000000   0.546117953   0.272430945
Co       0.750000000   0.453882047   0.727569055
Co       0.250000000   0.046117953   0.227569055
Co       0.750000000   0.953882047   0.772430945
Si       0.250000000   0.195231312   0.891411534
Si       0.750000000   0.804768688   0.108588466
Si       0.250000000   0.695231312   0.608588466
Si       0.750000000   0.304768688   0.391411534



     Writing output data file Prototype-La-oP12-Co2Si.save
     NEW-OLD atomic charge density approx. for the potential
     NEW k-points:
        k(    1) = (   0.0000000   0.0000000   0.0000000), wk =   0.0833333
        k(    2) = (   0.0000000   0.0000000   0.0887154), wk =   0.1666667
        k(    3) = (   0.0000000   0.0000000  -0.1774308), wk =   0.0833333
        k(    4) = (   0.0000000   0.1737991   0.0000000), wk =   0.1666667
        k(    5) = (   0.0000000   0.1737991   0.0887154), wk =   0.3333333
        k(    6) = (   0.0000000   0.1737991  -0.1774308), wk =   0.1666667
        k(    7) = (  -0.3298544   0.0000000   0.0000000), wk =   0.0833333
        k(    8) = (  -0.3298544   0.0000000   0.0887154), wk =   0.1666667
        k(    9) = (  -0.3298544   0.0000000  -0.1774308), wk =   0.0833333
        k(   10) = (  -0.3298544   0.1737991   0.0000000), wk =   0.1666667
        k(   11) = (  -0.3298544   0.1737991   0.0887154), wk =   0.3333333
        k(   12) = (  -0.3298544   0.1737991  -0.1774308), wk =   0.1666667

     total cpu time spent up to now is      233.7 secs

     Self-consistent Calculation

     iteration #  1     ecut=    40.00 Ry     beta=0.70
     CG style diagonalization
     c_bands:  1 eigenvalues not converged
     c_bands:  3 eigenvalues not converged
     ethr =  1.00E-06,  avg # of iterations = 25.9

     total cpu time spent up to now is      284.5 secs

     total energy              =   -1493.91768895 Ry
     Harris-Foulkes estimate   =   -1700.89795598 Ry
     estimated scf accuracy    <     274.45769296 Ry

     iteration #  2     ecut=    40.00 Ry     beta=0.70
     CG style diagonalization
     ethr =  1.00E-02,  avg # of iterations =  6.3

     total cpu time spent up to now is      298.0 secs

     total energy              =   -1514.34742171 Ry
     Harris-Foulkes estimate   =   -1603.68114487 Ry
     estimated scf accuracy    <     144.24648715 Ry

     iteration #  3     ecut=    40.00 Ry     beta=0.70
     CG style diagonalization
     ethr =  1.00E-02,  avg # of iterations =  7.2

     total cpu time spent up to now is      313.7 secs

     total energy              =   -1566.79413735 Ry
     Harris-Foulkes estimate   =   -1601.57421905 Ry
     estimated scf accuracy    <      89.22530012 Ry

     iteration #  4     ecut=    40.00 Ry     beta=0.70
     CG style diagonalization
     ethr =  1.00E-02,  avg # of iterations =  4.0

     total cpu time spent up to now is      321.8 secs

     total energy              =   -1569.07792911 Ry
     Harris-Foulkes estimate   =   -1572.04102598 Ry
     estimated scf accuracy    <      21.72065323 Ry

     iteration #  5     ecut=    40.00 Ry     beta=0.70
     CG style diagonalization
     ethr =  1.00E-02,  avg # of iterations =  3.2

     total cpu time spent up to now is      327.7 secs

     total energy              =   -1570.29705108 Ry
     Harris-Foulkes estimate   =   -1569.72759349 Ry
     estimated scf accuracy    <      12.10178771 Ry

     iteration #  6     ecut=    40.00 Ry     beta=0.70
     CG style diagonalization
     ethr =  6.72E-03,  avg # of iterations =  3.0

     total cpu time spent up to now is      334.4 secs

     total energy              =   -1565.72116180 Ry
     Harris-Foulkes estimate   =   -1570.47666797 Ry
     estimated scf accuracy    <      11.89316909 Ry

     iteration #  7     ecut=    40.00 Ry     beta=0.70
     CG style diagonalization
     ethr =  6.61E-03,  avg # of iterations =  4.2

     total cpu time spent up to now is      343.2 secs

     total energy              =   -1569.67214232 Ry
     Harris-Foulkes estimate   =   -1569.91446090 Ry
     estimated scf accuracy    <      12.61458148 Ry

     iteration #  8     ecut=    40.00 Ry     beta=0.70
     CG style diagonalization
     ethr =  6.61E-03,  avg # of iterations =  3.0

     total cpu time spent up to now is      349.1 secs

     total energy              =   -1566.27662623 Ry
     Harris-Foulkes estimate   =   -1570.04457972 Ry
     estimated scf accuracy    <      15.30489446 Ry

     iteration #  9     ecut=    40.00 Ry     beta=0.70
     CG style diagonalization
     ethr =  6.61E-03,  avg # of iterations =  3.2

     total cpu time spent up to now is      356.0 secs

     total energy              =   -1568.93546536 Ry
     Harris-Foulkes estimate   =   -1568.89992117 Ry
     estimated scf accuracy    <       1.63237719 Ry

     iteration # 10     ecut=    40.00 Ry     beta=0.70
     CG style diagonalization
     c_bands:  1 eigenvalues not converged
     c_bands:  1 eigenvalues not converged
     ethr =  9.07E-04,  avg # of iterations =  4.5

     total cpu time spent up to now is      365.5 secs

     total energy              =   -1568.75833155 Ry
     Harris-Foulkes estimate   =   -1569.33673046 Ry
     estimated scf accuracy    <       3.78658227 Ry

     iteration # 11     ecut=    40.00 Ry     beta=0.70
     CG style diagonalization
     ethr =  9.07E-04,  avg # of iterations =  3.1

     total cpu time spent up to now is      371.7 secs

     total energy              =   -1568.71077634 Ry
     Harris-Foulkes estimate   =   -1568.91904822 Ry
     estimated scf accuracy    <       0.85680835 Ry

     iteration # 12     ecut=    40.00 Ry     beta=0.70
     CG style diagonalization
     c_bands:  1 eigenvalues not converged
     c_bands:  1 eigenvalues not converged
     c_bands:  1 eigenvalues not converged
     ethr =  4.76E-04,  avg # of iterations =  4.0

     total cpu time spent up to now is      380.1 secs

     total energy              =   -1568.91092701 Ry
     Harris-Foulkes estimate   =   -1568.92504420 Ry
     estimated scf accuracy    <       0.23229550 Ry

     iteration # 13     ecut=    40.00 Ry     beta=0.70
     CG style diagonalization
     c_bands:  2 eigenvalues not converged
     c_bands:  1 eigenvalues not converged
     c_bands:  2 eigenvalues not converged
     c_bands:  1 eigenvalues not converged
     c_bands:  1 eigenvalues not converged
     c_bands:  1 eigenvalues not converged
     ethr =  1.29E-04,  avg # of iterations =  3.7

     total cpu time spent up to now is      387.6 secs

     total energy              =   -1568.90367996 Ry
     Harris-Foulkes estimate   =   -1568.93793265 Ry
     estimated scf accuracy    <       0.22454315 Ry

     iteration # 14     ecut=    40.00 Ry     beta=0.70
     CG style diagonalization
     ethr =  1.25E-04,  avg # of iterations =  3.0

     total cpu time spent up to now is      394.0 secs

     total energy              =   -1568.91749349 Ry
     Harris-Foulkes estimate   =   -1568.92001946 Ry
     estimated scf accuracy    <       0.01075259 Ry

     iteration # 15     ecut=    40.00 Ry     beta=0.70
     CG style diagonalization
     c_bands:  1 eigenvalues not converged
     c_bands:  3 eigenvalues not converged
     c_bands:  3 eigenvalues not converged
     c_bands:  1 eigenvalues not converged
     c_bands:  1 eigenvalues not converged
     c_bands:  3 eigenvalues not converged
     c_bands:  2 eigenvalues not converged
     c_bands:  4 eigenvalues not converged
     ethr =  5.97E-06,  avg # of iterations =  5.5

     total cpu time spent up to now is      406.2 secs

     total energy              =   -1568.92681067 Ry
     Harris-Foulkes estimate   =   -1568.92798742 Ry
     estimated scf accuracy    <       0.01579005 Ry

     iteration # 16     ecut=    40.00 Ry     beta=0.70
     CG style diagonalization
     c_bands:  1 eigenvalues not converged
     c_bands:  1 eigenvalues not converged
     c_bands:  1 eigenvalues not converged
     ethr =  5.97E-06,  avg # of iterations =  3.1

     total cpu time spent up to now is      412.3 secs

     total energy              =   -1568.92672520 Ry
     Harris-Foulkes estimate   =   -1568.92750354 Ry
     estimated scf accuracy    <       0.00727205 Ry

     iteration # 17     ecut=    40.00 Ry     beta=0.70
     CG style diagonalization
     c_bands:  1 eigenvalues not converged
     c_bands:  1 eigenvalues not converged
     ethr =  4.04E-06,  avg # of iterations =  3.0

     total cpu time spent up to now is      418.2 secs

     total energy              =   -1568.92694139 Ry
     Harris-Foulkes estimate   =   -1568.92708212 Ry
     estimated scf accuracy    <       0.00160809 Ry

     iteration # 18     ecut=    40.00 Ry     beta=0.70
     CG style diagonalization
     c_bands:  1 eigenvalues not converged
     c_bands:  1 eigenvalues not converged
     c_bands:  1 eigenvalues not converged
     c_bands:  1 eigenvalues not converged
     c_bands:  2 eigenvalues not converged
     c_bands:  2 eigenvalues not converged
     c_bands:  2 eigenvalues not converged
     ethr =  8.93E-07,  avg # of iterations =  4.1

     total cpu time spent up to now is      426.8 secs

     total energy              =   -1568.92723573 Ry
     Harris-Foulkes estimate   =   -1568.92726303 Ry
     estimated scf accuracy    <       0.00020400 Ry

     iteration # 19     ecut=    40.00 Ry     beta=0.70
     CG style diagonalization
     c_bands:  3 eigenvalues not converged
     c_bands:  1 eigenvalues not converged
     c_bands:  1 eigenvalues not converged
     c_bands:  1 eigenvalues not converged
     c_bands:  1 eigenvalues not converged
     c_bands:  2 eigenvalues not converged
     c_bands:  1 eigenvalues not converged
     ethr =  1.13E-07,  avg # of iterations =  4.9

     total cpu time spent up to now is      437.6 secs

     total energy              =   -1568.92756416 Ry
     Harris-Foulkes estimate   =   -1568.92756069 Ry
     estimated scf accuracy    <       0.00013159 Ry

     iteration # 20     ecut=    40.00 Ry     beta=0.70
     CG style diagonalization
     c_bands:  3 eigenvalues not converged
     c_bands:  1 eigenvalues not converged
     c_bands:  1 eigenvalues not converged
     c_bands:  1 eigenvalues not converged
     c_bands:  2 eigenvalues not converged
     ethr =  7.31E-08,  avg # of iterations =  3.2

     total cpu time spent up to now is      444.2 secs

     total energy              =   -1568.92763326 Ry
     Harris-Foulkes estimate   =   -1568.92763979 Ry
     estimated scf accuracy    <       0.00022505 Ry

     iteration # 21     ecut=    40.00 Ry     beta=0.70
     CG style diagonalization
     c_bands:  1 eigenvalues not converged
     c_bands:  1 eigenvalues not converged
     c_bands:  2 eigenvalues not converged
     ethr =  7.31E-08,  avg # of iterations =  3.1

     total cpu time spent up to now is      450.4 secs

     total energy              =   -1568.92762130 Ry
     Harris-Foulkes estimate   =   -1568.92763784 Ry
     estimated scf accuracy    <       0.00017690 Ry

     iteration # 22     ecut=    40.00 Ry     beta=0.70
     CG style diagonalization
     c_bands:  2 eigenvalues not converged
     ethr =  7.31E-08,  avg # of iterations =  3.0

     total cpu time spent up to now is      456.5 secs

     End of self-consistent calculation

          k = 0.0000 0.0000 0.0000 (  3675 PWs)   bands (ev):

   -47.4179 -47.4139 -47.4041 -47.3914 -35.9114 -35.8747 -35.8737 -35.8279
   -35.8233 -35.7850 -35.7212 -35.6952 -22.1546 -22.1532 -22.1521 -22.1513
   -22.1479 -22.1474 -22.1470 -22.1387 -22.1148 -22.1102 -22.1094 -22.0975
   -13.9806 -13.9258 -13.9110 -13.9092 -13.9058 -13.8646 -13.8408 -13.8315
   -13.8028 -13.8005 -13.7958 -13.7939 -13.7869 -13.7561 -13.7554 -13.7228
   -13.7187 -13.6999 -13.6923 -13.6680 -13.6410 -13.6290 -13.6290 -13.6215
     7.6497   8.3770   8.6100   8.6648   8.7092   8.7506   8.7841   8.8013
     8.8159   8.9469   8.9491   8.9712   9.0689   9.1397   9.1414   9.1917
     9.2182   9.2681   9.4574   9.5307   9.6554   9.6893   9.7131   9.7653
    10.1158  10.1192  10.2219  10.3435  10.3682  10.4398  10.5176  10.6201
    10.8158  10.8360  10.8407  10.8684  11.0206  11.3196  11.3894  11.4362
    11.4469  11.4691  11.5161  11.7068  11.8446  11.8472  11.9891  12.1821
    12.1837  12.3327  12.3521  12.3525  12.4952  12.5047  12.7049  12.7369
    12.7748  12.7843  12.8011  13.1332

          k = 0.0000 0.0000 0.0887 (  3675 PWs)   bands (ev):

   -47.4490 -47.4394 -47.3890 -47.3466 -35.9104 -35.8937 -35.8855 -35.8218
   -35.7924 -35.7777 -35.7528 -35.6703 -22.1561 -22.1529 -22.1515 -22.1502
   -22.1468 -22.1457 -22.1423 -22.1407 -22.1216 -22.1135 -22.1083 -22.0988
   -13.9812 -13.9322 -13.9189 -13.8985 -13.8918 -13.8809 -13.8643 -13.8463
   -13.8133 -13.8077 -13.8011 -13.7873 -13.7744 -13.7427 -13.7392 -13.7336
   -13.7073 -13.6899 -13.6768 -13.6671 -13.6510 -13.6377 -13.6245 -13.6208
     7.7739   8.4150   8.5637   8.5710   8.6372   8.6653   8.7465   8.7716
     8.8473   8.8891   8.9693   9.0450   9.1474   9.1582   9.1657   9.2346
     9.2382   9.2995   9.3488   9.5270   9.5909   9.6552   9.7808   9.8843
     9.9695  10.1200  10.2586  10.2930  10.3764  10.6294  10.6788  10.6987
    10.7425  10.7431  10.9279  10.9712  11.0267  11.0314  11.1457  11.3528
    11.3590  11.4511  11.5616  11.6653  11.8768  11.9351  12.0443  12.1353
    12.1579  12.1928  12.3213  12.3322  12.4512  12.4739  12.6062  12.6510
    12.7645  12.7674  12.8761  12.9342

          k = 0.0000 0.0000-0.1774 (  3690 PWs)   bands (ev):

   -47.4537 -47.4537 -47.4150 -47.4150 -35.9364 -35.9364 -35.8523 -35.8523
   -35.8036 -35.8036 -35.7227 -35.7227 -22.1593 -22.1593 -22.1516 -22.1516
   -22.1469 -22.1469 -22.1432 -22.1432 -22.1262 -22.1262 -22.1095 -22.1095
   -13.9816 -13.9816 -13.9010 -13.9010 -13.8822 -13.8822 -13.8642 -13.8642
   -13.8223 -13.8223 -13.7937 -13.7937 -13.7463 -13.7463 -13.7408 -13.7408
   -13.7201 -13.7201 -13.7050 -13.7050 -13.6631 -13.6631 -13.6182 -13.6182
     8.0916   8.0916   8.4941   8.4941   8.6715   8.6715   8.7274   8.7274
     8.9867   8.9867   9.0194   9.0194   9.0338   9.0338   9.2601   9.2601
     9.2802   9.2802   9.4355   9.4355   9.5163   9.5163   9.8537   9.8537
    10.1281  10.1281  10.4066  10.4066  10.4883  10.4883  10.6533  10.6533
    10.7329  10.7329  10.8772  10.8772  11.0366  11.0366  11.1451  11.1451
    11.4108  11.4108  11.6238  11.6238  11.9432  11.9432  11.9444  11.9444
    12.0827  12.0827  12.3250  12.3250  12.4722  12.4722  12.5747  12.5747
    12.7616  12.7616  13.0211  13.0211

          k = 0.0000 0.1738 0.0000 (  3664 PWs)   bands (ev):

   -47.4639 -47.4494 -47.3173 -47.2983 -35.8901 -35.8637 -35.8563 -35.8389
   -35.7789 -35.7375 -35.7216 -35.7044 -22.1559 -22.1543 -22.1502 -22.1497
   -22.1447 -22.1432 -22.1425 -22.1378 -22.1142 -22.1129 -22.0982 -22.0975
   -13.9175 -13.8973 -13.8908 -13.8786 -13.8687 -13.8545 -13.8539 -13.8430
   -13.8354 -13.8201 -13.8179 -13.7943 -13.7769 -13.7376 -13.7356 -13.7274
   -13.7091 -13.6933 -13.6783 -13.6771 -13.6650 -13.6503 -13.6455 -13.6035
     8.0749   8.5972   8.7380   8.7802   8.8465   8.9107   8.9253   8.9306
     8.9335   9.0184   9.0525   9.0530   9.0890   9.1358   9.2204   9.2432
     9.2904   9.2980   9.3397   9.4827   9.5404   9.6846   9.7172   9.8176
     9.9908  10.1072  10.2083  10.3668  10.3921  10.4029  10.5857  10.6673
    10.7616  10.8074  10.8125  11.1082  11.1408  11.1648  11.1776  11.2124
    11.2901  11.2924  11.6507  11.6868  11.6946  11.7042  11.8449  11.9517
    11.9956  12.0052  12.1051  12.2412  12.3229  12.3765  12.4581  12.4672
    12.5446  12.6638  12.7001  12.8602

          k = 0.0000 0.1738 0.0887 (  3669 PWs)   bands (ev):

   -47.4508 -47.4380 -47.3633 -47.3224 -35.9178 -35.8723 -35.8428 -35.8260
   -35.7884 -35.7632 -35.7204 -35.7142 -22.1591 -22.1537 -22.1513 -22.1499
   -22.1466 -22.1435 -22.1392 -22.1383 -22.1185 -22.1144 -22.1026 -22.0982
   -13.9457 -13.9049 -13.8846 -13.8774 -13.8751 -13.8653 -13.8522 -13.8457
   -13.8319 -13.8242 -13.8037 -13.8028 -13.7812 -13.7513 -13.7373 -13.7320
   -13.7126 -13.6839 -13.6749 -13.6719 -13.6669 -13.6533 -13.6385 -13.6181
     8.1803   8.6263   8.6838   8.7792   8.8097   8.8177   8.8838   8.8924
     8.9900   9.0575   9.0708   9.0836   9.1277   9.1630   9.1854   9.2526
     9.2560   9.2884   9.3950   9.4271   9.5996   9.6148   9.6940   9.8891
     9.9999  10.1669  10.2080  10.3425  10.3781  10.3957  10.6389  10.7328
    10.7420  10.7715  10.8248  10.8774  11.0626  11.1342  11.1433  11.1876
    11.2053  11.3902  11.5030  11.6493  11.7197  11.8048  11.8337  11.9187
    11.9352  11.9711  12.1012  12.2480  12.2727  12.3130  12.3870  12.4907
    12.5776  12.6463  12.7634  12.7663

          k = 0.0000 0.1738-0.1774 (  3666 PWs)   bands (ev):

   -47.4092 -47.4092 -47.3661 -47.3661 -35.8708 -35.8708 -35.8162 -35.8162
   -35.7790 -35.7790 -35.7437 -35.7437 -22.1511 -22.1511 -22.1493 -22.1493
   -22.1466 -22.1466 -22.1406 -22.1406 -22.1143 -22.1143 -22.1010 -22.1010
   -13.9193 -13.9193 -13.8722 -13.8722 -13.8630 -13.8630 -13.8567 -13.8567
   -13.8117 -13.8117 -13.7917 -13.7917 -13.7753 -13.7753 -13.7335 -13.7335
   -13.7001 -13.7001 -13.6765 -13.6765 -13.6663 -13.6663 -13.6321 -13.6321
     8.4635   8.4635   8.6368   8.6368   8.8232   8.8232   8.9217   8.9217
     9.0168   9.0168   9.1335   9.1335   9.1567   9.1567   9.1934   9.1934
     9.2077   9.2077   9.4759   9.4759   9.5635   9.5635   9.8474   9.8474
    10.0375  10.0375  10.3181  10.3181  10.5050  10.5050  10.5147  10.5147
    10.7478  10.7478  10.8822  10.8822  10.9904  10.9904  11.2150  11.2150
    11.3020  11.3020  11.3929  11.3929  11.7800  11.7800  11.8741  11.8741
    11.8880  11.8880  12.2057  12.2057  12.3906  12.3906  12.4134  12.4134
    12.6017  12.6018  12.7830  12.7830

          k =-0.3299 0.0000 0.0000 (  3722 PWs)   bands (ev):

   -47.5167 -47.5167 -47.5064 -47.5064 -35.9274 -35.9274 -35.8861 -35.8861
   -35.8564 -35.8564 -35.8530 -35.8530 -22.1616 -22.1616 -22.1594 -22.1594
   -22.1563 -22.1563 -22.1545 -22.1545 -22.1204 -22.1204 -22.1105 -22.1105
   -14.0002 -14.0002 -13.9392 -13.9392 -13.9034 -13.9034 -13.8846 -13.8846
   -13.8507 -13.8507 -13.7982 -13.7982 -13.7688 -13.7688 -13.7615 -13.7615
   -13.7172 -13.7172 -13.6923 -13.6923 -13.6763 -13.6763 -13.6330 -13.6330
     8.5034   8.5034   8.5784   8.5784   8.7524   8.7524   8.7712   8.7712
     8.9604   8.9604   9.0607   9.0607   9.1796   9.1796   9.3027   9.3027
     9.3813   9.3813   9.5902   9.5902   9.6907   9.6907   9.7285   9.7285
    10.0435  10.0435  10.2514  10.2514  10.3819  10.3819  10.6988  10.6988
    11.0023  11.0023  11.1678  11.1678  11.1851  11.1851  11.2275  11.2275
    11.4894  11.4894  11.5102  11.5102  11.7926  11.7926  11.8885  11.8885
    11.9154  11.9154  12.1944  12.1944  12.3734  12.3734  12.5445  12.5445
    12.6896  12.6896  12.7900  12.7900

          k =-0.3299 0.0000 0.0887 (  3710 PWs)   bands (ev):

   -47.4878 -47.4878 -47.4814 -47.4814 -35.8972 -35.8972 -35.8840 -35.8840
   -35.8545 -35.8545 -35.8183 -35.8183 -22.1602 -22.1602 -22.1556 -22.1556
   -22.1531 -22.1531 -22.1506 -22.1506 -22.1185 -22.1185 -22.1132 -22.1132
   -13.9906 -13.9906 -13.9317 -13.9317 -13.8994 -13.8994 -13.8724 -13.8724
   -13.8407 -13.8407 -13.7896 -13.7896 -13.7792 -13.7792 -13.7318 -13.7318
   -13.7125 -13.7125 -13.6865 -13.6865 -13.6769 -13.6769 -13.6453 -13.6453
     8.5274   8.5274   8.5709   8.5709   8.7904   8.7904   8.8449   8.8449
     8.9817   8.9817   9.0416   9.0416   9.1361   9.1361   9.2979   9.2979
     9.3446   9.3446   9.5593   9.5593   9.6987   9.6987   9.8128   9.8128
     9.9880   9.9880  10.2611  10.2611  10.4359  10.4359  10.6779  10.6779
    10.8485  10.8485  10.9332  10.9332  11.0456  11.0456  11.3076  11.3076
    11.4679  11.4679  11.5979  11.5979  11.6788  11.6788  12.0506  12.0506
    12.1061  12.1061  12.2591  12.2591  12.4498  12.4498  12.5387  12.5387
    12.5953  12.5953  12.8887  12.8887

          k =-0.3299 0.0000-0.1774 (  3680 PWs)   bands (ev):

   -47.4417 -47.4417 -47.3981 -47.3981 -35.8528 -35.8528 -35.8520 -35.8520
   -35.8038 -35.8038 -35.7855 -35.7855 -22.1518 -22.1518 -22.1491 -22.1491
   -22.1488 -22.1488 -22.1429 -22.1429 -22.1136 -22.1136 -22.1107 -22.1107
   -13.9958 -13.9958 -13.8919 -13.8919 -13.8901 -13.8901 -13.8451 -13.8451
   -13.8021 -13.8021 -13.7834 -13.7834 -13.7832 -13.7832 -13.7206 -13.7206
   -13.6978 -13.6978 -13.6901 -13.6901 -13.6476 -13.6476 -13.6311 -13.6311
     8.4946   8.4946   8.7143   8.7143   8.7556   8.7556   8.8898   8.8898
     8.9439   8.9439   9.0840   9.0840   9.2212   9.2212   9.2962   9.2962
     9.3631   9.3631   9.4334   9.4334   9.5908   9.5908   9.9442   9.9442
     9.9455   9.9455  10.2599  10.2599  10.3761  10.3761  10.7239  10.7239
    10.7773  10.7773  10.8869  10.8869  11.1305  11.1305  11.1805  11.1805
    11.4669  11.4669  11.4746  11.4746  11.7246  11.7246  11.8961  11.8961
    12.2072  12.2072  12.4645  12.4645  12.4689  12.4689  12.5660  12.5660
    12.7146  12.7146  12.7157  12.7157

          k =-0.3299 0.1738 0.0000 (  3686 PWs)   bands (ev):

   -47.4629 -47.4629 -47.4186 -47.4186 -35.8634 -35.8634 -35.8576 -35.8576
   -35.8260 -35.8260 -35.8104 -35.8104 -22.1585 -22.1585 -22.1524 -22.1524
   -22.1480 -22.1480 -22.1464 -22.1464 -22.1067 -22.1067 -22.1014 -22.1014
   -13.9363 -13.9363 -13.9018 -13.9018 -13.8949 -13.8949 -13.8412 -13.8412
   -13.8316 -13.8316 -13.7900 -13.7900 -13.7578 -13.7578 -13.7400 -13.7400
   -13.7043 -13.7043 -13.6867 -13.6867 -13.6675 -13.6675 -13.6654 -13.6654
     8.6768   8.6768   8.7662   8.7662   8.9240   8.9240   8.9247   8.9247
     9.0630   9.0630   9.2775   9.2775   9.3111   9.3111   9.3536   9.3536
     9.4261   9.4261   9.5567   9.5567   9.7301   9.7301   9.8920   9.8920
     9.9869   9.9869  10.3657  10.3657  10.3809  10.3809  10.6545  10.6545
    10.6576  10.6576  10.8840  10.8840  10.9861  10.9861  11.2493  11.2493
    11.2897  11.2897  11.4557  11.4557  11.4831  11.4831  11.6978  11.6978
    11.9603  11.9603  12.0815  12.0815  12.1599  12.1599  12.4216  12.4216
    12.4240  12.4240  12.6277  12.6277

          k =-0.3299 0.1738 0.0887 (  3692 PWs)   bands (ev):

   -47.4903 -47.4903 -47.4119 -47.4119 -35.8721 -35.8721 -35.8565 -35.8565
   -35.8294 -35.8294 -35.8188 -35.8188 -22.1576 -22.1576 -22.1525 -22.1525
   -22.1511 -22.1511 -22.1472 -22.1472 -22.1146 -22.1146 -22.1005 -22.1005
   -13.9378 -13.9378 -13.9060 -13.9060 -13.8875 -13.8875 -13.8612 -13.8612
   -13.8263 -13.8263 -13.7945 -13.7945 -13.7655 -13.7655 -13.7339 -13.7339
   -13.7043 -13.7043 -13.6914 -13.6914 -13.6776 -13.6776 -13.6674 -13.6674
     8.7095   8.7095   8.7567   8.7567   8.9476   8.9476   9.0004   9.0004
     9.1017   9.1017   9.2084   9.2084   9.2411   9.2411   9.3324   9.3324
     9.4637   9.4637   9.5723   9.5723   9.6815   9.6815   9.8686   9.8686
    10.0745  10.0745  10.3481  10.3481  10.4675  10.4675  10.5197  10.5197
    10.6776  10.6776  10.7623  10.7623  11.0296  11.0296  11.1082  11.1082
    11.3380  11.3380  11.4146  11.4146  11.4957  11.4957  11.7574  11.7574
    11.8161  11.8161  11.9647  11.9647  12.1942  12.1942  12.4135  12.4135
    12.6307  12.6307  12.6912  12.6912

          k =-0.3299 0.1738-0.1774 (  3704 PWs)   bands (ev):

   -47.5285 -47.5285 -47.4235 -47.4235 -35.8879 -35.8879 -35.8776 -35.8776
   -35.8416 -35.8416 -35.8256 -35.8256 -22.1608 -22.1608 -22.1544 -22.1544
   -22.1521 -22.1521 -22.1506 -22.1506 -22.1152 -22.1152 -22.1080 -22.1080
   -13.9481 -13.9481 -13.9130 -13.9130 -13.8909 -13.8909 -13.8588 -13.8588
   -13.8418 -13.8418 -13.8016 -13.8016 -13.7734 -13.7734 -13.7359 -13.7359
   -13.7065 -13.7065 -13.7058 -13.7058 -13.6843 -13.6843 -13.6679 -13.6679
     8.6838   8.6838   8.8657   8.8657   8.9386   8.9386   9.0596   9.0596
     9.0825   9.0825   9.1952   9.1952   9.2325   9.2325   9.3310   9.3310
     9.4284   9.4284   9.5153   9.5153   9.7760   9.7760   9.7881   9.7881
    10.0453  10.0453  10.3690  10.3690  10.4432  10.4432  10.4660  10.4660
    10.6898  10.6898  10.9036  10.9036  10.9325  10.9325  11.0932  11.0932
    11.2537  11.2537  11.4000  11.4000  11.4249  11.4249  11.7309  11.7309
    11.7796  11.7796  11.8802  11.8802  12.2003  12.2003  12.4641  12.4641
    12.6965  12.6965  12.8196  12.8196

     the Fermi energy is    11.4742 ev

!    total energy              =   -1568.92757805 Ry
     Harris-Foulkes estimate   =   -1568.92762570 Ry
     estimated scf accuracy    <       0.00005109 Ry

     The total energy is the sum of the following terms:

     one-electron contribution =    -390.96814584 Ry
     hartree contribution      =     258.46286196 Ry
     xc contribution           =    -169.80849175 Ry
     ewald contribution        =   -1265.03261828 Ry
     smearing contrib. (-TS)   =      -1.58118413 Ry

     convergence has been achieved in  22 iterations

     Forces acting on atoms (Ry/au):

     atom    1 type  1   force =     0.00000000    0.00349102   -0.00292806
     atom    2 type  1   force =     0.00000000   -0.00349102    0.00292806
     atom    3 type  1   force =     0.00000000    0.00349102    0.00292806
     atom    4 type  1   force =     0.00000000   -0.00349102   -0.00292806
     atom    5 type  1   force =     0.00000000    0.00257027   -0.00326874
     atom    6 type  1   force =     0.00000000   -0.00257027    0.00326874
     atom    7 type  1   force =     0.00000000    0.00257027    0.00326874
     atom    8 type  1   force =     0.00000000   -0.00257027   -0.00326874
     atom    9 type  2   force =     0.00000000    0.01071180   -0.00836418
     atom   10 type  2   force =     0.00000000   -0.01071180    0.00836418
     atom   11 type  2   force =     0.00000000    0.01071180    0.00836418
     atom   12 type  2   force =     0.00000000   -0.01071180   -0.00836418

     Total force =     0.029850     Total SCF correction =     0.000000


     entering subroutine stress ...

          total   stress  (Ry/bohr**3)                   (kbar)     P=-1303.00
  -0.00908330   0.00000000   0.00000000      -1336.20      0.00      0.00
   0.00000000  -0.00866089   0.00000000          0.00  -1274.06      0.00
   0.00000000   0.00000000  -0.00882864          0.00      0.00  -1298.74


     number of scf cycles    =   3
     number of bfgs steps    =   2

     enthalpy old            =   -1578.7543047059 Ry
     enthalpy new            =   -1568.9275780468 Ry

     CASE: enthalpy_new > enthalpy_old

     new trust radius        =       0.9875211760 bohr

     trust_radius < trust_radius_min

     resetting bfgs history

     Message from routine bfgs:
     history already reset at previous step: stopping
     new conv_thr            =       0.0001000000 Ry

     new unit-cell volume =   1296.72185 a.u.^3 (   192.15435 Ang^3 )

CELL_PARAMETERS (alat=  7.01510508)
   1.156393436   0.000000000   0.000000000
   0.000000000   1.494559605   0.000000000
   0.000000000   0.000000000   2.173328767

ATOMIC_POSITIONS (crystal)
Co       0.750000000   0.825220381   0.434647697
Co       0.250000000   0.174779619   0.565352303
Co       0.750000000   0.325220381   0.065352303
Co       0.250000000   0.674779619   0.934647697
Co       0.250000000   0.539238028   0.280013013
Co       0.750000000   0.460761972   0.719986987
Co       0.250000000   0.039238028   0.219986987
Co       0.750000000   0.960761972   0.780013013
Si       0.250000000   0.201039899   0.893054771
Si       0.750000000   0.798960101   0.106945229
Si       0.250000000   0.701039899   0.606945229
Si       0.750000000   0.298960101   0.393054771



     Writing output data file Prototype-La-oP12-Co2Si.save
     NEW-OLD atomic charge density approx. for the potential
     NEW k-points:
        k(    1) = (   0.0000000   0.0000000   0.0000000), wk =   0.0833333
        k(    2) = (   0.0000000   0.0000000   0.1150309), wk =   0.1666667
        k(    3) = (   0.0000000   0.0000000  -0.2300618), wk =   0.0833333
        k(    4) = (   0.0000000   0.2230311   0.0000000), wk =   0.1666667
        k(    5) = (   0.0000000   0.2230311   0.1150309), wk =   0.3333333
        k(    6) = (   0.0000000   0.2230311  -0.2300618), wk =   0.1666667
        k(    7) = (  -0.4323788   0.0000000   0.0000000), wk =   0.0833333
        k(    8) = (  -0.4323788   0.0000000   0.1150309), wk =   0.1666667
        k(    9) = (  -0.4323788   0.0000000  -0.2300618), wk =   0.0833333
        k(   10) = (  -0.4323788   0.2230311   0.0000000), wk =   0.1666667
        k(   11) = (  -0.4323788   0.2230311   0.1150309), wk =   0.3333333
        k(   12) = (  -0.4323788   0.2230311  -0.2300618), wk =   0.1666667

     total cpu time spent up to now is      460.0 secs

     Self-consistent Calculation

     iteration #  1     ecut=    40.00 Ry     beta=0.70
     CG style diagonalization
     c_bands:  3 eigenvalues not converged
     c_bands:  1 eigenvalues not converged
     c_bands:  1 eigenvalues not converged
     c_bands:  2 eigenvalues not converged
     c_bands:  5 eigenvalues not converged
     c_bands:  4 eigenvalues not converged
     c_bands:  2 eigenvalues not converged
     c_bands:  4 eigenvalues not converged
     c_bands:  2 eigenvalues not converged
     ethr =  1.00E-06,  avg # of iterations = 31.8

     total cpu time spent up to now is      530.1 secs

     total energy              =   -1528.52311357 Ry
     Harris-Foulkes estimate   =   -1678.28255004 Ry
     estimated scf accuracy    <     191.42481668 Ry

     iteration #  2     ecut=    40.00 Ry     beta=0.70
     CG style diagonalization
     ethr =  1.00E-02,  avg # of iterations =  6.4

     total cpu time spent up to now is      543.9 secs

     total energy              =   -1558.75546916 Ry
     Harris-Foulkes estimate   =   -1599.68972135 Ry
     estimated scf accuracy    <      62.32038523 Ry

     iteration #  3     ecut=    40.00 Ry     beta=0.70
     CG style diagonalization
     ethr =  1.00E-02,  avg # of iterations =  5.0

     total cpu time spent up to now is      554.5 secs

     total energy              =   -1571.66369791 Ry
     Harris-Foulkes estimate   =   -1587.28653478 Ry
     estimated scf accuracy    <      35.91870764 Ry

     iteration #  4     ecut=    40.00 Ry     beta=0.70
     CG style diagonalization
     ethr =  1.00E-02,  avg # of iterations =  3.7

     total cpu time spent up to now is      562.2 secs

     total energy              =   -1579.76925912 Ry
     Harris-Foulkes estimate   =   -1580.91656493 Ry
     estimated scf accuracy    <       2.89285017 Ry

     iteration #  5     ecut=    40.00 Ry     beta=0.70
     CG style diagonalization
     ethr =  1.61E-03,  avg # of iterations =  3.7

     total cpu time spent up to now is      570.3 secs

     total energy              =   -1580.28618230 Ry
     Harris-Foulkes estimate   =   -1580.62224867 Ry
     estimated scf accuracy    <       0.70401715 Ry

     iteration #  6     ecut=    40.00 Ry     beta=0.70
     CG style diagonalization
     ethr =  3.91E-04,  avg # of iterations =  3.7

     total cpu time spent up to now is      578.9 secs

     total energy              =   -1580.41084509 Ry
     Harris-Foulkes estimate   =   -1580.50915441 Ry
     estimated scf accuracy    <       0.22710233 Ry

     iteration #  7     ecut=    40.00 Ry     beta=0.70
     CG style diagonalization
     ethr =  1.26E-04,  avg # of iterations =  3.7

     total cpu time spent up to now is      586.8 secs

     total energy              =   -1580.45546793 Ry
     Harris-Foulkes estimate   =   -1580.46027057 Ry
     estimated scf accuracy    <       0.00891604 Ry

     iteration #  8     ecut=    40.00 Ry     beta=0.70
     CG style diagonalization
     c_bands:  1 eigenvalues not converged
     c_bands:  1 eigenvalues not converged
     c_bands:  1 eigenvalues not converged
     ethr =  4.95E-06,  avg # of iterations =  4.8

     total cpu time spent up to now is      598.3 secs

     total energy              =   -1580.45938303 Ry
     Harris-Foulkes estimate   =   -1580.46010461 Ry
     estimated scf accuracy    <       0.00139842 Ry

     iteration #  9     ecut=    40.00 Ry     beta=0.70
     CG style diagonalization
     c_bands:  1 eigenvalues not converged
     c_bands:  1 eigenvalues not converged
     c_bands:  1 eigenvalues not converged
     ethr =  7.77E-07,  avg # of iterations =  3.9

     total cpu time spent up to now is      607.5 secs

     total energy              =   -1580.45980454 Ry
     Harris-Foulkes estimate   =   -1580.45988764 Ry
     estimated scf accuracy    <       0.00019793 Ry

     iteration # 10     ecut=    40.00 Ry     beta=0.70
     CG style diagonalization
     c_bands:  1 eigenvalues not converged
     ethr =  1.10E-07,  avg # of iterations =  3.8

     total cpu time spent up to now is      615.4 secs

     End of self-consistent calculation

          k = 0.0000 0.0000 0.0000 (  3675 PWs)   bands (ev):

   -33.3888 -33.3775 -33.3731 -33.3664 -18.0924 -17.8514 -17.8382 -17.6748
   -17.5928 -17.4299 -17.3384 -17.3259  -6.3879  -6.3037  -6.2823  -6.2685
    -6.2606  -6.1953  -6.1608  -6.1502  -6.0848  -6.0776  -6.0027  -5.9096
     2.3141   2.6731   2.8132   3.1748   3.1950   3.1967   3.4533   3.5756
     3.7639   3.8408   3.8951   4.0398   4.1846   4.2281   4.3788   4.4574
     4.4929   4.6160   4.6649   4.8459   5.0729   5.1774   5.5038   5.6256
    22.0513  22.0901  22.0958  22.6469  22.8434  22.8954  22.9179  23.1349
    23.1656  23.7860  23.8225  23.9801  24.0272  24.2564  24.4329  24.4626
    24.9276  25.7545  25.9333  25.9661  26.0346  26.3504  26.6787  27.0266
[...]
     total cpu time spent up to now is      871.1 secs

     total energy              =   -1579.65093092 Ry
     Harris-Foulkes estimate   =   -1586.76742244 Ry
     estimated scf accuracy    <      17.23436943 Ry

     iteration #  5     ecut=    40.00 Ry     beta=0.70
     CG style diagonalization
     ethr =  9.57E-03,  avg # of iterations =  3.5

     total cpu time spent up to now is      882.6 secs

     total energy              =   -1581.98324362 Ry
     Harris-Foulkes estimate   =   -1582.67858392 Ry
     estimated scf accuracy    <       1.30931015 Ry

     iteration #  6     ecut=    40.00 Ry     beta=0.70
     CG style diagonalization
     ethr =  7.27E-04,  avg # of iterations =  4.5

     total cpu time spent up to now is      898.2 secs

     total energy              =   -1582.31789568 Ry
     Harris-Foulkes estimate   =   -1582.71127168 Ry
     estimated scf accuracy    <       1.02413874 Ry

     iteration #  7     ecut=    40.00 Ry     beta=0.70
     CG style diagonalization
     ethr =  5.69E-04,  avg # of iterations =  3.5

     total cpu time spent up to now is      910.5 secs

     total energy              =   -1582.47214124 Ry
     Harris-Foulkes estimate   =   -1582.56399658 Ry
     estimated scf accuracy    <       0.21341734 Ry

     iteration #  8     ecut=    40.00 Ry     beta=0.70
     CG style diagonalization
     c_bands:  1 eigenvalues not converged
     c_bands:  1 eigenvalues not converged
     ethr =  1.19E-04,  avg # of iterations =  3.8

     total cpu time spent up to now is      923.9 secs

     total energy              =   -1582.51416691 Ry
     Harris-Foulkes estimate   =   -1582.52165984 Ry
     estimated scf accuracy    <       0.01300845 Ry

     iteration #  9     ecut=    40.00 Ry     beta=0.70
     CG style diagonalization
     c_bands:  1 eigenvalues not converged
     c_bands:  1 eigenvalues not converged
     c_bands:  1 eigenvalues not converged
     c_bands:  1 eigenvalues not converged
     c_bands:  1 eigenvalues not converged
     c_bands:  2 eigenvalues not converged
     ethr =  7.23E-06,  avg # of iterations =  4.7

     total cpu time spent up to now is      941.1 secs

     total energy              =   -1582.51901054 Ry
     Harris-Foulkes estimate   =   -1582.52039603 Ry
     estimated scf accuracy    <       0.00248936 Ry

     iteration # 10     ecut=    40.00 Ry     beta=0.70
     CG style diagonalization
     c_bands:  1 eigenvalues not converged
     c_bands:  1 eigenvalues not converged
     c_bands:  1 eigenvalues not converged
     c_bands:  1 eigenvalues not converged
     ethr =  1.38E-06,  avg # of iterations =  4.3

     total cpu time spent up to now is      956.9 secs

     total energy              =   -1582.51997730 Ry
     Harris-Foulkes estimate   =   -1582.52025316 Ry
     estimated scf accuracy    <       0.00061325 Ry

     iteration # 11     ecut=    40.00 Ry     beta=0.70
     CG style diagonalization
     ethr =  3.41E-07,  avg # of iterations =  3.7

     total cpu time spent up to now is      969.4 secs

     End of self-consistent calculation

          k = 0.0000 0.0000 0.0000 (  5579 PWs)   bands (ev):

   -33.4792 -33.4664 -33.4632 -33.4562 -17.9957 -17.7546 -17.7399 -17.5693
   -17.4865 -17.3271 -17.2383 -17.2258  -6.7240  -6.6369  -6.6178  -6.6062
    -6.5907  -6.5698  -6.5167  -6.4731  -6.4171  -6.4115  -6.3298  -6.2719
     2.2040   2.5422   2.7009   3.0402   3.0707   3.0863   3.3185   3.4505
     3.6333   3.7019   3.7587   3.8934   4.0402   4.0753   4.2221   4.2967
     4.3618   4.4844   4.4886   4.7086   4.8962   5.0155   5.3739   5.4713
    22.0340  22.0748  22.0863  22.6263  22.8198  22.8757  22.9080  23.1238
    23.1383  23.7536  23.8107  23.9403  24.0151  24.2472  24.4163  24.4374
    24.8953  25.7117  25.9188  25.9461  25.9932  26.3352  26.6239  26.9526
    27.0358  27.1273  27.4036  27.4289  27.7149  28.1455  28.2625  28.3736
    28.4764  28.5245  28.6407  28.8874  29.6424  30.0168  30.1974  30.2892
    30.4055  30.5584  30.5795  31.1820  31.8478  31.8686  31.8906  32.0380
    33.0151  33.0552  33.5386  33.5435  33.5540  33.7152  33.8116  34.4335
    34.4366  34.4579  34.6590  35.1102

          k = 0.0000 0.0000 0.1150 (  5555 PWs)   bands (ev):

   -33.4778 -33.4686 -33.4603 -33.4561 -17.9795 -17.8497 -17.6511 -17.5750
   -17.4681 -17.3520 -17.2351 -17.2258  -6.7125  -6.6597  -6.6029  -6.5876
    -6.5701  -6.5693  -6.5216  -6.4821  -6.4243  -6.4220  -6.3145  -6.2721
     2.2379   2.4708   2.8053   3.0363   3.0526   3.1661   3.2355   3.5362
     3.5761   3.7908   3.8170   3.8666   4.0715   4.0928   4.1563   4.2005
     4.2793   4.5752   4.6229   4.6260   4.8675   4.9101   5.3859   5.4556
    22.0153  22.0261  22.3195  22.3605  22.4832  22.8590  23.1579  23.2448
    23.3578  23.5912  24.0648  24.2904  24.3522  24.4362  24.6110  24.6223
    24.9260  25.1676  25.5523  25.6979  25.7304  25.7949  26.6350  26.8597
    27.2721  27.3627  27.3753  27.3854  27.8282  28.1798  28.2271  28.2997
    28.4287  28.7388  29.0217  29.0789  29.5179  29.6650  29.8571  30.2396
    30.3962  30.7531  30.9043  31.1376  31.2813  31.8405  31.9933  32.0881
    32.1767  32.6308  32.8911  33.2759  33.5239  33.6365  34.1379  34.3556
    34.5572  35.0146  35.2120  35.2658

          k = 0.0000 0.0000-0.2301 (  5550 PWs)   bands (ev):

   -33.4739 -33.4739 -33.4574 -33.4574 -17.9305 -17.9305 -17.5961 -17.5961
   -17.4122 -17.4122 -17.2290 -17.2290  -6.6897  -6.6897  -6.5824  -6.5824
    -6.5547  -6.5547  -6.5223  -6.5223  -6.4327  -6.4327  -6.2893  -6.2893
     2.3380   2.3380   3.0351   3.0351   3.0357   3.0357   3.3615   3.3615
     3.7237   3.7237   3.8858   3.8858   4.0720   4.0720   4.1646   4.1646
     4.3791   4.3791   4.7179   4.7179   4.7772   4.7772   5.4181   5.4181
    22.0403  22.0403  22.1255  22.1255  22.7293  22.7293  23.4987  23.4987
    23.8725  23.8725  23.9357  23.9357  24.6245  24.6245  24.8538  24.8538
    25.0179  25.0179  25.1223  25.1223  25.3244  25.3244  26.7870  26.7870
    27.4166  27.4166  27.5305  27.5305  28.2258  28.2258  28.2323  28.2323
    28.7034  28.7035  29.0237  29.0237  29.0634  29.0634  29.9500  29.9500
    30.9061  30.9061  31.0892  31.0892  31.2901  31.2901  31.8437  31.8437
    31.9990  31.9990  33.2010  33.2011  33.4574  33.4575  34.0555  34.0556
    35.0335  35.0336  35.5660  35.5660

          k = 0.0000 0.2230 0.0000 (  5511 PWs)   bands (ev):

   -33.4730 -33.4664 -33.4613 -33.4575 -17.9251 -17.7955 -17.6971 -17.6353
   -17.4677 -17.3313 -17.2860 -17.2333  -6.6886  -6.6331  -6.6117  -6.5980
    -6.5899  -6.5786  -6.4627  -6.4374  -6.3654  -6.3606  -6.3000  -6.2574
     2.5193   2.9642   2.9671   3.0011   3.0361   3.0534   3.1506   3.3359
     3.4543   3.5659   3.7201   3.7695   3.8673   4.2498   4.3307   4.4667
     4.5092   4.5101   4.5424   4.6431   4.7504   4.7731   4.9297   4.9587
    22.5477  22.6741  22.7517  22.7633  23.1181  23.3206  23.4603  23.5136
    23.8193  23.9856  24.0269  24.2435  24.3713  24.5389  24.6844  24.8231
    24.9061  25.2564  25.4064  25.5349  25.6673  26.1132  26.3597  26.4001
    26.8530  27.1515  27.3139  27.6291  27.6524  28.0063  28.2184  28.2896
    28.5540  28.9940  29.3198  29.5591  29.6329  29.6910  29.9924  30.2645
    30.3539  30.3728  30.7785  31.0567  31.1538  31.2411  31.4612  31.8692
    32.0141  32.4222  32.4997  32.8785  32.8934  33.1058  33.3975  33.5910
    34.0443  34.2699  34.4646  35.2782

          k = 0.0000 0.2230 0.1150 (  5537 PWs)   bands (ev):

   -33.4724 -33.4682 -33.4614 -33.4588 -17.9134 -17.8275 -17.6849 -17.6448
   -17.4341 -17.3142 -17.3073 -17.2450  -6.6825  -6.6496  -6.6083  -6.5975
    -6.5798  -6.5704  -6.4778  -6.4585  -6.3761  -6.3685  -6.2948  -6.2619
     2.5755   2.8555   2.9792   3.0166   3.0691   3.0973   3.2033   3.4134
     3.4370   3.6430   3.6707   3.7225   3.8967   4.2014   4.3341   4.4020
     4.4038   4.4228   4.5877   4.6884   4.7297   4.8082   4.8918   4.9745
    22.4488  22.6141  22.7035  22.9117  22.9756  23.3333  23.6726  23.7024
    23.7445  23.9879  24.0988  24.3161  24.3531  24.7017  24.7704  25.0331
    25.0832  25.1085  25.2473  25.4924  25.6508  26.1568  26.4566  26.7975
    26.9806  27.0155  27.1258  27.3002  27.4788  27.7432  28.4121  28.4692
    28.8457  28.9618  29.0110  29.1450  29.4461  29.6075  29.6686  30.0284
    30.0881  30.2564  30.8750  30.9828  31.5088  31.5763  31.6221  31.7223
    31.7634  32.0608  32.5472  32.7355  33.0178  33.1239  33.2373  33.8444
    33.8980  34.0943  34.5294  34.6861

          k = 0.0000 0.2230-0.2301 (  5518 PWs)   bands (ev):

   -33.4698 -33.4698 -33.4599 -33.4599 -17.8784 -17.8784 -17.6649 -17.6649
   -17.3654 -17.3654 -17.2765 -17.2765  -6.6669  -6.6669  -6.6003  -6.6002
    -6.5572  -6.5572  -6.4825  -6.4825  -6.3744  -6.3744  -6.2735  -6.2735
     2.7097   2.7097   3.0262   3.0262   3.0840   3.0840   3.3456   3.3456
     3.5535   3.5535   3.7291   3.7291   4.0256   4.0256   4.3066   4.3066
     4.3562   4.3562   4.6737   4.6737   4.7617   4.7617   4.9377   4.9377
    22.4215  22.4215  22.7136  22.7136  23.4183  23.4183  23.7575  23.7575
    23.9858  23.9858  24.1751  24.1751  24.3701  24.3701  25.0776  25.0776
    25.3005  25.3005  25.3193  25.3193  25.8754  25.8754  26.6184  26.6184
    26.8319  26.8319  27.0345  27.0345  28.1307  28.1307  28.3479  28.3479
    28.7386  28.7386  29.0659  29.0659  29.0729  29.0729  29.7488  29.7488
    30.4525  30.4525  30.5695  30.5695  31.3107  31.3107  31.6426  31.6426
    31.6925  31.6925  32.8868  32.8869  33.4031  33.4032  33.4240  33.4240
    33.9716  33.9717  34.9143  34.9144

          k =-0.4324 0.0000 0.0000 (  5556 PWs)   bands (ev):

   -33.4678 -33.4678 -33.4597 -33.4597 -17.7900 -17.7900 -17.6683 -17.6683
   -17.5241 -17.5241 -17.2307 -17.2307  -6.6851  -6.6851  -6.6446  -6.6446
    -6.5344  -6.5344  -6.5271  -6.5271  -6.3908  -6.3908  -6.3048  -6.3048
     2.3301   2.3301   2.8578   2.8578   3.0268   3.0268   3.3870   3.3870
     3.4950   3.4950   4.0357   4.0357   4.1709   4.1709   4.2946   4.2946
     4.6104   4.6104   4.7613   4.7613   4.8496   4.8496   5.3389   5.3389
    22.2604  22.2604  23.1979  23.1979  23.4906  23.4906  23.5910  23.5910
    23.8212  23.8212  23.8295  23.8295  23.9601  23.9601  24.8498  24.8498
    25.1728  25.1728  25.3502  25.3502  25.6962  25.6962  26.0468  26.0468
    26.6531  26.6531  27.2575  27.2575  27.5838  27.5838  28.1860  28.1860
    29.2982  29.2982  29.3869  29.3870  29.5382  29.5382  29.7974  29.7974
    30.4507  30.4507  30.6578  30.6578  31.1576  31.1576  31.6314  31.6314
    32.1082  32.1082  33.0306  33.0308  33.5089  33.5089  34.0149  34.0150
    34.0529  34.0530  34.9392  34.9401

          k =-0.4324 0.0000 0.1150 (  5548 PWs)   bands (ev):

   -33.4671 -33.4671 -33.4599 -33.4599 -17.7952 -17.7952 -17.6653 -17.6653
   -17.5220 -17.5220 -17.2302 -17.2302  -6.6797  -6.6797  -6.6484  -6.6484
    -6.5775  -6.5775  -6.4838  -6.4838  -6.3920  -6.3920  -6.3046  -6.3046
     2.3256   2.3256   2.8602   2.8602   3.1422   3.1422   3.3599   3.3599
     3.5898   3.5898   3.9384   3.9384   4.0453   4.0453   4.2908   4.2908
     4.6707   4.6707   4.7271   4.7271   4.8654   4.8654   5.3384   5.3384
    22.3965  22.3965  22.9650  22.9650  23.4189  23.4189  23.6524  23.6524
    23.7150  23.7150  24.0719  24.0719  24.2794  24.2794  24.5638  24.5638
    24.9190  24.9190  25.7702  25.7702  25.8653  25.8653  26.3649  26.3649
    26.4479  26.4479  27.2071  27.2071  27.8272  27.8272  27.9817  27.9817
    28.7351  28.7352  28.7886  28.7886  29.4465  29.4465  29.9392  29.9392
    30.2426  30.2426  30.6574  30.6574  31.2810  31.2810  32.0506  32.0506
    32.3992  32.3992  32.8434  32.8434  33.5883  33.5884  33.8326  33.8328
    34.2663  34.2667  34.9172  34.9171

          k =-0.4324 0.0000-0.2301 (  5544 PWs)   bands (ev):

   -33.4678 -33.4678 -33.4587 -33.4587 -17.8002 -17.8002 -17.6627 -17.6627
   -17.5197 -17.5197 -17.2297 -17.2297  -6.6738  -6.6738  -6.6436  -6.6436
    -6.6011  -6.6011  -6.4683  -6.4683  -6.3933  -6.3933  -6.3054  -6.3054
     2.3165   2.3165   2.8965   2.8965   3.1975   3.1975   3.4824   3.4824
     3.5737   3.5737   3.8611   3.8611   3.9341   3.9341   4.2430   4.2430
     4.6786   4.6786   4.8105   4.8105   4.8142   4.8142   5.3391   5.3391
    22.5104  22.5104  22.9133  22.9133  23.2799  23.2799  23.5841  23.5841
    23.8500  23.8500  24.2086  24.2086  24.3759  24.3759  24.5902  24.5902
    24.7499  24.7499  25.7663  25.7663  26.1606  26.1606  26.4337  26.4337
    26.8610  26.8610  26.8997  26.8997  27.7861  27.7861  27.8775  27.8775
    28.4516  28.4516  28.7948  28.7948  28.9572  28.9572  29.8771  29.8771
    29.9528  29.9528  30.5183  30.5183  31.6094  31.6094  32.0393  32.0393
    32.5898  32.5898  33.2323  33.2324  33.6608  33.6609  33.6662  33.6662
    34.1920  34.1922  34.4345  34.4347

          k =-0.4324 0.2230 0.0000 (  5540 PWs)   bands (ev):

   -33.4651 -33.4651 -33.4610 -33.4610 -17.7403 -17.7403 -17.6861 -17.6861
   -17.4804 -17.4804 -17.3272 -17.3272  -6.6393  -6.6393  -6.6276  -6.6276
    -6.5223  -6.5223  -6.5209  -6.5209  -6.3530  -6.3530  -6.3031  -6.3031
     2.5882   2.5882   2.7442   2.7442   3.0361   3.0361   3.5610   3.5610
     3.5789   3.5789   3.8347   3.8347   4.1208   4.1208   4.1667   4.1667
     4.6355   4.6355   4.6811   4.6811   4.8533   4.8533   4.9556   4.9556
    22.8534  22.8534  23.4707  23.4707  23.5516  23.5516  23.9054  23.9054
    23.9943  23.9943  24.2083  24.2083  24.7424  24.7424  24.9843  24.9843
    25.2151  25.2151  25.4970  25.4970  25.9873  25.9873  26.2066  26.2066
    26.8127  26.8127  27.0518  27.0518  27.5113  27.5113  28.2780  28.2780
    28.5358  28.5358  28.8498  28.8498  29.1915  29.1915  29.7390  29.7390
    29.8876  29.8876  30.7395  30.7396  30.8763  30.8763  31.6890  31.6890
    32.1360  32.1360  32.6220  32.6220  32.6835  32.6835  33.1338  33.1340
    33.5256  33.5258  33.9719  33.9720

          k =-0.4324 0.2230 0.1150 (  5554 PWs)   bands (ev):

   -33.4655 -33.4655 -33.4613 -33.4613 -17.7445 -17.7445 -17.6855 -17.6855
   -17.4777 -17.4777 -17.3259 -17.3259  -6.6502  -6.6502  -6.6271  -6.6271
    -6.5425  -6.5425  -6.5008  -6.5008  -6.3557  -6.3557  -6.3047  -6.3047
     2.6163   2.6163   2.8116   2.8116   3.1048   3.1048   3.3508   3.3508
     3.5624   3.5624   3.8571   3.8571   4.1117   4.1117   4.2997   4.2997
     4.6087   4.6087   4.6731   4.6731   4.8048   4.8048   4.9391   4.9391
    22.9155  22.9155  23.3448  23.3448  23.5623  23.5623  23.8236  23.8236
    24.1284  24.1284  24.3281  24.3281  24.6851  24.6851  24.8642  24.8642
    25.4213  25.4213  25.6265  25.6265  26.0036  26.0036  26.3717  26.3717
    27.0007  27.0007  27.2403  27.2403  27.5034  27.5034  27.7993  27.7993
    28.3592  28.3592  28.6356  28.6356  29.2552  29.2552  29.4662  29.4662
    30.1568  30.1568  30.5769  30.5769  30.7564  30.7564  31.4965  31.4965
    31.7338  31.7338  32.0453  32.0453  32.8303  32.8304  33.3059  33.3059
    33.9195  33.9195  34.3245  34.3256

          k =-0.4324 0.2230-0.2301 (  5540 PWs)   bands (ev):

   -33.4653 -33.4653 -33.4610 -33.4610 -17.7484 -17.7484 -17.6852 -17.6852
   -17.4749 -17.4749 -17.3246 -17.3246  -6.6547  -6.6547  -6.6237  -6.6237
    -6.5527  -6.5527  -6.4902  -6.4902  -6.3545  -6.3545  -6.3010  -6.3010
     2.6365   2.6365   2.9485   2.9485   3.1506   3.1506   3.2714   3.2714
     3.3801   3.3801   3.8740   3.8740   4.1768   4.1768   4.4013   4.4013
     4.5764   4.5764   4.6103   4.6103   4.7997   4.7997   4.9107   4.9107
    22.9059  22.9059  23.3692  23.3692  23.4915  23.4915  23.9616  23.9616
    24.1119  24.1119  24.4054  24.4054  24.5955  24.5955  24.8013  24.8013
    25.4918  25.4918  25.7603  25.7603  26.5124  26.5124  26.5497  26.5497
    26.9349  26.9349  27.1741  27.1741  27.2201  27.2201  27.6585  27.6585
    28.0284  28.0284  28.8848  28.8848  29.0930  29.0930  29.6766  29.6766
    30.0147  30.0147  30.5106  30.5106  30.5144  30.5144  31.1502  31.1502
    31.3838  31.3838  31.7868  31.7868  32.6838  32.6838  33.5388  33.5391
    34.2643  34.2645  34.5227  34.5230

     the Fermi energy is    30.5049 ev

!    total energy              =   -1582.52011183 Ry
     Harris-Foulkes estimate   =   -1582.52011817 Ry
     estimated scf accuracy    <       0.00000573 Ry

     The total energy is the sum of the following terms:

     one-electron contribution =     117.96898869 Ry
     hartree contribution      =     122.51455275 Ry
     xc contribution           =    -182.57019451 Ry
     ewald contribution        =   -1639.82631004 Ry
     smearing contrib. (-TS)   =      -0.60714872 Ry

     convergence has been achieved in  11 iterations

     Forces acting on atoms (Ry/au):

     atom    1 type  1   force =     0.00000000   -0.03170048   -0.03047971
     atom    2 type  1   force =     0.00000000    0.03170048    0.03047971
     atom    3 type  1   force =     0.00000000   -0.03170048    0.03047971
     atom    4 type  1   force =     0.00000000    0.03170048   -0.03047971
     atom    5 type  1   force =     0.00000000    0.04300816   -0.06744108
     atom    6 type  1   force =     0.00000000   -0.04300816    0.06744108
     atom    7 type  1   force =     0.00000000    0.04300816    0.06744108
     atom    8 type  1   force =     0.00000000   -0.04300816   -0.06744108
     atom    9 type  2   force =     0.00000000   -0.02973841   -0.01365365
     atom   10 type  2   force =     0.00000000    0.02973841    0.01365365
     atom   11 type  2   force =     0.00000000   -0.02973841    0.01365365
     atom   12 type  2   force =     0.00000000    0.02973841   -0.01365365

     Total force =     0.193935     Total SCF correction =     0.000000


     entering subroutine stress ...

          total   stress  (Ry/bohr**3)                   (kbar)     P= 1008.18
   0.00728412   0.00000000   0.00000000       1071.53      0.00      0.00
   0.00000000   0.00648775   0.00000000          0.00    954.38      0.00
   0.00000000   0.00000000   0.00678844          0.00      0.00    998.61


     Writing output data file Prototype-La-oP12-Co2Si.save
 
     init_run     :      3.47s CPU      4.41s WALL (       2 calls)
     electrons    :    830.87s CPU    952.05s WALL (       5 calls)
     update_pot   :      2.07s CPU      2.09s WALL (       3 calls)
     forces       :      3.50s CPU      3.70s WALL (       5 calls)
     stress       :     10.94s CPU     11.15s WALL (       5 calls)

     Called by init_run:
     wfcinit      :      2.52s CPU      3.42s WALL (       2 calls)
     potinit      :      0.45s CPU      0.46s WALL (       2 calls)

     Called by electrons:
     c_bands      :    809.77s CPU    914.43s WALL (      61 calls)
     sum_band     :     20.30s CPU     27.43s WALL (      61 calls)
     v_of_rho     :      0.10s CPU      0.12s WALL (      66 calls)
     mix_rho      :      0.13s CPU      0.15s WALL (      61 calls)

     Called by c_bands:
     init_us_2    :      1.74s CPU      2.05s WALL (    1608 calls)
     ccgdiagg     :    741.66s CPU    825.32s WALL (     810 calls)
     wfcrot       :     68.90s CPU     89.17s WALL (     822 calls)

     Called by *cgdiagg:
     h_psi        :    532.00s CPU    624.19s WALL (  408609 calls)
     cdiaghg      :      3.54s CPU      3.92s WALL (     822 calls)

     Called by h_psi:
     add_vuspsi   :    100.40s CPU    110.58s WALL (  408609 calls)

     General routines
     calbec       :    252.89s CPU    265.22s WALL (  816516 calls)
     fft          :      0.16s CPU      0.18s WALL (     287 calls)
     fftw         :    277.31s CPU    330.79s WALL ( 1072182 calls)
     davcio       :      0.91s CPU      2.72s WALL (    2340 calls)
 
     Parallel routines
     fft_scatter  :    125.86s CPU    148.95s WALL ( 1072469 calls)
 
     PWSCF        : 14m11.21s CPU    16m14.01s WALL

 
   This run was terminated on:  17:49: 7  22Mar2018            

=------------------------------------------------------------------------------=
   JOB DONE.
=------------------------------------------------------------------------------=
