
     Program PWSCF v.5.0.2 starts on 22Mar2018 at  0:36:46 

     This program is part of the open-source Quantum ESPRESSO suite
     for quantum simulation of materials; please cite
         "P. Giannozzi et al., J. Phys.:Condens. Matter 21 395502 (2009);
          URL http://www.quantum-espresso.org", 
     in publications or presentations arising from this work. More details at
     http://www.quantum-espresso.org/quote.php

     Parallel version (MPI), running on     4 processors
     R & G space division:  proc/nbgrp/npool/nimage =       4

     Current dimensions of program PWSCF are:
     Max number of different atomic species (ntypx) = 10
     Max number of k-points (npk) =  40000
     Max angular momentum in pseudopotentials (lmaxx) =  3
     Waiting for input...
     Reading input from standard input

     Subspace diagonalization in iterative solution of the eigenvalue problem:
     a serial algorithm will be used

 
     Parallelization info
     --------------------
     sticks:   dense  smooth     PW     G-vecs:    dense   smooth      PW
     Min         207     207     61                 7381     7381    1191
     Max         208     208     62                 7386     7386    1192
     Sum         829     829    247                29529    29529    4767
 


     bravais-lattice index     =            0
     lattice parameter (alat)  =       7.0151  a.u.
     unit-cell volume          =     862.2778 (a.u.)^3
     number of atoms/cell      =           12
     number of atomic types    =            2
     number of electrons       =       180.00
     number of Kohn-Sham states=          108
     kinetic-energy cutoff     =      40.0000  Ry
     charge density cutoff     =     160.0000  Ry
     convergence threshold     =      1.0E-04
     mixing beta               =       0.7000
     number of iterations used =            8  plain     mixing
     Exchange-correlation      = SLA-PZ-NOGX-NOGC ( 1 1 0 0 0)
     EXX-fraction              =        0.00
     nstep                     =           50


     celldm(1)=   7.015105  celldm(2)=   0.000000  celldm(3)=   0.000000
     celldm(4)=   0.000000  celldm(5)=   0.000000  celldm(6)=   0.000000

     crystal axes: (cart. coord. in units of alat)
               a(1) = (   1.000000   0.000000   0.000000 )  
               a(2) = (   0.000000   1.315963   0.000000 )  
               a(3) = (   0.000000   0.000000   1.898020 )  

     reciprocal axes: (cart. coord. in units 2 pi/alat)
               b(1) = (  1.000000  0.000000  0.000000 )  
               b(2) = (  0.000000  0.759900  0.000000 )  
               b(3) = (  0.000000  0.000000  0.526865 )  


     PseudoPot. # 1 for Ce read from file:
     /home/jld5415/pp.La/Ce.UPF
     MD5 check sum: 44451aa79a44a00cf2bc029dc19922f6
     Pseudo is Norm-conserving, Zval = 12.0
     Generated in analytical, separable form
     Using radial grid of 1255 points,  6 beta functions with: 
                l(1) =   0
                l(2) =   0
                l(3) =   1
                l(4) =   1
                l(5) =   2
                l(6) =   3

     PseudoPot. # 2 for Ho read from file:
     /home/jld5415/pp.La/Ho.UPF
     MD5 check sum: f307ee11bce99f5b724fa279e3790763
     Pseudo is Norm-conserving, Zval = 21.0
     Generated in analytical, separable form
     Using radial grid of 1265 points,  6 beta functions with: 
                l(1) =   0
                l(2) =   0
                l(3) =   1
                l(4) =   1
                l(5) =   2
                l(6) =   3

     atomic species   valence    mass     pseudopotential
        Co            12.00    58.93320     Ce( 1.00)
        Si            21.00    28.08550     Ho( 1.00)

      8 Sym. Ops., with inversion, found ( 6 have fractional translation)



   Cartesian axes

     site n.     atom                  positions (alat units)
         1           Co  tau(   1) = (   0.7500000   1.0875135   0.8270358  )
         2           Co  tau(   2) = (   0.2500000   0.2284499   1.0709846  )
         3           Co  tau(   3) = (   0.7500000   0.4295318   0.1219744  )
         4           Co  tau(   4) = (   0.2500000   0.8864316   1.7760460  )
         5           Co  tau(   5) = (   0.2500000   0.7067855   0.5358966  )
         6           Co  tau(   6) = (   0.7500000   0.6091779   1.3621238  )
         7           Co  tau(   7) = (   0.2500000   0.0488038   0.4131136  )
         8           Co  tau(   8) = (   0.7500000   1.2671596   1.4849068  )
         9           Si  tau(   9) = (   0.2500000   0.2669484   1.6960710  )
        10           Si  tau(  10) = (   0.7500000   1.0490149   0.2019494  )
        11           Si  tau(  11) = (   0.2500000   0.9249301   1.1509596  )
        12           Si  tau(  12) = (   0.7500000   0.3910333   0.7470608  )

     number of k points=    12  gaussian smearing, width (Ry)=  0.1000
                       cart. coord. in units 2pi/alat
        k(    1) = (   0.0000000   0.0000000   0.0000000), wk =   0.0833333
        k(    2) = (   0.0000000   0.0000000   0.1317162), wk =   0.1666667
        k(    3) = (   0.0000000   0.0000000  -0.2634324), wk =   0.0833333
        k(    4) = (   0.0000000   0.2532999   0.0000000), wk =   0.1666667
        k(    5) = (   0.0000000   0.2532999   0.1317162), wk =   0.3333333
        k(    6) = (   0.0000000   0.2532999  -0.2634324), wk =   0.1666667
        k(    7) = (  -0.5000000   0.0000000   0.0000000), wk =   0.0833333
        k(    8) = (  -0.5000000   0.0000000   0.1317162), wk =   0.1666667
        k(    9) = (  -0.5000000   0.0000000  -0.2634324), wk =   0.0833333
        k(   10) = (  -0.5000000   0.2532999   0.0000000), wk =   0.1666667
        k(   11) = (  -0.5000000   0.2532999   0.1317162), wk =   0.3333333
        k(   12) = (  -0.5000000   0.2532999  -0.2634324), wk =   0.1666667

     Dense  grid:    29529 G-vectors     FFT dimensions: (  30,  40,  54)

     Largest allocated arrays     est. size (Mb)     dimensions
        Kohn-Sham Wavefunctions         1.52 Mb     (    922,  108)
        NL pseudopotentials             3.38 Mb     (    922,  240)
        Each V/rho on FFT grid          0.26 Mb     (  16800)
        Each G-vector array             0.06 Mb     (   7386)
        G-vector shells                 0.06 Mb     (   7386)
     Largest temporary arrays     est. size (Mb)     dimensions
        Each subspace H/S matrix        0.18 Mb     ( 108, 108)
        Each <psi_i|beta_j> matrix      0.40 Mb     (    240,  108)
        Arrays for rho mixing           2.05 Mb     (  16800,   8)

     Initial potential from superposition of free atoms

     Starting from uniform charge
     Starting wfc are    0 randomized atomic wfcs

     total cpu time spent up to now is        2.3 secs

     Self-consistent Calculation

     iteration #  1     ecut=    40.00 Ry     beta=0.70
     CG style diagonalization
     ethr =  1.00E-02,  avg # of iterations = 16.6

     total cpu time spent up to now is       43.3 secs

     total energy              =    -866.55455478 Ry
     Harris-Foulkes estimate   =   -2231.95804985 Ry
     estimated scf accuracy    <    1633.93426411 Ry

     iteration #  2     ecut=    40.00 Ry     beta=0.70
     CG style diagonalization
     c_bands:  4 eigenvalues not converged
     c_bands:  4 eigenvalues not converged
     c_bands:  3 eigenvalues not converged
     c_bands:  3 eigenvalues not converged
     c_bands:  5 eigenvalues not converged
     c_bands:  4 eigenvalues not converged
     c_bands:  5 eigenvalues not converged
     ethr =  1.00E-02,  avg # of iterations = 15.9

     total cpu time spent up to now is       84.7 secs

     total energy              =   -1531.40017822 Ry
     Harris-Foulkes estimate   =   -2472.04717848 Ry
     estimated scf accuracy    <    1756.04941997 Ry

     iteration #  3     ecut=    40.00 Ry     beta=0.70
     CG style diagonalization
     c_bands:  2 eigenvalues not converged
     c_bands:  1 eigenvalues not converged
     ethr =  1.00E-02,  avg # of iterations = 13.0

     total cpu time spent up to now is      119.5 secs

     total energy              =   -1768.16648743 Ry
     Harris-Foulkes estimate   =   -1807.82614282 Ry
     estimated scf accuracy    <      86.47899091 Ry

     iteration #  4     ecut=    40.00 Ry     beta=0.70
     CG style diagonalization
     ethr =  1.00E-02,  avg # of iterations =  4.5

     total cpu time spent up to now is      130.8 secs

     total energy              =   -1775.58799465 Ry
     Harris-Foulkes estimate   =   -1781.89407883 Ry
     estimated scf accuracy    <      15.61552684 Ry

     iteration #  5     ecut=    40.00 Ry     beta=0.70
     CG style diagonalization
     ethr =  8.68E-03,  avg # of iterations =  3.3

     total cpu time spent up to now is      138.5 secs

     total energy              =   -1776.08432699 Ry
     Harris-Foulkes estimate   =   -1777.75106674 Ry
     estimated scf accuracy    <       3.41611045 Ry

     iteration #  6     ecut=    40.00 Ry     beta=0.70
     CG style diagonalization
     ethr =  1.90E-03,  avg # of iterations =  3.9

     total cpu time spent up to now is      148.2 secs

     total energy              =   -1776.74042637 Ry
     Harris-Foulkes estimate   =   -1776.92860609 Ry
     estimated scf accuracy    <       0.29520887 Ry

     iteration #  7     ecut=    40.00 Ry     beta=0.70
     CG style diagonalization
     c_bands:  2 eigenvalues not converged
     c_bands:  1 eigenvalues not converged
     c_bands:  1 eigenvalues not converged
     c_bands:  1 eigenvalues not converged
     c_bands:  1 eigenvalues not converged
     c_bands:  1 eigenvalues not converged
     c_bands:  1 eigenvalues not converged
     c_bands:  1 eigenvalues not converged
     ethr =  1.64E-04,  avg # of iterations =  5.4

     total cpu time spent up to now is      160.9 secs

     total energy              =   -1776.92839312 Ry
     Harris-Foulkes estimate   =   -1776.97648438 Ry
     estimated scf accuracy    <       0.12317207 Ry

     iteration #  8     ecut=    40.00 Ry     beta=0.70
     CG style diagonalization
     c_bands:  1 eigenvalues not converged
     ethr =  6.84E-05,  avg # of iterations =  3.5

     total cpu time spent up to now is      168.7 secs

     total energy              =   -1776.92757945 Ry
     Harris-Foulkes estimate   =   -1776.94423945 Ry
     estimated scf accuracy    <       0.02962418 Ry

     iteration #  9     ecut=    40.00 Ry     beta=0.70
     CG style diagonalization
     c_bands:  1 eigenvalues not converged
     c_bands:  1 eigenvalues not converged
     ethr =  1.65E-05,  avg # of iterations =  4.2

     total cpu time spent up to now is      179.3 secs

     total energy              =   -1776.93553256 Ry
     Harris-Foulkes estimate   =   -1776.93586992 Ry
     estimated scf accuracy    <       0.00069901 Ry

     iteration # 10     ecut=    40.00 Ry     beta=0.70
     CG style diagonalization
     c_bands:  1 eigenvalues not converged
     c_bands:  1 eigenvalues not converged
     c_bands:  1 eigenvalues not converged
     ethr =  3.88E-07,  avg # of iterations =  5.3

     total cpu time spent up to now is      192.9 secs

     total energy              =   -1776.93603844 Ry
     Harris-Foulkes estimate   =   -1776.93632817 Ry
     estimated scf accuracy    <       0.00049659 Ry

     iteration # 11     ecut=    40.00 Ry     beta=0.70
     CG style diagonalization
     c_bands:  1 eigenvalues not converged
     ethr =  2.76E-07,  avg # of iterations =  3.6

     total cpu time spent up to now is      201.7 secs

     End of self-consistent calculation

          k = 0.0000 0.0000 0.0000 (  3675 PWs)   bands (ev):

   -48.1561 -48.1512 -48.1461 -48.1376 -13.0098 -12.9862 -12.9511 -12.9455
   -12.9391 -12.9143 -12.9127 -12.8987 -12.7108 -12.6528 -12.5714 -12.5194
     3.9424   5.7817   6.2782   7.1518   7.7065   8.2533   8.3341   8.7399
    18.3435  18.9951  20.0439  20.4920  20.5561  20.6433  20.8920  21.8405
    22.0774  22.4168  22.7496  22.9538  23.4931  23.5076  24.1518  25.0587
    25.0967  25.3291  26.3072  26.7132  27.4845  28.0393  28.2494  28.4415
    28.6150  29.3450  29.4595  29.5191  29.7221  29.7884  29.8664  30.8381
    31.0134  31.0321  31.2550  31.7360  31.9870  32.8944  33.1782  33.7683
    33.8866  33.9494  34.2388  34.7734  36.4125  39.0199  39.6221  40.0627
    41.4746  41.5066  41.5293  42.3318  42.6073  43.0228  43.4200  43.6150
    44.0137  44.0275  44.1425  44.1626  45.4185  45.6599  45.9289  46.3501
    46.7649  47.9409  48.5145  48.5574  49.3631  49.6870  49.7543  50.2597
    50.7109  50.7126  50.8990  51.6013  51.6164  51.9113  52.5189  52.6993
    53.3281  53.3456  53.8290  54.0840

          k = 0.0000 0.0000 0.1317 (  3675 PWs)   bands (ev):

   -48.1580 -48.1518 -48.1452 -48.1372 -12.9921 -12.9844 -12.9457 -12.9357
   -12.9313 -12.9278 -12.9158 -12.9149 -12.7017 -12.6719 -12.5585 -12.5332
     4.1043   5.2124   6.8340   7.1974   7.7065   8.2587   8.3144   8.4932
    18.4515  19.2107  20.0651  20.0744  20.4925  20.9571  21.1592  21.6479
    22.4824  22.5965  22.7568  22.8768  23.1342  23.6665  24.0194  24.9278
    25.2570  25.7427  25.9570  26.2552  27.2572  27.2773  28.0674  28.4584
    28.6180  29.2996  29.3220  29.3259  29.6403  30.1806  30.2500  30.5834
    30.9346  31.1133  31.5169  32.2771  32.3764  33.0058  33.1470  33.4090
    33.5628  34.0658  34.3898  34.7597  36.8669  38.9774  40.1344  40.5905
    41.6397  41.6424  41.6725  42.5602  42.6970  42.9369  43.0953  43.5892
    43.7221  43.9910  44.2317  44.5191  44.7792  45.7503  46.0880  46.6289
    47.0918  47.2476  47.6577  48.0179  48.9862  49.0278  49.2748  49.4994
    49.9438  50.4201  50.8954  51.2693  52.2003  52.3076  52.4164  52.5217
    53.3572  53.4665  53.4706  54.1101

          k = 0.0000 0.0000-0.2634 (  3690 PWs)   bands (ev):

   -48.1546 -48.1546 -48.1511 -48.1511 -12.9859 -12.9859 -12.9423 -12.9423
   -12.9354 -12.9354 -12.9192 -12.9192 -12.6989 -12.6989 -12.5515 -12.5515
     4.5577   4.5577   7.2357   7.2357   7.9552   7.9552   8.2779   8.2779
    18.8277  18.8277  20.2304  20.2304  20.7307  20.7307  21.8399  21.8399
    21.9912  21.9912  22.7319  22.7319  23.5440  23.5440  24.8074  24.8075
    25.3264  25.3264  26.1025  26.1025  26.6508  26.6508  28.4256  28.4256
    28.4977  28.4977  29.1257  29.1257  30.0331  30.0331  30.6667  30.6667
    31.0405  31.0405  32.6028  32.6028  32.7546  32.7546  32.8520  32.8520
    33.8086  33.8086  34.6299  34.6299  37.8972  37.8972  41.2736  41.2736
    41.5926  41.5926  42.5724  42.5724  42.8400  42.8400  43.1627  43.1627
    43.9130  43.9130  44.2477  44.2477  45.2447  45.2447  46.2464  46.2464
    46.6875  46.6875  46.7869  46.7869  48.8689  48.8689  49.3065  49.3065
    49.5548  49.5548  51.2750  51.2750  52.3269  52.3271  53.0574  53.0575
    53.3864  53.3864  53.4954  53.4954

          k = 0.0000 0.2533 0.0000 (  3664 PWs)   bands (ev):

   -48.1603 -48.1538 -48.1354 -48.1234 -12.9942 -12.9792 -12.9781 -12.9733
   -12.9383 -12.9121 -12.8940 -12.8862 -12.6869 -12.6497 -12.5460 -12.5440
     4.5178   5.8636   6.2575   6.7829   7.4263   7.5438   8.8243   8.9519
    19.0000  19.7750  20.0952  20.1557  20.2970  20.3712  20.8934  21.1741
    21.7348  22.0059  22.2985  23.6204  23.8380  23.9580  24.0204  24.7400
    25.2609  25.4168  25.7133  26.2711  26.4930  26.7831  27.6186  27.7990
    28.4800  29.4323  29.4914  30.1706  30.4843  30.5974  30.6103  30.6316
    31.2622  31.4963  31.8090  32.3162  33.2000  33.2187  33.5606  33.6282
    34.0957  34.2073  34.3100  34.3619  36.8935  39.6814  40.1850  40.3249
    40.4632  40.8666  41.7578  41.9047  42.3116  42.9506  43.1610  43.2555
    43.6131  43.9050  44.0164  45.6871  45.8136  45.9372  45.9918  46.2834
    46.4450  47.3781  47.4757  48.1301  48.5709  48.7872  48.8540  49.4248
    49.4562  50.6773  51.0179  51.4736  51.4909  52.3098  52.7422  52.9135
    53.7844  53.8735  53.9141  53.9306

          k = 0.0000 0.2533 0.1317 (  3669 PWs)   bands (ev):

   -48.1575 -48.1506 -48.1404 -48.1346 -12.9849 -12.9823 -12.9761 -12.9739
   -12.9341 -12.9170 -12.9054 -12.8891 -12.6848 -12.6589 -12.5561 -12.5429
     4.6677   5.6389   6.1437   6.8343   7.4302   7.8975   8.7041   8.7861
    19.2187  19.7920  19.8193  20.0579  20.4663  20.8986  20.9384  21.2573
    21.8678  21.8787  22.5499  23.2334  23.7492  23.8186  24.1396  24.6286
    25.1711  25.3924  25.5848  26.1418  26.2735  26.7108  26.8246  27.8324
    28.7314  29.5035  29.7557  30.0635  30.1507  30.3471  30.6630  30.9774
    31.2573  31.9434  32.0335  32.5777  33.2339  33.2579  33.4657  33.7888
    34.0025  34.0850  34.2289  34.4206  37.3574  39.9090  40.1260  40.4250
    41.0433  41.3110  41.8686  42.2302  42.2469  42.3867  42.8743  42.8925
    43.4889  43.6984  44.0178  45.0288  45.4429  45.8308  45.9308  46.1197
    47.1113  47.1671  47.3877  47.9259  48.5801  48.7903  49.1425  49.7729
    49.9245  50.0182  51.0170  51.3203  51.4359  51.6714  52.7390  52.9357
    53.0071  53.2494  53.4129  54.0127

          k = 0.0000 0.2533-0.2634 (  3666 PWs)   bands (ev):

   -48.1507 -48.1507 -48.1393 -48.1393 -12.9777 -12.9777 -12.9762 -12.9762
   -12.9270 -12.9270 -12.8978 -12.8978 -12.6708 -12.6708 -12.5484 -12.5484
     5.0824   5.0824   6.4336   6.4336   7.9532   7.9532   8.5509   8.5509
    19.5307  19.5307  19.9391  19.9391  20.8251  20.8251  21.5419  21.5419
    21.6244  21.6244  22.8037  22.8037  23.9615  23.9615  24.1448  24.1448
    25.0184  25.0184  25.8079  25.8079  26.1350  26.1350  27.3566  27.3566
    29.3811  29.3811  29.5861  29.5861  30.4201  30.4201  30.6766  30.6766
    31.6419  31.6419  32.7531  32.7531  33.2943  33.2943  33.7475  33.7475
    33.9702  33.9702  34.2728  34.2728  38.5083  38.5083  41.0908  41.0908
    41.1445  41.1445  42.0168  42.0168  42.4439  42.4439  42.6717  42.6717
    44.0757  44.0757  44.0772  44.0772  44.8201  44.8201  46.1988  46.1988
    46.8551  46.8551  47.6686  47.6686  48.7156  48.7156  49.0670  49.0670
    50.0556  50.0556  51.2629  51.2629  51.6856  51.6856  52.7808  52.7808
    52.9535  52.9535  53.3175  53.3176

          k =-0.5000 0.0000 0.0000 (  3722 PWs)   bands (ev):

   -48.1654 -48.1654 -48.1600 -48.1600 -13.0937 -13.0937 -13.0456 -13.0456
   -12.9250 -12.9250 -12.9156 -12.9156 -12.6331 -12.6331 -12.5881 -12.5881
     5.7550   5.7550   6.8813   6.8813   7.1772   7.1772   8.2765   8.2765
    18.7456  18.7456  20.1518  20.1518  20.2453  20.2453  21.2973  21.2973
    21.4302  21.4302  24.0606  24.0606  24.3717  24.3717  24.4637  24.4637
    25.4229  25.4229  26.3230  26.3231  27.2457  27.2457  28.1229  28.1229
    29.9747  29.9747  30.1299  30.1299  30.5213  30.5213  30.8994  30.8994
    31.2033  31.2033  31.7354  31.7354  32.0879  32.0879  32.5433  32.5433
    33.3639  33.3639  33.4582  33.4582  37.0288  37.0288  39.6906  39.6906
    41.2059  41.2059  42.2434  42.2434  43.0313  43.0313  43.9138  43.9138
    44.7933  44.7933  45.6080  45.6080  46.1416  46.1416  46.3433  46.3434
    47.2688  47.2688  47.7819  47.7819  47.8758  47.8758  49.4776  49.4776
    49.6522  49.6523  50.6372  50.6372  51.3341  51.3341  51.3628  51.3631
    51.9431  51.9432  52.2112  52.2112

          k =-0.5000 0.0000 0.1317 (  3710 PWs)   bands (ev):

   -48.1628 -48.1628 -48.1541 -48.1541 -13.0896 -13.0896 -13.0390 -13.0390
   -12.9201 -12.9201 -12.9089 -12.9089 -12.6294 -12.6294 -12.5904 -12.5904
     5.8067   5.8067   6.8112   6.8112   7.1982   7.1982   8.2479   8.2479
    18.7987  18.7987  19.9473  19.9473  20.7199  20.7199  21.2730  21.2730
    21.8932  21.8932  23.5087  23.5087  23.9695  23.9695  24.0675  24.0675
    25.3654  25.3654  26.7841  26.7841  27.3252  27.3252  28.1504  28.1504
    29.6043  29.6043  30.1205  30.1205  30.4490  30.4490  31.0364  31.0364
    31.2470  31.2470  31.7150  31.7150  32.1218  32.1218  32.7569  32.7569
    33.1781  33.1781  33.9527  33.9527  37.3461  37.3461  40.2393  40.2393
    41.2595  41.2595  41.9812  41.9812  43.4128  43.4128  43.8352  43.8352
    44.0728  44.0728  44.7122  44.7122  45.1498  45.1498  45.8103  45.8103
    47.0466  47.0466  47.7263  47.7263  48.9781  48.9781  49.5749  49.5750
    49.7809  49.7809  50.8979  50.8979  51.4367  51.4368  52.1042  52.1043
    52.6258  52.6261  53.0036  53.1402

          k =-0.5000 0.0000-0.2634 (  3680 PWs)   bands (ev):

   -48.1491 -48.1491 -48.1483 -48.1483 -13.0781 -13.0781 -13.0293 -13.0293
   -12.9105 -12.9105 -12.8973 -12.8972 -12.6184 -12.6184 -12.5901 -12.5901
     5.8682   5.8682   6.7314   6.7314   7.2226   7.2226   8.2177   8.2177
    18.8149  18.8149  20.0394  20.0394  20.8062  20.8062  21.7142  21.7142
    22.3198  22.3199  23.0274  23.0274  23.3904  23.3904  23.5654  23.5654
    25.3211  25.3211  27.2483  27.2483  27.4529  27.4529  28.0233  28.0233
    29.6196  29.6196  29.6311  29.6311  30.6654  30.6654  31.0293  31.0293
    31.3925  31.3925  31.7756  31.7756  31.9095  31.9095  32.8145  32.8145
    33.2266  33.2266  34.3782  34.3782  37.9000  37.9000  40.6351  40.6351
    41.3952  41.3952  42.3325  42.3325  42.6582  42.6582  42.9773  42.9773
    43.8852  43.8852  44.3881  44.3881  44.7324  44.7324  45.8407  45.8407
    46.4932  46.4932  48.0684  48.0684  48.7297  48.7297  49.4933  49.4933
    50.7795  50.7798  50.8669  50.8670  51.2274  51.2275  52.1416  52.1417
    52.8427  52.8429  54.1047  54.1048

          k =-0.5000 0.2533 0.0000 (  3686 PWs)   bands (ev):

   -48.1560 -48.1560 -48.1474 -48.1474 -13.0810 -13.0810 -13.0579 -13.0579
   -12.9141 -12.9141 -12.9108 -12.9108 -12.6018 -12.6018 -12.5784 -12.5784
     6.1377   6.1377   6.7966   6.7966   7.3579   7.3579   7.7813   7.7813
    19.1593  19.1593  19.2460  19.2460  20.6842  20.6842  21.8699  21.8699
    22.2898  22.2898  22.9389  22.9389  23.7584  23.7584  24.2221  24.2221
    25.4729  25.4729  25.8093  25.8093  27.0719  27.0719  27.3871  27.3871
    29.5370  29.5370  30.1276  30.1276  31.0152  31.0152  31.4918  31.4918
    31.7722  31.7722  31.8611  31.8611  32.5111  32.5111  32.9436  32.9436
    33.5582  33.5582  33.9946  33.9946  37.9219  37.9219  39.4465  39.4465
    41.5337  41.5337  42.1122  42.1122  43.3591  43.3591  44.1121  44.1121
    44.5175  44.5175  44.8339  44.8339  45.5425  45.5425  46.4825  46.4825
    47.0147  47.0147  47.8056  47.8056  48.1762  48.1762  48.9917  48.9917
    49.0860  49.0860  49.7912  49.7913  50.8444  50.8444  52.3748  52.3748
    52.3947  52.3947  52.7195  52.7196

          k =-0.5000 0.2533 0.1317 (  3692 PWs)   bands (ev):

   -48.1586 -48.1586 -48.1489 -48.1489 -13.0778 -13.0778 -13.0572 -13.0572
   -12.9189 -12.9189 -12.9102 -12.9102 -12.6115 -12.6115 -12.5788 -12.5788
     6.1899   6.1899   6.8063   6.8063   7.3232   7.3232   7.7214   7.7214
    19.3729  19.3729  19.5712  19.5712  20.6979  20.6979  21.3727  21.3727
    21.9356  21.9356  23.1512  23.1512  23.7831  23.7831  24.3541  24.3541
    25.3569  25.3569  26.0514  26.0514  26.7903  26.7903  27.2220  27.2220
    29.4551  29.4551  30.1439  30.1439  30.7167  30.7167  31.3625  31.3625
    31.8854  31.8854  32.1938  32.1938  32.7016  32.7016  33.0886  33.0886
    33.6656  33.6656  34.0161  34.0161  38.2456  38.2456  39.9405  39.9405
    41.5571  41.5570  42.2173  42.2173  42.9539  42.9539  43.3049  43.3049
    44.0462  44.0462  44.8449  44.8449  45.7020  45.7020  46.3228  46.3228
    47.0032  47.0032  47.4007  47.4007  48.1392  48.1392  48.8366  48.8366
    49.5360  49.5360  50.3649  50.3650  51.0969  51.0969  51.6848  51.6851
    52.3048  52.3049  52.8622  52.8622

          k =-0.5000 0.2533-0.2634 (  3704 PWs)   bands (ev):

   -48.1643 -48.1643 -48.1517 -48.1517 -13.0844 -13.0844 -13.0572 -13.0572
   -12.9242 -12.9242 -12.9083 -12.9083 -12.6141 -12.6141 -12.5885 -12.5885
     6.2517   6.2517   6.8013   6.8013   7.3045   7.3045   7.6500   7.6500
    19.6795  19.6795  20.0347  20.0347  20.7800  20.7800  21.0833  21.0833
    21.0990  21.0990  23.3028  23.3028  23.9853  23.9853  24.3551  24.3551
    25.4394  25.4394  25.9069  25.9069  26.8640  26.8640  26.8885  26.8885
    29.6405  29.6405  29.7757  29.7757  30.9030  30.9030  30.9678  30.9678
    31.9886  31.9886  32.4052  32.4052  32.9440  32.9440  33.0591  33.0591
    33.9631  33.9631  33.9876  33.9876  38.8254  38.8254  40.5671  40.5671
    41.5766  41.5766  41.7430  41.7430  42.0448  42.0448  43.1685  43.1685
    44.2833  44.2833  44.3351  44.3351  45.7393  45.7393  46.3090  46.3090
    46.7891  46.7891  47.5504  47.5504  47.9549  47.9549  49.1215  49.1215
    49.1605  49.1605  50.2967  50.2969  51.1915  51.1915  51.6201  51.6205
    52.4266  52.4268  52.8907  52.8910

     the Fermi energy is    47.3356 ev

!    total energy              =   -1776.93614599 Ry
     Harris-Foulkes estimate   =   -1776.93614552 Ry
     estimated scf accuracy    <       0.00000148 Ry

     The total energy is the sum of the following terms:

     one-electron contribution =     204.05359969 Ry
     hartree contribution      =     167.11991760 Ry
     xc contribution           =    -202.43135142 Ry
     ewald contribution        =   -1945.31354915 Ry
     smearing contrib. (-TS)   =      -0.36476271 Ry

     convergence has been achieved in  11 iterations

     Forces acting on atoms (Ry/au):

     atom    1 type  1   force =     0.00000000   -0.07357583   -0.08242740
     atom    2 type  1   force =     0.00000000    0.07357583    0.08242740
     atom    3 type  1   force =     0.00000000   -0.07357583    0.08242740
     atom    4 type  1   force =     0.00000000    0.07357583   -0.08242740
     atom    5 type  1   force =     0.00000000    0.17207808   -0.31689520
     atom    6 type  1   force =     0.00000000   -0.17207808    0.31689520
     atom    7 type  1   force =     0.00000000    0.17207808    0.31689520
     atom    8 type  1   force =     0.00000000   -0.17207808   -0.31689520
     atom    9 type  2   force =     0.00000000   -0.18331605   -0.02504142
     atom   10 type  2   force =     0.00000000    0.18331605    0.02504142
     atom   11 type  2   force =     0.00000000   -0.18331605    0.02504142
     atom   12 type  2   force =     0.00000000    0.18331605   -0.02504142

     Total force =     0.840174     Total SCF correction =     0.000000


     entering subroutine stress ...

          total   stress  (Ry/bohr**3)                   (kbar)     P= 6744.53
   0.05092082   0.00000000   0.00000000       7490.71      0.00      0.00
   0.00000000   0.04188689   0.00000000          0.00   6161.77      0.00
   0.00000000   0.00000000   0.04473742          0.00      0.00   6581.10


     BFGS Geometry Optimization

     number of scf cycles    =   1
     number of bfgs steps    =   0

     enthalpy new            =   -1776.9361459882 Ry

     new trust radius        =       0.5000000000 bohr
     new conv_thr            =       0.0001000000 Ry

     new unit-cell volume =   1076.10727 a.u.^3 (   159.46264 Ang^3 )

CELL_PARAMETERS (alat=  7.01510508)
   1.085136619   0.000000000   0.000000000
   0.000000000   1.408123479   0.000000000
   0.000000000   0.000000000   2.039989171

ATOMIC_POSITIONS (crystal)
Co       0.750000000   0.825867987   0.435321984
Co       0.250000000   0.174132013   0.564678016
Co       0.750000000   0.325867987   0.064678016
Co       0.250000000   0.674132013   0.935321984
Co       0.250000000   0.538332604   0.280753299
Co       0.750000000   0.461667396   0.719246701
Co       0.250000000   0.038332604   0.219246701
Co       0.750000000   0.961667396   0.780753299
Si       0.250000000   0.201525984   0.893474222
Si       0.750000000   0.798474016   0.106525778
Si       0.250000000   0.701525984   0.606525778
Si       0.750000000   0.298474016   0.393474222



     Writing output data file Prototype-La-oP12-Co2Si.save
     NEW-OLD atomic charge density approx. for the potential
     NEW k-points:
        k(    1) = (   0.0000000   0.0000000   0.0000000), wk =   0.0833333
        k(    2) = (   0.0000000   0.0000000   0.1225497), wk =   0.1666667
        k(    3) = (   0.0000000   0.0000000  -0.2450993), wk =   0.0833333
        k(    4) = (   0.0000000   0.2367217   0.0000000), wk =   0.1666667
        k(    5) = (   0.0000000   0.2367217   0.1225497), wk =   0.3333333
        k(    6) = (   0.0000000   0.2367217  -0.2450993), wk =   0.1666667
        k(    7) = (  -0.4607715   0.0000000   0.0000000), wk =   0.0833333
        k(    8) = (  -0.4607715   0.0000000   0.1225497), wk =   0.1666667
        k(    9) = (  -0.4607715   0.0000000  -0.2450993), wk =   0.0833333
        k(   10) = (  -0.4607715   0.2367217   0.0000000), wk =   0.1666667
        k(   11) = (  -0.4607715   0.2367217   0.1225497), wk =   0.3333333
        k(   12) = (  -0.4607715   0.2367217  -0.2450993), wk =   0.1666667

     total cpu time spent up to now is      205.5 secs

     Self-consistent Calculation

     iteration #  1     ecut=    40.00 Ry     beta=0.70
     CG style diagonalization
     c_bands:  5 eigenvalues not converged
     c_bands:  1 eigenvalues not converged
     c_bands:  3 eigenvalues not converged
     c_bands:  3 eigenvalues not converged
     c_bands:  1 eigenvalues not converged
     ethr =  1.00E-06,  avg # of iterations = 22.5

     total cpu time spent up to now is      261.6 secs

     total energy              =   -1777.86469981 Ry
     Harris-Foulkes estimate   =   -1791.49539359 Ry
     estimated scf accuracy    <      17.54805698 Ry

     iteration #  2     ecut=    40.00 Ry     beta=0.70
     CG style diagonalization
     ethr =  9.75E-03,  avg # of iterations =  3.6

     total cpu time spent up to now is      269.9 secs

     total energy              =   -1781.71003882 Ry
     Harris-Foulkes estimate   =   -1785.33324957 Ry
     estimated scf accuracy    <       5.41994699 Ry

     iteration #  3     ecut=    40.00 Ry     beta=0.70
     CG style diagonalization
     ethr =  3.01E-03,  avg # of iterations =  3.7

     total cpu time spent up to now is      278.9 secs

     total energy              =   -1783.41862363 Ry
     Harris-Foulkes estimate   =   -1783.72788856 Ry
     estimated scf accuracy    <       0.54577103 Ry

     iteration #  4     ecut=    40.00 Ry     beta=0.70
     CG style diagonalization
     ethr =  3.03E-04,  avg # of iterations =  3.6

     total cpu time spent up to now is      287.7 secs

     total energy              =   -1783.55413495 Ry
     Harris-Foulkes estimate   =   -1783.59571126 Ry
     estimated scf accuracy    <       0.08138431 Ry

     iteration #  5     ecut=    40.00 Ry     beta=0.70
     CG style diagonalization
     ethr =  4.52E-05,  avg # of iterations =  3.8

     total cpu time spent up to now is      297.1 secs

     total energy              =   -1783.57092052 Ry
     Harris-Foulkes estimate   =   -1783.57344596 Ry
     estimated scf accuracy    <       0.00502973 Ry

     iteration #  6     ecut=    40.00 Ry     beta=0.70
     CG style diagonalization
     c_bands:  1 eigenvalues not converged
     ethr =  2.79E-06,  avg # of iterations =  4.5

     total cpu time spent up to now is      308.4 secs

     total energy              =   -1783.57251834 Ry
     Harris-Foulkes estimate   =   -1783.57279082 Ry
     estimated scf accuracy    <       0.00050088 Ry

     iteration #  7     ecut=    40.00 Ry     beta=0.70
     CG style diagonalization
     c_bands:  1 eigenvalues not converged
     ethr =  2.78E-07,  avg # of iterations =  4.1

     total cpu time spent up to now is      318.4 secs

     End of self-consistent calculation

          k = 0.0000 0.0000 0.0000 (  3675 PWs)   bands (ev):

   -55.9677 -55.9486 -55.9482 -55.9257 -20.6001 -20.5996 -20.5739 -20.5677
   -20.5662 -20.5643 -20.5571 -20.5387 -20.4175 -20.3958 -20.3720 -20.3307
    -2.7736  -1.7124  -1.3583  -0.8061  -0.5508  -0.2157  -0.1439  -0.0398
    12.1983  12.8777  13.5025  13.7131  13.7234  13.8593  14.4269  14.8078
    15.0699  15.4336  15.5641  15.7095  15.7958  16.5312  16.5485  17.0520
    17.1027  17.3770  17.7349  18.3494  18.5358  19.0541  19.5869  20.0247
    21.3531  21.8582  21.9860  22.1182  22.2177  22.3843  22.4542  22.4543
    22.8173  22.9588  23.0650  23.3853  23.5684  24.0786  24.2450  24.3113
    24.6560  24.6862  24.7990  24.8019  28.3519  29.4846  30.8042  31.3454
    31.6576  31.9669  33.1263  33.8644  34.0523  34.5599  34.5906  34.7516
    34.8114  34.8566  34.8739  35.2703  35.5453  36.3249  36.6662  36.8398
    37.5226  38.4796  39.0223  39.1351  39.1520  39.4862  39.6507  40.6193
    40.8610  41.1903  41.2307  41.4282  41.6477  41.8307  42.0926  42.8747
    42.9174  42.9932  43.2371  43.7499

          k = 0.0000 0.0000 0.1225 (  3675 PWs)   bands (ev):

   -55.9748 -55.9461 -55.9451 -55.9245 -20.5918 -20.5809 -20.5777 -20.5679
   -20.5649 -20.5610 -20.5575 -20.5528 -20.4162 -20.4139 -20.3593 -20.3410
    -2.6790  -2.0308  -1.0524  -0.7928  -0.5428  -0.2067  -0.1778  -0.1315
    12.2769  12.8621  13.4588  13.6777  13.6879  14.1133  14.5165  14.6556
    15.4261  15.4442  15.5727  15.7827  15.8292  16.0057  16.5768  17.0186
    17.0682  17.6248  17.8183  18.0234  18.4505  18.5898  19.6304  19.9411
    21.3621  21.8452  21.9715  22.0473  22.1905  22.4098  22.5056  22.6599
    22.8609  23.0827  23.0914  23.6040  23.7457  24.1323  24.1455  24.1805
    24.3879  24.7049  24.8618  24.8684  28.6389  29.8412  30.6935  31.6490
    31.6570  32.4587  33.1070  34.1618  34.1739  34.3047  34.3376  34.3569
    34.5329  34.6346  35.1304  35.3080  36.2425  36.4819  36.6164  36.6889
    36.9462  37.5626  37.8025  37.9619  39.5929  39.8521  39.8979  39.9953
    40.0629  40.5654  41.0521  41.7794  42.1451  42.4887  42.5174  42.6622
    43.3614  43.5051  43.8615  43.9929

          k = 0.0000 0.0000-0.2451 (  3690 PWs)   bands (ev):

   -55.9717 -55.9717 -55.9432 -55.9432 -20.5830 -20.5830 -20.5779 -20.5779
   -20.5681 -20.5681 -20.5583 -20.5583 -20.4315 -20.4315 -20.3578 -20.3578
    -2.4136  -2.4136  -0.8049  -0.8049  -0.4146  -0.4146  -0.1808  -0.1808
    12.5285  12.5285  13.6536  13.6536  13.9460  13.9460  14.7612  14.7612
    15.1868  15.1868  15.7536  15.7536  15.9220  15.9220  16.8623  16.8623
    17.2739  17.2739  17.9855  17.9855  18.1589  18.1589  19.7346  19.7346
    21.5770  21.5770  21.8624  21.8624  22.4216  22.4216  22.6072  22.6072
    23.1073  23.1073  23.6436  23.6436  23.8739  23.8739  24.0581  24.0581
    24.4915  24.4915  24.9046  24.9046  29.3560  29.3560  31.3083  31.3083
    32.4643  32.4643  33.7958  33.7958  34.1289  34.1289  34.1493  34.1493
    34.9616  34.9616  35.3316  35.3316  35.7812  35.7812  35.8829  35.8829
    37.1753  37.1753  37.7772  37.7772  39.3179  39.3179  39.7817  39.7817
    39.9667  39.9667  41.8012  41.8013  42.2015  42.2016  43.2421  43.2422
    43.6770  43.6771  44.0029  44.6513

          k = 0.0000 0.2367 0.0000 (  3664 PWs)   bands (ev):

   -55.9665 -55.9650 -55.9220 -55.8972 -20.5990 -20.5857 -20.5814 -20.5746
   -20.5663 -20.5463 -20.5459 -20.5431 -20.4060 -20.3981 -20.3447 -20.3436
    -2.4162  -1.6063  -1.4154  -1.0716  -0.6961  -0.5702   0.0594   0.0774
    12.7984  13.4874  13.6375  13.7352  13.8155  13.8769  14.0374  14.2907
    14.8417  15.0044  15.1198  15.8940  16.0056  16.6170  16.8612  17.0233
    17.2919  17.5330  17.6923  17.8939  17.9679  18.2412  18.6862  18.8998
    21.6219  22.0135  22.1221  22.5103  22.6951  22.7343  22.8391  22.8771
    22.9373  23.2037  23.3093  23.6249  24.1244  24.1935  24.2710  24.4901
    24.7724  24.7933  24.7990  24.8292  28.8330  30.9114  31.1860  31.8493
    31.9380  32.4584  32.4949  32.8051  33.6832  33.7706  34.0465  34.4326
    34.4340  34.5133  34.7726  35.9883  36.5059  36.5470  36.6979  36.8682
    37.1683  37.6927  38.1107  38.2175  38.5747  38.9590  39.0320  39.5133
    39.9229  40.4203  41.2539  41.2796  41.8573  42.0261  42.5184  42.5285
    43.2602  43.3499  43.8777  44.0269

          k = 0.0000 0.2367 0.1225 (  3669 PWs)   bands (ev):

   -55.9609 -55.9564 -55.9360 -55.9170 -20.5902 -20.5850 -20.5835 -20.5762
   -20.5617 -20.5585 -20.5493 -20.5432 -20.4113 -20.4022 -20.3587 -20.3431
    -2.3304  -1.7744  -1.4202  -1.0687  -0.6499  -0.4060  -0.0207   0.0182
    12.9055  13.3837  13.5108  13.7213  13.8899  13.9892  14.2500  14.4573
    14.8759  15.0277  15.2354  15.6292  16.0713  16.5964  16.7732  16.9267
    17.2176  17.3930  17.4503  17.8941  17.9512  18.2676  18.4135  18.9144
    21.7393  22.0568  22.2819  22.4248  22.6038  22.6430  22.8815  22.9443
    22.9863  23.3308  23.4120  23.7462  24.2079  24.2362  24.2694  24.5070
    24.6530  24.7543  24.7938  24.8702  29.1624  30.7714  31.6338  31.6779
    32.1959  32.3810  32.9511  33.0856  33.2709  33.5486  33.6714  34.3552
    34.4201  34.5665  34.7768  35.8121  36.0656  36.4454  36.5012  36.9383
    37.2964  37.5812  37.8893  38.3482  38.6546  38.8247  39.2047  39.7295
    40.1531  40.4729  40.4742  40.8670  41.1153  41.9215  42.3090  42.7277
    43.0276  43.1624  43.6916  43.9650

          k = 0.0000 0.2367-0.2451 (  3666 PWs)   bands (ev):

   -55.9501 -55.9501 -55.9314 -55.9314 -20.5818 -20.5818 -20.5814 -20.5814
   -20.5594 -20.5594 -20.5465 -20.5465 -20.4048 -20.4048 -20.3509 -20.3509
    -2.0932  -2.0932  -1.2648  -1.2648  -0.3742  -0.3742  -0.0998  -0.0998
    13.1300  13.1300  13.5910  13.5910  14.0360  14.0360  14.6601  14.6601
    14.7666  14.7666  15.4918  15.4918  16.4093  16.4093  16.6438  16.6438
    16.9976  16.9976  17.7021  17.7021  18.0451  18.0451  18.6738  18.6738
    22.0859  22.0859  22.1591  22.1591  22.6986  22.6986  22.8300  22.8300
    23.1997  23.1997  23.8185  23.8185  24.2647  24.2647  24.4277  24.4277
    24.6436  24.6436  24.8197  24.8197  30.0001  30.0001  31.9890  31.9890
    32.3831  32.3831  32.7672  32.7672  33.5994  33.5994  33.7541  33.7541
    34.8584  34.8584  35.2994  35.2994  35.5512  35.5512  36.6926  36.6926
    37.5095  37.5095  37.7699  37.7699  38.9868  38.9868  39.0580  39.0580
    39.9443  39.9443  41.3606  41.3607  41.4622  41.4622  42.4919  42.4919
    43.1966  43.1967  43.2380  43.2380

          k =-0.4608 0.0000 0.0000 (  3722 PWs)   bands (ev):

   -55.9862 -55.9862 -55.9844 -55.9844 -20.6450 -20.6450 -20.6180 -20.6180
   -20.5776 -20.5776 -20.5670 -20.5670 -20.4004 -20.4004 -20.3752 -20.3752
    -1.7751  -1.7751  -1.0207  -1.0207  -0.8114  -0.8114  -0.1824  -0.1824
    12.5294  12.5294  13.4246  13.4246  13.6123  13.6123  14.4988  14.4988
    14.5130  14.5130  16.3256  16.3256  16.5952  16.5952  16.9382  16.9382
    17.4813  17.4813  18.2954  18.2954  18.8394  18.8394  19.4808  19.4808
    22.1417  22.1417  22.4153  22.4153  22.5712  22.5712  22.7614  22.7614
    22.8170  22.8170  23.0987  23.0987  23.5326  23.5326  23.6792  23.6792
    24.1922  24.1922  24.2532  24.2532  28.4772  28.4772  31.1521  31.1521
    32.7174  32.7174  34.0962  34.0962  34.3544  34.3544  35.0308  35.0308
    35.8762  35.8762  36.6677  36.6677  37.2100  37.2100  37.3956  37.3956
    37.6531  37.6531  38.3182  38.3182  38.4579  38.4579  38.7178  38.7178
    39.7015  39.7015  41.0468  41.0468  41.0529  41.0529  41.3682  41.3682
    41.6027  41.6027  42.4346  42.4346

          k =-0.4608 0.0000 0.1225 (  3710 PWs)   bands (ev):

   -55.9780 -55.9780 -55.9732 -55.9732 -20.6363 -20.6363 -20.6149 -20.6149
   -20.5692 -20.5692 -20.5595 -20.5595 -20.3970 -20.3970 -20.3770 -20.3770
    -1.7545  -1.7545  -1.0521  -1.0521  -0.7984  -0.7984  -0.1901  -0.1901
    12.5240  12.5240  13.2954  13.2954  14.0326  14.0326  14.2878  14.2878
    14.9328  14.9328  16.0067  16.0067  16.2772  16.2772  16.6727  16.6727
    17.6081  17.6081  18.4968  18.4968  18.8015  18.8015  19.4715  19.4715
    22.0362  22.0362  22.2572  22.2572  22.5142  22.5142  22.7634  22.7634
    23.0293  23.0293  23.3028  23.3028  23.5255  23.5255  23.7970  23.7970
    23.9957  23.9957  24.4326  24.4326  28.7260  28.7260  31.3961  31.3961
    32.9387  32.9387  33.8979  33.8979  34.7727  34.7727  34.8534  34.8534
    35.4217  35.4217  35.9737  35.9737  36.1707  36.1707  36.6524  36.6524
    37.7937  37.7937  38.1392  38.1392  38.3214  38.3214  39.9376  39.9376
    40.3464  40.3464  40.9554  40.9555  41.1765  41.1765  41.6996  41.6997
    42.3151  42.3151  43.1656  43.1657

          k =-0.4608 0.0000-0.2451 (  3680 PWs)   bands (ev):

   -55.9595 -55.9595 -55.9466 -55.9466 -20.6182 -20.6182 -20.6048 -20.6048
   -20.5569 -20.5569 -20.5444 -20.5444 -20.3830 -20.3830 -20.3763 -20.3763
    -1.7315  -1.7315  -1.0842  -1.0842  -0.7858  -0.7858  -0.1982  -0.1982
    12.5006  12.5006  13.3296  13.3296  14.0734  14.0734  14.8443  14.8443
    14.8973  14.8973  15.7501  15.7501  16.0061  16.0061  16.2923  16.2923
    17.6908  17.6908  18.7161  18.7161  18.7537  18.7537  19.4440  19.4440
    21.9984  21.9984  22.0581  22.0581  22.5647  22.5647  22.7508  22.7508
    23.3146  23.3146  23.3996  23.3996  23.4010  23.4010  23.8558  23.8558
    23.9084  23.9084  24.5885  24.5885  29.0516  29.0516  31.5604  31.5604
    33.3828  33.3828  33.9930  33.9930  34.3663  34.3663  34.6225  34.6225
    35.2024  35.2024  35.3798  35.3798  35.5069  35.5069  36.8533  36.8533
    37.1079  37.1079  38.1291  38.1291  39.0231  39.0231  39.1433  39.1433
    41.1581  41.1583  41.3070  41.3071  41.4690  41.4690  42.1595  42.1595
    42.7553  42.7553  43.1564  43.1564

          k =-0.4608 0.2367 0.0000 (  3686 PWs)   bands (ev):

   -55.9674 -55.9674 -55.9544 -55.9544 -20.6368 -20.6368 -20.6192 -20.6192
   -20.5569 -20.5569 -20.5551 -20.5551 -20.3748 -20.3748 -20.3614 -20.3614
    -1.5156  -1.5156  -1.0929  -1.0929  -0.7307  -0.7307  -0.4691  -0.4691
    12.8644  12.8644  12.9779  12.9779  13.8298  13.8298  14.9590  14.9590
    15.0976  15.0976  15.6746  15.6746  16.2578  16.2578  16.4897  16.4897
    17.6740  17.6740  17.8471  17.8471  18.5576  18.5576  18.8321  18.8321
    22.0320  22.0320  22.3821  22.3821  22.9209  22.9209  23.1526  23.1526
    23.2467  23.2467  23.3219  23.3219  23.7615  23.7615  23.9239  23.9239
    24.2714  24.2714  24.5662  24.5662  29.4693  29.4693  31.0165  31.0165
    33.5558  33.5558  33.5877  33.5877  34.2150  34.2150  35.2579  35.2579
    35.2693  35.2693  35.8751  35.8751  36.2387  36.2387  36.9925  36.9925
    37.5710  37.5709  38.0161  38.0161  38.6416  38.6416  38.9733  38.9733
    39.3688  39.3688  40.1566  40.1566  40.3521  40.3521  42.4607  42.4607
    42.5742  42.5743  43.2507  43.4344

          k =-0.4608 0.2367 0.1225 (  3692 PWs)   bands (ev):

   -55.9780 -55.9780 -55.9513 -55.9513 -20.6263 -20.6263 -20.6222 -20.6222
   -20.5633 -20.5633 -20.5565 -20.5565 -20.3878 -20.3878 -20.3611 -20.3611
    -1.4949  -1.4949  -1.0940  -1.0940  -0.7387  -0.7387  -0.4878  -0.4878
    12.9680  12.9680  13.1800  13.1800  13.9069  13.9069  14.4320  14.4320
    14.9479  14.9479  15.8247  15.8247  16.3264  16.3264  16.7191  16.7191
    17.5524  17.5524  17.9842  17.9842  18.3143  18.3143  18.7137  18.7137
    22.0306  22.0306  22.4223  22.4223  22.6982  22.6982  23.0354  23.0354
    23.4543  23.4543  23.4935  23.4935  23.8258  23.8258  24.0143  24.0143
    24.3109  24.3109  24.5593  24.5593  29.6947  29.6947  31.3480  31.3480
    33.4039  33.4039  33.8730  33.8730  34.1535  34.1535  34.4986  34.4986
    35.0185  35.0185  35.4867  35.4867  36.1244  36.1244  36.9986  36.9986
    37.5883  37.5883  37.8263  37.8263  38.6229  38.6229  39.1522  39.1522
    39.7974  39.7974  40.4286  40.4286  40.9124  40.9124  41.5810  41.5810
    42.3877  42.3877  42.9128  42.9128

          k =-0.4608 0.2367-0.2451 (  3704 PWs)   bands (ev):

   -55.9912 -55.9912 -55.9564 -55.9564 -20.6301 -20.6301 -20.6240 -20.6240
   -20.5698 -20.5698 -20.5577 -20.5577 -20.3902 -20.3902 -20.3739 -20.3739
    -1.4721  -1.4721  -1.0981  -1.0981  -0.7440  -0.7440  -0.5084  -0.5084
    13.0829  13.0829  13.5270  13.5270  13.9424  13.9424  14.2888  14.2888
    14.3177  14.3177  15.9627  15.9627  16.5211  16.5211  16.8481  16.8481
    17.5967  17.5967  17.7408  17.7408  18.3261  18.3261  18.5337  18.5337
    22.1423  22.1423  22.2374  22.2374  22.7830  22.7830  22.8396  22.8396
    23.5435  23.5435  23.5933  23.5933  23.9672  23.9672  24.0205  24.0205
    24.4278  24.4278  24.5420  24.5420  30.0116  30.0116  31.7670  31.7670
    33.3202  33.3202  33.5884  33.5884  33.7341  33.7341  34.2939  34.2939
    34.7675  34.7675  35.5018  35.5018  36.2802  36.2802  36.8371  36.8371
    37.4192  37.4192  37.8154  37.8154  38.2126  38.2126  39.7337  39.7337
    39.7550  39.7550  40.4007  40.4007  41.0339  41.0339  42.1751  42.1751
    42.2210  42.2211  42.6837  42.6837

     the Fermi energy is    37.7693 ev

!    total energy              =   -1783.57270250 Ry
     Harris-Foulkes estimate   =   -1783.57274437 Ry
     estimated scf accuracy    <       0.00004720 Ry

     The total energy is the sum of the following terms:

     one-electron contribution =      18.31768352 Ry
     hartree contribution      =     201.86152282 Ry
     xc contribution           =    -195.84442510 Ry
     ewald contribution        =   -1807.47714531 Ry
     smearing contrib. (-TS)   =      -0.43033843 Ry

     convergence has been achieved in   7 iterations

     Forces acting on atoms (Ry/au):

     atom    1 type  1   force =     0.00000000   -0.05753539   -0.04608270
     atom    2 type  1   force =     0.00000000    0.05753539    0.04608270
     atom    3 type  1   force =     0.00000000   -0.05753539    0.04608270
     atom    4 type  1   force =     0.00000000    0.05753539   -0.04608270
     atom    5 type  1   force =     0.00000000    0.10642168   -0.19672765
     atom    6 type  1   force =     0.00000000   -0.10642168    0.19672765
     atom    7 type  1   force =     0.00000000    0.10642168    0.19672765
     atom    8 type  1   force =     0.00000000   -0.10642168   -0.19672765
     atom    9 type  2   force =     0.00000000   -0.12907379   -0.01454650
     atom   10 type  2   force =     0.00000000    0.12907379    0.01454650
     atom   11 type  2   force =     0.00000000   -0.12907379    0.01454650
     atom   12 type  2   force =     0.00000000    0.12907379   -0.01454650

     Total force =     0.537896     Total SCF correction =     0.000000


     entering subroutine stress ...

          total   stress  (Ry/bohr**3)                   (kbar)     P= 2795.44
   0.02108702   0.00000000   0.00000000       3102.01      0.00      0.00
   0.00000000   0.01731037   0.00000000          0.00   2546.44      0.00
   0.00000000   0.00000000   0.01861174          0.00      0.00   2737.88


     number of scf cycles    =   2
     number of bfgs steps    =   1

     enthalpy old            =   -1776.9361459882 Ry
     enthalpy new            =   -1783.5727024964 Ry

     CASE: enthalpy_new < enthalpy_old

     small trust_radius: resetting bfgs history

     new trust radius        =       3.4587003556 bohr
     new conv_thr            =       0.0001000000 Ry

     new unit-cell volume =   3450.18422 a.u.^3 (   511.26455 Ang^3 )

CELL_PARAMETERS (alat=  7.01510508)
   1.657193990   0.000000000   0.000000000
   0.000000000   2.017501846   0.000000000
   0.000000000   0.000000000   2.989182646

ATOMIC_POSITIONS (crystal)
Co       0.750000000   0.820043467   0.432101835
Co       0.250000000   0.179956533   0.567898165
Co       0.750000000   0.320043467   0.067898165
Co       0.250000000   0.679956533   0.932101835
Co       0.250000000   0.549106064   0.267006443
Co       0.750000000   0.450893936   0.732993557
Co       0.250000000   0.049106064   0.232993557
Co       0.750000000   0.950893936   0.767006443
Si       0.250000000   0.188459367   0.892457748
Si       0.750000000   0.811540633   0.107542252
Si       0.250000000   0.688459367   0.607542252
Si       0.750000000   0.311540633   0.392457748



     Writing output data file Prototype-La-oP12-Co2Si.save
     NEW-OLD atomic charge density approx. for the potential
     NEW k-points:
        k(    1) = (   0.0000000   0.0000000   0.0000000), wk =   0.0833333
        k(    2) = (   0.0000000   0.0000000   0.0836349), wk =   0.1666667
        k(    3) = (   0.0000000   0.0000000  -0.1672698), wk =   0.0833333
        k(    4) = (   0.0000000   0.1652208   0.0000000), wk =   0.1666667
        k(    5) = (   0.0000000   0.1652208   0.0836349), wk =   0.3333333
        k(    6) = (   0.0000000   0.1652208  -0.1672698), wk =   0.1666667
        k(    7) = (  -0.3017148   0.0000000   0.0000000), wk =   0.0833333
        k(    8) = (  -0.3017148   0.0000000   0.0836349), wk =   0.1666667
        k(    9) = (  -0.3017148   0.0000000  -0.1672698), wk =   0.0833333
        k(   10) = (  -0.3017148   0.1652208   0.0000000), wk =   0.1666667
        k(   11) = (  -0.3017148   0.1652208   0.0836349), wk =   0.3333333
        k(   12) = (  -0.3017148   0.1652208  -0.1672698), wk =   0.1666667

     total cpu time spent up to now is      322.2 secs

     Self-consistent Calculation

     iteration #  1     ecut=    40.00 Ry     beta=0.70
     CG style diagonalization
     c_bands:  4 eigenvalues not converged
     c_bands:  1 eigenvalues not converged
     c_bands:  2 eigenvalues not converged
     c_bands:  2 eigenvalues not converged
     c_bands:  2 eigenvalues not converged
     c_bands:  2 eigenvalues not converged
     c_bands:  1 eigenvalues not converged
     c_bands:  1 eigenvalues not converged
     ethr =  1.00E-06,  avg # of iterations = 36.3

     total cpu time spent up to now is      402.2 secs

     total energy              =   -1681.76855029 Ry
     Harris-Foulkes estimate   =   -1942.63596339 Ry
     estimated scf accuracy    <     334.20340202 Ry

     iteration #  2     ecut=    40.00 Ry     beta=0.70
     CG style diagonalization
     c_bands:  1 eigenvalues not converged
     ethr =  1.00E-02,  avg # of iterations =  8.0

     total cpu time spent up to now is      420.3 secs

     total energy              =   -1640.01441571 Ry
     Harris-Foulkes estimate   =   -1815.99777402 Ry
     estimated scf accuracy    <     317.89052545 Ry

     iteration #  3     ecut=    40.00 Ry     beta=0.70
     CG style diagonalization
     c_bands:  1 eigenvalues not converged
     ethr =  1.00E-02,  avg # of iterations =  9.0

     total cpu time spent up to now is      440.1 secs

     total energy              =   -1767.11775050 Ry
     Harris-Foulkes estimate   =   -1800.24192788 Ry
     estimated scf accuracy    <      81.90917723 Ry

     iteration #  4     ecut=    40.00 Ry     beta=0.70
     CG style diagonalization
     ethr =  1.00E-02,  avg # of iterations =  4.3

     total cpu time spent up to now is      449.1 secs

     total energy              =   -1770.78753727 Ry
     Harris-Foulkes estimate   =   -1775.93882608 Ry
     estimated scf accuracy    <      22.09329081 Ry

     iteration #  5     ecut=    40.00 Ry     beta=0.70
     CG style diagonalization
     ethr =  1.00E-02,  avg # of iterations =  3.1

     total cpu time spent up to now is      455.4 secs

     total energy              =   -1769.36788251 Ry
     Harris-Foulkes estimate   =   -1772.13933043 Ry
     estimated scf accuracy    <      13.05331598 Ry

     iteration #  6     ecut=    40.00 Ry     beta=0.70
     CG style diagonalization
     ethr =  7.25E-03,  avg # of iterations =  3.1

     total cpu time spent up to now is      461.9 secs

     total energy              =   -1767.20970247 Ry
     Harris-Foulkes estimate   =   -1769.76816159 Ry
     estimated scf accuracy    <       7.21044984 Ry

     iteration #  7     ecut=    40.00 Ry     beta=0.70
     CG style diagonalization
     c_bands:  1 eigenvalues not converged
     ethr =  4.01E-03,  avg # of iterations =  4.7

     total cpu time spent up to now is      472.6 secs

     total energy              =   -1769.07920523 Ry
     Harris-Foulkes estimate   =   -1769.38666699 Ry
     estimated scf accuracy    <       3.24809279 Ry

     iteration #  8     ecut=    40.00 Ry     beta=0.70
     CG style diagonalization
     ethr =  1.80E-03,  avg # of iterations =  3.3

     total cpu time spent up to now is      479.3 secs

     total energy              =   -1767.88920297 Ry
     Harris-Foulkes estimate   =   -1769.22862681 Ry
     estimated scf accuracy    <       3.32524235 Ry

     iteration #  9     ecut=    40.00 Ry     beta=0.70
     CG style diagonalization
     c_bands:  1 eigenvalues not converged
     c_bands:  2 eigenvalues not converged
     ethr =  1.80E-03,  avg # of iterations =  4.6

     total cpu time spent up to now is      489.7 secs

     total energy              =   -1769.25474099 Ry
     Harris-Foulkes estimate   =   -1769.39999024 Ry
     estimated scf accuracy    <       3.31781654 Ry

     iteration # 10     ecut=    40.00 Ry     beta=0.70
     CG style diagonalization
     ethr =  1.80E-03,  avg # of iterations =  3.0

     total cpu time spent up to now is      496.0 secs

     total energy              =   -1768.59801731 Ry
     Harris-Foulkes estimate   =   -1769.31216817 Ry
     estimated scf accuracy    <       3.18383378 Ry

     iteration # 11     ecut=    40.00 Ry     beta=0.70
     CG style diagonalization
     ethr =  1.77E-03,  avg # of iterations =  3.5

     total cpu time spent up to now is      503.0 secs

     total energy              =   -1768.87247415 Ry
     Harris-Foulkes estimate   =   -1768.88259751 Ry
     estimated scf accuracy    <       0.13831620 Ry

     iteration # 12     ecut=    40.00 Ry     beta=0.70
     CG style diagonalization
     c_bands:  1 eigenvalues not converged
     c_bands:  2 eigenvalues not converged
     c_bands:  3 eigenvalues not converged
     c_bands:  1 eigenvalues not converged
     c_bands:  2 eigenvalues not converged
     c_bands:  2 eigenvalues not converged
     c_bands:  2 eigenvalues not converged
     c_bands:  1 eigenvalues not converged
     c_bands:  4 eigenvalues not converged
     ethr =  7.68E-05,  avg # of iterations =  5.6

     total cpu time spent up to now is      515.7 secs

     total energy              =   -1768.93836811 Ry
     Harris-Foulkes estimate   =   -1768.93999032 Ry
     estimated scf accuracy    <       0.01416114 Ry

     iteration # 13     ecut=    40.00 Ry     beta=0.70
     CG style diagonalization
     c_bands:  3 eigenvalues not converged
     c_bands:  1 eigenvalues not converged
     c_bands:  2 eigenvalues not converged
     c_bands:  2 eigenvalues not converged
     c_bands:  3 eigenvalues not converged
     c_bands:  3 eigenvalues not converged
     c_bands:  1 eigenvalues not converged
     c_bands:  1 eigenvalues not converged
     c_bands:  1 eigenvalues not converged
     ethr =  7.87E-06,  avg # of iterations =  4.4

     total cpu time spent up to now is      525.7 secs

     total energy              =   -1768.93878204 Ry
     Harris-Foulkes estimate   =   -1768.94149496 Ry
     estimated scf accuracy    <       0.01084667 Ry

     iteration # 14     ecut=    40.00 Ry     beta=0.70
     CG style diagonalization
     c_bands:  2 eigenvalues not converged
     c_bands:  1 eigenvalues not converged
     c_bands:  2 eigenvalues not converged
     c_bands:  1 eigenvalues not converged
     ethr =  6.03E-06,  avg # of iterations =  3.3

     total cpu time spent up to now is      533.3 secs

     total energy              =   -1768.93949714 Ry
     Harris-Foulkes estimate   =   -1768.93967126 Ry
     estimated scf accuracy    <       0.00524393 Ry

     iteration # 15     ecut=    40.00 Ry     beta=0.70
     CG style diagonalization
     c_bands:  2 eigenvalues not converged
     c_bands:  3 eigenvalues not converged
     c_bands:  1 eigenvalues not converged
     c_bands:  2 eigenvalues not converged
     c_bands:  1 eigenvalues not converged
     ethr =  2.91E-06,  avg # of iterations =  4.8

     total cpu time spent up to now is      544.4 secs

     total energy              =   -1768.94409866 Ry
     Harris-Foulkes estimate   =   -1768.94499561 Ry
     estimated scf accuracy    <       0.04599936 Ry

     iteration # 16     ecut=    40.00 Ry     beta=0.70
     CG style diagonalization
     c_bands:  1 eigenvalues not converged
     c_bands:  1 eigenvalues not converged
     ethr =  2.91E-06,  avg # of iterations =  3.0

     total cpu time spent up to now is      550.8 secs

     total energy              =   -1768.94224111 Ry
     Harris-Foulkes estimate   =   -1768.94415738 Ry
     estimated scf accuracy    <       0.04369323 Ry

     iteration # 17     ecut=    40.00 Ry     beta=0.70
     CG style diagonalization
     ethr =  2.91E-06,  avg # of iterations =  3.0

     total cpu time spent up to now is      556.8 secs

     total energy              =   -1768.94108696 Ry
     Harris-Foulkes estimate   =   -1768.94236528 Ry
     estimated scf accuracy    <       0.03442474 Ry

     iteration # 18     ecut=    40.00 Ry     beta=0.70
     CG style diagonalization
     ethr =  2.91E-06,  avg # of iterations =  3.0

     total cpu time spent up to now is      563.1 secs

     total energy              =   -1768.93881716 Ry
     Harris-Foulkes estimate   =   -1768.94118185 Ry
     estimated scf accuracy    <       0.02771131 Ry

     iteration # 19     ecut=    40.00 Ry     beta=0.70
     CG style diagonalization
     ethr =  2.91E-06,  avg # of iterations =  3.8

     total cpu time spent up to now is      571.2 secs

     total energy              =   -1768.93847907 Ry
     Harris-Foulkes estimate   =   -1768.93952810 Ry
     estimated scf accuracy    <       0.00984431 Ry

     iteration # 20     ecut=    40.00 Ry     beta=0.70
     CG style diagonalization
     ethr =  2.91E-06,  avg # of iterations =  3.1

     total cpu time spent up to now is      577.2 secs

     total energy              =   -1768.93768726 Ry
     Harris-Foulkes estimate   =   -1768.93870261 Ry
     estimated scf accuracy    <       0.00400450 Ry

     iteration # 21     ecut=    40.00 Ry     beta=0.70
     CG style diagonalization
     ethr =  2.22E-06,  avg # of iterations =  4.2

     total cpu time spent up to now is      586.1 secs

     total energy              =   -1768.93866018 Ry
     Harris-Foulkes estimate   =   -1768.93869418 Ry
     estimated scf accuracy    <       0.00048332 Ry

     iteration # 22     ecut=    40.00 Ry     beta=0.70
     CG style diagonalization
     c_bands:  1 eigenvalues not converged
     c_bands:  2 eigenvalues not converged
     ethr =  2.69E-07,  avg # of iterations =  3.9

     total cpu time spent up to now is      594.8 secs

     total energy              =   -1768.93869106 Ry
     Harris-Foulkes estimate   =   -1768.93871163 Ry
     estimated scf accuracy    <       0.00044340 Ry

     iteration # 23     ecut=    40.00 Ry     beta=0.70
     CG style diagonalization
     c_bands:  1 eigenvalues not converged
     ethr =  2.46E-07,  avg # of iterations =  3.0

     total cpu time spent up to now is      601.1 secs

     total energy              =   -1768.93863606 Ry
     Harris-Foulkes estimate   =   -1768.93870592 Ry
     estimated scf accuracy    <       0.00034378 Ry

     iteration # 24     ecut=    40.00 Ry     beta=0.70
     CG style diagonalization
     c_bands:  1 eigenvalues not converged
     ethr =  1.91E-07,  avg # of iterations =  3.3

     total cpu time spent up to now is      607.9 secs

     End of self-consistent calculation

          k = 0.0000 0.0000 0.0000 (  3675 PWs)   bands (ev):

   -77.5821 -77.5304 -77.4891 -77.4675 -49.0307 -48.9922 -48.9802 -48.9772
   -48.9441 -48.9151 -48.9121 -48.9085 -48.6734 -48.6506 -48.6106 -48.6070
   -28.4908 -28.4511 -28.4511 -28.4185 -28.3886 -28.3862 -28.2905 -28.2815
    -9.7863  -9.7230  -9.6909  -9.6904  -9.6388  -9.6236  -9.5924  -9.5778
    -9.5752  -9.5597  -9.5430  -9.5407  -9.4814  -9.4601  -9.4471  -9.4363
    -9.4339  -9.3880  -9.3636  -9.3560  -9.3017  -9.2941  -9.2873  -9.2835
    -1.6011  -1.5487  -1.4788  -1.4774  -1.4165  -1.3523  -1.3403  -1.3005
    -1.0729  -1.0558  -0.9802  -0.9722  -0.9647  -0.8983  -0.8873  -0.7971
    -0.7393  -0.6477  -0.6404  -0.6182   4.4674   5.3590   5.3981   5.8873
     7.8060   8.2575   8.3051   8.3577   8.5614   8.7822   8.7878   8.8853
     9.0938   9.0986   9.1949   9.2523   9.2676   9.2765   9.5848   9.6085
     9.6947   9.8988   9.9359  10.1005  10.3812  10.4374  10.5056  10.6176
    10.7669  11.0179  11.1135  11.1844  11.2159  11.2166  11.3891  11.4406
    11.6070  11.6387  11.6849  11.7137

          k = 0.0000 0.0000 0.0836 (  3675 PWs)   bands (ev):

   -77.5884 -77.5181 -77.5064 -77.4648 -49.0258 -49.0004 -48.9960 -48.9842
   -48.9360 -48.9237 -48.9166 -48.8839 -48.6585 -48.6473 -48.6193 -48.5764
   -28.4947 -28.4738 -28.4410 -28.4024 -28.3687 -28.3685 -28.3275 -28.2633
    -9.7882  -9.7280  -9.7038  -9.6755  -9.6319  -9.6208  -9.6176  -9.5943
    -9.5860  -9.5765  -9.5490  -9.5239  -9.4703  -9.4611  -9.4477  -9.4155
    -9.4034  -9.3758  -9.3746  -9.3480  -9.3168  -9.3137  -9.2789  -9.2761
    -1.5342  -1.5338  -1.4957  -1.4780  -1.4434  -1.4024  -1.3622  -1.3465
    -1.1083  -1.1030  -0.9916  -0.9684  -0.9496  -0.8780  -0.8615  -0.7434
    -0.7315  -0.6998  -0.5592  -0.5326   4.5528   5.0748   5.6116   5.8578
     7.9063   8.3149   8.3244   8.4446   8.4470   8.6552   8.7444   8.7812
     9.0585   9.1394   9.1409   9.2111   9.3140   9.3337   9.4693   9.5961
     9.7900   9.8066   9.8172   9.8637  10.3985  10.6251  10.6871  10.7479
    10.7817  11.0911  11.0918  11.1885  11.2532  11.3618  11.3680  11.4830
    11.6060  11.6344  11.6520  11.6951

          k = 0.0000 0.0000-0.1673 (  3690 PWs)   bands (ev):

   -77.5855 -77.5855 -77.5214 -77.5214 -49.0236 -49.0236 -49.0002 -49.0002
   -48.9237 -48.9237 -48.9099 -48.9099 -48.6467 -48.6467 -48.5862 -48.5862
   -28.5155 -28.5155 -28.4201 -28.4201 -28.3779 -28.3779 -28.2985 -28.2985
    -9.7831  -9.7831  -9.6875  -9.6875  -9.6357  -9.6357  -9.6022  -9.6022
    -9.5957  -9.5957  -9.5315  -9.5315  -9.4724  -9.4724  -9.4268  -9.4268
    -9.4147  -9.4147  -9.3790  -9.3790  -9.3389  -9.3389  -9.2727  -9.2727
    -1.5632  -1.5632  -1.5341  -1.5341  -1.4672  -1.4672  -1.4390  -1.4390
    -1.0993  -1.0993  -0.9676  -0.9676  -0.8528  -0.8528  -0.7935  -0.7935
    -0.7336  -0.7336  -0.5739  -0.5739   4.7714   4.7714   5.7675   5.7675
     8.1330   8.1330   8.4626   8.4626   8.5085   8.5085   8.6600   8.6601
     9.0526   9.0526   9.2063   9.2063   9.4058   9.4058   9.4752   9.4752
     9.6248   9.6248   9.7348   9.7348  10.6847  10.6847  10.9421  10.9421
    10.9624  10.9624  11.0580  11.0580  11.2728  11.2728  11.4732  11.4732
    11.6533  11.6533  11.6956  11.6956

          k = 0.0000 0.1652 0.0000 (  3664 PWs)   bands (ev):

   -77.5807 -77.5310 -77.4433 -77.4275 -49.0121 -48.9995 -48.9859 -48.9793
   -48.9432 -48.9318 -48.8848 -48.8779 -48.6600 -48.6281 -48.6039 -48.5959
   -28.4656 -28.4488 -28.4217 -28.4217 -28.3662 -28.3224 -28.3109 -28.2945
    -9.6978  -9.6770  -9.6764  -9.6315  -9.6299  -9.6173  -9.6018  -9.5938
    -9.5750  -9.5523  -9.5415  -9.5356  -9.4916  -9.4657  -9.4529  -9.4312
    -9.4197  -9.3885  -9.3865  -9.3729  -9.3585  -9.3115  -9.3010  -9.2585
    -1.5299  -1.5111  -1.4525  -1.4242  -1.3892  -1.3696  -1.3458  -1.2857
    -1.1058  -1.0233  -1.0018  -0.9727  -0.9514  -0.9051  -0.7925  -0.7833
    -0.7063  -0.6515  -0.5455  -0.5450   4.7947   5.3958   5.5551   5.7354
     7.7680   7.8174   8.3169   8.3606   8.4415   8.6617   8.7821   8.8253
     9.0656   9.0947   9.3094   9.3597   9.4747   9.5681   9.5943   9.6571
     9.6677   9.8721   9.9924  10.0303  10.1310  10.1870  10.2223  10.4191
    10.6065  10.8986  10.9255  10.9995  11.1778  11.2718  11.3340  11.4929
    11.5566  11.5814  11.5827  11.5933

          k = 0.0000 0.1652 0.0836 (  3669 PWs)   bands (ev):

   -77.5695 -77.5454 -77.4797 -77.4397 -49.0102 -49.0017 -48.9982 -48.9892
   -48.9337 -48.9251 -48.9101 -48.8861 -48.6514 -48.6236 -48.6033 -48.5807
   -28.4896 -28.4621 -28.4115 -28.4003 -28.3762 -28.3310 -28.3163 -28.2978
    -9.7267  -9.6842  -9.6615  -9.6516  -9.6275  -9.6156  -9.6081  -9.5888
    -9.5820  -9.5739  -9.5548  -9.4988  -9.4935  -9.4648  -9.4614  -9.4552
    -9.4212  -9.3969  -9.3785  -9.3666  -9.3458  -9.3162  -9.2956  -9.2707
    -1.5468  -1.5001  -1.4953  -1.4528  -1.4138  -1.3890  -1.3697  -1.3433
    -1.0983  -1.0426  -0.9987  -0.9813  -0.9422  -0.8836  -0.8086  -0.7582
    -0.6646  -0.6336  -0.5802  -0.5216   4.8678   5.2876   5.5848   5.7276
     7.7768   7.8558   8.1350   8.4205   8.5962   8.6513   8.6658   8.8120
     9.0211   9.1030   9.2054   9.4176   9.4430   9.4646   9.5666   9.5860
     9.6763   9.9152   9.9474  10.0704  10.1986  10.2967  10.4056  10.4647
    10.6303  10.7852  10.9373  11.0227  11.2278  11.2430  11.2756  11.3046
    11.5625  11.6317  11.6466  11.7185

          k = 0.0000 0.1652-0.1673 (  3666 PWs)   bands (ev):

   -77.5172 -77.5172 -77.4860 -77.4860 -49.0045 -49.0045 -48.9930 -48.9930
   -48.9232 -48.9232 -48.9019 -48.9019 -48.6350 -48.6350 -48.5977 -48.5977
   -28.4596 -28.4596 -28.3896 -28.3896 -28.3609 -28.3609 -28.3222 -28.3222
    -9.6912  -9.6912  -9.6581  -9.6581  -9.6283  -9.6283  -9.5788  -9.5788
    -9.5742  -9.5742  -9.5200  -9.5200  -9.4750  -9.4750  -9.4631  -9.4631
    -9.4057  -9.4057  -9.3826  -9.3826  -9.3341  -9.3341  -9.2891  -9.2891
    -1.4973  -1.4973  -1.4637  -1.4637  -1.4192  -1.4192  -1.3459  -1.3459
    -1.0517  -1.0517  -0.9932  -0.9932  -0.8863  -0.8863  -0.8101  -0.8101
    -0.6586  -0.6586  -0.5464  -0.5464   5.0627   5.0627   5.6685   5.6685
     7.8166   7.8166   8.2538   8.2538   8.5669   8.5669   8.8032   8.8032
     9.0489   9.0489   9.2483   9.2483   9.4242   9.4242   9.5728   9.5728
     9.7034   9.7034  10.0481  10.0481  10.3159  10.3159  10.5828  10.5828
    10.7862  10.7862  10.9119  10.9119  11.2262  11.2262  11.2706  11.2706
    11.5876  11.5876  11.7269  11.7269

          k =-0.3017 0.0000 0.0000 (  3722 PWs)   bands (ev):

   -77.6277 -77.6277 -77.5958 -77.5958 -49.0048 -49.0048 -49.0012 -49.0012
   -48.9387 -48.9387 -48.9377 -48.9377 -48.7299 -48.7299 -48.6862 -48.6862
   -28.4925 -28.4925 -28.4633 -28.4633 -28.4376 -28.4376 -28.4308 -28.4308
    -9.8061  -9.8061  -9.7103  -9.7103  -9.6597  -9.6597  -9.6544  -9.6544
    -9.6235  -9.6235  -9.5016  -9.5016  -9.4715  -9.4715  -9.4650  -9.4650
    -9.4217  -9.4217  -9.3766  -9.3766  -9.3606  -9.3606  -9.2936  -9.2936
    -1.5700  -1.5700  -1.5543  -1.5543  -1.5059  -1.5059  -1.3832  -1.3832
    -1.0842  -1.0842  -1.0294  -1.0294  -0.9511  -0.9511  -0.9506  -0.9506
    -0.9191  -0.9191  -0.8698  -0.8698   5.2738   5.2738   5.5278   5.5278
     7.7952   7.7952   8.4146   8.4146   8.7273   8.7273   9.1451   9.1451
     9.2887   9.2887   9.4101   9.4101   9.5604   9.5604   9.6141   9.6141
     9.9078   9.9078   9.9967   9.9968  10.0603  10.0603  10.3935  10.3935
    10.4358  10.4358  10.7655  10.7655  10.9151  10.9151  11.1642  11.1642
    11.2588  11.2588  11.4280  11.4280

          k =-0.3017 0.0000 0.0836 (  3710 PWs)   bands (ev):

   -77.5931 -77.5931 -77.5816 -77.5816 -49.0069 -49.0069 -48.9983 -48.9983
   -48.9323 -48.9323 -48.9187 -48.9187 -48.7151 -48.7151 -48.6766 -48.6766
   -28.4731 -28.4731 -28.4601 -28.4601 -28.4249 -28.4249 -28.4039 -28.4039
    -9.7957  -9.7957  -9.7079  -9.7079  -9.6701  -9.6701  -9.6247  -9.6247
    -9.6109  -9.6109  -9.5016  -9.5016  -9.4695  -9.4695  -9.4450  -9.4450
    -9.4060  -9.4060  -9.3718  -9.3718  -9.3590  -9.3590  -9.3059  -9.3059
    -1.5428  -1.5428  -1.5176  -1.5176  -1.4814  -1.4814  -1.4099  -1.4099
    -1.0570  -1.0570  -1.0145  -1.0145  -0.9444  -0.9444  -0.8956  -0.8956
    -0.8785  -0.8785  -0.8384  -0.8384   5.2975   5.2975   5.5206   5.5206
     7.6530   7.6530   8.5818   8.5818   8.7483   8.7483   9.0341   9.0341
     9.2391   9.2391   9.5334   9.5335   9.6019   9.6019   9.6496   9.6496
     9.7439   9.7439   9.8836   9.8836  10.0793  10.0793  10.3215  10.3215
    10.5439  10.5439  10.8586  10.8586  10.9950  10.9950  11.2432  11.2432
    11.2941  11.2941  11.4773  11.4773

          k =-0.3017 0.0000-0.1673 (  3680 PWs)   bands (ev):

   -77.5520 -77.5520 -77.5002 -77.5002 -49.0005 -49.0005 -49.0003 -49.0003
   -48.9124 -48.9124 -48.8869 -48.8869 -48.6838 -48.6838 -48.6617 -48.6617
   -28.4305 -28.4305 -28.4195 -28.4195 -28.3876 -28.3876 -28.3831 -28.3831
    -9.7967  -9.7967  -9.6648  -9.6648  -9.6558  -9.6558  -9.6192  -9.6192
    -9.5491  -9.5491  -9.5114  -9.5114  -9.4618  -9.4618  -9.4186  -9.4186
    -9.3781  -9.3781  -9.3779  -9.3779  -9.3413  -9.3413  -9.2986  -9.2986
    -1.4999  -1.4999  -1.4891  -1.4891  -1.4363  -1.4363  -1.3370  -1.3370
    -1.0180  -1.0180  -1.0126  -1.0126  -0.8686  -0.8686  -0.8218  -0.8218
    -0.8142  -0.8142  -0.7451  -0.7451   5.3294   5.3294   5.5127   5.5127
     7.5505   7.5505   8.7386   8.7386   8.7401   8.7401   9.0068   9.0068
     9.2548   9.2548   9.4718   9.4718   9.5667   9.5667   9.5754   9.5754
     9.8068   9.8068   9.8704   9.8704  10.0055  10.0055  10.3204  10.3204
    10.6382  10.6382  10.9383  10.9383  11.0374  11.0374  11.2362  11.2362
    11.4039  11.4039  11.5422  11.5422

          k =-0.3017 0.1652 0.0000 (  3686 PWs)   bands (ev):

   -77.5486 -77.5486 -77.5222 -77.5222 -48.9966 -48.9966 -48.9917 -48.9917
   -48.9245 -48.9245 -48.9094 -48.9094 -48.7224 -48.7224 -48.6856 -48.6856
   -28.4467 -28.4467 -28.4324 -28.4324 -28.4110 -28.4110 -28.4011 -28.4011
    -9.7012  -9.7012  -9.6665  -9.6665  -9.6622  -9.6622  -9.6002  -9.6002
    -9.5871  -9.5871  -9.5056  -9.5056  -9.4682  -9.4682  -9.4464  -9.4464
    -9.3928  -9.3928  -9.3812  -9.3812  -9.3636  -9.3636  -9.3523  -9.3523
    -1.4714  -1.4714  -1.4502  -1.4502  -1.3888  -1.3888  -1.3644  -1.3644
    -1.0686  -1.0686  -1.0048  -1.0048  -0.9361  -0.9361  -0.9038  -0.9038
    -0.8650  -0.8650  -0.8308  -0.8308   5.4635   5.4635   5.6186   5.6186
     7.9315   7.9315   8.0407   8.0407   8.8390   8.8390   9.0192   9.0192
     9.0322   9.0322   9.2289   9.2289   9.6109   9.6109   9.7733   9.7733
     9.7877   9.7877   9.9904   9.9904  10.1412  10.1411  10.1697  10.1697
    10.4197  10.4197  10.7137  10.7137  10.7253  10.7253  11.1938  11.1938
    11.3485  11.3485  11.4050  11.4050

          k =-0.3017 0.1652 0.0836 (  3692 PWs)   bands (ev):

   -77.5943 -77.5943 -77.5063 -77.5063 -49.0145 -49.0145 -48.9923 -48.9923
   -48.9202 -48.9202 -48.9103 -48.9103 -48.6950 -48.6950 -48.6846 -48.6846
   -28.4552 -28.4552 -28.4392 -28.4392 -28.4082 -28.4082 -28.3965 -28.3965
    -9.7090  -9.7090  -9.6744  -9.6744  -9.6549  -9.6549  -9.6245  -9.6245
    -9.5808  -9.5808  -9.5043  -9.5043  -9.4848  -9.4848  -9.4416  -9.4416
    -9.3946  -9.3946  -9.3801  -9.3801  -9.3668  -9.3668  -9.3512  -9.3512
    -1.5153  -1.5153  -1.4738  -1.4738  -1.4172  -1.4172  -1.3596  -1.3596
    -1.0953  -1.0953  -1.0368  -1.0368  -0.9414  -0.9414  -0.8921  -0.8921
    -0.8091  -0.8091  -0.7758  -0.7758   5.4805   5.4805   5.6161   5.6161
     7.7637   7.7638   8.1264   8.1264   8.7956   8.7956   8.9657   8.9657
     9.2027   9.2027   9.2689   9.2689   9.5082   9.5082   9.6528   9.6528
     9.8346   9.8346   9.9516   9.9516  10.0527  10.0527  10.3007  10.3007
    10.5029  10.5029  10.6870  10.6870  10.9334  10.9334  11.1480  11.1480
    11.3231  11.3231  11.4758  11.4758

          k =-0.3017 0.1652-0.1673 (  3704 PWs)   bands (ev):

   -77.6329 -77.6329 -77.5219 -77.5219 -49.0250 -49.0250 -49.0048 -49.0048
   -48.9232 -48.9232 -48.8956 -48.8956 -48.6971 -48.6971 -48.6926 -48.6926
   -28.4631 -28.4631 -28.4610 -28.4610 -28.4250 -28.4250 -28.3944 -28.3944
    -9.7240  -9.7240  -9.6874  -9.6874  -9.6550  -9.6550  -9.6247  -9.6247
    -9.5915  -9.5915  -9.5060  -9.5060  -9.5002  -9.5002  -9.4465  -9.4465
    -9.3921  -9.3921  -9.3917  -9.3917  -9.3743  -9.3743  -9.3560  -9.3560
    -1.5584  -1.5584  -1.5025  -1.5025  -1.4104  -1.4104  -1.4048  -1.4048
    -1.1068  -1.1068  -1.0654  -1.0654  -0.9414  -0.9414  -0.9378  -0.9378
    -0.8171  -0.8171  -0.7419  -0.7419   5.4997   5.4997   5.6112   5.6112
     7.6588   7.6588   8.1465   8.1465   8.7406   8.7406   9.0958   9.0958
     9.2285   9.2285   9.3195   9.3195   9.4205   9.4205   9.5232   9.5232
     9.7794   9.7794   9.9684   9.9684  10.0395  10.0395  10.4284  10.4284
    10.4807  10.4807  10.7796  10.7796  11.0503  11.0503  11.1863  11.1863
    11.3023  11.3023  11.5405  11.5407

     the Fermi energy is     9.9331 ev

!    total energy              =   -1768.93862932 Ry
     Harris-Foulkes estimate   =   -1768.93866031 Ry
     estimated scf accuracy    <       0.00003367 Ry

     The total energy is the sum of the following terms:

     one-electron contribution =    -785.30948330 Ry
     hartree contribution      =     420.26157216 Ry
     xc contribution           =    -175.37040142 Ry
     ewald contribution        =   -1227.25368953 Ry
     smearing contrib. (-TS)   =      -1.26662723 Ry

     convergence has been achieved in  24 iterations

     Forces acting on atoms (Ry/au):

     atom    1 type  1   force =     0.00000000    0.00016951    0.00445355
     atom    2 type  1   force =     0.00000000   -0.00016951   -0.00445355
     atom    3 type  1   force =     0.00000000    0.00016951   -0.00445355
     atom    4 type  1   force =     0.00000000   -0.00016951    0.00445355
     atom    5 type  1   force =     0.00000000    0.00325197   -0.00367265
     atom    6 type  1   force =     0.00000000   -0.00325197    0.00367265
     atom    7 type  1   force =     0.00000000    0.00325197    0.00367265
     atom    8 type  1   force =     0.00000000   -0.00325197   -0.00367265
     atom    9 type  2   force =     0.00000000    0.00699061    0.00135412
     atom   10 type  2   force =     0.00000000   -0.00699061   -0.00135412
     atom   11 type  2   force =     0.00000000    0.00699061   -0.00135412
     atom   12 type  2   force =     0.00000000   -0.00699061    0.00135412

     Total force =     0.019455     Total SCF correction =     0.000000


     entering subroutine stress ...

          total   stress  (Ry/bohr**3)                   (kbar)     P=-1836.31
  -0.01383210   0.00000000   0.00000000      -2034.77      0.00      0.00
   0.00000000  -0.01146781   0.00000000          0.00  -1686.97      0.00
   0.00000000   0.00000000  -0.01214909          0.00      0.00  -1787.19


     number of scf cycles    =   3
     number of bfgs steps    =   2

     enthalpy old            =   -1783.5727024964 Ry
     enthalpy new            =   -1768.9386293236 Ry

     CASE: enthalpy_new > enthalpy_old

     new trust radius        =       1.3573091497 bohr

     trust_radius < trust_radius_min

     resetting bfgs history

     Message from routine bfgs:
     history already reset at previous step: stopping
     new conv_thr            =       0.0001000000 Ry

     new unit-cell volume =   1263.24745 a.u.^3 (   187.19396 Ang^3 )

CELL_PARAMETERS (alat=  7.01510508)
   1.155669597   0.000000000   0.000000000
   0.000000000   1.474254954   0.000000000
   0.000000000   0.000000000   2.147729600

ATOMIC_POSITIONS (crystal)
Co       0.750000000   0.825387064   0.435067776
Co       0.250000000   0.174612936   0.564932224
Co       0.750000000   0.325387064   0.064932224
Co       0.250000000   0.674612936   0.935067776
Co       0.250000000   0.539222154   0.279668084
Co       0.750000000   0.460777846   0.720331916
Co       0.250000000   0.039222154   0.220331916
Co       0.750000000   0.960777846   0.779668084
Si       0.250000000   0.200447091   0.893393979
Si       0.750000000   0.799552909   0.106606021
Si       0.250000000   0.700447091   0.606606021
Si       0.750000000   0.299552909   0.393393979



     Writing output data file Prototype-La-oP12-Co2Si.save
     NEW-OLD atomic charge density approx. for the potential
     NEW k-points:
        k(    1) = (   0.0000000   0.0000000   0.0000000), wk =   0.0833333
        k(    2) = (   0.0000000   0.0000000   0.1164020), wk =   0.1666667
        k(    3) = (   0.0000000   0.0000000  -0.2328040), wk =   0.0833333
        k(    4) = (   0.0000000   0.2261029   0.0000000), wk =   0.1666667
        k(    5) = (   0.0000000   0.2261029   0.1164020), wk =   0.3333333
        k(    6) = (   0.0000000   0.2261029  -0.2328040), wk =   0.1666667
        k(    7) = (  -0.4326496   0.0000000   0.0000000), wk =   0.0833333
        k(    8) = (  -0.4326496   0.0000000   0.1164020), wk =   0.1666667
        k(    9) = (  -0.4326496   0.0000000  -0.2328040), wk =   0.0833333
        k(   10) = (  -0.4326496   0.2261029   0.0000000), wk =   0.1666667
        k(   11) = (  -0.4326496   0.2261029   0.1164020), wk =   0.3333333
        k(   12) = (  -0.4326496   0.2261029  -0.2328040), wk =   0.1666667

     total cpu time spent up to now is      611.4 secs

     Self-consistent Calculation

     iteration #  1     ecut=    40.00 Ry     beta=0.70
     CG style diagonalization
     c_bands:  1 eigenvalues not converged
     c_bands:  3 eigenvalues not converged
     c_bands:  2 eigenvalues not converged
     c_bands:  2 eigenvalues not converged
     c_bands:  2 eigenvalues not converged
     c_bands:  4 eigenvalues not converged
     c_bands:  2 eigenvalues not converged
     ethr =  1.00E-06,  avg # of iterations = 34.9

     total cpu time spent up to now is      682.7 secs

     total energy              =   -1646.71669234 Ry
     Harris-Foulkes estimate   =   -1982.99183164 Ry
     estimated scf accuracy    <     414.26374111 Ry

     iteration #  2     ecut=    40.00 Ry     beta=0.70
     CG style diagonalization
     c_bands:  1 eigenvalues not converged
     ethr =  1.00E-02,  avg # of iterations = 10.1

     total cpu time spent up to now is      703.7 secs

     total energy              =   -1720.13949064 Ry
     Harris-Foulkes estimate   =   -1851.29405210 Ry
     estimated scf accuracy    <     211.85158780 Ry

     iteration #  3     ecut=    40.00 Ry     beta=0.70
     CG style diagonalization
     ethr =  1.00E-02,  avg # of iterations =  7.0

     total cpu time spent up to now is      717.6 secs

     total energy              =   -1779.13191913 Ry
     Harris-Foulkes estimate   =   -1792.18018663 Ry
     estimated scf accuracy    <      24.46496201 Ry

     iteration #  4     ecut=    40.00 Ry     beta=0.70
     CG style diagonalization
     ethr =  1.00E-02,  avg # of iterations =  3.9

     total cpu time spent up to now is      725.2 secs

     total energy              =   -1784.62382293 Ry
     Harris-Foulkes estimate   =   -1787.05579339 Ry
     estimated scf accuracy    <       4.88943545 Ry

     iteration #  5     ecut=    40.00 Ry     beta=0.70
     CG style diagonalization
     ethr =  2.72E-03,  avg # of iterations =  3.7

     total cpu time spent up to now is      732.4 secs

     total energy              =   -1785.80645181 Ry
     Harris-Foulkes estimate   =   -1786.08096350 Ry
     estimated scf accuracy    <       0.46309260 Ry

     iteration #  6     ecut=    40.00 Ry     beta=0.70
     CG style diagonalization
     c_bands:  1 eigenvalues not converged
     ethr =  2.57E-04,  avg # of iterations =  4.4

     total cpu time spent up to now is      741.5 secs

     total energy              =   -1785.95527458 Ry
     Harris-Foulkes estimate   =   -1786.04051766 Ry
     estimated scf accuracy    <       0.17255559 Ry

     iteration #  7     ecut=    40.00 Ry     beta=0.70
     CG style diagonalization
     ethr =  9.59E-05,  avg # of iterations =  3.5

     total cpu time spent up to now is      749.0 secs

     total energy              =   -1785.99047178 Ry
     Harris-Foulkes estimate   =   -1785.99645993 Ry
     estimated scf accuracy    <       0.01264495 Ry

     iteration #  8     ecut=    40.00 Ry     beta=0.70
     CG style diagonalization
     c_bands:  1 eigenvalues not converged
     c_bands:  1 eigenvalues not converged
     ethr =  7.02E-06,  avg # of iterations =  4.6

     total cpu time spent up to now is      759.2 secs

     total energy              =   -1785.99390560 Ry
     Harris-Foulkes estimate   =   -1785.99469557 Ry
     estimated scf accuracy    <       0.00153884 Ry

     iteration #  9     ecut=    40.00 Ry     beta=0.70
     CG style diagonalization
     c_bands:  1 eigenvalues not converged
     c_bands:  1 eigenvalues not converged
     ethr =  8.55E-07,  avg # of iterations =  4.1

     total cpu time spent up to now is      768.5 secs

[...]
     estimated scf accuracy    <     139.63463473 Ry

     iteration #  4     ecut=    40.00 Ry     beta=0.70
     CG style diagonalization
     ethr =  1.00E-02,  avg # of iterations =  5.0

     total cpu time spent up to now is     1060.7 secs

     total energy              =   -1785.77211464 Ry
     Harris-Foulkes estimate   =   -1794.42380597 Ry
     estimated scf accuracy    <      19.67144624 Ry

     iteration #  5     ecut=    40.00 Ry     beta=0.70
     CG style diagonalization
     ethr =  1.00E-02,  avg # of iterations =  3.4

     total cpu time spent up to now is     1071.8 secs

     total energy              =   -1787.19396269 Ry
     Harris-Foulkes estimate   =   -1788.62861566 Ry
     estimated scf accuracy    <       2.45799101 Ry

     iteration #  6     ecut=    40.00 Ry     beta=0.70
     CG style diagonalization
     ethr =  1.37E-03,  avg # of iterations =  4.4

     total cpu time spent up to now is     1087.0 secs

     total energy              =   -1788.11498164 Ry
     Harris-Foulkes estimate   =   -1788.28226576 Ry
     estimated scf accuracy    <       0.38237918 Ry

     iteration #  7     ecut=    40.00 Ry     beta=0.70
     CG style diagonalization
     c_bands:  2 eigenvalues not converged
     ethr =  2.12E-04,  avg # of iterations =  4.4

     total cpu time spent up to now is     1102.8 secs

     total energy              =   -1788.20845647 Ry
     Harris-Foulkes estimate   =   -1788.27891466 Ry
     estimated scf accuracy    <       0.17733507 Ry

     iteration #  8     ecut=    40.00 Ry     beta=0.70
     CG style diagonalization
     ethr =  9.85E-05,  avg # of iterations =  3.4

     total cpu time spent up to now is     1114.0 secs

     total energy              =   -1788.20691554 Ry
     Harris-Foulkes estimate   =   -1788.22955296 Ry
     estimated scf accuracy    <       0.05143599 Ry

     iteration #  9     ecut=    40.00 Ry     beta=0.70
     CG style diagonalization
     c_bands:  1 eigenvalues not converged
     c_bands:  1 eigenvalues not converged
     c_bands:  1 eigenvalues not converged
     c_bands:  1 eigenvalues not converged
     c_bands:  1 eigenvalues not converged
     ethr =  2.86E-05,  avg # of iterations =  3.9

     total cpu time spent up to now is     1127.3 secs

     total energy              =   -1788.21295758 Ry
     Harris-Foulkes estimate   =   -1788.21602519 Ry
     estimated scf accuracy    <       0.00471097 Ry

     iteration # 10     ecut=    40.00 Ry     beta=0.70
     CG style diagonalization
     c_bands:  1 eigenvalues not converged
     ethr =  2.62E-06,  avg # of iterations =  5.1

     total cpu time spent up to now is     1145.7 secs

     total energy              =   -1788.21572017 Ry
     Harris-Foulkes estimate   =   -1788.21633601 Ry
     estimated scf accuracy    <       0.00116054 Ry

     iteration # 11     ecut=    40.00 Ry     beta=0.70
     CG style diagonalization
     ethr =  6.45E-07,  avg # of iterations =  3.7

     total cpu time spent up to now is     1157.9 secs

     End of self-consistent calculation

          k = 0.0000 0.0000 0.0000 (  5407 PWs)   bands (ev):

   -61.2799 -61.2724 -61.2543 -61.2503 -25.6172 -25.6088 -25.5963 -25.5950
   -25.5887 -25.5859 -25.5813 -25.5705 -25.4825 -25.4693 -25.4681 -25.4646
    -7.3218  -6.6647  -6.3865  -6.0411  -5.9080  -5.6596  -5.6133  -5.6089
     8.1840   8.7914   9.0986   9.2939   9.5185   9.5444  10.1407  10.1692
    10.5841  10.5995  10.7329  11.0057  11.1532  11.5270  11.7652  11.8692
    11.9372  12.2296  12.3179  12.8308  12.8820  13.2329  13.8589  14.1254
    17.2116  17.4067  17.5568  17.6672  17.7023  17.7441  17.8654  17.9658
    18.0427  18.1400  18.2085  18.4652  18.5811  18.9050  18.9166  18.9597
    19.0604  19.2327  19.2352  19.2648  23.3434  23.3633  25.1309  25.5212
    26.3268  26.7153  27.9975  28.1653  28.8831  29.1313  29.2303  29.2410
    29.2553  29.2764  29.3368  29.4085  30.2313  30.5158  30.6233  31.2430
    31.7421  31.9416  32.9176  32.9774  33.1821  33.3144  33.4351  34.3721
    34.7567  34.8907  34.9782  35.1195  35.1566  35.3248  35.8552  36.0847
    36.1692  36.6687  36.7475  36.9765

          k = 0.0000 0.0000 0.1164 (  5412 PWs)   bands (ev):

   -61.2796 -61.2682 -61.2629 -61.2534 -25.6132 -25.6047 -25.5993 -25.5956
   -25.5918 -25.5897 -25.5802 -25.5760 -25.4845 -25.4763 -25.4731 -25.4603
    -7.2617  -6.8525  -6.2061  -6.0354  -5.9046  -5.6833  -5.6522  -5.6117
     8.2430   8.6854   9.1904   9.3081   9.4637   9.6917   9.9377  10.3360
    10.5796  10.7740  10.8650  10.9939  11.1442  11.3875  11.6116  11.7609
    11.9399  12.3678  12.4656  12.5999  12.8396  12.9826  13.8868  14.0791
    17.2149  17.4207  17.5426  17.6373  17.7178  17.7452  17.8556  18.0517
    18.0733  18.2581  18.3068  18.5479  18.6730  18.8177  18.8580  18.9342
    19.0259  19.1542  19.2382  19.2833  23.5646  23.7311  24.9308  25.3960
    26.5560  27.1677  27.8490  28.4717  28.7858  28.8452  28.8790  29.0643
    29.1913  29.2032  29.6786  29.6840  30.2857  30.6243  30.6622  30.6874
    31.0667  31.5943  31.9118  32.0185  33.7226  33.7861  33.8891  34.1723
    34.1794  34.2230  34.8053  35.1276  35.4870  35.8677  36.2334  36.3629
    36.9254  37.0587  37.1480  37.1844

          k = 0.0000 0.0000-0.2328 (  5394 PWs)   bands (ev):

   -61.2682 -61.2682 -61.2554 -61.2554 -25.6050 -25.6050 -25.5873 -25.5873
   -25.5860 -25.5860 -25.5800 -25.5800 -25.4754 -25.4754 -25.4674 -25.4674
    -7.0930  -7.0930  -6.0475  -6.0475  -5.8321  -5.8321  -5.6321  -5.6321
     8.4272   8.4272   9.3615   9.3615   9.5452   9.5452  10.1287  10.1287
    10.7432  10.7432  11.0303  11.0303  11.1401  11.1401  11.7622  11.7622
    12.0228  12.0228  12.6322  12.6322  12.6837  12.6837  13.9689  13.9689
    17.3420  17.3420  17.4679  17.4679  17.7972  17.7972  17.9409  17.9409
    18.3636  18.3636  18.5182  18.5182  18.7622  18.7622  18.7949  18.7949
    19.0562  19.0562  19.2447  19.2447  24.0200  24.0200  24.9223  24.9223
    27.1798  27.1798  28.2982  28.2982  28.6468  28.6468  28.8968  28.8968
    29.4914  29.4914  29.7047  29.7047  29.8978  29.8978  30.1409  30.1409
    31.2618  31.2618  31.9587  31.9587  33.4039  33.4039  33.7235  33.7235
    34.1272  34.1272  35.3958  35.3958  35.6956  35.6956  36.7969  36.7970
    37.0916  37.0916  37.2176  37.2178

          k = 0.0000 0.2261 0.0000 (  5391 PWs)   bands (ev):

   -61.2750 -61.2662 -61.2641 -61.2420 -25.6086 -25.6026 -25.5958 -25.5942
   -25.5927 -25.5816 -25.5759 -25.5733 -25.4800 -25.4663 -25.4644 -25.4621
    -7.0793  -6.5492  -6.4581  -6.2074  -5.9897  -5.8875  -5.5374  -5.5208
     8.6997   9.3120   9.3786   9.4059   9.6026   9.6368   9.6593   9.8700
    10.2906  10.3869  10.5567  10.8908  11.0956  11.7088  11.8794  12.0148
    12.1727  12.2997  12.3886  12.4792  12.5586  12.7568  13.0073  13.1859
    17.3941  17.5643  17.6732  17.8805  18.0025  18.0634  18.0843  18.2137
    18.2241  18.3023  18.4232  18.5794  18.7519  18.7779  18.9243  19.1266
    19.2451  19.2614  19.3059  19.3128  23.7803  24.7197  25.5760  25.9374
    26.8568  27.0068  27.2002  27.9424  28.0418  28.2806  28.5352  28.8578
    28.8663  29.1227  29.1901  30.2766  30.6348  30.8703  30.8931  31.1562
    31.4691  31.7525  32.1193  32.3103  32.4132  32.7442  32.8324  33.4664
    33.8633  33.9487  34.8478  34.9639  35.3370  35.5840  35.8219  36.0388
    36.6852  36.8383  37.0166  37.1638

          k = 0.0000 0.2261 0.1164 (  5375 PWs)   bands (ev):

   -61.2704 -61.2642 -61.2560 -61.2412 -25.6055 -25.6001 -25.5967 -25.5908
   -25.5892 -25.5809 -25.5720 -25.5694 -25.4757 -25.4664 -25.4571 -25.4535
    -7.0257  -6.6759  -6.4293  -6.2144  -5.9522  -5.7938  -5.5898  -5.5499
     8.7742   9.1756   9.3335   9.5346   9.5455   9.5842   9.8627  10.0471
    10.2914  10.4903  10.5638  10.7596  11.1409  11.7186  11.8090  11.8917
    12.0342  12.1188  12.3016  12.5303  12.5737  12.8061  12.9259  13.1904
    17.4588  17.5953  17.7638  17.8282  18.0436  18.0490  18.1144  18.2004
    18.2102  18.3706  18.4078  18.6302  18.8016  18.8513  18.9370  19.0863
    19.1769  19.2798  19.2838  19.3209  24.0452  24.8307  25.6347  25.9371
    26.7308  27.0478  27.5671  27.8681  27.8864  28.0392  28.5228  28.8795
    28.9395  29.0464  29.1513  30.1287  30.2969  30.6823  30.8008  31.1509
    31.4928  31.5554  31.9373  32.4087  32.6280  32.7326  33.1381  33.4817
    33.9257  33.9895  34.3671  34.5380  34.7951  35.5120  35.8007  36.2892
    36.5244  36.6925  37.0625  37.3209

          k = 0.0000 0.2261-0.2328 (  5402 PWs)   bands (ev):

   -61.2686 -61.2686 -61.2614 -61.2614 -25.6063 -25.6063 -25.5958 -25.5958
   -25.5938 -25.5938 -25.5851 -25.5851 -25.4721 -25.4721 -25.4616 -25.4616
    -6.8776  -6.8776  -6.3317  -6.3317  -5.7822  -5.7822  -5.6269  -5.6269
     8.9520   8.9520   9.4047   9.4047   9.6340   9.6340  10.1259  10.1259
    10.3001  10.3001  10.7450  10.7450  11.3906  11.3906  11.7718  11.7718
    11.8610  11.8610  12.4436  12.4436  12.6871  12.6871  13.0690  13.0690
    17.6612  17.6612  17.6733  17.6733  18.0713  18.0713  18.1611  18.1611
    18.2792  18.2792  18.6486  18.6486  18.8701  18.8701  18.9990  18.9990
    19.1779  19.1779  19.3076  19.3076  24.6410  24.6410  25.7460  25.7460
    26.9372  26.9372  27.5088  27.5088  28.1325  28.1325  28.6162  28.6162
    29.0792  29.0792  29.8620  29.8620  29.8655  29.8655  30.8622  30.8622
    31.5598  31.5598  31.9360  31.9360  32.9420  32.9420  33.0423  33.0423
    33.7388  33.7388  34.9506  34.9507  35.1809  35.1811  35.8569  35.8570
    36.8076  36.8080  36.8088  36.8089

          k =-0.4326 0.0000 0.0000 (  5448 PWs)   bands (ev):

   -61.2827 -61.2827 -61.2727 -61.2727 -25.6233 -25.6233 -25.6193 -25.6193
   -25.5992 -25.5992 -25.5871 -25.5871 -25.4811 -25.4811 -25.4762 -25.4762
    -6.7255  -6.7255  -6.1862  -6.1862  -6.0450  -6.0450  -5.6368  -5.6368
     8.4343   8.4343   9.1051   9.1051   9.3141   9.3141  10.0388  10.0388
    10.0725  10.0725  11.3389  11.3389  11.5669  11.5669  11.9039  11.9039
    12.3242  12.3242  12.8790  12.8790  13.1691  13.1691  13.8363  13.8363
    17.5987  17.5987  17.7963  17.7963  17.9059  17.9059  17.9345  17.9345
    17.9637  17.9637  18.1291  18.1291  18.5023  18.5023  18.6109  18.6109
    18.8671  18.8671  18.9281  18.9281  23.3547  23.3547  25.4328  25.4328
    27.5476  27.5476  28.8493  28.8493  29.0341  29.0341  29.4101  29.4101
    30.3194  30.3194  30.9213  30.9213  31.3238  31.3238  31.6136  31.6136
    31.8268  31.8268  31.9236  31.9236  32.3999  32.3999  32.8877  32.8877
    33.4804  33.4804  34.5242  34.5243  34.7059  34.7059  34.9134  34.9136
    34.9517  34.9517  36.4795  36.4796

          k =-0.4326 0.0000 0.1164 (  5406 PWs)   bands (ev):

   -61.2736 -61.2736 -61.2601 -61.2601 -25.6152 -25.6152 -25.6132 -25.6132
   -25.5885 -25.5885 -25.5797 -25.5797 -25.4730 -25.4730 -25.4619 -25.4619
    -6.7159  -6.7159  -6.2014  -6.2014  -6.0366  -6.0366  -5.6395  -5.6395
     8.4137   8.4137   9.0263   9.0263   9.6352   9.6352   9.8360   9.8360
    10.3954  10.3954  11.1379  11.1379  11.3185  11.3185  11.7635  11.7635
    12.4665  12.4665  12.9406  12.9406  13.1338  13.1338  13.8271  13.8271
    17.5559  17.5559  17.6927  17.6927  17.8319  17.8319  17.9478  17.9478
    18.1295  18.1295  18.3377  18.3377  18.5637  18.5637  18.5917  18.5917
    18.7285  18.7285  18.9830  18.9830  23.5202  23.5202  25.5663  25.5663
    27.7758  27.7758  28.7692  28.7692  29.1517  29.1517  29.4132  29.4132
    30.0113  30.0113  30.3139  30.3139  30.5743  30.5743  30.9654  30.9654
    31.6784  31.6784  32.0842  32.0842  32.3301  32.3301  33.3931  33.3931
    34.2877  34.2878  34.5274  34.5275  34.8855  34.8856  35.2208  35.2209
    35.6136  35.6139  36.7264  36.7265

          k =-0.4326 0.0000-0.2328 (  5404 PWs)   bands (ev):

   -61.2728 -61.2728 -61.2597 -61.2597 -25.6234 -25.6234 -25.6095 -25.6095
   -25.5857 -25.5857 -25.5728 -25.5728 -25.4740 -25.4740 -25.4623 -25.4623
    -6.7061  -6.7061  -6.2171  -6.2171  -6.0294  -6.0294  -5.6426  -5.6426
     8.3872   8.3872   9.0368   9.0368   9.6908   9.6908  10.1898  10.1898
    10.3435  10.3435  10.9829  10.9829  11.1451  11.1451  11.5338  11.5338
    12.5878  12.5878  12.9964  12.9964  13.0938  13.0938  13.8148  13.8148
    17.5427  17.5427  17.5843  17.5843  17.8397  17.8397  17.9525  17.9525
    18.3923  18.3923  18.4083  18.4083  18.4979  18.4979  18.5818  18.5818
    18.6663  18.6663  19.0192  19.0192  23.7155  23.7155  25.6877  25.6877
    28.1754  28.1754  28.6886  28.6886  29.1011  29.1011  29.1115  29.1115
    29.6721  29.6721  30.0225  30.0225  30.1642  30.1642  30.6816  30.6816
    31.6638  31.6638  32.0330  32.0330  32.6584  32.6584  32.6963  32.6963
    34.8600  34.8601  35.0147  35.0148  35.3492  35.3492  35.7493  35.7495
    35.9030  35.9032  36.1213  36.1215

          k =-0.4326 0.2261 0.0000 (  5380 PWs)   bands (ev):

   -61.2633 -61.2633 -61.2563 -61.2563 -25.6098 -25.6098 -25.6020 -25.6020
   -25.5829 -25.5829 -25.5774 -25.5774 -25.4644 -25.4644 -25.4604 -25.4604
    -6.5378  -6.5378  -6.2406  -6.2406  -5.9994  -5.9994  -5.8254  -5.8254
     8.7708   8.7708   8.8900   8.8900   9.3994   9.3994  10.4121  10.4121
    10.4143  10.4143  10.9376  10.9376  11.3663  11.3663  11.5072  11.5072
    12.5000  12.5000  12.5492  12.5492  13.0109  13.0109  13.2145  13.2145
    17.5747  17.5747  17.7899  17.7899  18.1133  18.1133  18.2115  18.2115
    18.2385  18.2385  18.3567  18.3567  18.7017  18.7017  18.7242  18.7242
    18.9038  18.9038  19.1084  19.1084  24.2633  24.2633  25.5140  25.5140
    28.1633  28.1633  28.5460  28.5460  28.5611  28.5611  29.3473  29.3473
    29.7605  29.7605  30.2876  30.2876  30.6746  30.6746  31.1346  31.1346
    31.6274  31.6274  31.9612  31.9612  32.7173  32.7173  32.8113  32.8113
    33.3353  33.3353  33.6862  33.6862  34.0653  34.0653  35.8058  35.8058
    35.9254  35.9256  36.4127  36.4128

          k =-0.4326 0.2261 0.1164 (  5394 PWs)   bands (ev):

   -61.2662 -61.2662 -61.2614 -61.2614 -25.6149 -25.6149 -25.6086 -25.6086
   -25.5843 -25.5843 -25.5787 -25.5787 -25.4675 -25.4675 -25.4625 -25.4625
    -6.5288  -6.5288  -6.2427  -6.2427  -6.0014  -6.0014  -5.8331  -5.8331
     8.8182   8.8182   9.0297   9.0297   9.4998   9.4998   9.9323   9.9323
    10.3785  10.3785  11.0237  11.0237  11.4322  11.4322  11.7403  11.7403
    12.3902  12.3902  12.6321  12.6321  12.8410  12.8410  13.1474  13.1474
    17.5857  17.5857  17.8310  17.8310  17.9553  17.9553  18.1463  18.1463
    18.3998  18.3998  18.4710  18.4710  18.7030  18.7030  18.7723  18.7723
    18.9148  18.9148  19.0968  19.0968  24.4139  24.4139  25.6985  25.6985
    28.1599  28.1599  28.5517  28.5517  28.6368  28.6368  29.1683  29.1683
    29.4651  29.4651  29.7925  29.7925  30.2956  30.2956  31.2616  31.2616
    31.6796  31.6796  31.8300  31.8300  32.6384  32.6383  32.9894  32.9894
    33.5407  33.5407  34.1029  34.1030  34.5459  34.5461  35.0974  35.0974
    36.0215  36.0217  36.2749  36.2750

          k =-0.4326 0.2261-0.2328 (  5428 PWs)   bands (ev):

   -61.2729 -61.2729 -61.2720 -61.2720 -25.6201 -25.6201 -25.6136 -25.6136
   -25.5917 -25.5917 -25.5902 -25.5902 -25.4776 -25.4776 -25.4679 -25.4679
    -6.5196  -6.5196  -6.2455  -6.2455  -6.0027  -6.0027  -5.8416  -5.8416
     8.8628   8.8629   9.2972   9.2972   9.5336   9.5336   9.8442   9.8442
     9.8926   9.8926  11.1358  11.1358  11.5874  11.5874  11.9112  11.9112
    12.3918  12.3918  12.4322  12.4322  12.8280  12.8280  13.0430  13.0430
    17.6569  17.6569  17.7266  17.7266  17.9990  17.9990  18.0497  18.0497
    18.4646  18.4646  18.5682  18.5682  18.7426  18.7426  18.7830  18.7830
    18.9495  18.9495  19.0851  19.0851  24.6009  24.6009  25.9107  25.9107
    28.1170  28.1170  28.3347  28.3347  28.6517  28.6517  28.9238  28.9238
    29.0480  29.0480  30.0615  30.0615  30.3854  30.3854  30.8521  30.8521
    31.5133  31.5133  31.8080  31.8080  32.2366  32.2366  33.5755  33.5755
    33.6874  33.6874  34.0815  34.0816  34.7244  34.7245  35.6337  35.6340
    35.8789  35.8792  36.0186  36.0188

     the Fermi energy is    31.8334 ev

!    total energy              =   -1788.21591141 Ry
     Harris-Foulkes estimate   =   -1788.21594138 Ry
     estimated scf accuracy    <       0.00003400 Ry

     The total energy is the sum of the following terms:

     one-electron contribution =    -112.73694446 Ry
     hartree contribution      =     231.00516848 Ry
     xc contribution           =    -192.12133940 Ry
     ewald contribution        =   -1713.87029040 Ry
     smearing contrib. (-TS)   =      -0.49250563 Ry

     convergence has been achieved in  11 iterations

     Forces acting on atoms (Ry/au):

     atom    1 type  1   force =     0.00000000   -0.04292168   -0.00953150
     atom    2 type  1   force =     0.00000000    0.04292168    0.00953150
     atom    3 type  1   force =     0.00000000   -0.04292168    0.00953150
     atom    4 type  1   force =     0.00000000    0.04292168   -0.00953150
     atom    5 type  1   force =     0.00000000    0.07398485   -0.13357158
     atom    6 type  1   force =     0.00000000   -0.07398485    0.13357158
     atom    7 type  1   force =     0.00000000    0.07398485    0.13357158
     atom    8 type  1   force =     0.00000000   -0.07398485   -0.13357158
     atom    9 type  2   force =     0.00000000   -0.07498728    0.01764449
     atom   10 type  2   force =     0.00000000    0.07498728   -0.01764449
     atom   11 type  2   force =     0.00000000   -0.07498728   -0.01764449
     atom   12 type  2   force =     0.00000000    0.07498728    0.01764449

     Total force =     0.353172     Total SCF correction =     0.000000


     entering subroutine stress ...

          total   stress  (Ry/bohr**3)                   (kbar)     P= 1585.22
   0.01187667   0.00000000   0.00000000       1747.12      0.00      0.00
   0.00000000   0.00991523   0.00000000          0.00   1458.58      0.00
   0.00000000   0.00000000   0.01053652          0.00      0.00   1549.98


     Writing output data file Prototype-La-oP12-Co2Si.save
 
     init_run     :      3.68s CPU      4.74s WALL (       2 calls)
     electrons    :   1011.07s CPU   1139.05s WALL (       5 calls)
     update_pot   :      1.94s CPU      1.96s WALL (       3 calls)
     forces       :      4.12s CPU      4.33s WALL (       5 calls)
     stress       :     11.31s CPU     11.52s WALL (       5 calls)

     Called by init_run:
     wfcinit      :      2.77s CPU      3.74s WALL (       2 calls)
     potinit      :      0.42s CPU      0.43s WALL (       2 calls)

     Called by electrons:
     c_bands      :    987.62s CPU   1107.23s WALL (      63 calls)
     sum_band     :     22.92s CPU     30.44s WALL (      63 calls)
     v_of_rho     :      0.11s CPU      0.12s WALL (      68 calls)
     mix_rho      :      0.14s CPU      0.16s WALL (      63 calls)

     Called by c_bands:
     init_us_2    :      1.71s CPU      2.05s WALL (    1656 calls)
     ccgdiagg     :    904.63s CPU   1002.84s WALL (     867 calls)
     wfcrot       :     84.02s CPU    105.05s WALL (     879 calls)

     Called by *cgdiagg:
     h_psi        :    649.67s CPU    757.13s WALL (  477012 calls)
     cdiaghg      :      4.53s CPU      4.99s WALL (     879 calls)

     Called by h_psi:
     add_vuspsi   :    109.02s CPU    119.01s WALL (  477012 calls)

     General routines
     calbec       :    287.73s CPU    302.27s WALL (  953265 calls)
     fft          :      0.26s CPU      0.29s WALL (     295 calls)
     fftw         :    358.97s CPU    422.32s WALL ( 1223778 calls)
     davcio       :      0.95s CPU      2.77s WALL (    2412 calls)
 
     Parallel routines
     fft_scatter  :    158.67s CPU    188.24s WALL ( 1224073 calls)
 
     PWSCF        : 17m12.48s CPU    19m22.34s WALL

 
   This run was terminated on:   0:56: 8  22Mar2018            

=------------------------------------------------------------------------------=
   JOB DONE.
=------------------------------------------------------------------------------=
