
     Program PWSCF v.5.0.2 starts on 22Mar2018 at  0: 4:51 

     This program is part of the open-source Quantum ESPRESSO suite
     for quantum simulation of materials; please cite
         "P. Giannozzi et al., J. Phys.:Condens. Matter 21 395502 (2009);
          URL http://www.quantum-espresso.org", 
     in publications or presentations arising from this work. More details at
     http://www.quantum-espresso.org/quote.php

     Parallel version (MPI), running on     4 processors
     R & G space division:  proc/nbgrp/npool/nimage =       4

     Current dimensions of program PWSCF are:
     Max number of different atomic species (ntypx) = 10
     Max number of k-points (npk) =  40000
     Max angular momentum in pseudopotentials (lmaxx) =  3
     Waiting for input...
     Reading input from standard input

     Subspace diagonalization in iterative solution of the eigenvalue problem:
     a serial algorithm will be used

 
     Parallelization info
     --------------------
     sticks:   dense  smooth     PW     G-vecs:    dense   smooth      PW
     Min         269     269     78                 9541     9541    1486
     Max         270     270     79                 9544     9544    1487
     Sum        1077    1077    315                38169    38169    5947
 


     bravais-lattice index     =            0
     lattice parameter (alat)  =       8.8008  a.u.
     unit-cell volume          =    1116.9454 (a.u.)^3
     number of atoms/cell      =           16
     number of atomic types    =            2
     number of electrons       =       356.00
     number of Kohn-Sham states=          214
     kinetic-energy cutoff     =      40.0000  Ry
     charge density cutoff     =     160.0000  Ry
     convergence threshold     =      1.0E-04
     mixing beta               =       0.7000
     number of iterations used =            8  plain     mixing
     Exchange-correlation      = SLA-PZ-NOGX-NOGC ( 1 1 0 0 0)
     EXX-fraction              =        0.00
     nstep                     =           50


     celldm(1)=   8.800765  celldm(2)=   0.000000  celldm(3)=   0.000000
     celldm(4)=   0.000000  celldm(5)=   0.000000  celldm(6)=   0.000000

     crystal axes: (cart. coord. in units of alat)
               a(1) = (   1.000000   0.000000   0.000000 )  
               a(2) = (   0.000000   1.083771   0.000000 )  
               a(3) = (   0.000000   0.000000   1.511935 )  

     reciprocal axes: (cart. coord. in units 2 pi/alat)
               b(1) = (  1.000000  0.000000  0.000000 )  
               b(2) = (  0.000000  0.922704  0.000000 )  
               b(3) = (  0.000000  0.000000  0.661404 )  


     PseudoPot. # 1 for Lu read from file:
     /home/cwx6513/pp.La/La.UPF
     MD5 check sum: 4fc038260c66a0bf25fb4835376efb80
     Pseudo is Norm-conserving, Zval = 25.0
     Generated in analytical, separable form
     Using radial grid of 1271 points,  6 beta functions with: 
                l(1) =   0
                l(2) =   0
                l(3) =   1
                l(4) =   1
                l(5) =   2
                l(6) =   3

     PseudoPot. # 2 for Nd read from file:
     /home/cwx6513/pp.La/Nd.UPF
     MD5 check sum: c66c5b6abe7b5840ced9b1e244e3bed6
     Pseudo is Norm-conserving, Zval = 14.0
     Generated in analytical, separable form
     Using radial grid of 1257 points,  6 beta functions with: 
                l(1) =   0
                l(2) =   0
                l(3) =   1
                l(4) =   1
                l(5) =   2
                l(6) =   3

     atomic species   valence    mass     pseudopotential
        Fe            25.00    55.84500     Lu( 1.00)
        C             14.00    12.01070     Nd( 1.00)

      8 Sym. Ops., with inversion, found ( 6 have fractional translation)



   Cartesian axes

     site n.     atom                  positions (alat units)
         1           Fe  tau(   1) = (   0.3472940   0.1827628   1.3947267  )
         2           Fe  tau(   2) = (   0.1527060   0.7246484   0.8731757  )
         3           Fe  tau(   3) = (   0.8472940   0.3591227   0.6387592  )
         4           Fe  tau(   4) = (   0.3396640   0.4879235   0.3779837  )
         5           Fe  tau(   5) = (   0.1527060   0.7246484   1.3947267  )
         6           Fe  tau(   6) = (   0.3472940   0.1827628   0.8731757  )
         7           Fe  tau(   7) = (   0.1603360   1.0298091   0.3779837  )
         8           Fe  tau(   8) = (   0.6527060   0.9010083   0.6387592  )
         9           Fe  tau(   9) = (   0.8472940   0.3591227   0.1172082  )
        10           Fe  tau(  10) = (   0.6603360   0.5958476   1.1339512  )
        11           Fe  tau(  11) = (   0.6527060   0.9010083   0.1172082  )
        12           Fe  tau(  12) = (   0.8396640   0.0539620   1.1339512  )
        13           C   tau(  13) = (   0.0000000   0.0000000   0.0000000  )
        14           C   tau(  14) = (   0.5000000   0.5418856   0.0000000  )
        15           C   tau(  15) = (   0.5000000   0.5418856   0.7559674  )
        16           C   tau(  16) = (   0.0000000   0.0000000   0.7559674  )

     number of k points=    12  gaussian smearing, width (Ry)=  0.1000
                       cart. coord. in units 2pi/alat
        k(    1) = (   0.0000000   0.0000000   0.0000000), wk =   0.0833333
        k(    2) = (   0.0000000   0.0000000   0.1653510), wk =   0.1666667
        k(    3) = (   0.0000000   0.0000000  -0.3307021), wk =   0.0833333
        k(    4) = (   0.0000000   0.3075680   0.0000000), wk =   0.1666667
        k(    5) = (   0.0000000   0.3075680   0.1653510), wk =   0.3333333
        k(    6) = (   0.0000000   0.3075680  -0.3307021), wk =   0.1666667
        k(    7) = (  -0.5000000   0.0000000   0.0000000), wk =   0.0833333
        k(    8) = (  -0.5000000   0.0000000   0.1653510), wk =   0.1666667
        k(    9) = (  -0.5000000   0.0000000  -0.3307021), wk =   0.0833333
        k(   10) = (  -0.5000000   0.3075680   0.0000000), wk =   0.1666667
        k(   11) = (  -0.5000000   0.3075680   0.1653510), wk =   0.3333333
        k(   12) = (  -0.5000000   0.3075680  -0.3307021), wk =   0.1666667

     Dense  grid:    38169 G-vectors     FFT dimensions: (  36,  40,  54)

     Largest allocated arrays     est. size (Mb)     dimensions
        Kohn-Sham Wavefunctions         3.95 Mb     (   1211,  214)
        NL pseudopotentials             5.91 Mb     (   1211,  320)
        Each V/rho on FFT grid          0.31 Mb     (  20160)
        Each G-vector array             0.07 Mb     (   9543)
        G-vector shells                 0.07 Mb     (   9543)
     Largest temporary arrays     est. size (Mb)     dimensions
        Each subspace H/S matrix        0.70 Mb     ( 214, 214)
        Each <psi_i|beta_j> matrix      1.04 Mb     (    320,  214)
        Arrays for rho mixing           2.46 Mb     (  20160,   8)

     Initial potential from superposition of free atoms

     Starting from uniform charge
     Starting wfc are    0 randomized atomic wfcs

     total cpu time spent up to now is        5.7 secs

     Self-consistent Calculation

     iteration #  1     ecut=    40.00 Ry     beta=0.70
     CG style diagonalization
     c_bands:  2 eigenvalues not converged
     c_bands:  2 eigenvalues not converged
     c_bands:  2 eigenvalues not converged
     c_bands:  5 eigenvalues not converged
     c_bands:  3 eigenvalues not converged
     c_bands:  2 eigenvalues not converged
     c_bands:  4 eigenvalues not converged
     c_bands:  3 eigenvalues not converged
     c_bands:  2 eigenvalues not converged
     c_bands:  1 eigenvalues not converged
     ethr =  1.00E-02,  avg # of iterations = 22.5

     total cpu time spent up to now is      291.3 secs

     total energy              =   -5081.48757471 Ry
     Harris-Foulkes estimate   =   -7076.86368224 Ry
     estimated scf accuracy    <    2465.82666432 Ry

     iteration #  2     ecut=    40.00 Ry     beta=0.70
     CG style diagonalization
     c_bands:  2 eigenvalues not converged
     c_bands:  1 eigenvalues not converged
     c_bands:  1 eigenvalues not converged
     c_bands:  1 eigenvalues not converged
     c_bands:  1 eigenvalues not converged
     c_bands:  1 eigenvalues not converged
     ethr =  1.00E-02,  avg # of iterations = 10.0

     total cpu time spent up to now is      415.3 secs

     total energy              =   -5626.39437638 Ry
     Harris-Foulkes estimate   =   -6037.06364279 Ry
     estimated scf accuracy    <     596.98224880 Ry

     iteration #  3     ecut=    40.00 Ry     beta=0.70
     CG style diagonalization
     c_bands:  1 eigenvalues not converged
     ethr =  1.00E-02,  avg # of iterations =  8.6

     total cpu time spent up to now is      521.6 secs

     total energy              =   -5784.20477993 Ry
     Harris-Foulkes estimate   =   -5887.41997696 Ry
     estimated scf accuracy    <     202.78307790 Ry

     iteration #  4     ecut=    40.00 Ry     beta=0.70
     CG style diagonalization
     ethr =  1.00E-02,  avg # of iterations =  5.1

     total cpu time spent up to now is      578.1 secs

     total energy              =   -5833.23711792 Ry
     Harris-Foulkes estimate   =   -5837.00860493 Ry
     estimated scf accuracy    <       6.47792377 Ry

     iteration #  5     ecut=    40.00 Ry     beta=0.70
     CG style diagonalization
     ethr =  1.82E-03,  avg # of iterations =  4.2

     total cpu time spent up to now is      608.0 secs

     total energy              =   -5834.67725872 Ry
     Harris-Foulkes estimate   =   -5835.30926080 Ry
     estimated scf accuracy    <       1.04985039 Ry

     iteration #  6     ecut=    40.00 Ry     beta=0.70
     CG style diagonalization
     c_bands:  1 eigenvalues not converged
     c_bands:  1 eigenvalues not converged
     c_bands:  2 eigenvalues not converged
     ethr =  2.95E-04,  avg # of iterations =  4.3

     total cpu time spent up to now is      638.6 secs

     total energy              =   -5834.97198245 Ry
     Harris-Foulkes estimate   =   -5835.12123675 Ry
     estimated scf accuracy    <       0.30280048 Ry

     iteration #  7     ecut=    40.00 Ry     beta=0.70
     CG style diagonalization
     c_bands:  1 eigenvalues not converged
     c_bands:  1 eigenvalues not converged
     c_bands:  1 eigenvalues not converged
     c_bands:  1 eigenvalues not converged
     ethr =  8.51E-05,  avg # of iterations =  4.0

     total cpu time spent up to now is      665.8 secs

     total energy              =   -5835.04798180 Ry
     Harris-Foulkes estimate   =   -5835.05137988 Ry
     estimated scf accuracy    <       0.00719360 Ry

     iteration #  8     ecut=    40.00 Ry     beta=0.70
     CG style diagonalization
     c_bands:  2 eigenvalues not converged
     c_bands:  2 eigenvalues not converged
     c_bands:  1 eigenvalues not converged
     c_bands:  3 eigenvalues not converged
     c_bands:  2 eigenvalues not converged
     c_bands:  2 eigenvalues not converged
     c_bands:  2 eigenvalues not converged
     c_bands:  2 eigenvalues not converged
     c_bands:  1 eigenvalues not converged
     ethr =  2.02E-06,  avg # of iterations =  5.9

     total cpu time spent up to now is      709.8 secs

     total energy              =   -5835.02039574 Ry
     Harris-Foulkes estimate   =   -5835.04650339 Ry
     estimated scf accuracy    <       0.07337354 Ry

     iteration #  9     ecut=    40.00 Ry     beta=0.70
     CG style diagonalization
     c_bands:  1 eigenvalues not converged
     c_bands:  1 eigenvalues not converged
     ethr =  2.02E-06,  avg # of iterations =  4.5

     total cpu time spent up to now is      743.6 secs

     total energy              =   -5835.02522595 Ry
     Harris-Foulkes estimate   =   -5835.02866573 Ry
     estimated scf accuracy    <       0.00659386 Ry

     iteration # 10     ecut=    40.00 Ry     beta=0.70
     CG style diagonalization
     ethr =  1.85E-06,  avg # of iterations =  3.9

     total cpu time spent up to now is      769.2 secs

     total energy              =   -5835.02676041 Ry
     Harris-Foulkes estimate   =   -5835.02724029 Ry
     estimated scf accuracy    <       0.00181558 Ry

     iteration # 11     ecut=    40.00 Ry     beta=0.70
     CG style diagonalization
     ethr =  5.10E-07,  avg # of iterations =  4.4

     total cpu time spent up to now is      799.1 secs

     End of self-consistent calculation

          k = 0.0000 0.0000 0.0000 (  4785 PWs)   bands (ev):

   -79.9422 -79.9282 -79.9174 -79.8848 -79.8834 -79.8814 -79.8608 -79.8560
   -79.8019 -79.7961 -79.7783 -79.7161 -36.7956 -36.7562 -36.6345 -36.6121
   -36.6025 -36.5855 -36.4801 -36.4624 -36.4533 -36.4468 -36.4391 -36.3676
   -35.5739 -35.5677 -35.5669 -35.5536 -35.4795 -35.4420 -35.4404 -35.4074
   -35.3910 -35.3703 -35.3604 -35.3565 -35.3361 -35.2346 -35.1972 -35.1872
   -35.1606 -35.1549 -35.1096 -35.1054 -35.0751 -35.0722 -35.0001 -34.9914
     0.5107   0.9355   1.3969   1.8537  15.0154  15.1368  15.2715  15.6561
    16.0917  16.1808  17.2832  17.4511  17.7611  18.2350  18.7991  18.8465
    20.8771  20.9274  21.2703  21.4824  21.5946  21.6971  22.1116  22.3078
    22.5476  22.5771  22.6422  22.6780  22.6914  22.7622  22.7819  22.8658
    23.1724  23.2554  23.2898  23.2962  23.6244  23.6357  23.8333  23.9005
    24.0123  24.0806  24.2339  24.2886  24.4003  24.4453  24.4716  24.5370
    24.6009  24.7130  24.8580  24.8584  24.8629  25.0020  25.0305  25.0902
    25.1182  25.1598  25.1768  25.6870  25.8158  25.8490  25.9644  26.4055
    26.5160  27.7494  27.8933  28.3197  28.4298  29.7325  30.1465  30.8876
    31.9677  32.0965  32.5565  32.8850  35.2525  37.5245  39.0026  39.6320
    39.9886  40.0403  40.3467  41.1042  42.2483  42.4162  42.6752  42.9377
    45.5777  45.5802  45.7197  45.7667  46.0370  46.6150  47.6100  47.7451
    48.5007  49.2875  49.4904  49.5098  50.2404  50.6364  50.8534  50.9843
    51.1526  51.3232  51.3354  51.6791  52.1099  52.3250  52.9421  53.3160
    53.4356  53.5304  53.8004  54.0642  54.3837  54.5947  54.7060  54.9986
    55.8392  56.0214  56.0833  56.2849  57.0158  57.3372  57.4084  57.9324
    58.3637  58.6910  58.8347  59.0064  59.1431  59.6890  59.7841  59.8498
    60.3851  60.4570  60.7961  60.8413  61.0370  61.0759  61.0889  61.3316
    61.3466  61.3865  62.4647  62.5706  62.6323  62.6696  62.7239  63.1657
    63.3365  63.6941  64.0164  64.0266  64.1627  64.2444  64.4231  64.4779
    65.1058  65.2049  65.9084  66.0286  66.3078  66.3437

          k = 0.0000 0.0000 0.1654 (  4759 PWs)   bands (ev):

   -79.9306 -79.9181 -79.9075 -79.8595 -79.8538 -79.8388 -79.8340 -79.8206
   -79.8038 -79.7633 -79.7331 -79.6757 -36.7908 -36.7594 -36.6284 -36.6147
   -36.5959 -36.5819 -36.4707 -36.4588 -36.4439 -36.4437 -36.4281 -36.3686
   -35.5655 -35.5554 -35.5479 -35.5462 -35.4793 -35.4527 -35.4335 -35.4089
   -35.3813 -35.3617 -35.3500 -35.3458 -35.3303 -35.2431 -35.2254 -35.1967
   -35.1286 -35.1231 -35.1052 -35.1048 -35.0780 -35.0771 -34.9884 -34.9856
     0.5714   0.8700   1.4610   1.7831  15.0446  15.1477  15.4348  15.6668
    16.2508  16.3200  17.2350  17.2574  17.7385  18.1966  18.3280  18.6476
    20.8805  20.9198  21.5121  21.6566  21.6711  21.7502  22.1267  22.3100
    22.3960  22.5310  22.5771  22.7322  22.7606  22.8105  22.8120  22.8523
    23.0100  23.2717  23.3094  23.5789  23.6131  23.6519  23.8751  23.9420
    24.0665  24.0840  24.0972  24.1626  24.3858  24.4059  24.4673  24.4694
    24.6361  24.6805  24.7960  24.8199  24.8772  24.9910  25.0991  25.1303
    25.2716  25.3111  25.3769  25.5485  25.6936  25.7889  25.8917  26.1553
    26.9275  27.9456  28.0898  28.1012  28.5014  29.8562  30.1692  30.4606
    31.8110  32.1265  32.3018  32.5910  35.6460  37.7616  37.8411  39.4028
    40.3352  40.4885  41.3740  41.6547  42.1334  42.6110  42.9109  43.2447
    44.0678  45.8086  45.8914  46.0214  46.3085  47.3544  47.6451  47.8442
    47.9700  48.6967  48.7759  49.1030  49.3960  50.0038  50.3919  50.6555
    50.7994  51.6612  51.7250  52.2536  52.3670  52.6195  52.6219  52.7348
    53.2333  53.4586  53.4808  53.8202  54.1962  55.4304  55.8363  55.9241
    55.9785  55.9941  56.3812  57.2997  57.3026  57.3050  57.3921  57.6039
    57.7682  58.3015  59.0459  59.1446  59.2790  59.5568  59.8876  60.2006
    60.2382  60.5117  60.5269  60.6641  60.9239  61.1147  61.1440  61.5445
    61.7499  62.0738  62.2780  62.2969  62.3215  62.6629  62.9540  63.2518
    63.2744  63.5155  63.8574  63.9778  64.1287  64.2210  64.5218  64.7890
    64.9665  65.4974  65.6942  65.8752  66.2002  66.2292

          k = 0.0000 0.0000-0.3307 (  4758 PWs)   bands (ev):

   -79.9414 -79.9414 -79.9262 -79.9262 -79.8212 -79.8212 -79.8119 -79.8119
   -79.7711 -79.7711 -79.6987 -79.6987 -36.7789 -36.7789 -36.6172 -36.6172
   -36.5890 -36.5890 -36.4667 -36.4667 -36.4422 -36.4422 -36.3978 -36.3978
   -35.5674 -35.5674 -35.5426 -35.5426 -35.4657 -35.4657 -35.4223 -35.4223
   -35.3687 -35.3687 -35.3439 -35.3439 -35.2996 -35.2996 -35.2185 -35.2185
   -35.1105 -35.1105 -35.1003 -35.1003 -35.0818 -35.0818 -34.9856 -34.9856
     0.7177   0.7177   1.6181   1.6181  15.1121  15.1121  15.6408  15.6408
    16.6401  16.6401  16.9154  16.9154  17.7749  17.7749  18.3556  18.3556
    20.8945  20.8945  21.5951  21.5951  21.8468  21.8468  22.2873  22.2873
    22.5734  22.5734  22.6113  22.6113  22.6976  22.6976  22.8234  22.8234
    23.2243  23.2243  23.3326  23.3326  23.7532  23.7532  23.7823  23.7823
    24.0097  24.0097  24.2448  24.2448  24.4332  24.4332  24.4687  24.4687
    24.5872  24.5872  24.8254  24.8254  24.9680  24.9680  25.2433  25.2433
    25.4212  25.4212  25.4334  25.4334  25.4912  25.4912  25.9853  25.9853
    27.5206  27.5206  28.0944  28.0944  29.4060  29.4060  30.1050  30.1050
    31.8402  31.8402  32.2632  32.2632  36.5531  36.5531  38.4308  38.4308
    41.4381  41.4381  41.7858  41.7858  42.1232  42.1232  43.2907  43.2907
    44.7006  44.7006  45.8876  45.8876  46.7571  46.7571  47.7163  47.7163
    48.5432  48.5432  48.9811  48.9811  49.1722  49.1722  49.3901  49.3901
    51.4903  51.4903  52.1529  52.1529  52.5244  52.5244  52.9046  52.9046
    53.1273  53.1273  53.4230  53.4230  54.3740  54.3740  56.2612  56.2612
    56.5769  56.5769  56.9163  56.9163  57.7428  57.7428  57.7755  57.7755
    58.1848  58.1848  59.0675  59.0675  59.6700  59.6700  60.0762  60.0762
    60.3674  60.3674  60.6416  60.6416  61.2678  61.2678  61.3969  61.3968
    61.6623  61.6623  61.9028  61.9028  62.2206  62.2206  63.0200  63.0200
    63.4749  63.4749  63.6254  63.6254  64.4990  64.4990  64.6897  64.6897
    65.1381  65.1381  65.1765  65.1766  66.6363  66.6374

          k = 0.0000 0.3076 0.0000 (  4761 PWs)   bands (ev):

   -79.9328 -79.9252 -79.8764 -79.8663 -79.8648 -79.8470 -79.8362 -79.8124
   -79.8033 -79.7730 -79.7381 -79.6892 -36.7526 -36.7089 -36.6514 -36.6327
   -36.5915 -36.5760 -36.5042 -36.4981 -36.4479 -36.4440 -36.4168 -36.3691
   -35.5706 -35.5609 -35.5547 -35.5436 -35.4623 -35.4427 -35.4353 -35.4141
   -35.3778 -35.3681 -35.3552 -35.3547 -35.3207 -35.2656 -35.1931 -35.1887
   -35.1527 -35.1471 -35.0782 -35.0734 -35.0685 -35.0657 -35.0194 -35.0109
     0.7219   1.1526   1.1640   1.6101  15.5249  15.5495  15.5748  16.1244
    16.1279  16.4177  16.8860  16.9805  17.2242  17.3937  17.8147  18.2915
    21.4260  21.6262  21.7656  21.8279  22.0602  22.0734  22.0957  22.2538
    22.4464  22.4633  22.5322  22.5486  22.8036  22.8391  22.8508  23.0241
    23.1894  23.2792  23.3344  23.3468  23.5954  23.7306  23.7422  23.7608
    23.8159  23.8421  23.9786  24.0766  24.2204  24.3164  24.3504  24.3598
    24.4533  24.5597  24.8658  24.9320  24.9879  25.0203  25.0493  25.2435
    25.2552  25.3383  25.4416  25.6033  25.6960  25.8056  26.1283  26.2076
    27.5712  27.9567  28.4421  28.7676  29.1415  29.2256  30.0312  30.7265
    30.7522  31.2374  31.2977  31.6347  36.4798  38.0062  39.4260  39.6587
    40.4382  40.5090  41.1176  41.1674  42.9824  43.0212  43.4694  44.1639
    45.2769  45.3968  45.6749  45.9669  46.1283  46.7520  47.5203  47.5280
    47.7464  48.1126  48.9226  49.1627  49.3523  49.5907  49.7512  50.0911
    50.1816  50.2723  51.2793  51.6528  51.8828  52.0547  52.3239  52.7764
    52.9505  53.2035  53.4549  54.5881  54.6884  54.9114  54.9658  55.9325
    56.2498  56.5129  56.6049  56.7442  56.7946  57.1506  57.6154  57.6338
    57.7562  58.6587  59.2989  59.6757  59.6908  59.8164  60.0334  60.1717
    60.7518  60.8904  60.9158  61.2332  61.2646  61.6401  61.8391  61.8407
    61.9436  62.1975  62.5548  62.8893  63.0852  63.1800  63.3119  63.5469
    63.7528  63.8180  64.1419  64.2824  64.3641  64.4516  64.7849  65.0467
    65.1099  65.2676  65.7769  65.9176  66.1558  66.3689

          k = 0.0000 0.3076 0.1654 (  4779 PWs)   bands (ev):

   -79.9473 -79.9424 -79.9073 -79.8962 -79.8924 -79.8609 -79.8476 -79.8245
   -79.8016 -79.7705 -79.7626 -79.7611 -36.7499 -36.7207 -36.6513 -36.6408
   -36.5995 -36.5778 -36.5087 -36.4994 -36.4503 -36.4327 -36.4185 -36.3858
   -35.5679 -35.5620 -35.5584 -35.5429 -35.4651 -35.4466 -35.4444 -35.4270
   -35.3723 -35.3616 -35.3593 -35.3521 -35.3185 -35.2620 -35.2394 -35.2159
   -35.1317 -35.1308 -35.0899 -35.0786 -35.0783 -35.0646 -35.0185 -35.0167
     0.7811   1.0857   1.2255   1.5409  15.5862  15.6673  15.7553  16.1422
    16.2578  16.4255  16.9506  17.0026  17.1883  17.3100  17.4398  17.8384
    21.6036  21.6433  21.8046  21.8453  21.9645  22.1187  22.2350  22.2791
    22.3081  22.4716  22.5318  22.5502  22.7452  22.7719  22.8542  22.9944
    23.2502  23.2991  23.3510  23.5013  23.6467  23.6540  23.7401  23.8348
    23.8630  23.9045  23.9677  24.1220  24.1230  24.2773  24.3068  24.4125
    24.5121  24.6716  24.7458  24.8705  24.8925  25.0954  25.1487  25.1552
    25.3392  25.4490  25.5165  25.6035  25.6422  25.7286  25.9203  26.0141
    27.8822  28.3472  28.5972  28.8170  29.1674  29.3926  29.9041  30.4089
    30.7054  30.8968  31.1036  31.2390  36.8166  38.1901  38.6267  39.2193
    41.0371  41.2927  41.6294  41.7511  43.0571  43.3563  43.4062  44.1491
    44.4869  45.1087  45.5053  46.0415  46.8417  46.9614  47.1726  47.3525
    47.6656  48.1833  48.2910  48.7190  48.7495  48.8432  49.5250  50.2814
    50.4597  50.5323  51.1832  51.2084  51.6024  51.7355  52.3081  52.9474
    53.4203  53.7631  53.7820  54.2085  54.9424  55.0734  55.4328  55.6422
    56.0883  56.5429  56.5627  56.8667  57.1195  57.3107  57.5711  57.6535
    57.9878  59.0975  59.2987  59.4756  59.7316  59.8552  59.8759  60.0278
    60.5632  60.6819  60.8493  61.0865  61.3795  61.8448  62.0146  62.0687
    62.4829  62.5071  62.5104  62.8094  62.8516  62.8742  63.2004  63.3945
    63.6693  63.7298  63.7782  63.9848  64.2817  64.5964  64.8268  64.9966
    65.0578  65.1744  65.5283  65.5609  66.1658  66.2089

          k = 0.0000 0.3076-0.3307 (  4780 PWs)   bands (ev):

   -79.9408 -79.9408 -79.9233 -79.9233 -79.8633 -79.8633 -79.8250 -79.8250
   -79.7916 -79.7916 -79.7688 -79.7688 -36.7384 -36.7384 -36.6449 -36.6449
   -36.5837 -36.5837 -36.5076 -36.5076 -36.4317 -36.4317 -36.4115 -36.4115
   -35.5583 -35.5583 -35.5500 -35.5500 -35.4605 -35.4605 -35.4389 -35.4389
   -35.3602 -35.3602 -35.3482 -35.3482 -35.2873 -35.2873 -35.2479 -35.2479
   -35.1062 -35.1062 -35.1041 -35.1041 -35.0747 -35.0747 -35.0188 -35.0188
     0.9309   0.9309   1.3799   1.3799  15.6681  15.6681  16.1095  16.1095
    16.7066  16.7066  16.8195  16.8195  17.1316  17.1316  17.1997  17.1997
    21.6514  21.6514  21.8091  21.8091  22.1245  22.1245  22.2291  22.2291
    22.4926  22.4926  22.5664  22.5664  22.7428  22.7428  22.7498  22.7498
    23.4312  23.4312  23.4455  23.4455  23.6721  23.6721  23.7078  23.7078
    23.9397  23.9397  24.1352  24.1352  24.1468  24.1468  24.3521  24.3521
    24.6256  24.6256  24.6862  24.6862  25.1285  25.1285  25.2046  25.2046
    25.4660  25.4660  25.4903  25.4903  25.6670  25.6670  25.7575  25.7575
    28.5889  28.5889  28.7103  28.7103  29.4897  29.4897  29.8503  29.8503
    30.6540  30.6540  30.7790  30.7790  37.5937  37.5937  38.6760  38.6760
    41.8054  41.8054  42.2391  42.2391  43.3197  43.3197  43.5885  43.5885
    44.9736  44.9736  45.5057  45.5057  46.2863  46.2863  47.2188  47.2188
    47.7901  47.7901  47.9499  47.9499  49.2865  49.2864  49.6048  49.6048
    50.6300  50.6300  51.0356  51.0356  51.9910  51.9910  52.4950  52.4950
    52.7779  52.7779  54.4309  54.4309  55.4949  55.4949  55.6558  55.6558
    56.2818  56.2818  56.3053  56.3053  57.4750  57.4750  57.9224  57.9224
    59.0612  59.0612  59.0841  59.0841  59.7790  59.7790  60.0468  60.0468
    60.7351  60.7351  60.7467  60.7467  61.9330  61.9330  62.1949  62.1949
    62.4898  62.4898  62.5020  62.5020  62.7737  62.7736  63.1834  63.1834
    63.7600  63.7601  63.8228  63.8228  64.0517  64.0518  64.7284  64.7284
    65.2882  65.2882  65.3433  65.3434  66.2037  66.2038

          k =-0.5000 0.0000 0.0000 (  4798 PWs)   bands (ev):

   -79.9880 -79.9880 -79.9128 -79.9128 -79.8887 -79.8887 -79.8651 -79.8651
   -79.7791 -79.7791 -79.7701 -79.7701 -36.7360 -36.7360 -36.7001 -36.7001
   -36.5393 -36.5393 -36.5303 -36.5303 -36.4527 -36.4527 -36.3841 -36.3841
   -35.5831 -35.5831 -35.5497 -35.5497 -35.4552 -35.4552 -35.4266 -35.4266
   -35.3592 -35.3592 -35.3463 -35.3463 -35.3242 -35.3242 -35.1964 -35.1964
   -35.1772 -35.1772 -35.1085 -35.1085 -35.0708 -35.0708 -34.9981 -34.9981
     0.9473   0.9473   1.3694   1.3694  15.6654  15.6654  16.3426  16.3426
    16.3782  16.3782  16.5086  16.5086  16.9203  16.9203  17.9968  17.9968
    21.4873  21.4873  21.8811  21.8811  21.9198  21.9198  22.2060  22.2060
    22.4439  22.4439  22.4985  22.4985  22.8309  22.8309  22.8963  22.8963
    23.1233  23.1233  23.4507  23.4507  23.6706  23.6706  23.7845  23.7845
    24.0356  24.0356  24.0546  24.0546  24.1859  24.1859  24.3734  24.3734
    24.5721  24.5721  24.8747  24.8747  25.0566  25.0566  25.1528  25.1528
    25.1603  25.1603  25.5011  25.5011  25.8259  25.8259  26.3067  26.3067
    28.2669  28.2669  28.4723  28.4723  28.9738  28.9738  30.2118  30.2118
    30.3414  30.3414  31.2377  31.2377  37.8413  37.8413  39.5144  39.5144
    41.2372  41.2372  41.2906  41.2906  43.0133  43.0133  44.4877  44.4877
    45.3787  45.3787  45.3824  45.3824  46.4059  46.4059  47.6209  47.6209
    47.9336  47.9336  48.1942  48.1942  49.3685  49.3685  50.4656  50.4656
    50.4787  50.4787  51.2943  51.2943  51.8093  51.8093  52.5855  52.5855
    54.0240  54.0240  54.1297  54.1297  55.0092  55.0092  55.2245  55.2245
    56.1939  56.1939  57.0300  57.0300  57.1999  57.1999  57.9247  57.9247
    58.5402  58.5402  58.9884  58.9884  59.2636  59.2636  59.6978  59.6978
    60.2112  60.2112  60.7023  60.7023  61.0937  61.0938  61.2477  61.2477
    61.7156  61.7156  61.9826  61.9826  62.5509  62.5509  62.6585  62.6585
    63.8573  63.8573  64.0571  64.0571  64.0737  64.0737  64.7097  64.7097
    64.8674  64.8674  65.5129  65.5129  65.6101  65.6102

          k =-0.5000 0.0000 0.1654 (  4784 PWs)   bands (ev):

   -79.9811 -79.9811 -79.9170 -79.9170 -79.8614 -79.8614 -79.8319 -79.8319
   -79.7960 -79.7960 -79.7368 -79.7368 -36.7301 -36.7301 -36.7045 -36.7045
   -36.5452 -36.5452 -36.5236 -36.5236 -36.4348 -36.4348 -36.3883 -36.3883
   -35.5631 -35.5631 -35.5510 -35.5510 -35.4561 -35.4561 -35.4243 -35.4243
   -35.3585 -35.3585 -35.3498 -35.3498 -35.3136 -35.3136 -35.2218 -35.2218
   -35.1515 -35.1515 -35.1021 -35.1021 -35.0757 -35.0757 -34.9951 -34.9951
     1.0062   1.0062   1.3048   1.3048  15.9135  15.9135  16.3754  16.3754
    16.4322  16.4322  16.4944  16.4944  16.8401  16.8401  17.5912  17.5912
    21.7008  21.7008  21.8586  21.8586  22.0052  22.0052  22.1570  22.1570
    22.2935  22.2935  22.5561  22.5561  22.8079  22.8079  22.9235  22.9235
    23.1168  23.1168  23.4416  23.4416  23.6850  23.6850  23.8607  23.8607
    24.0282  24.0282  24.0779  24.0779  24.2207  24.2207  24.4256  24.4256
    24.4798  24.4798  24.7567  24.7567  25.0385  25.0385  25.0879  25.0879
    25.3116  25.3116  25.5852  25.5852  25.8531  25.8531  26.1342  26.1342
    28.5892  28.5892  28.6928  28.6928  29.1475  29.1475  29.9574  29.9574
    30.1190  30.1190  30.8529  30.8529  38.0087  38.0087  39.1555  39.1555
    41.5426  41.5426  42.0598  42.0598  43.2308  43.2308  44.4514  44.4514
    45.2933  45.2933  45.3506  45.3506  46.0233  46.0233  46.8515  46.8515
    47.5735  47.5735  48.5464  48.5465  50.0100  50.0100  50.0293  50.0293
    50.8406  50.8406  51.3051  51.3051  51.4561  51.4561  52.5013  52.5013
    53.7812  53.7812  54.2547  54.2547  54.6876  54.6876  55.6696  55.6696
    55.9858  55.9858  57.0643  57.0643  57.6611  57.6611  57.9148  57.9148
    58.4777  58.4777  58.8046  58.8046  59.1850  59.1850  59.7923  59.7923
    60.1552  60.1552  60.6289  60.6289  61.0591  61.0592  61.3347  61.3347
    61.8777  61.8777  62.0594  62.0594  62.9691  62.9690  63.0546  63.0546
    63.3157  63.3156  63.8420  63.8420  64.4439  64.4439  64.7410  64.7410
    64.8546  64.8545  65.6577  65.6577  66.1158  66.1158

          k =-0.5000 0.0000-0.3307 (  4788 PWs)   bands (ev):

   -80.0075 -80.0075 -79.9456 -79.9456 -79.8879 -79.8879 -79.8130 -79.8130
   -79.7822 -79.7822 -79.7200 -79.7200 -36.7292 -36.7292 -36.7051 -36.7051
   -36.5529 -36.5529 -36.5161 -36.5161 -36.4138 -36.4138 -36.4120 -36.4120
   -35.5607 -35.5607 -35.5440 -35.5440 -35.4557 -35.4557 -35.4287 -35.4287
   -35.3613 -35.3613 -35.3537 -35.3537 -35.2971 -35.2971 -35.2513 -35.2513
   -35.1407 -35.1407 -35.0976 -35.0976 -35.0884 -35.0884 -34.9908 -34.9908
     1.1498   1.1498   1.1563   1.1563  16.3393  16.3393  16.4079  16.4079
    16.4227  16.4227  16.6163  16.6163  16.7596  16.7596  16.9481  16.9481
    21.8652  21.8652  21.9463  21.9463  22.0144  22.0144  22.1271  22.1271
    22.1771  22.1771  22.6239  22.6239  22.8343  22.8343  22.8742  22.8742
    23.0744  23.0744  23.3976  23.3976  23.5912  23.5912  23.9613  23.9613
    24.0153  24.0153  24.1945  24.1945  24.3192  24.3192  24.4643  24.4643
    24.5349  24.5349  24.5731  24.5731  24.9588  24.9588  25.0489  25.0489
    25.4869  25.4869  25.6486  25.6486  25.8533  25.8533  25.9058  25.9058
    29.1069  29.1069  29.1350  29.1350  29.3786  29.3786  29.5484  29.5484
    29.7178  29.7178  30.3410  30.3410  38.1926  38.1926  38.8498  38.8498
    42.2046  42.2046  42.7425  42.7425  43.4030  43.4030  43.9682  43.9682
    44.6259  44.6259  45.6930  45.6930  46.1688  46.1688  46.6830  46.6830
    47.3340  47.3340  47.6741  47.6741  50.5078  50.5078  50.6337  50.6337
    50.7415  50.7415  50.8788  50.8788  51.4708  51.4708  52.6889  52.6889
    53.5636  53.5636  53.7149  53.7149  54.8963  54.8963  55.5814  55.5814
    55.8453  55.8453  56.8938  56.8938  57.7897  57.7897  58.6519  58.6519
    58.6532  58.6532  58.8239  58.8239  58.9677  58.9677  59.8902  59.8902
    60.3724  60.3724  60.6482  60.6482  60.7568  60.7568  61.3746  61.3746
    61.8154  61.8154  62.0004  62.0004  62.2046  62.2046  63.1036  63.1036
    63.8545  63.8546  64.1925  64.1925  64.3432  64.3432  65.1609  65.1609
    65.3412  65.3411  65.4935  65.4935  65.9643  65.9681

          k =-0.5000 0.3076 0.0000 (  4776 PWs)   bands (ev):

   -79.9561 -79.9561 -79.8909 -79.8909 -79.8797 -79.8797 -79.8065 -79.8065
   -79.7933 -79.7933 -79.7399 -79.7399 -36.7041 -36.7041 -36.6590 -36.6590
   -36.5715 -36.5715 -36.5583 -36.5583 -36.4498 -36.4498 -36.3703 -36.3703
   -35.5660 -35.5660 -35.5530 -35.5530 -35.4604 -35.4604 -35.4149 -35.4149
   -35.3574 -35.3574 -35.3456 -35.3456 -35.3177 -35.3177 -35.2003 -35.2003
   -35.1702 -35.1702 -35.0795 -35.0795 -35.0670 -35.0670 -35.0158 -35.0158
     0.9540   0.9540   1.3783   1.3783  15.5451  15.5451  15.6378  15.6378
    16.0541  16.0541  17.0205  17.0205  17.6931  17.6931  18.2282  18.2282
    21.0129  21.0129  21.7712  21.7712  21.9007  21.9007  22.0885  22.0885
    22.5605  22.5605  22.5806  22.5806  22.8973  22.8973  23.1186  23.1186
    23.1824  23.1824  23.4523  23.4523  23.4859  23.4859  23.8140  23.8140
    23.8220  23.8220  24.1396  24.1396  24.2563  24.2563  24.4404  24.4404
    24.6905  24.6905  24.9667  24.9667  25.1048  25.1048  25.2935  25.2935
    25.3367  25.3367  25.6682  25.6682  25.8188  25.8188  26.0533  26.0533
    27.5410  27.5410  27.9134  27.9134  28.4348  28.4348  30.4485  30.4485
    31.2757  31.2757  31.5878  31.5878  37.9169  37.9169  39.4378  39.4378
    41.0209  41.0209  42.2571  42.2571  42.4888  42.4888  44.2218  44.2218
    44.4870  44.4870  45.8211  45.8211  46.2736  46.2736  47.6939  47.6939
    47.8866  47.8866  49.1179  49.1179  49.1528  49.1528  49.2959  49.2959
    50.2669  50.2669  51.9565  51.9565  52.2181  52.2181  53.1597  53.1597
    53.8642  53.8642  53.9284  53.9284  54.4778  54.4778  55.3718  55.3718
    55.7557  55.7557  57.2853  57.2853  57.5673  57.5673  57.8229  57.8229
    58.2753  58.2753  58.4065  58.4065  59.5612  59.5612  59.6366  59.6366
    60.4489  60.4489  60.8283  60.8283  61.1774  61.1774  61.8254  61.8254
    61.9161  61.9161  62.3040  62.3040  62.8857  62.8857  62.9785  62.9785
    63.0488  63.0488  63.6144  63.6144  64.2696  64.2696  64.7750  64.7750
    65.3025  65.3025  65.3054  65.3053  65.7531  65.7532

          k =-0.5000 0.3076 0.1654 (  4784 PWs)   bands (ev):

   -79.9441 -79.9441 -79.9124 -79.9124 -79.8819 -79.8819 -79.8350 -79.8350
   -79.7878 -79.7878 -79.7518 -79.7518 -36.7003 -36.7003 -36.6643 -36.6643
   -36.5741 -36.5741 -36.5638 -36.5638 -36.4350 -36.4350 -36.3849 -36.3849
   -35.5651 -35.5651 -35.5516 -35.5516 -35.4612 -35.4612 -35.4303 -35.4303
   -35.3535 -35.3535 -35.3512 -35.3512 -35.3030 -35.3030 -35.2302 -35.2302
   -35.1457 -35.1457 -35.0899 -35.0899 -35.0658 -35.0658 -35.0175 -35.0175
     1.0134   1.0134   1.3126   1.3126  15.6640  15.6640  15.6975  15.6975
    16.1297  16.1297  17.0004  17.0004  17.6171  17.6171  17.8635  17.8635
    21.2686  21.2686  21.7976  21.7976  21.9601  21.9601  22.0602  22.0602
    22.3191  22.3191  22.6217  22.6217  22.9570  22.9570  23.0080  23.0080
    23.1699  23.1699  23.4507  23.4507  23.6485  23.6485  23.8041  23.8041
    23.9430  23.9430  24.0424  24.0424  24.3147  24.3147  24.4487  24.4487
    24.6803  24.6803  24.8898  24.8898  25.1708  25.1708  25.2281  25.2281
    25.4050  25.4050  25.5662  25.5662  25.8095  25.8095  25.9668  25.9668
    27.7571  27.7571  27.9926  27.9926  28.7339  28.7339  30.3150  30.3150
    31.0924  31.0924  31.1694  31.1694  38.2843  38.2843  39.4326  39.4326
    41.1163  41.1163  42.0115  42.0115  42.9167  42.9167  43.9477  43.9477
    44.8657  44.8657  45.5305  45.5305  46.6873  46.6873  47.1918  47.1918
    47.7625  47.7625  48.7094  48.7094  49.1598  49.1598  49.9845  49.9846
    50.1267  50.1267  51.4706  51.4706  52.2183  52.2183  52.4948  52.4948
    54.0829  54.0829  54.4890  54.4890  54.7449  54.7449  55.2175  55.2175
    55.9661  55.9661  56.6352  56.6352  57.1448  57.1448  57.6883  57.6883
    58.4070  58.4070  58.7882  58.7882  59.6196  59.6196  60.0895  60.0895
    60.3713  60.3713  60.9256  60.9256  61.2538  61.2538  61.6827  61.6827
    61.9405  61.9405  62.4089  62.4089  62.8132  62.8132  63.0490  63.0490
    63.3993  63.3993  64.0442  64.0442  64.2347  64.2347  64.4722  64.4722
    64.8474  64.8474  65.3880  65.3883  65.6168  65.6172

          k =-0.5000 0.3076-0.3307 (  4752 PWs)   bands (ev):

   -79.9070 -79.9070 -79.8977 -79.8977 -79.8380 -79.8380 -79.7893 -79.7893
   -79.7655 -79.7655 -79.7157 -79.7157 -36.6846 -36.6846 -36.6763 -36.6763
   -36.5673 -36.5673 -36.5605 -36.5605 -36.4014 -36.4014 -36.3962 -36.3962
   -35.5523 -35.5523 -35.5419 -35.5419 -35.4516 -35.4516 -35.4378 -35.4378
   -35.3474 -35.3474 -35.3457 -35.3457 -35.2755 -35.2755 -35.2516 -35.2516
   -35.1214 -35.1214 -35.0984 -35.0984 -35.0597 -35.0597 -35.0093 -35.0093
     1.1589   1.1589   1.1624   1.1624  15.7411  15.7411  15.7416  15.7416
    16.5739  16.5739  16.6715  16.6715  17.5036  17.5036  17.5734  17.5734
    21.6461  21.6461  21.6568  21.6568  22.0497  22.0497  22.0958  22.0958
    22.1144  22.1144  22.6065  22.6065  22.8490  22.8490  23.0383  23.0383
    23.1365  23.1365  23.6007  23.6007  23.6903  23.6903  23.8457  23.8457
    23.8872  23.8872  24.0978  24.0978  24.3341  24.3341  24.4060  24.4060
    24.7515  24.7515  24.8973  24.8973  25.1099  25.1099  25.1662  25.1662
    25.4203  25.4203  25.5481  25.5481  25.8023  25.8023  25.8689  25.8689
    28.0182  28.0182  28.0302  28.0302  29.3571  29.3571  29.8318  29.8318
    30.7893  30.7893  30.9194  30.9194  38.8969  38.8969  39.0852  39.0852
    41.5109  41.5109  41.7204  41.7204  43.2278  43.2278  44.1566  44.1566
    44.4425  44.4425  45.6480  45.6480  46.8264  46.8264  46.8565  46.8565
    47.8059  47.8059  48.6634  48.6634  49.1171  49.1171  49.8906  49.8906
    50.2826  50.2826  51.2219  51.2219  52.0091  52.0091  52.5577  52.5577
    53.6673  53.6673  54.1458  54.1458  54.9964  54.9964  55.9330  55.9330
    56.0954  56.0954  56.1607  56.1607  57.0057  57.0057  57.8778  57.8778
    58.7027  58.7027  58.8525  58.8525  59.8131  59.8131  59.9277  59.9277
    60.5854  60.5854  60.8272  60.8272  61.4001  61.4002  61.6660  61.6660
    61.7264  61.7264  62.4199  62.4199  62.8597  62.8597  63.1492  63.1492
    63.6377  63.6377  63.9335  63.9335  64.1399  64.1399  64.6760  64.6760
    64.7944  64.7945  65.4337  65.4338  65.5575  65.5576

     the Fermi energy is    58.6836 ev

!    total energy              =   -5835.02716420 Ry
     Harris-Foulkes estimate   =   -5835.02720469 Ry
     estimated scf accuracy    <       0.00004903 Ry

     The total energy is the sum of the following terms:

     one-electron contribution =    -581.23883932 Ry
     hartree contribution      =     772.64608817 Ry
     xc contribution           =    -495.20125543 Ry
     ewald contribution        =   -5530.73745294 Ry
     smearing contrib. (-TS)   =      -0.49570469 Ry

     convergence has been achieved in  11 iterations

     Forces acting on atoms (Ry/au):

     atom    1 type  1   force =     1.01242722   -1.11518324   -1.43857325
     atom    2 type  1   force =    -1.01242722   -1.11518324    1.43857325
     atom    3 type  1   force =     1.01242722    1.11518324   -1.43857325
     atom    4 type  1   force =    -1.77192533   -0.65214192    0.00000000
     atom    5 type  1   force =    -1.01242722   -1.11518324   -1.43857325
     atom    6 type  1   force =     1.01242722   -1.11518324    1.43857325
     atom    7 type  1   force =     1.77192533   -0.65214192    0.00000000
     atom    8 type  1   force =    -1.01242722    1.11518324   -1.43857325
     atom    9 type  1   force =     1.01242722    1.11518324    1.43857325
     atom   10 type  1   force =     1.77192533    0.65214192    0.00000000
     atom   11 type  1   force =    -1.01242722    1.11518324    1.43857325
     atom   12 type  1   force =    -1.77192533    0.65214192    0.00000000
     atom   13 type  2   force =     0.00000000    0.00000000    0.00000000
     atom   14 type  2   force =     0.00000000    0.00000000    0.00000000
     atom   15 type  2   force =     0.00000000    0.00000000    0.00000000
     atom   16 type  2   force =     0.00000000    0.00000000    0.00000000

     Total force =     6.997508     Total SCF correction =     0.000000


     entering subroutine stress ...

          total   stress  (Ry/bohr**3)                   (kbar)     P=11985.96
   0.08182458   0.00000000   0.00000000      12036.81      0.00      0.00
   0.00000000   0.08123678   0.00000000          0.00  11950.34      0.00
   0.00000000   0.00000000   0.08137546          0.00      0.00  11970.74


     number of scf cycles    =   2
     number of bfgs steps    =   1

     enthalpy old            =   -5835.0280279258 Ry
     enthalpy new            =   -5835.0271642046 Ry

     CASE: enthalpy_new > enthalpy_old

     new trust radius        =       0.0000000000 bohr

     trust_radius < trust_radius_min

     resetting bfgs history

     new conv_thr            =       0.0001000000 Ry

     new unit-cell volume =   1385.64281 a.u.^3 (   205.33108 Ang^3 )

CELL_PARAMETERS (alat=  8.80076499)
   1.074803866   0.000000000   0.000000000
   0.000000000   1.164257815   0.000000000
   0.000000000   0.000000000   1.624469792

ATOMIC_POSITIONS (crystal)
Fe       0.351605644   0.164214763   0.918361079
Fe       0.148394356   0.664214763   0.581638921
Fe       0.851605644   0.335785237   0.418361079
Fe       0.332169410   0.447679701   0.250000000
Fe       0.148394356   0.664214763   0.918361079
Fe       0.351605644   0.164214763   0.581638921
Fe       0.167830590   0.947679701   0.250000000
Fe       0.648394356   0.835785237   0.418361079
Fe       0.851605644   0.335785237   0.081638921
Fe       0.667830590   0.552320299   0.750000000
Fe       0.648394356   0.835785237   0.081638921
Fe       0.832169410   0.052320299   0.750000000
C        0.000000000   0.000000000   0.000000000
C        0.500000000   0.500000000   0.000000000
C        0.500000000   0.500000000   0.500000000
C        0.000000000   0.000000000   0.500000000



     Writing output data file Prototype-La-oP16-Fe3C.save
     NEW-OLD atomic charge density approx. for the potential
     NEW k-points:
        k(    1) = (   0.0000000   0.0000000   0.0000000), wk =   0.0833333
        k(    2) = (   0.0000000   0.0000000   0.1538964), wk =   0.1666667
        k(    3) = (   0.0000000   0.0000000  -0.3077927), wk =   0.0833333
        k(    4) = (   0.0000000   0.2863054   0.0000000), wk =   0.1666667
        k(    5) = (   0.0000000   0.2863054   0.1538964), wk =   0.3333333
        k(    6) = (   0.0000000   0.2863054  -0.3077927), wk =   0.1666667
        k(    7) = (  -0.4652012   0.0000000   0.0000000), wk =   0.0833333
        k(    8) = (  -0.4652012   0.0000000   0.1538964), wk =   0.1666667
        k(    9) = (  -0.4652012   0.0000000  -0.3077927), wk =   0.0833333
        k(   10) = (  -0.4652012   0.2863054   0.0000000), wk =   0.1666667
        k(   11) = (  -0.4652012   0.2863054   0.1538964), wk =   0.3333333
        k(   12) = (  -0.4652012   0.2863054  -0.3077927), wk =   0.1666667

     total cpu time spent up to now is      808.9 secs

     Self-consistent Calculation

     iteration #  1     ecut=    40.00 Ry     beta=0.70
     CG style diagonalization
     c_bands:  5 eigenvalues not converged
     c_bands:  2 eigenvalues not converged
     c_bands:  4 eigenvalues not converged
     c_bands:  1 eigenvalues not converged
     c_bands:  2 eigenvalues not converged
     c_bands:  2 eigenvalues not converged
     c_bands:  2 eigenvalues not converged
     c_bands:  4 eigenvalues not converged
     c_bands:  3 eigenvalues not converged
     c_bands:  2 eigenvalues not converged
     ethr =  1.00E-06,  avg # of iterations = 26.4

     total cpu time spent up to now is      997.4 secs

     total energy              =   -5869.95512557 Ry
     Harris-Foulkes estimate   =   -5887.57260210 Ry
     estimated scf accuracy    <      21.47499193 Ry

     iteration #  2     ecut=    40.00 Ry     beta=0.70
     CG style diagonalization
     ethr =  6.03E-03,  avg # of iterations =  4.3

     total cpu time spent up to now is     1024.8 secs

     total energy              =   -5850.01060132 Ry
     Harris-Foulkes estimate   =   -5855.32383762 Ry
     estimated scf accuracy    <       6.93294046 Ry

     iteration #  3     ecut=    40.00 Ry     beta=0.70
     CG style diagonalization
     ethr =  1.95E-03,  avg # of iterations =  3.7

     total cpu time spent up to now is     1049.6 secs

     total energy              =   -5851.12389354 Ry
     Harris-Foulkes estimate   =   -5851.72206293 Ry
     estimated scf accuracy    <       1.07622143 Ry

     iteration #  4     ecut=    40.00 Ry     beta=0.70
     CG style diagonalization
     ethr =  3.02E-04,  avg # of iterations =  4.1

     total cpu time spent up to now is     1079.1 secs

     total energy              =   -5851.18081059 Ry
     Harris-Foulkes estimate   =   -5851.19299446 Ry
     estimated scf accuracy    <       0.02055235 Ry

     iteration #  5     ecut=    40.00 Ry     beta=0.70
     CG style diagonalization
     c_bands:  1 eigenvalues not converged
     c_bands:  1 eigenvalues not converged
     c_bands:  2 eigenvalues not converged
     c_bands:  4 eigenvalues not converged
     c_bands:  2 eigenvalues not converged
     ethr =  5.77E-06,  avg # of iterations =  8.0

     total cpu time spent up to now is     1137.6 secs

     total energy              =   -5851.19263716 Ry
     Harris-Foulkes estimate   =   -5851.20619211 Ry
     estimated scf accuracy    <       0.02397825 Ry

     iteration #  6     ecut=    40.00 Ry     beta=0.70
     CG style diagonalization
     c_bands:  1 eigenvalues not converged
     ethr =  5.77E-06,  avg # of iterations =  3.6

     total cpu time spent up to now is     1162.5 secs

     total energy              =   -5851.15417359 Ry
     Harris-Foulkes estimate   =   -5851.20275836 Ry
     estimated scf accuracy    <       0.06550401 Ry

     iteration #  7     ecut=    40.00 Ry     beta=0.70
     CG style diagonalization
     ethr =  5.77E-06,  avg # of iterations =  6.7

     total cpu time spent up to now is     1209.1 secs

     total energy              =   -5851.22601569 Ry
     Harris-Foulkes estimate   =   -5851.22607393 Ry
     estimated scf accuracy    <       0.00158863 Ry

     iteration #  8     ecut=    40.00 Ry     beta=0.70
     CG style diagonalization
     c_bands:  1 eigenvalues not converged
     ethr =  4.46E-07,  avg # of iterations = 11.5

     total cpu time spent up to now is     1292.5 secs

     total energy              =   -5851.22425368 Ry
     Harris-Foulkes estimate   =   -5851.22708397 Ry
     estimated scf accuracy    <       0.02081275 Ry

     iteration #  9     ecut=    40.00 Ry     beta=0.70
     CG style diagonalization
     c_bands:  1 eigenvalues not converged
     c_bands:  1 eigenvalues not converged
     c_bands:  2 eigenvalues not converged
     ethr =  4.46E-07,  avg # of iterations = 12.8

     total cpu time spent up to now is     1388.1 secs

     total energy              =   -5851.21468507 Ry
     Harris-Foulkes estimate   =   -5851.23209999 Ry
     estimated scf accuracy    <       0.08703459 Ry

     iteration # 10     ecut=    40.00 Ry     beta=0.70
     CG style diagonalization
     ethr =  4.46E-07,  avg # of iterations =  4.9

     total cpu time spent up to now is     1423.5 secs

     total energy              =   -5851.21359237 Ry
     Harris-Foulkes estimate   =   -5851.21779279 Ry
     estimated scf accuracy    <       0.03396370 Ry

     iteration # 11     ecut=    40.00 Ry     beta=0.70
     CG style diagonalization
     c_bands:  1 eigenvalues not converged
     ethr =  4.46E-07,  avg # of iterations = 12.1

     total cpu time spent up to now is     1513.8 secs

     total energy              =   -5851.21941873 Ry
     Harris-Foulkes estimate   =   -5851.22256748 Ry
     estimated scf accuracy    <       0.04925773 Ry

     iteration # 12     ecut=    40.00 Ry     beta=0.70
     CG style diagonalization
     c_bands:  2 eigenvalues not converged
     ethr =  4.46E-07,  avg # of iterations =  5.3

     total cpu time spent up to now is     1551.9 secs

     total energy              =   -5851.21619318 Ry
     Harris-Foulkes estimate   =   -5851.21953234 Ry
     estimated scf accuracy    <       0.04564986 Ry

     iteration # 13     ecut=    40.00 Ry     beta=0.70
     CG style diagonalization
     c_bands:  2 eigenvalues not converged
     c_bands:  2 eigenvalues not converged
     ethr =  4.46E-07,  avg # of iterations =  7.4

     total cpu time spent up to now is     1606.0 secs

     total energy              =   -5851.21273551 Ry
     Harris-Foulkes estimate   =   -5851.21644641 Ry
     estimated scf accuracy    <       0.03700059 Ry

     iteration # 14     ecut=    40.00 Ry     beta=0.70
     CG style diagonalization
     ethr =  4.46E-07,  avg # of iterations =  3.8

     total cpu time spent up to now is     1632.8 secs

     total energy              =   -5851.21291149 Ry
     Harris-Foulkes estimate   =   -5851.21297985 Ry
     estimated scf accuracy    <       0.00037628 Ry

     iteration # 15     ecut=    40.00 Ry     beta=0.70
     CG style diagonalization
     c_bands:  1 eigenvalues not converged
     ethr =  1.06E-07,  avg # of iterations =  9.2

     total cpu time spent up to now is     1699.0 secs

     total energy              =   -5851.21125683 Ry
     Harris-Foulkes estimate   =   -5851.21365008 Ry
     estimated scf accuracy    <       4.54002618 Ry

     iteration # 16     ecut=    40.00 Ry     beta=0.70
     CG style diagonalization
     c_bands:  2 eigenvalues not converged
     c_bands:  1 eigenvalues not converged
     c_bands:  1 eigenvalues not converged
     c_bands:  2 eigenvalues not converged
     c_bands:  2 eigenvalues not converged
     c_bands:  2 eigenvalues not converged
     ethr =  1.06E-07,  avg # of iterations = 25.2

     total cpu time spent up to now is     1900.4 secs

     total energy              =   -5851.24212141 Ry
     Harris-Foulkes estimate   =   -5851.21335964 Ry
     estimated scf accuracy    <     394.76558549 Ry

     iteration # 17     ecut=    40.00 Ry     beta=0.70
     CG style diagonalization
     c_bands:  2 eigenvalues not converged
     c_bands:  2 eigenvalues not converged
     c_bands:  2 eigenvalues not converged
     ethr =  1.06E-07,  avg # of iterations = 32.9

     total cpu time spent up to now is     2269.9 secs

     total energy              =   -5850.87357719 Ry
     Harris-Foulkes estimate   =   -5851.21376354 Ry
     estimated scf accuracy    <    1558.29076800 Ry

     iteration # 18     ecut=    40.00 Ry     beta=0.70
     CG style diagonalization
     c_bands:  1 eigenvalues not converged
     c_bands:  1 eigenvalues not converged
     c_bands:  2 eigenvalues not converged
     c_bands:  2 eigenvalues not converged
     ethr =  1.06E-07,  avg # of iterations = 39.4

     total cpu time spent up to now is     2717.5 secs

     total energy              =   -5850.81407467 Ry
     Harris-Foulkes estimate   =   -5851.21186024 Ry
     estimated scf accuracy    <     916.34028351 Ry

     iteration # 19     ecut=    40.00 Ry     beta=0.70
     CG style diagonalization
     c_bands:  1 eigenvalues not converged
     c_bands:  2 eigenvalues not converged
     ethr =  1.06E-07,  avg # of iterations = 36.3
