
     Program PWSCF v.5.0.2 starts on 22Mar2018 at 22:47:26 

     This program is part of the open-source Quantum ESPRESSO suite
     for quantum simulation of materials; please cite
         "P. Giannozzi et al., J. Phys.:Condens. Matter 21 395502 (2009);
          URL http://www.quantum-espresso.org", 
     in publications or presentations arising from this work. More details at
     http://www.quantum-espresso.org/quote.php

     Parallel version (MPI), running on     4 processors
     R & G space division:  proc/nbgrp/npool/nimage =       4

     Current dimensions of program PWSCF are:
     Max number of different atomic species (ntypx) = 10
     Max number of k-points (npk) =  40000
     Max angular momentum in pseudopotentials (lmaxx) =  3
     Waiting for input...
     Reading input from standard input

     Subspace diagonalization in iterative solution of the eigenvalue problem:
     a serial algorithm will be used

 
     Parallelization info
     --------------------
     sticks:   dense  smooth     PW     G-vecs:    dense   smooth      PW
     Min         207     207     61                 7381     7381    1191
     Max         208     208     62                 7386     7386    1192
     Sum         829     829    247                29529    29529    4767
 


     bravais-lattice index     =            0
     lattice parameter (alat)  =       7.0151  a.u.
     unit-cell volume          =     862.2778 (a.u.)^3
     number of atoms/cell      =           12
     number of atomic types    =            2
     number of electrons       =       228.00
     number of Kohn-Sham states=          137
     kinetic-energy cutoff     =      40.0000  Ry
     charge density cutoff     =     160.0000  Ry
     convergence threshold     =      1.0E-04
     mixing beta               =       0.7000
     number of iterations used =            8  plain     mixing
     Exchange-correlation      = SLA-PZ-NOGX-NOGC ( 1 1 0 0 0)
     EXX-fraction              =        0.00
     nstep                     =           50


     celldm(1)=   7.015105  celldm(2)=   0.000000  celldm(3)=   0.000000
     celldm(4)=   0.000000  celldm(5)=   0.000000  celldm(6)=   0.000000

     crystal axes: (cart. coord. in units of alat)
               a(1) = (   1.000000   0.000000   0.000000 )  
               a(2) = (   0.000000   1.315963   0.000000 )  
               a(3) = (   0.000000   0.000000   1.898020 )  

     reciprocal axes: (cart. coord. in units 2 pi/alat)
               b(1) = (  1.000000  0.000000  0.000000 )  
               b(2) = (  0.000000  0.759900  0.000000 )  
               b(3) = (  0.000000  0.000000  0.526865 )  


     PseudoPot. # 1 for Gd read from file:
     /home/cwx6513/pp.La/Gd.UPF
     MD5 check sum: 09a8be538722f05520810cb6aac0efd2
     Pseudo is Norm-conserving, Zval = 18.0
     Generated in analytical, separable form
     Using radial grid of 1263 points,  6 beta functions with: 
                l(1) =   0
                l(2) =   0
                l(3) =   1
                l(4) =   1
                l(5) =   2
                l(6) =   3

     PseudoPot. # 2 for Ho read from file:
     /home/cwx6513/pp.La/Ho.UPF
     MD5 check sum: f307ee11bce99f5b724fa279e3790763
     Pseudo is Norm-conserving, Zval = 21.0
     Generated in analytical, separable form
     Using radial grid of 1265 points,  6 beta functions with: 
                l(1) =   0
                l(2) =   0
                l(3) =   1
                l(4) =   1
                l(5) =   2
                l(6) =   3

     atomic species   valence    mass     pseudopotential
        Co            18.00    58.93320     Gd( 1.00)
        Si            21.00    28.08550     Ho( 1.00)

      8 Sym. Ops., with inversion, found ( 6 have fractional translation)



   Cartesian axes

     site n.     atom                  positions (alat units)
         1           Co  tau(   1) = (   0.7500000   1.0875135   0.8270358  )
         2           Co  tau(   2) = (   0.2500000   0.2284499   1.0709846  )
         3           Co  tau(   3) = (   0.7500000   0.4295318   0.1219744  )
         4           Co  tau(   4) = (   0.2500000   0.8864316   1.7760460  )
         5           Co  tau(   5) = (   0.2500000   0.7067855   0.5358966  )
         6           Co  tau(   6) = (   0.7500000   0.6091779   1.3621238  )
         7           Co  tau(   7) = (   0.2500000   0.0488038   0.4131136  )
         8           Co  tau(   8) = (   0.7500000   1.2671596   1.4849068  )
         9           Si  tau(   9) = (   0.2500000   0.2669484   1.6960710  )
        10           Si  tau(  10) = (   0.7500000   1.0490149   0.2019494  )
        11           Si  tau(  11) = (   0.2500000   0.9249301   1.1509596  )
        12           Si  tau(  12) = (   0.7500000   0.3910333   0.7470608  )

     number of k points=    12  gaussian smearing, width (Ry)=  0.1000
                       cart. coord. in units 2pi/alat
        k(    1) = (   0.0000000   0.0000000   0.0000000), wk =   0.0833333
        k(    2) = (   0.0000000   0.0000000   0.1317162), wk =   0.1666667
        k(    3) = (   0.0000000   0.0000000  -0.2634324), wk =   0.0833333
        k(    4) = (   0.0000000   0.2532999   0.0000000), wk =   0.1666667
        k(    5) = (   0.0000000   0.2532999   0.1317162), wk =   0.3333333
        k(    6) = (   0.0000000   0.2532999  -0.2634324), wk =   0.1666667
        k(    7) = (  -0.5000000   0.0000000   0.0000000), wk =   0.0833333
        k(    8) = (  -0.5000000   0.0000000   0.1317162), wk =   0.1666667
        k(    9) = (  -0.5000000   0.0000000  -0.2634324), wk =   0.0833333
        k(   10) = (  -0.5000000   0.2532999   0.0000000), wk =   0.1666667
        k(   11) = (  -0.5000000   0.2532999   0.1317162), wk =   0.3333333
        k(   12) = (  -0.5000000   0.2532999  -0.2634324), wk =   0.1666667

     Dense  grid:    29529 G-vectors     FFT dimensions: (  30,  40,  54)

     Largest allocated arrays     est. size (Mb)     dimensions
        Kohn-Sham Wavefunctions         1.93 Mb     (    922,  137)
        NL pseudopotentials             3.38 Mb     (    922,  240)
        Each V/rho on FFT grid          0.26 Mb     (  16800)
        Each G-vector array             0.06 Mb     (   7386)
        G-vector shells                 0.06 Mb     (   7386)
     Largest temporary arrays     est. size (Mb)     dimensions
        Each subspace H/S matrix        0.29 Mb     ( 137, 137)
        Each <psi_i|beta_j> matrix      0.50 Mb     (    240,  137)
        Arrays for rho mixing           2.05 Mb     (  16800,   8)

     Initial potential from superposition of free atoms

     Starting from uniform charge
     Starting wfc are    0 randomized atomic wfcs

     total cpu time spent up to now is        2.5 secs

     Self-consistent Calculation

     iteration #  1     ecut=    40.00 Ry     beta=0.70
     CG style diagonalization
     ethr =  1.00E-02,  avg # of iterations = 16.3

     total cpu time spent up to now is       56.1 secs

     total energy              =   -2154.25419432 Ry
     Harris-Foulkes estimate   =   -3096.01390863 Ry
     estimated scf accuracy    <    1163.33852732 Ry

     iteration #  2     ecut=    40.00 Ry     beta=0.70
     CG style diagonalization
     c_bands:  4 eigenvalues not converged
     ethr =  1.00E-02,  avg # of iterations = 15.0

     total cpu time spent up to now is      106.8 secs

     total energy              =   -2450.78268730 Ry
     Harris-Foulkes estimate   =   -3284.27956593 Ry
     estimated scf accuracy    <    1651.84600850 Ry

     iteration #  3     ecut=    40.00 Ry     beta=0.70
     CG style diagonalization
     ethr =  1.00E-02,  avg # of iterations = 10.8

     total cpu time spent up to now is      144.3 secs

     total energy              =   -2743.65702783 Ry
     Harris-Foulkes estimate   =   -2802.54572651 Ry
     estimated scf accuracy    <      96.02072216 Ry

     iteration #  4     ecut=    40.00 Ry     beta=0.70
     CG style diagonalization
     ethr =  1.00E-02,  avg # of iterations =  5.0

     total cpu time spent up to now is      161.4 secs

     total energy              =   -2769.27795562 Ry
     Harris-Foulkes estimate   =   -2776.64791966 Ry
     estimated scf accuracy    <      15.53896586 Ry

     iteration #  5     ecut=    40.00 Ry     beta=0.70
     CG style diagonalization
     ethr =  6.82E-03,  avg # of iterations =  3.5

     total cpu time spent up to now is      172.6 secs

     total energy              =   -2771.51419627 Ry
     Harris-Foulkes estimate   =   -2772.52993411 Ry
     estimated scf accuracy    <       2.25215451 Ry

     iteration #  6     ecut=    40.00 Ry     beta=0.70
     CG style diagonalization
     ethr =  9.88E-04,  avg # of iterations =  3.8

     total cpu time spent up to now is      184.8 secs

     total energy              =   -2771.79930964 Ry
     Harris-Foulkes estimate   =   -2772.03429285 Ry
     estimated scf accuracy    <       0.41986309 Ry

     iteration #  7     ecut=    40.00 Ry     beta=0.70
     CG style diagonalization
     c_bands:  1 eigenvalues not converged
     c_bands:  1 eigenvalues not converged
     ethr =  1.84E-04,  avg # of iterations =  4.1

     total cpu time spent up to now is      198.6 secs

     total energy              =   -2771.92121284 Ry
     Harris-Foulkes estimate   =   -2771.95218322 Ry
     estimated scf accuracy    <       0.05992411 Ry

     iteration #  8     ecut=    40.00 Ry     beta=0.70
     CG style diagonalization
     c_bands:  1 eigenvalues not converged
     c_bands:  1 eigenvalues not converged
     c_bands:  1 eigenvalues not converged
     ethr =  2.63E-05,  avg # of iterations =  4.1

     total cpu time spent up to now is      211.8 secs

     total energy              =   -2771.93158413 Ry
     Harris-Foulkes estimate   =   -2771.93647240 Ry
     estimated scf accuracy    <       0.00743958 Ry

     iteration #  9     ecut=    40.00 Ry     beta=0.70
     CG style diagonalization
     c_bands:  1 eigenvalues not converged
     c_bands:  1 eigenvalues not converged
     c_bands:  1 eigenvalues not converged
     c_bands:  1 eigenvalues not converged
     ethr =  3.26E-06,  avg # of iterations =  4.2

     total cpu time spent up to now is      225.2 secs

     total energy              =   -2771.93432779 Ry
     Harris-Foulkes estimate   =   -2771.93485192 Ry
     estimated scf accuracy    <       0.00105648 Ry

     iteration # 10     ecut=    40.00 Ry     beta=0.70
     CG style diagonalization
     c_bands:  1 eigenvalues not converged
     ethr =  4.63E-07,  avg # of iterations =  3.7

     total cpu time spent up to now is      236.4 secs

     End of self-consistent calculation

          k = 0.0000 0.0000 0.0000 (  3675 PWs)   bands (ev):

   -43.5515 -43.5417 -43.5369 -43.5295 -20.7984 -20.5729 -20.4897 -20.3317
   -20.1788 -19.9854 -19.8727 -19.8597  -8.5017  -8.4391  -8.3940  -8.3534
    -8.3426  -8.3352  -8.2251  -8.1843  -8.1295  -8.1246  -8.0492  -7.9600
     6.1422   6.5600   6.7443   7.0053   7.0486   7.0636   7.2978   7.4625
     7.7074   7.7394   7.9437   8.0088   8.1974   8.2380   8.4123   8.5172
     8.5722   8.7026   8.7548   9.0213   9.2121   9.3985   9.7990   9.9275
    31.2966  31.3539  31.5053  32.0076  32.1064  32.2486  32.2704  32.2910
    32.8517  32.9804  32.9871  33.3717  33.4915  33.7436  34.1383  34.6299
    34.8290  35.0064  35.0702  35.1713  35.3347  36.4437  38.1590  38.5199
    38.5249  38.6800  38.9897  39.3767  39.9358  40.0781  40.2462  40.6063
    40.6163  40.6690  41.0888  41.2114  41.8269  42.2506  42.3326  42.5143
    42.9369  42.9488  43.3946  43.8620  44.2292  44.3759  44.8820  45.2587
    45.9132  46.2009  46.4463  46.5726  47.0147  47.1207  47.1957  47.9519
    48.0208  48.1776  48.2377  48.4541  48.7402  49.6804  50.1527  50.2337
    51.4152  52.6472  53.3632  53.9966  55.4259  55.5995  55.7918  56.6804
    56.7055  56.9050  57.1334  57.3239  57.8458  57.8988  58.0740  58.1321
    58.2491  58.5499  58.6137  58.8108  59.2593  59.4654  59.9622  60.5468
    60.6249

          k = 0.0000 0.0000 0.1317 (  3675 PWs)   bands (ev):

   -43.5518 -43.5434 -43.5374 -43.5284 -20.7821 -20.6470 -20.4259 -20.3422
   -20.1511 -20.0145 -19.8656 -19.8612  -8.4800  -8.4471  -8.3815  -8.3584
    -8.3407  -8.3145  -8.2494  -8.1968  -8.1425  -8.1382  -8.0255  -7.9700
     6.1888   6.5041   6.7900   7.0028   7.0321   7.1474   7.2133   7.5709
     7.6426   7.8302   7.9582   7.9818   8.2303   8.2816   8.3389   8.3845
     8.4971   8.8773   8.8863   8.9226   9.1798   9.2808   9.8108   9.9025
    31.2391  31.3578  31.7664  31.8001  31.8075  32.2315  32.4484  32.4871
    32.7462  32.9992  33.5084  33.6270  33.6383  33.7068  33.8951  34.5474
    34.7461  34.8063  34.8671  34.9170  35.7143  36.6224  38.0125  38.3541
    38.6747  38.6782  39.2088  39.4340  40.0364  40.2063  40.3278  40.4113
    40.5863  40.6566  41.0889  41.2954  41.5801  42.0742  42.2179  42.4047
    42.5261  42.8002  43.6363  44.0410  44.1012  44.6311  44.6879  45.1036
    45.1444  45.6713  46.1840  46.3950  46.4967  47.3594  47.5899  47.8385
    48.2360  48.5175  48.5233  48.6992  48.8327  50.0849  50.0867  51.5205
    52.6188  52.7086  52.7990  53.6752  55.4097  55.5153  56.1065  56.2467
    56.5443  56.9381  57.0207  57.3827  57.7466  57.9057  57.9083  58.0954
    58.1901  58.3715  58.9282  59.1710  59.2140  59.3891  59.7282  59.8128
    59.8422

          k = 0.0000 0.0000-0.2634 (  3690 PWs)   bands (ev):

   -43.5454 -43.5454 -43.5445 -43.5445 -20.7331 -20.7331 -20.3697 -20.3697
   -20.0825 -20.0825 -19.8630 -19.8630  -8.4627  -8.4627  -8.3653  -8.3653
    -8.3016  -8.3016  -8.2555  -8.2555  -8.1664  -8.1664  -8.0013  -8.0013
     6.3195   6.3195   7.0041   7.0041   7.0117   7.0117   7.3875   7.3875
     7.8094   7.8094   7.9592   7.9592   8.2337   8.2337   8.3568   8.3568
     8.6427   8.6427   9.0478   9.0478   9.0717   9.0717   9.8494   9.8494
    31.3656  31.3656  31.4896  31.4896  32.0561  32.0561  32.7759  32.7759
    33.2324  33.2324  33.4748  33.4748  33.7986  33.7986  33.9201  33.9201
    34.5903  34.5903  34.6983  34.6983  36.6547  36.6547  37.6539  37.6539
    39.1796  39.1796  39.5755  39.5755  40.0733  40.0733  40.2246  40.2246
    40.8354  40.8354  40.9931  40.9931  41.3044  41.3044  42.1510  42.1510
    42.8687  42.8687  43.7513  43.7513  44.1772  44.1772  44.9009  44.9009
    45.0611  45.0611  46.2490  46.2490  46.9649  46.9649  47.4266  47.4266
    48.2930  48.2930  49.1520  49.1520  49.5661  49.5661  51.7957  51.7957
    52.3613  52.3613  54.0223  54.0223  55.2480  55.2480  56.0329  56.0329
    56.8883  56.8883  56.9649  56.9649  57.2314  57.2315  57.3205  57.3206
    58.7642  58.7643  58.7782  58.7783  59.6566  59.6569  60.0974  60.0977
    60.4160

          k = 0.0000 0.2533 0.0000 (  3664 PWs)   bands (ev):

   -43.5542 -43.5457 -43.5264 -43.5153 -20.7295 -20.6110 -20.4669 -20.4070
   -20.1315 -19.9704 -19.9351 -19.8686  -8.4681  -8.4280  -8.3976  -8.3666
    -8.3547  -8.3297  -8.1830  -8.1597  -8.0854  -8.0832  -8.0116  -7.9706
     6.4417   6.9102   6.9385   6.9537   7.0626   7.1075   7.1188   7.3723
     7.5516   7.6395   7.8267   7.8974   7.9848   8.5112   8.5304   8.6974
     8.7340   8.8088   8.8524   8.9275   9.0401   9.1664   9.2909   9.3947
    31.8644  31.9166  31.9738  32.0019  32.4561  32.7137  32.8182  32.9908
    33.1956  33.3041  33.3828  33.4957  33.5137  33.9240  34.0921  34.6290
    34.7037  34.7071  34.7441  34.7835  36.0711  36.8334  38.1080  38.1823
    38.4774  38.5614  39.1089  39.1918  39.7201  39.7757  40.1918  40.3119
    40.5173  41.2173  41.3404  41.3488  41.6744  41.8931  42.2507  42.7366
    42.7840  42.8684  43.4228  43.5432  44.0216  44.2369  44.4008  44.5845
    45.1659  45.3986  45.4574  46.2552  46.2706  46.3125  47.1157  47.1745
    47.5469  47.9021  48.2159  48.6735  48.7310  49.0923  49.2436  49.9599
    50.0801  50.1355  55.2334  55.5773  55.6575  56.5974  56.7381  57.2048
    57.3270  57.3373  57.5509  57.7586  58.2731  58.3665  58.4302  58.5528
    58.6804  59.0842  59.1433  59.3085  59.4345  59.4849  59.8322  60.2526
    60.5147

          k = 0.0000 0.2533 0.1317 (  3669 PWs)   bands (ev):

   -43.5511 -43.5422 -43.5318 -43.5266 -20.7197 -20.6391 -20.4576 -20.4165
   -20.0964 -19.9608 -19.9520 -19.8823  -8.4529  -8.4358  -8.3924  -8.3714
    -8.3317  -8.3203  -8.2019  -8.1811  -8.0946  -8.0943  -8.0140  -7.9766
     6.4999   6.8038   6.9253   7.0291   7.0547   7.0602   7.2354   7.4697
     7.5423   7.7327   7.7748   7.8266   8.0311   8.4556   8.5409   8.6204
     8.6811   8.7080   8.8325   9.0135   9.0154   9.1774   9.2929   9.3948
    31.7823  31.8260  32.1385  32.2109  32.3879  32.7832  32.8085  33.0771
    33.1717  33.1771  33.3391  33.3754  33.7701  34.1263  34.1606  34.2042
    34.5262  34.6340  34.7567  34.8596  36.5745  37.0506  38.2360  38.4741
    38.6324  38.7291  39.0085  39.1480  39.5429  39.5803  39.6912  40.5050
    40.8021  40.8558  40.9863  41.2659  41.5826  41.8159  41.9690  42.3350
    42.6642  42.9674  43.4065  43.4984  44.2398  44.4000  44.5544  44.6319
    44.8955  45.1054  45.6582  45.7089  46.1588  46.4114  46.7230  47.3071
    47.4124  47.6947  48.0028  48.5192  48.7278  49.4033  49.7864  50.0704
    50.9496  51.8711  55.3117  55.4354  55.4953  56.3301  56.6754  56.9566
    57.1838  57.2518  57.6073  57.7087  58.1186  58.2361  58.4587  58.6861
    58.7971  58.9009  59.2017  59.2602  59.7278  59.9685  60.0880  60.1346
    60.2272

          k = 0.0000 0.2533-0.2634 (  3666 PWs)   bands (ev):

   -43.5429 -43.5429 -43.5315 -43.5315 -20.6872 -20.6872 -20.4371 -20.4371
   -20.0220 -20.0220 -19.9152 -19.9152  -8.4439  -8.4439  -8.3823  -8.3823
    -8.2971  -8.2971  -8.2188  -8.2188  -8.0970  -8.0970  -7.9918  -7.9918
     6.6455   6.6455   6.9804   6.9804   7.0713   7.0713   7.4148   7.4148
     7.6331   7.6331   7.8281   7.8281   8.2275   8.2275   8.5637   8.5637
     8.5812   8.5812   8.9414   8.9414   9.1108   9.1108   9.3542   9.3542
    31.8451  31.8451  32.0025  32.0025  32.9057  32.9057  33.0364  33.0364
    33.0742  33.0742  33.5078  33.5078  33.5694  33.5694  34.3170  34.3170
    34.6153  34.6153  34.6578  34.6578  37.4559  37.4559  37.9833  37.9833
    38.8362  38.8362  38.9044  38.9044  39.9010  39.9010  40.0678  40.0678
    40.5980  40.5980  41.0996  41.0996  41.1505  41.1505  42.2506  42.2506
    43.0529  43.0529  43.2809  43.2809  44.0035  44.0035  44.1864  44.1864
    44.7640  44.7640  46.1361  46.1361  46.6316  46.6316  46.7078  46.7078
    47.4852  47.4852  48.4673  48.4673  48.8191  48.8191  50.0186  50.0186
    53.3056  53.3056  54.9127  54.9127  55.5467  55.5467  56.4322  56.4323
    57.0458  57.0458  57.2785  57.2787  58.4337  58.4340  58.6046  58.6047
    58.8095  58.8095  59.8471  59.8475  59.9422  59.9427  60.2906  60.2914
    60.4361

          k =-0.5000 0.0000 0.0000 (  3722 PWs)   bands (ev):

   -43.5567 -43.5567 -43.5501 -43.5501 -20.5677 -20.5677 -20.4691 -20.4691
   -20.2211 -20.2211 -19.8675 -19.8675  -8.4463  -8.4463  -8.4048  -8.4048
    -8.3105  -8.3105  -8.2802  -8.2802  -8.1216  -8.1216  -8.0244  -8.0244
     6.3438   6.3438   6.8246   6.8246   6.9788   6.9788   7.3843   7.3843
     7.4662   7.4662   8.1285   8.1285   8.4023   8.4023   8.4822   8.4822
     8.8763   8.8763   9.0680   9.0680   9.2236   9.2236   9.7550   9.7550
    31.7366  31.7366  32.4785  32.4785  32.6514  32.6514  32.6876  32.6876
    32.9328  32.9328  32.9697  32.9697  33.2358  33.2358  34.1748  34.1748
    34.5688  34.5688  35.2028  35.2028  36.4168  36.4168  37.1629  37.1629
    38.6223  38.6223  39.1758  39.1758  39.4352  39.4352  40.7164  40.7164
    41.5441  41.5441  41.6152  41.6152  42.2175  42.2175  42.8000  42.8000
    43.0822  43.0822  43.3961  43.3961  43.8284  43.8284  44.4470  44.4470
    44.8029  44.8029  46.2390  46.2390  46.4842  46.4842  47.0603  47.0603
    47.7300  47.7300  48.7020  48.7020  49.1792  49.1792  49.6335  49.6335
    49.8881  49.8881  50.6814  50.6814  54.2743  54.2743  55.8208  55.8209
    56.1985  56.1985  56.5703  56.5703  56.7282  56.7282  58.8107  58.8108
    58.9842  58.9843  60.1221  60.1222  60.9128  60.9130  61.2006  61.2012
    61.5996

          k =-0.5000 0.0000 0.1317 (  3710 PWs)   bands (ev):

   -43.5542 -43.5542 -43.5444 -43.5444 -20.5753 -20.5753 -20.4630 -20.4630
   -20.2160 -20.2160 -19.8668 -19.8668  -8.4379  -8.4379  -8.4084  -8.4084
    -8.3342  -8.3342  -8.2404  -8.2404  -8.1189  -8.1189  -8.0274  -8.0274
     6.3403   6.3403   6.7939   6.7939   7.1418   7.1418   7.3239   7.3239
     7.6193   7.6193   8.0129   8.0129   8.2227   8.2227   8.5093   8.5093
     8.9421   8.9421   9.0666   9.0666   9.2175   9.2175   9.7515   9.7515
    31.8325  31.8325  32.2647  32.2647  32.5736  32.5736  32.8066  32.8066
    32.9438  32.9438  33.2579  33.2579  33.3506  33.3506  34.0027  34.0027
    34.2838  34.2838  35.2477  35.2477  36.6243  36.6243  37.6059  37.6059
    38.5739  38.5739  39.1979  39.1979  39.8889  39.8889  40.2986  40.2986
    40.9327  40.9327  41.3994  41.3994  42.1613  42.1613  42.2370  42.2370
    42.6960  42.6960  43.0579  43.0579  43.8959  43.8959  45.1904  45.1904
    45.6217  45.6217  46.2359  46.2359  46.8122  46.8122  47.1439  47.1439
    47.3279  47.3279  48.6372  48.6372  48.9063  48.9063  49.2676  49.2676
    49.7903  49.7903  52.0234  52.0234  54.4681  54.4681  54.9580  54.9581
    55.8522  55.8523  56.7488  56.7489  57.9892  57.9893  58.9899  58.9901
    59.1286  59.1287  59.4936  59.4936  60.0867  60.0868  60.9695  60.9764
    61.0152

          k =-0.5000 0.0000-0.2634 (  3680 PWs)   bands (ev):

   -43.5405 -43.5405 -43.5386 -43.5386 -20.5785 -20.5785 -20.4586 -20.4586
   -20.2098 -20.2098 -19.8662 -19.8662  -8.4246  -8.4246  -8.3991  -8.3991
    -8.3534  -8.3534  -8.2070  -8.2070  -8.1067  -8.1067  -8.0247  -8.0247
     6.3260   6.3260   6.8248   6.8248   7.1757   7.1757   7.5349   7.5349
     7.6086   7.6086   7.9242   7.9242   8.0691   8.0691   8.4631   8.4631
     8.9869   8.9869   9.1322   9.1322   9.1758   9.1758   9.7542   9.7542
    31.9271  31.9271  32.1085  32.1085  32.6631  32.6631  32.6983  32.6983
    33.1825  33.1825  33.3182  33.3182  33.6196  33.6196  33.7357  33.7357
    34.0159  34.0159  35.2651  35.2651  36.7818  36.7818  38.3270  38.3270
    38.4351  38.4351  39.2672  39.2672  40.0572  40.0572  40.3292  40.3292
    40.6524  40.6524  40.7906  40.7906  41.2516  41.2516  42.3185  42.3185
    42.3583  42.3583  42.8423  42.8423  44.8677  44.8677  44.8707  44.8707
    45.9576  45.9576  46.7185  46.7185  46.8333  46.8333  47.1955  47.1955
    47.5220  47.5220  47.8885  47.8885  48.6128  48.6128  49.2919  49.2919
    50.5991  50.5991  52.3640  52.3640  53.7520  53.7520  55.2208  55.2209
    56.2871  56.2871  56.9579  56.9579  58.4410  58.4411  58.7012  58.7013
    58.8385  58.8386  59.2062  59.2063  60.3396  60.3397  60.3564  60.3566
    61.2204

          k =-0.5000 0.2533 0.0000 (  3686 PWs)   bands (ev):

   -43.5470 -43.5470 -43.5379 -43.5379 -20.5301 -20.5301 -20.4869 -20.4869
   -20.1524 -20.1524 -19.9714 -19.9714  -8.3992  -8.3992  -8.3798  -8.3798
    -8.2874  -8.2874  -8.2737  -8.2737  -8.0743  -8.0743  -8.0209  -8.0209
     6.5407   6.5407   6.6655   6.6655   7.0422   7.0422   7.5878   7.5878
     7.6640   7.6640   7.9401   7.9401   8.2813   8.2813   8.3831   8.3831
     8.9586   8.9586   9.0078   9.0078   9.1934   9.1934   9.3432   9.3432
    32.2095  32.2095  32.6174  32.6174  32.7670  32.7670  32.9872  32.9872
    33.1851  33.1851  33.4801  33.4801  33.9647  33.9647  34.0477  34.0477
    34.5923  34.5923  34.9024  34.9024  37.1865  37.1865  37.3536  37.3536
    38.8784  38.8784  39.1230  39.1230  39.6170  39.6170  40.6310  40.6310
    40.9037  40.9037  41.1414  41.1414  41.7104  41.7104  42.2911  42.2911
    42.4286  42.4286  43.3243  43.3243  43.8746  43.8746  44.4584  44.4584
    44.9101  44.9101  45.4747  45.4747  45.6099  45.6099  46.5280  46.5280
    47.2297  47.2297  47.5481  47.5481  47.6633  47.6633  49.6235  49.6235
    51.8939  51.8939  52.2986  52.2986  54.2216  54.2216  54.8313  54.8314
    55.5489  55.5489  57.3617  57.3617  57.6163  57.6163  58.1026  58.1027
    59.5523  59.5524  59.6751  59.6752  60.6248  60.6252  60.7020  60.7022
    61.3524

          k =-0.5000 0.2533 0.1317 (  3692 PWs)   bands (ev):

   -43.5491 -43.5491 -43.5399 -43.5399 -20.5367 -20.5367 -20.4860 -20.4860
   -20.1491 -20.1491 -19.9698 -19.9698  -8.4074  -8.4074  -8.3849  -8.3849
    -8.3016  -8.3016  -8.2507  -8.2507  -8.0839  -8.0839  -8.0198  -8.0198
     6.5794   6.5794   6.7428   6.7428   7.1137   7.1137   7.3593   7.3593
     7.6146   7.6146   7.9799   7.9799   8.2948   8.2948   8.5256   8.5256
     8.9263   8.9263   8.9716   8.9716   9.1534   9.1534   9.3260   9.3260
    32.2393  32.2393  32.5807  32.5807  32.7438  32.7438  32.9939  32.9939
    33.2923  33.2923  33.4681  33.4681  33.8962  33.8962  34.0226  34.0226
    34.6870  34.6870  34.9114  34.9114  37.3879  37.3879  37.7419  37.7419
    38.8656  38.8656  39.2475  39.2475  39.6115  39.6115  40.0256  40.0256
    40.8406  40.8406  41.0321  41.0321  41.5195  41.5195  41.9040  41.9040
    42.8009  42.8009  43.1770  43.1770  43.6512  43.6512  44.3301  44.3301
    44.6178  44.6178  45.2207  45.2207  46.0585  46.0585  46.5347  46.5347
    47.3315  47.3315  47.7579  47.7579  48.1852  48.1852  49.5725  49.5725
    51.6355  51.6355  52.4620  52.4620  53.9905  53.9905  55.6992  55.6992
    56.1279  56.1279  56.9071  56.9071  57.8590  57.8591  58.3141  58.3141
    59.8205  59.8207  59.9673  59.9675  60.1700  60.1701  60.8465  60.8469
    61.2765

          k =-0.5000 0.2533-0.2634 (  3704 PWs)   bands (ev):

   -43.5548 -43.5548 -43.5427 -43.5427 -20.5418 -20.5418 -20.4858 -20.4858
   -20.1474 -20.1474 -19.9691 -19.9691  -8.4152  -8.4152  -8.3869  -8.3869
    -8.3134  -8.3134  -8.2434  -8.2434  -8.0869  -8.0869  -8.0279  -8.0279
     6.6021   6.6021   6.9024   6.9024   7.1283   7.1283   7.3404   7.3404
     7.3411   7.3411   8.0088   8.0088   8.3753   8.3753   8.6452   8.6452
     8.8720   8.8720   8.8915   8.8915   9.1459   9.1459   9.3051   9.3051
    32.2601  32.2601  32.5319  32.5319  32.7113  32.7113  33.0528  33.0528
    33.3764  33.3764  33.4880  33.4880  33.8554  33.8554  33.9551  33.9551
    34.7665  34.7665  34.9336  34.9336  37.6823  37.6823  38.2910  38.2910
    38.7438  38.7438  39.3098  39.3098  39.3376  39.3376  39.9843  39.9843
    40.0762  40.0762  41.0231  41.0231  41.4906  41.4906  42.2532  42.2532
    42.4047  42.4047  43.2970  43.2970  43.4844  43.4844  44.0845  44.0845
    44.3046  44.3046  45.0787  45.0787  45.8088  45.8088  46.8167  46.8167
    47.6777  47.6777  48.1934  48.1934  48.9993  48.9993  49.0312  49.0312
    51.5927  51.5927  52.3047  52.3047  53.8884  53.8884  56.3324  56.3324
    56.6078  56.6079  57.5227  57.5227  57.6919  57.6919  58.9370  58.9371
    58.9928  58.9930  59.8965  59.8967  60.3899  60.3903  60.6105  60.6109
    60.8772

     the Fermi energy is    52.3181 ev

!    total energy              =   -2771.93449211 Ry
     Harris-Foulkes estimate   =   -2771.93454900 Ry
     estimated scf accuracy    <       0.00006629 Ry

     The total energy is the sum of the following terms:

     one-electron contribution =     308.94318377 Ry
     hartree contribution      =     208.09409259 Ry
     xc contribution           =    -280.44213264 Ry
     ewald contribution        =   -3008.37829892 Ry
     smearing contrib. (-TS)   =      -0.15133691 Ry

     convergence has been achieved in  10 iterations

     Forces acting on atoms (Ry/au):

     atom    1 type  1   force =     0.00000000   -0.04048767   -0.04705647
     atom    2 type  1   force =     0.00000000    0.04048767    0.04705647
     atom    3 type  1   force =     0.00000000   -0.04048767    0.04705647
     atom    4 type  1   force =     0.00000000    0.04048767   -0.04705647
     atom    5 type  1   force =     0.00000000    0.12983509   -0.23991565
     atom    6 type  1   force =     0.00000000   -0.12983509    0.23991565
     atom    7 type  1   force =     0.00000000    0.12983509    0.23991565
     atom    8 type  1   force =     0.00000000   -0.12983509   -0.23991565
     atom    9 type  2   force =     0.00000000   -0.18596665    0.04241232
     atom   10 type  2   force =     0.00000000    0.18596665   -0.04241232
     atom   11 type  2   force =     0.00000000   -0.18596665   -0.04241232
     atom   12 type  2   force =     0.00000000    0.18596665    0.04241232

     Total force =     0.677208     Total SCF correction =     0.000000


     entering subroutine stress ...

          total   stress  (Ry/bohr**3)                   (kbar)     P= 7266.90
   0.05313243   0.00000000   0.00000000       7816.05      0.00      0.00
   0.00000000   0.04625468   0.00000000          0.00   6804.30      0.00
   0.00000000   0.00000000   0.04881105          0.00      0.00   7180.35


     BFGS Geometry Optimization

     number of scf cycles    =   1
     number of bfgs steps    =   0

     enthalpy new            =   -2771.9344921125 Ry

     new trust radius        =       0.5000000000 bohr
     new conv_thr            =       0.0001000000 Ry

     new unit-cell volume =   1083.64523 a.u.^3 (   160.57965 Ang^3 )

CELL_PARAMETERS (alat=  7.01510508)
   1.085136619   0.000000000   0.000000000
   0.000000000   1.413497418   0.000000000
   0.000000000   0.000000000   2.046468871

ATOMIC_POSITIONS (crystal)
Co       0.750000000   0.826119900   0.435509483
Co       0.250000000   0.173880100   0.564490517
Co       0.750000000   0.326119900   0.064490517
Co       0.250000000   0.673880100   0.935509483
Co       0.250000000   0.537987427   0.281190111
Co       0.750000000   0.462012573   0.718809889
Co       0.250000000   0.037987427   0.218809889
Co       0.750000000   0.962012573   0.781190111
Si       0.250000000   0.201562859   0.893804161
Si       0.750000000   0.798437141   0.106195839
Si       0.250000000   0.701562859   0.606195839
Si       0.750000000   0.298437141   0.393804161



     Writing output data file Prototype-La-oP12-Co2Si.save
     NEW-OLD atomic charge density approx. for the potential
     NEW k-points:
        k(    1) = (   0.0000000   0.0000000   0.0000000), wk =   0.0833333
        k(    2) = (   0.0000000   0.0000000   0.1221616), wk =   0.1666667
        k(    3) = (   0.0000000   0.0000000  -0.2443233), wk =   0.0833333
        k(    4) = (   0.0000000   0.2358217   0.0000000), wk =   0.1666667
        k(    5) = (   0.0000000   0.2358217   0.1221616), wk =   0.3333333
        k(    6) = (   0.0000000   0.2358217  -0.2443233), wk =   0.1666667
        k(    7) = (  -0.4607715   0.0000000   0.0000000), wk =   0.0833333
        k(    8) = (  -0.4607715   0.0000000   0.1221616), wk =   0.1666667
        k(    9) = (  -0.4607715   0.0000000  -0.2443233), wk =   0.0833333
        k(   10) = (  -0.4607715   0.2358217   0.0000000), wk =   0.1666667
        k(   11) = (  -0.4607715   0.2358217   0.1221616), wk =   0.3333333
        k(   12) = (  -0.4607715   0.2358217  -0.2443233), wk =   0.1666667

     total cpu time spent up to now is      241.6 secs

     Self-consistent Calculation

     iteration #  1     ecut=    40.00 Ry     beta=0.70
     CG style diagonalization
     c_bands:  2 eigenvalues not converged
     c_bands:  3 eigenvalues not converged
     c_bands:  1 eigenvalues not converged
     c_bands:  1 eigenvalues not converged
     c_bands:  3 eigenvalues not converged
     c_bands:  1 eigenvalues not converged
     c_bands:  1 eigenvalues not converged
     c_bands:  1 eigenvalues not converged
     ethr =  1.00E-06,  avg # of iterations = 22.1

     total cpu time spent up to now is      311.7 secs

     total energy              =   -2768.68561747 Ry
     Harris-Foulkes estimate   =   -2792.45467585 Ry
     estimated scf accuracy    <      30.76366043 Ry

     iteration #  2     ecut=    40.00 Ry     beta=0.70
     CG style diagonalization
     ethr =  1.00E-02,  avg # of iterations =  3.8

     total cpu time spent up to now is      323.5 secs

     total energy              =   -2777.74831264 Ry
     Harris-Foulkes estimate   =   -2779.86568343 Ry
     estimated scf accuracy    <       3.23679528 Ry

     iteration #  3     ecut=    40.00 Ry     beta=0.70
     CG style diagonalization
     ethr =  1.42E-03,  avg # of iterations =  3.7

     total cpu time spent up to now is      334.9 secs

     total energy              =   -2778.44624079 Ry
     Harris-Foulkes estimate   =   -2778.49151457 Ry
     estimated scf accuracy    <       0.06742762 Ry

     iteration #  4     ecut=    40.00 Ry     beta=0.70
     CG style diagonalization
     c_bands:  1 eigenvalues not converged
     c_bands:  3 eigenvalues not converged
     c_bands:  1 eigenvalues not converged
     ethr =  2.96E-05,  avg # of iterations =  4.4

     total cpu time spent up to now is      348.2 secs

     total energy              =   -2778.47580390 Ry
     Harris-Foulkes estimate   =   -2778.48347860 Ry
     estimated scf accuracy    <       0.01420310 Ry

     iteration #  5     ecut=    40.00 Ry     beta=0.70
     CG style diagonalization
     c_bands:  1 eigenvalues not converged
     ethr =  6.23E-06,  avg # of iterations =  3.6

     total cpu time spent up to now is      358.7 secs

     total energy              =   -2778.47894387 Ry
     Harris-Foulkes estimate   =   -2778.47943618 Ry
     estimated scf accuracy    <       0.00082907 Ry

     iteration #  6     ecut=    40.00 Ry     beta=0.70
     CG style diagonalization
     c_bands:  1 eigenvalues not converged
     ethr =  3.64E-07,  avg # of iterations =  3.8

     total cpu time spent up to now is      368.7 secs

     End of self-consistent calculation

          k = 0.0000 0.0000 0.0000 (  3675 PWs)   bands (ev):

   -53.0908 -53.0727 -53.0714 -53.0489 -30.3111 -30.2287 -30.1828 -30.1653
   -30.0298 -29.9406 -29.8356 -29.8337 -17.6997 -17.6896 -17.6698 -17.6691
   -17.6657 -17.6284 -17.6271 -17.6260 -17.5764 -17.5676 -17.5456 -17.4998
    -2.3614  -2.1230  -2.0184  -1.9852  -1.9293  -1.8136  -1.8001  -1.6578
    -1.6190  -1.5846  -1.4032  -1.3330  -1.3204  -1.2604  -1.1926  -1.1122
    -1.0970  -0.9806  -0.9475  -0.8545  -0.8018  -0.6837  -0.3925  -0.3302
    23.6247  23.6382  23.6670  23.9771  24.0485  24.1200  24.1551  24.1907
    24.4795  24.5135  24.5739  24.6010  24.6576  24.9710  25.0023  25.4309
    25.5672  25.6725  25.7094  25.7823  25.9377  27.5683  28.6798  29.0660
    29.6711  29.7993  29.8363  30.5812  30.9916  31.0055  31.2069  31.2601
    31.3048  31.3723  31.4195  32.0709  32.2088  32.2161  32.4193  32.8145
    32.9386  33.5463  33.6546  33.9607  34.0730  34.1202  34.5935  35.1102
    35.2935  35.4823  35.5609  35.7825  35.8544  36.0802  36.8302  36.9181
    36.9657  37.0136  37.0217  37.2317  37.3365  38.1586  38.4200  38.5321
    39.3263  40.0826  40.9089  41.5091  43.2821  43.6650  44.4528  45.1767
    45.2604  46.2232  46.7307  46.7966  46.9404  47.2260  47.2885  47.3360
    47.7112  47.8085  47.8851  48.0205  48.0552  48.1736  48.9725  49.0531
    49.1164

          k = 0.0000 0.0000 0.1222 (  3675 PWs)   bands (ev):

   -53.0986 -53.0702 -53.0686 -53.0475 -30.2998 -30.2456 -30.1757 -30.1730
   -30.0152 -29.9611 -29.8381 -29.8203 -17.6841 -17.6798 -17.6763 -17.6607
   -17.6592 -17.6466 -17.6401 -17.6255 -17.5852 -17.5750 -17.5299 -17.5043
    -2.3328  -2.1531  -2.0212  -1.9693  -1.8740  -1.8677  -1.8545  -1.6519
    -1.5862  -1.5432  -1.4357  -1.3549  -1.2728  -1.2726  -1.1956  -1.1432
    -1.0932  -0.9107  -0.8987  -0.8985  -0.8071  -0.7337  -0.3878  -0.3472
    23.5962  23.6336  23.8123  23.8727  23.9372  24.1123  24.2253  24.2408
    24.4331  24.5223  24.7309  24.7804  24.8129  24.8988  24.9708  25.2292
    25.5172  25.5753  25.6661  25.7127  26.2306  27.5932  28.3606  28.9980
    29.8007  29.9570  30.0248  30.6080  30.7999  30.9734  31.2543  31.3849
    31.3908  31.4709  31.5993  31.9619  32.0221  32.1687  32.4157  32.5459
    32.7970  32.8115  33.4590  34.1475  34.2900  34.3414  34.5205  34.9562
    34.9673  35.1841  35.6834  35.6878  35.7405  36.4606  36.4966  36.7589
    36.9394  37.1128  37.2539  37.5299  37.5831  38.2669  38.4611  39.5491
    40.0810  40.4422  40.5368  41.3061  43.3124  43.6746  43.7498  45.2529
    45.3048  45.5534  46.2048  46.3038  46.8405  46.9377  46.9821  47.1330
    47.6074  47.6181  48.3138  48.3279  48.4654  48.5721  48.9978  49.3318
    48.6803

          k = 0.0000 0.0000-0.2443 (  3690 PWs)   bands (ev):

   -53.0961 -53.0961 -53.0671 -53.0671 -30.2847 -30.2847 -30.1752 -30.1752
   -29.9837 -29.9837 -29.8338 -29.8338 -17.6786 -17.6786 -17.6673 -17.6673
   -17.6504 -17.6504 -17.6489 -17.6489 -17.5990 -17.5990 -17.5249 -17.5249
    -2.2624  -2.2624  -1.9438  -1.9438  -1.9287  -1.9287  -1.7607  -1.7607
    -1.4803  -1.4803  -1.4471  -1.4471  -1.2617  -1.2617  -1.1841  -1.1841
    -1.0168  -1.0168  -0.8466  -0.8466  -0.8399  -0.8399  -0.3748  -0.3748
    23.6814  23.6814  23.7046  23.7046  23.9841  23.9841  24.4585  24.4585
    24.5824  24.5824  24.7692  24.7692  24.8864  24.8864  24.9339  24.9339
    25.5184  25.5184  25.5599  25.5599  26.9864  26.9864  28.5330  28.5330
    30.2028  30.2028  30.4185  30.4185  30.8672  30.8672  31.1384  31.1384
    31.6205  31.6205  31.7022  31.7022  31.9123  31.9123  32.3702  32.3702
    32.6627  32.6627  33.7031  33.7031  34.3289  34.3289  34.7513  34.7513
    34.7879  34.7879  35.5694  35.5694  36.2568  36.2568  36.5238  36.5238
    36.9696  36.9696  37.6424  37.6424  38.1338  38.1338  39.8464  39.8464
    40.0764  40.0764  41.3556  41.3556  42.9601  42.9601  43.9138  43.9138
    45.7065  45.7066  45.9787  45.9787  46.4058  46.4058  47.2133  47.2133
    47.6318  47.6319  48.1063  48.1062  48.5193  48.5193  49.1425  49.1423
    49.8004

          k = 0.0000 0.2358 0.0000 (  3664 PWs)   bands (ev):

   -53.0904 -53.0889 -53.0449 -53.0200 -30.2786 -30.2420 -30.1774 -30.1747
   -29.9776 -29.9217 -29.8845 -29.8557 -17.6928 -17.6765 -17.6755 -17.6609
   -17.6578 -17.6346 -17.6195 -17.6147 -17.5622 -17.5593 -17.5137 -17.5055
    -2.1841  -1.9572  -1.9466  -1.9353  -1.8767  -1.8322  -1.8025  -1.7179
    -1.6512  -1.5742  -1.4847  -1.4765  -1.4281  -1.1303  -1.0862  -0.9778
    -0.9619  -0.9612  -0.9547  -0.9048  -0.8415  -0.7339  -0.7153  -0.6334
    23.9374  23.9494  24.0190  24.0310  24.2383  24.3447  24.4857  24.4932
    24.6197  24.6940  24.7887  24.8484  24.8607  25.0416  25.0530  25.2339
    25.4269  25.4281  25.4606  25.5174  26.8638  27.9488  28.6837  29.3064
    29.7439  29.9282  29.9421  30.2506  30.4791  30.5850  30.6889  31.2782
    31.3723  31.3974  31.4696  31.8894  32.1860  32.4518  32.5664  32.6858
    32.9556  33.0854  33.4921  33.5955  34.0503  34.1354  34.2094  34.2973
    34.6908  34.7249  35.1857  35.7090  35.7141  35.7955  36.1936  36.2322
    36.4204  36.9420  37.0250  37.1966  37.2655  37.7576  37.9355  38.2899
    38.3439  38.4213  42.6806  43.7047  43.7641  44.8720  45.4752  45.9051
    46.1849  46.3881  46.6202  46.7017  46.8731  46.9597  47.3710  47.5456
    47.5985  47.7206  47.9920  48.0132  48.2016  48.3428  48.7191  48.8256
    48.8050

          k = 0.0000 0.2358 0.1222 (  3669 PWs)   bands (ev):

   -53.0849 -53.0798 -53.0598 -53.0401 -30.2760 -30.2461 -30.1868 -30.1768
   -29.9685 -29.9305 -29.8782 -29.8628 -17.6829 -17.6767 -17.6665 -17.6573
   -17.6534 -17.6411 -17.6368 -17.6196 -17.5685 -17.5635 -17.5284 -17.5070
    -2.1710  -2.0217  -1.9398  -1.9101  -1.8916  -1.8529  -1.7874  -1.6567
    -1.6461  -1.5322  -1.5012  -1.4990  -1.4095  -1.1641  -1.0672  -1.0188
    -1.0110  -1.0067  -0.9289  -0.8572  -0.8510  -0.7598  -0.6860  -0.6376
    23.8695  23.9642  24.0901  24.1634  24.1948  24.3990  24.4476  24.5623
    24.5892  24.6638  24.7299  24.7594  24.9925  25.0079  25.1100  25.2273
    25.3308  25.3424  25.4142  25.5803  27.1388  28.0754  28.7560  29.2528
    29.6959  29.9457  30.1150  30.3358  30.3361  30.5519  30.6007  31.1887
    31.1922  31.3565  31.4915  31.7442  32.1368  32.3350  32.3657  32.6176
    32.7775  33.2352  33.4664  33.5483  34.0533  34.1404  34.1487  34.5039
    34.5798  34.6958  35.0916  35.3910  35.4562  35.7361  36.1129  36.2800
    36.4699  36.8150  36.9826  37.2393  37.3205  38.0426  38.2305  38.3561
    38.9770  39.7530  43.0506  43.3753  43.7345  44.0500  44.8412  45.4557
    45.6496  46.2077  46.5713  46.7094  46.8524  47.1629  47.3874  47.5670
    47.6552  47.9517  47.9536  48.0804  48.4501  48.5407  48.7317  48.8287
    49.0978

          k = 0.0000 0.2358-0.2443 (  3666 PWs)   bands (ev):

   -53.0744 -53.0744 -53.0541 -53.0541 -30.2620 -30.2620 -30.1840 -30.1840
   -29.9437 -29.9437 -29.8713 -29.8713 -17.6746 -17.6746 -17.6521 -17.6521
   -17.6510 -17.6510 -17.6361 -17.6361 -17.5629 -17.5629 -17.5176 -17.5176
    -2.1050  -2.1050  -1.9034  -1.9034  -1.8911  -1.8911  -1.7151  -1.7151
    -1.5645  -1.5645  -1.4911  -1.4911  -1.2867  -1.2867  -1.0513  -1.0513
    -1.0469  -1.0469  -0.8874  -0.8874  -0.8042  -0.8042  -0.6521  -0.6521
    23.9241  23.9241  24.0571  24.0571  24.4602  24.4602  24.5526  24.5526
    24.6145  24.6145  24.7672  24.7672  24.8395  24.8395  25.1911  25.1911
    25.2970  25.2970  25.5022  25.5022  27.7919  27.7919  28.9706  28.9706
    29.7938  29.7938  30.3188  30.3188  30.5493  30.5493  30.7045  30.7045
    31.1872  31.1872  31.6534  31.6534  31.8629  31.8629  32.6876  32.6876
    33.1567  33.1567  33.2278  33.2278  33.9499  33.9499  34.0877  34.0877
    34.5273  34.5273  35.4743  35.4743  35.9226  35.9226  35.9261  35.9261
    36.6300  36.6300  37.1368  37.1368  37.6021  37.6021  38.3800  38.3800
    40.9524  40.9524  42.4759  42.4759  43.9074  43.9075  44.1565  44.1565
    46.1378  46.1379  46.5670  46.5671  47.0137  47.0137  47.4446  47.4447
    47.7580  47.7581  48.1279  48.1278  48.7232  48.7232  48.7864  48.7865
    49.3795

          k =-0.4608 0.0000 0.0000 (  3722 PWs)   bands (ev):

   -53.1105 -53.1105 -53.1075 -53.1075 -30.2301 -30.2301 -30.2116 -30.2116
   -30.0322 -30.0322 -29.8513 -29.8513 -17.6972 -17.6972 -17.6915 -17.6915
   -17.6791 -17.6791 -17.6628 -17.6628 -17.5717 -17.5717 -17.5389 -17.5389
    -2.2610  -2.2610  -2.0725  -2.0725  -1.9575  -1.9575  -1.7303  -1.7303
    -1.7281  -1.7281  -1.3864  -1.3864  -1.1754  -1.1754  -1.1656  -1.1656
    -0.9250  -0.9250  -0.8416  -0.8416  -0.7570  -0.7570  -0.3974  -0.3974
    23.8055  23.8055  24.1173  24.1173  24.2450  24.2450  24.3151  24.3151
    24.4769  24.4769  24.5277  24.5277  24.5813  24.5813  25.1093  25.1093
    25.3419  25.3419  25.9076  25.9076  27.7534  27.7534  28.5185  28.5185
    29.7897  29.7897  30.3297  30.3297  30.7302  30.7302  31.5863  31.5863
    32.2192  32.2192  32.3455  32.3455  32.6164  32.6164  32.8065  32.8065
    33.1580  33.1580  33.6779  33.6779  33.8262  33.8262  34.2242  34.2242
    34.2884  34.2884  35.4797  35.4797  35.6334  35.6334  36.0122  36.0122
    36.5316  36.5316  37.3813  37.3813  37.8005  37.8005  37.9389  37.9389
    38.2253  38.2253  38.7834  38.7834  43.7105  43.7105  44.2975  44.2976
    45.0569  45.0569  45.5955  45.5955  46.0678  46.0678  46.5220  46.5220
    47.4913  47.4913  48.5279  48.5279  49.1546  49.1546  49.8574  49.9046
    49.9046

          k =-0.4608 0.0000 0.1222 (  3710 PWs)   bands (ev):

   -53.1013 -53.1013 -53.0971 -53.0971 -30.2310 -30.2310 -30.2049 -30.2049
   -30.0267 -30.0267 -29.8495 -29.8495 -17.6978 -17.6978 -17.6881 -17.6881
   -17.6632 -17.6632 -17.6529 -17.6529 -17.5684 -17.5684 -17.5424 -17.5424
    -2.2641  -2.2641  -2.0905  -2.0905  -1.8622  -1.8622  -1.8060  -1.8060
    -1.6090  -1.6090  -1.4291  -1.4291  -1.3050  -1.3050  -1.0962  -1.0962
    -0.9089  -0.9089  -0.8359  -0.8359  -0.7561  -0.7561  -0.4013  -0.4013
    23.8690  23.8690  24.0102  24.0102  24.2392  24.2392  24.3943  24.3943
    24.4243  24.4243  24.6164  24.6164  24.6856  24.6856  25.0162  25.0162
    25.2718  25.2718  25.9115  25.9115  27.8307  27.8307  28.6730  28.6730
    29.8217  29.8217  30.4036  30.4036  30.8793  30.8793  31.5315  31.5315
    31.7533  31.7533  32.0752  32.0752  32.3028  32.3028  32.5710  32.5710
    33.0197  33.0197  33.4067  33.4067  33.7950  33.7950  34.8701  34.8701
    35.0701  35.0701  35.3685  35.3685  35.8320  35.8320  36.1578  36.1578
    36.2797  36.2797  37.3197  37.3197  37.3986  37.3986  37.9356  37.9356
    38.0787  38.0787  39.8619  39.8619  42.3650  42.3650  45.1239  45.1240
    45.4434  45.4434  45.7028  45.7028  46.4946  46.4946  46.7205  46.7206
    47.4455  47.4455  47.8870  47.8870  48.7040  48.7040  49.4557  49.4564
    49.8024

          k =-0.4608 0.0000-0.2443 (  3680 PWs)   bands (ev):

   -53.0832 -53.0832 -53.0694 -53.0694 -30.2199 -30.2199 -30.2005 -30.2005
   -30.0140 -30.0140 -29.8486 -29.8486 -17.6866 -17.6866 -17.6749 -17.6749
   -17.6586 -17.6586 -17.6324 -17.6324 -17.5514 -17.5514 -17.5390 -17.5390
    -2.2759  -2.2759  -2.0781  -2.0781  -1.8625  -1.8625  -1.6809  -1.6809
    -1.5610  -1.5610  -1.4942  -1.4942  -1.3848  -1.3848  -1.0935  -1.0935
    -0.8992  -0.8992  -0.8118  -0.8118  -0.7454  -0.7454  -0.3936  -0.3936
    23.8874  23.8874  24.0028  24.0028  24.2719  24.2719  24.2906  24.2906
    24.5520  24.5520  24.6452  24.6452  24.8169  24.8169  24.8790  24.8790
    25.1999  25.1999  25.9116  25.9116  27.8957  27.8957  28.9184  28.9184
    29.7193  29.7193  30.6501  30.6501  30.9863  30.9863  31.3855  31.3855
    31.4634  31.4634  31.6398  31.6398  32.1292  32.1292  32.4287  32.4287
    33.0636  33.0636  33.0798  33.0798  34.3812  34.3812  34.4278  34.4278
    35.4797  35.4797  35.8720  35.8720  35.8921  35.8921  36.2296  36.2296
    36.4414  36.4414  36.6103  36.6103  37.1806  37.1806  37.9016  37.9016
    38.8773  38.8773  40.4571  40.4571  41.2508  41.2508  45.6589  45.6590
    45.7026  45.7026  46.0426  46.0427  46.6821  46.6821  46.9486  46.9486
    47.1022  47.1024  48.1015  48.1017  48.3659  48.3659  48.4139  48.4140
    49.6560

          k =-0.4608 0.2358 0.0000 (  3686 PWs)   bands (ev):

   -53.0898 -53.0898 -53.0780 -53.0780 -30.2149 -30.2149 -30.2112 -30.2112
   -29.9811 -29.9811 -29.8926 -29.8926 -17.6822 -17.6822 -17.6760 -17.6760
   -17.6556 -17.6556 -17.6543 -17.6543 -17.5449 -17.5449 -17.5265 -17.5265
    -2.1478  -2.1478  -2.0781  -2.0781  -1.9446  -1.9446  -1.6724  -1.6724
    -1.5645  -1.5645  -1.4280  -1.4280  -1.2563  -1.2563  -1.1739  -1.1739
    -0.9068  -0.9068  -0.8408  -0.8408  -0.7548  -0.7548  -0.6500  -0.6500
    24.1052  24.1052  24.2110  24.2110  24.3033  24.3033  24.5011  24.5011
    24.6051  24.6051  24.8013  24.8013  25.0372  25.0372  25.0398  25.0398
    25.4309  25.4309  25.6862  25.6862  28.3514  28.3514  28.6442  28.6442
    29.9320  29.9320  30.6079  30.6079  30.6870  30.6870  31.2843  31.2843
    31.6340  31.6340  31.8464  31.8464  32.1500  32.1500  32.7575  32.7575
    32.8650  32.8650  33.3224  33.3224  33.7620  33.7620  34.0967  34.0967
    34.4789  34.4789  34.9940  34.9940  35.0037  35.0037  35.9035  35.9035
    36.2553  36.2553  36.6716  36.6716  36.7573  36.7573  37.7740  37.7740
    39.6907  39.6907  39.9358  39.9358  42.1107  42.1107  42.4991  42.4991
    45.9833  45.9834  47.2724  47.2724  47.2988  47.2988  47.7026  47.7026
    48.1537  48.1538  48.9188  48.9188  49.0421  49.0423  49.4475  49.4475
    50.0065

          k =-0.4608 0.2358 0.1222 (  3692 PWs)   bands (ev):

   -53.1018 -53.1018 -53.0741 -53.0741 -30.2200 -30.2200 -30.2106 -30.2106
   -29.9813 -29.9813 -29.8920 -29.8920 -17.6855 -17.6855 -17.6760 -17.6760
   -17.6580 -17.6580 -17.6516 -17.6516 -17.5558 -17.5558 -17.5262 -17.5262
    -2.1380  -2.1380  -2.0426  -2.0426  -1.9041  -1.9041  -1.7714  -1.7714
    -1.5982  -1.5982  -1.4199  -1.4199  -1.2427  -1.2427  -1.0996  -1.0996
    -0.9103  -0.9103  -0.8791  -0.8791  -0.7696  -0.7696  -0.6603  -0.6603
    24.1278  24.1278  24.2024  24.2024  24.3240  24.3240  24.5065  24.5065
    24.6478  24.6478  24.7750  24.7750  24.9576  24.9576  25.0321  25.0321
    25.4894  25.4894  25.6992  25.6992  28.4465  28.4465  28.7848  28.7848
    30.0475  30.0475  30.5935  30.5935  30.7401  30.7401  31.0499  31.0499
    31.4687  31.4687  31.6124  31.6124  32.1562  32.1562  32.3588  32.3588
    33.1142  33.1142  33.3258  33.3258  33.5530  33.5530  34.1893  34.1893
    34.3909  34.3909  34.7489  34.7489  35.4354  35.4354  35.8385  35.8385
    36.4135  36.4135  36.6510  36.6510  37.1108  37.1108  37.7527  37.7527
    39.4578  39.4578  40.1778  40.1778  41.6293  41.6293  43.6894  43.6894
    46.2531  46.2531  46.8170  46.8170  47.2090  47.2090  47.5939  47.5939
    47.9674  47.9675  48.6642  48.6644  49.0920  49.0919  49.5167  49.5167
    49.8300

          k =-0.4608 0.2358-0.2443 (  3704 PWs)   bands (ev):

   -53.1151 -53.1151 -53.0795 -53.0795 -30.2228 -30.2228 -30.2124 -30.2124
   -29.9861 -29.9861 -29.8938 -29.8938 -17.6883 -17.6883 -17.6761 -17.6761
   -17.6669 -17.6669 -17.6558 -17.6558 -17.5562 -17.5562 -17.5391 -17.5391
    -2.1375  -2.1375  -1.9663  -1.9663  -1.9035  -1.9035  -1.7961  -1.7961
    -1.7184  -1.7184  -1.4096  -1.4096  -1.2072  -1.2072  -1.0237  -1.0237
    -0.9513  -0.9513  -0.9183  -0.9183  -0.7707  -0.7707  -0.6688  -0.6688
    24.1289  24.1289  24.2452  24.2452  24.2929  24.2929  24.5422  24.5422
    24.7029  24.7029  24.7256  24.7256  24.9472  24.9472  24.9716  24.9716
    25.5231  25.5231  25.7242  25.7242  28.5610  28.5610  28.9593  28.9593
    30.1249  30.1249  30.5440  30.5440  30.7434  30.7434  30.8826  30.8826
    31.0080  31.0080  31.7456  31.7456  32.0852  32.0852  32.6272  32.6272
    32.7271  32.7271  33.2491  33.2491  33.4575  33.4575  34.1873  34.1873
    34.2743  34.2743  34.7632  34.7632  35.3283  35.3283  36.0875  36.0875
    36.5234  36.5234  37.0401  37.0401  37.3522  37.3522  37.5202  37.5202
    39.4575  39.4575  40.0543  40.0543  41.6250  41.6250  45.0628  45.0628
    46.1432  46.1432  46.7989  46.7989  46.8064  46.8064  47.1254  47.1254
    47.9406  47.9407  47.9549  47.9551  48.8514  48.8514  49.9540  49.9540
    50.0605

     the Fermi energy is    40.1354 ev

!    total energy              =   -2778.47917465 Ry
     Harris-Foulkes estimate   =   -2778.47923357 Ry
     estimated scf accuracy    <       0.00006634 Ry

     The total energy is the sum of the following terms:

     one-electron contribution =      11.00314282 Ry
     hartree contribution      =     272.02925827 Ry
     xc contribution           =    -272.94253826 Ry
     ewald contribution        =   -2788.39311123 Ry
     smearing contrib. (-TS)   =      -0.17592625 Ry

     convergence has been achieved in   6 iterations

     Forces acting on atoms (Ry/au):

     atom    1 type  1   force =     0.00000000   -0.01378535   -0.01829682
     atom    2 type  1   force =     0.00000000    0.01378535    0.01829682
     atom    3 type  1   force =     0.00000000   -0.01378535    0.01829682
     atom    4 type  1   force =     0.00000000    0.01378535   -0.01829682
     atom    5 type  1   force =     0.00000000    0.07347681   -0.14581408
     atom    6 type  1   force =     0.00000000   -0.07347681    0.14581408
     atom    7 type  1   force =     0.00000000    0.07347681    0.14581408
     atom    8 type  1   force =     0.00000000   -0.07347681   -0.14581408
     atom    9 type  2   force =     0.00000000   -0.10324248    0.02014691
     atom   10 type  2   force =     0.00000000    0.10324248   -0.02014691
     atom   11 type  2   force =     0.00000000   -0.10324248   -0.02014691
     atom   12 type  2   force =     0.00000000    0.10324248    0.02014691

     Total force =     0.391154     Total SCF correction =     0.000000


     entering subroutine stress ...

          total   stress  (Ry/bohr**3)                   (kbar)     P= 2124.85
   0.01565529   0.00000000   0.00000000       2302.97      0.00      0.00
   0.00000000   0.01337062   0.00000000          0.00   1966.89      0.00
   0.00000000   0.00000000   0.01430733          0.00      0.00   2104.68


     number of scf cycles    =   2
     number of bfgs steps    =   1

     enthalpy old            =   -2771.9344921125 Ry
     enthalpy new            =   -2778.4791746525 Ry

     CASE: enthalpy_new < enthalpy_old

     small trust_radius: resetting bfgs history

     new trust radius        =       2.5767636001 bohr
     new conv_thr            =       0.0001000000 Ry

     new unit-cell volume =   2731.33071 a.u.^3 (   404.74145 Ang^3 )

CELL_PARAMETERS (alat=  7.01510508)
   1.509839732   0.000000000   0.000000000
   0.000000000   1.885980881   0.000000000
   0.000000000   0.000000000   2.778456557

ATOMIC_POSITIONS (crystal)
Co       0.750000000   0.824729663   0.434234993
Co       0.250000000   0.175270337   0.565765007
Co       0.750000000   0.324729663   0.065765007
Co       0.250000000   0.675270337   0.934234993
Co       0.250000000   0.545397477   0.271033236
Co       0.750000000   0.454602523   0.728966764
Co       0.250000000   0.045397477   0.228966764
Co       0.750000000   0.954602523   0.771033236
Si       0.250000000   0.191150977   0.895207522
Si       0.750000000   0.808849023   0.104792478
Si       0.250000000   0.691150977   0.604792478
Si       0.750000000   0.308849023   0.395207522



     Writing output data file Prototype-La-oP12-Co2Si.save
     NEW-OLD atomic charge density approx. for the potential
     NEW k-points:
        k(    1) = (   0.0000000   0.0000000   0.0000000), wk =   0.0833333
        k(    2) = (   0.0000000   0.0000000   0.0899780), wk =   0.1666667
        k(    3) = (   0.0000000   0.0000000  -0.1799560), wk =   0.0833333
        k(    4) = (   0.0000000   0.1767427   0.0000000), wk =   0.1666667
        k(    5) = (   0.0000000   0.1767427   0.0899780), wk =   0.3333333
        k(    6) = (   0.0000000   0.1767427  -0.1799560), wk =   0.1666667
        k(    7) = (  -0.3311610   0.0000000   0.0000000), wk =   0.0833333
        k(    8) = (  -0.3311610   0.0000000   0.0899780), wk =   0.1666667
        k(    9) = (  -0.3311610   0.0000000  -0.1799560), wk =   0.0833333
        k(   10) = (  -0.3311610   0.1767427   0.0000000), wk =   0.1666667
        k(   11) = (  -0.3311610   0.1767427   0.0899780), wk =   0.3333333
        k(   12) = (  -0.3311610   0.1767427  -0.1799560), wk =   0.1666667

     total cpu time spent up to now is      373.3 secs

     Self-consistent Calculation

     iteration #  1     ecut=    40.00 Ry     beta=0.70
     CG style diagonalization
     c_bands:  1 eigenvalues not converged
     c_bands:  5 eigenvalues not converged
     c_bands:  5 eigenvalues not converged
     c_bands:  2 eigenvalues not converged
     c_bands:  3 eigenvalues not converged
     ethr =  1.00E-06,  avg # of iterations = 31.7

     total cpu time spent up to now is      459.4 secs

     total energy              =   -2654.45439694 Ry
     Harris-Foulkes estimate   =   -2996.10761766 Ry
     estimated scf accuracy    <     437.65849554 Ry

     iteration #  2     ecut=    40.00 Ry     beta=0.70
     CG style diagonalization
     ethr =  1.00E-02,  avg # of iterations =  5.7

     total cpu time spent up to now is      476.6 secs

     total energy              =   -2732.38886326 Ry
     Harris-Foulkes estimate   =   -2785.66720074 Ry
     estimated scf accuracy    <      78.71673718 Ry

     iteration #  3     ecut=    40.00 Ry     beta=0.70
     CG style diagonalization
     ethr =  1.00E-02,  avg # of iterations =  4.7

     total cpu time spent up to now is      490.8 secs

     total energy              =   -2763.05904974 Ry
     Harris-Foulkes estimate   =   -2777.23794352 Ry
     estimated scf accuracy    <      33.39800107 Ry

     iteration #  4     ecut=    40.00 Ry     beta=0.70
     CG style diagonalization
     ethr =  1.00E-02,  avg # of iterations =  3.3

     total cpu time spent up to now is      499.3 secs

     total energy              =   -2765.11574128 Ry
     Harris-Foulkes estimate   =   -2766.34898418 Ry
     estimated scf accuracy    <       5.47242091 Ry

     iteration #  5     ecut=    40.00 Ry     beta=0.70
     CG style diagonalization
     ethr =  2.40E-03,  avg # of iterations =  3.0

     total cpu time spent up to now is      507.2 secs

     total energy              =   -2765.05349617 Ry
     Harris-Foulkes estimate   =   -2765.44918931 Ry
     estimated scf accuracy    <       2.22276327 Ry

     iteration #  6     ecut=    40.00 Ry     beta=0.70
     CG style diagonalization
     ethr =  9.75E-04,  avg # of iterations =  3.1

     total cpu time spent up to now is      515.9 secs

     total energy              =   -2764.74915553 Ry
     Harris-Foulkes estimate   =   -2765.13100034 Ry
     estimated scf accuracy    <       1.01146434 Ry

     iteration #  7     ecut=    40.00 Ry     beta=0.70
     CG style diagonalization
     ethr =  4.44E-04,  avg # of iterations =  3.4

     total cpu time spent up to now is      525.1 secs

     total energy              =   -2764.89502372 Ry
     Harris-Foulkes estimate   =   -2764.91584849 Ry
     estimated scf accuracy    <       0.07117949 Ry

     iteration #  8     ecut=    40.00 Ry     beta=0.70
     CG style diagonalization
     c_bands:  1 eigenvalues not converged
     ethr =  3.12E-05,  avg # of iterations =  3.7

     total cpu time spent up to now is      535.2 secs

     total energy              =   -2764.90293778 Ry
     Harris-Foulkes estimate   =   -2764.90719372 Ry
     estimated scf accuracy    <       0.01742552 Ry

     iteration #  9     ecut=    40.00 Ry     beta=0.70
     CG style diagonalization
     c_bands:  1 eigenvalues not converged
     ethr =  7.64E-06,  avg # of iterations =  3.2

     total cpu time spent up to now is      544.1 secs

     total energy              =   -2764.90280885 Ry
     Harris-Foulkes estimate   =   -2764.90487568 Ry
     estimated scf accuracy    <       0.00590616 Ry

     iteration # 10     ecut=    40.00 Ry     beta=0.70
     CG style diagonalization
     c_bands:  1 eigenvalues not converged
     ethr =  2.59E-06,  avg # of iterations =  3.3

     total cpu time spent up to now is      554.3 secs

     total energy              =   -2764.90379114 Ry
     Harris-Foulkes estimate   =   -2764.90386770 Ry
     estimated scf accuracy    <       0.00023312 Ry

     iteration # 11     ecut=    40.00 Ry     beta=0.70
     CG style diagonalization
     ethr =  1.02E-07,  avg # of iterations =  3.6

     total cpu time spent up to now is      564.8 secs

     total energy              =   -2764.90380441 Ry
     Harris-Foulkes estimate   =   -2764.90388044 Ry
     estimated scf accuracy    <       0.00025833 Ry

     iteration # 12     ecut=    40.00 Ry     beta=0.70
     CG style diagonalization
     ethr =  1.02E-07,  avg # of iterations =  3.0

     total cpu time spent up to now is      573.4 secs

     End of self-consistent calculation

          k = 0.0000 0.0000 0.0000 (  3675 PWs)   bands (ev):

   -74.7016 -74.6971 -74.6480 -74.6087 -51.3879 -51.3357 -51.3095 -51.2421
   -51.1998 -51.1384 -51.0833 -51.0221 -44.5426 -44.5401 -44.5388 -44.5378
   -44.5111 -44.5076 -44.5068 -44.5035 -44.4622 -44.4600 -44.4532 -44.4517
   -25.2509 -25.2505 -25.2479 -25.2458 -25.2327 -25.2324 -25.2290 -25.2250
   -25.2231 -25.2201 -25.2199 -25.2141 -25.1925 -25.1904 -25.1670 -25.1667
   -25.1659 -25.1657 -25.1495 -25.1482 -25.1481 -25.1441 -25.1007 -25.0995
     1.0125   1.0387   1.0439   1.0565   1.0690   1.1202   1.1228   1.1946
     1.2061   1.2181   1.2443   1.2540   1.2600   1.3474   1.3644   1.3685
     1.3736   1.4195   1.4343   1.4539   6.4402   7.4299   7.4775   8.0137
     8.9743   8.9792   9.0315   9.2150   9.2309   9.3363   9.3502   9.3764
     9.4086   9.4266   9.4453   9.5451   9.6215   9.6424   9.6435   9.7095
     9.8649  10.0153  10.0349  10.0697  10.1380  10.2218  10.2700  10.2779
    10.3207  10.3384  10.4143  10.4386  10.5521  10.5682  10.5727  10.6039
    10.6242  10.8201  10.8324  10.8852  10.9408  10.9781  10.9911  11.5606
    12.1641  12.2994  12.4546  12.6413  12.9598  13.6572  14.2288  14.7310
    14.8504  15.1284  15.1480  15.3100  15.4575  15.8871  16.4569  16.6859
    16.6893  17.4086  17.4368  17.6918  17.9742  18.3161  18.5325  18.5888
    18.6137

          k = 0.0000 0.0000 0.0900 (  3675 PWs)   bands (ev):

   -74.7195 -74.6794 -74.6507 -74.6082 -51.3917 -51.3647 -51.3359 -51.2400
   -51.1616 -51.1388 -51.0997 -50.9801 -44.5419 -44.5409 -44.5392 -44.5381
   -44.5096 -44.5091 -44.5061 -44.5035 -44.4609 -44.4580 -44.4539 -44.4488
   -25.2515 -25.2498 -25.2483 -25.2471 -25.2345 -25.2342 -25.2275 -25.2255
   -25.2236 -25.2232 -25.2180 -25.2147 -25.1919 -25.1914 -25.1684 -25.1665
   -25.1658 -25.1637 -25.1507 -25.1488 -25.1454 -25.1424 -25.1030 -25.1018
     1.0205   1.0309   1.0437   1.0688   1.0777   1.1186   1.1246   1.1318
     1.1859   1.1873   1.2310   1.2666   1.2719   1.3464   1.3553   1.3962
     1.4016   1.4157   1.4745   1.4793   6.5353   7.1212   7.6904   7.9746
     9.0243   9.0292   9.0675   9.1972   9.2408   9.2710   9.3821   9.4040
     9.4257   9.4283   9.4645   9.4713   9.5175   9.6621   9.6905   9.7089
     9.8186   9.8399   9.8442  10.1189  10.2274  10.2304  10.2402  10.2580
    10.3942  10.4176  10.4354  10.5381  10.5583  10.5743  10.5781  10.6104
    10.6486  10.7883  10.8400  10.9099  10.9374  10.9746  11.1540  11.5391
    12.0702  12.4544  12.5687  12.6416  13.3190  13.3668  13.9487  14.2786
    14.4771  14.6791  15.4583  15.8393  15.9780  16.1835  16.4357  16.4672
    16.6241  17.4500  17.6140  17.8206  17.8280  18.2910  18.3314  18.4681
    18.6789

          k = 0.0000 0.0000-0.1800 (  3690 PWs)   bands (ev):

   -74.7418 -74.7418 -74.6590 -74.6590 -51.4398 -51.4398 -51.2739 -51.2739
   -51.2007 -51.2007 -51.0555 -51.0555 -44.5416 -44.5416 -44.5393 -44.5393
   -44.5077 -44.5077 -44.5058 -44.5058 -44.4591 -44.4591 -44.4488 -44.4488
   -25.2521 -25.2521 -25.2505 -25.2505 -25.2362 -25.2362 -25.2271 -25.2271
   -25.2260 -25.2260 -25.2152 -25.2152 -25.1949 -25.1949 -25.1677 -25.1677
   -25.1647 -25.1647 -25.1521 -25.1521 -25.1467 -25.1467 -25.1053 -25.1053
     1.0191   1.0191   1.0200   1.0200   1.0513   1.0513   1.0813   1.0813
     1.1893   1.1893   1.2736   1.2736   1.3306   1.3306   1.3867   1.3867
     1.3924   1.3924   1.4583   1.4583   6.7774   6.7774   7.8553   7.8553
     9.0859   9.0859   9.1399   9.1399   9.2405   9.2405   9.3994   9.3994
     9.4078   9.4078   9.5271   9.5271   9.5813   9.5813   9.5813   9.5813
     9.7142   9.7142   9.9944   9.9944  10.2068  10.2068  10.3037  10.3037
    10.4294  10.4294  10.5147  10.5147  10.5680  10.5680  10.5734  10.5734
    10.7179  10.7179  10.8517  10.8517  10.9492  10.9492  11.5397  11.5397
    12.3432  12.3432  12.5196  12.5196  13.3873  13.3873  13.8421  13.8421
    14.4578  14.4578  15.8525  15.8525  16.1330  16.1330  16.3369  16.3369
    17.2209  17.2210  17.7198  17.7200  18.0252  18.0253  18.1864  18.1869
    19.1987

          k = 0.0000 0.1767 0.0000 (  3664 PWs)   bands (ev):

   -74.7433 -74.6841 -74.5724 -74.5476 -51.3407 -51.3382 -51.2921 -51.2837
   -51.1265 -51.0777 -51.0372 -51.0341 -44.5417 -44.5410 -44.5389 -44.5361
   -44.5102 -44.5096 -44.5029 -44.5017 -44.4603 -44.4558 -44.4519 -44.4500
   -25.2501 -25.2498 -25.2461 -25.2451 -25.2327 -25.2319 -25.2267 -25.2257
   -25.2237 -25.2230 -25.2180 -25.2155 -25.1741 -25.1702 -25.1681 -25.1673
   -25.1660 -25.1648 -25.1551 -25.1493 -25.1436 -25.1385 -25.1204 -25.1165
     1.0231   1.0361   1.0704   1.0961   1.1102   1.1268   1.1658   1.1764
     1.1809   1.2191   1.2352   1.2715   1.2892   1.3129   1.3891   1.4050
     1.4090   1.4203   1.4797   1.5029   6.7972   7.4836   7.6596   7.8992
     8.9770   9.0607   9.0936   9.1744   9.1780   9.2471   9.3154   9.3381
     9.4157   9.4471   9.4990   9.5330   9.6070   9.6666   9.6923   9.7127
     9.7920   9.9565   9.9575   9.9643  10.0448  10.0943  10.1426  10.2188
    10.2599  10.2920  10.4273  10.4539  10.4656  10.4693  10.6211  10.6542
    10.6730  10.6738  10.6968  10.7149  10.8265  10.9423  10.9520  10.9864
    11.3802  11.4457  13.3081  13.3243  13.7290  14.7058  14.8874  15.0623
    15.1108  15.2552  15.4221  15.5124  15.6154  15.8090  16.1300  16.2183
    16.7145  16.7638  16.8768  17.2132  17.5863  18.0582  18.5517  19.1507
    19.5699

          k = 0.0000 0.1767 0.0900 (  3669 PWs)   bands (ev):

   -74.7317 -74.6746 -74.6230 -74.5727 -51.4025 -51.3494 -51.2715 -51.2310
   -51.1661 -51.1068 -51.0542 -51.0363 -44.5415 -44.5411 -44.5391 -44.5376
   -44.5097 -44.5079 -44.5064 -44.5032 -44.4589 -44.4553 -44.4516 -44.4484
   -25.2515 -25.2498 -25.2475 -25.2462 -25.2343 -25.2327 -25.2270 -25.2267
   -25.2246 -25.2234 -25.2165 -25.2147 -25.1747 -25.1712 -25.1682 -25.1669
   -25.1656 -25.1651 -25.1533 -25.1510 -25.1431 -25.1397 -25.1213 -25.1176
     1.0196   1.0467   1.0579   1.0647   1.1024   1.1152   1.1240   1.1413
     1.1873   1.2231   1.2415   1.2544   1.2886   1.3264   1.3811   1.4072
     1.4209   1.4418   1.4734   1.5004   6.8798   7.3611   7.7027   7.8763
     8.9829   9.0358   9.0935   9.1233   9.2237   9.2408   9.3100   9.3177
     9.4110   9.4417   9.4964   9.5242   9.6133   9.6451   9.6991   9.7197
     9.7959   9.8447   9.9175   9.9805  10.0684  10.1193  10.1835  10.2644
    10.2763  10.2900  10.3573  10.4150  10.4270  10.4480  10.5705  10.6195
    10.6656  10.6846  10.6849  10.7513  10.8349  10.9499  10.9623  10.9793
    11.5643  12.0232  13.0862  13.5200  13.5613  14.3832  14.4489  14.7582
    15.0723  15.2024  15.2441  15.4870  15.6707  15.7786  16.1531  16.6020
    16.8953  17.1391  17.2944  17.6169  17.9539  18.0323  18.3035  18.8258
    19.2860

          k = 0.0000 0.1767-0.1800 (  3666 PWs)   bands (ev):

   -74.6755 -74.6755 -74.6101 -74.6101 -51.3448 -51.3448 -51.2139 -51.2139
   -51.1503 -51.1503 -51.0755 -51.0755 -44.5418 -44.5418 -44.5375 -44.5375
   -44.5085 -44.5085 -44.5058 -44.5058 -44.4571 -44.4571 -44.4508 -44.4508
   -25.2495 -25.2495 -25.2475 -25.2475 -25.2327 -25.2327 -25.2254 -25.2254
   -25.2240 -25.2240 -25.2150 -25.2150 -25.1731 -25.1731 -25.1672 -25.1672
   -25.1658 -25.1658 -25.1525 -25.1525 -25.1400 -25.1400 -25.1197 -25.1197
     1.0477   1.0477   1.0613   1.0613   1.0924   1.0924   1.1526   1.1526
     1.2112   1.2112   1.2569   1.2569   1.3093   1.3093   1.3941   1.3941
     1.4231   1.4231   1.4842   1.4842   7.1020   7.1020   7.8027   7.8027
     8.9661   8.9661   9.1789   9.1789   9.1855   9.1855   9.3210   9.3210
     9.4012   9.4012   9.5327   9.5327   9.6019   9.6019   9.6862   9.6862
     9.8228   9.8228   9.8927   9.8927  10.1426  10.1426  10.1840  10.1840
    10.2784  10.2784  10.4230  10.4230  10.4391  10.4391  10.5833  10.5833
    10.6632  10.6632  10.7227  10.7227  10.8925  10.8925  10.9772  10.9772
    12.3221  12.3221  12.9071  12.9071  14.0427  14.0427  14.1663  14.1663
    15.1657  15.1657  15.4571  15.4571  15.5531  15.5531  16.5842  16.5842
    17.2171  17.2172  17.8093  17.8094  18.0583  18.0584  18.7286  18.7293
    19.1539

          k =-0.3312 0.0000 0.0000 (  3722 PWs)   bands (ev):

   -74.7980 -74.7980 -74.7663 -74.7663 -51.3858 -51.3858 -51.3537 -51.3537
   -51.3012 -51.3012 -51.2495 -51.2495 -44.5407 -44.5407 -44.5390 -44.5390
   -44.5093 -44.5093 -44.5090 -44.5090 -44.4704 -44.4704 -44.4632 -44.4632
   -25.2534 -25.2534 -25.2519 -25.2519 -25.2379 -25.2379 -25.2331 -25.2331
   -25.2213 -25.2213 -25.2168 -25.2168 -25.1934 -25.1934 -25.1708 -25.1708
   -25.1661 -25.1661 -25.1518 -25.1518 -25.1435 -25.1435 -25.1019 -25.1019
     0.9890   0.9890   1.0053   1.0053   1.0685   1.0685   1.1034   1.1034
     1.2078   1.2078   1.2370   1.2370   1.2588   1.2588   1.2807   1.2807
     1.2817   1.2817   1.3139   1.3139   7.4073   7.4073   7.5647   7.5647
     8.9388   8.9388   9.2803   9.2803   9.2847   9.2847   9.5473   9.5473
     9.5794   9.5794   9.7639   9.7639   9.7703   9.7703   9.8670   9.8670
     9.8682   9.8682  10.0046  10.0046  10.1028  10.1028  10.1841  10.1841
    10.2228  10.2228  10.2303  10.2303  10.3533  10.3533  10.4350  10.4350
    10.7292  10.7292  10.8428  10.8428  11.0569  11.0569  11.0956  11.0956
    11.2301  11.2301  12.0673  12.0673  13.1570  13.1570  14.0519  14.0519
    14.3998  14.3998  14.4032  14.4032  15.6832  15.6832  16.5317  16.5318
    16.5711  16.5711  18.4702  18.4703  18.8900  18.8902  19.2009  19.2011
    20.1410

          k =-0.3312 0.0000 0.0900 (  3710 PWs)   bands (ev):

   -74.7567 -74.7567 -74.7466 -74.7466 -51.3700 -51.3700 -51.3322 -51.3322
   -51.2515 -51.2515 -51.2280 -51.2280 -44.5403 -44.5403 -44.5390 -44.5390
   -44.5091 -44.5091 -44.5065 -44.5065 -44.4682 -44.4682 -44.4621 -44.4621
   -25.2532 -25.2532 -25.2513 -25.2513 -25.2360 -25.2360 -25.2327 -25.2327
   -25.2217 -25.2217 -25.2157 -25.2157 -25.1925 -25.1925 -25.1700 -25.1700
   -25.1658 -25.1658 -25.1486 -25.1486 -25.1456 -25.1456 -25.1038 -25.1038
     1.0124   1.0124   1.0417   1.0417   1.0566   1.0566   1.0809   1.0809
     1.2221   1.2221   1.2439   1.2439   1.2847   1.2847   1.2934   1.2934
     1.3146   1.3146   1.3476   1.3476   7.4350   7.4350   7.5657   7.5657
     8.9216   8.9216   9.2522   9.2522   9.3158   9.3158   9.4891   9.4891
     9.5835   9.5835   9.6770   9.6770   9.7351   9.7351   9.7953   9.7953
     9.8763   9.8763   9.9979   9.9979  10.0608  10.0608  10.2205  10.2205
    10.2431  10.2431  10.3623  10.3623  10.3993  10.3993  10.5394  10.5394
    10.7052  10.7052  10.8046  10.8046  10.9245  10.9245  11.0893  11.0893
    11.5779  11.5779  12.2896  12.2896  13.0068  13.0068  13.4870  13.4870
    14.4668  14.4668  14.9650  14.9650  15.3517  15.3517  16.0252  16.0252
    17.4369  17.4369  17.9655  17.9655  18.4633  18.4633  19.9020  19.9021
    20.5059

          k =-0.3312 0.0000-0.1800 (  3680 PWs)   bands (ev):

   -74.7050 -74.7050 -74.6506 -74.6506 -51.2841 -51.2841 -51.2810 -51.2810
   -51.2061 -51.2061 -51.1484 -51.1484 -44.5398 -44.5398 -44.5389 -44.5389
   -44.5057 -44.5057 -44.5054 -44.5054 -44.4643 -44.4643 -44.4598 -44.4598
   -25.2507 -25.2507 -25.2492 -25.2492 -25.2326 -25.2326 -25.2302 -25.2302
   -25.2214 -25.2214 -25.2145 -25.2145 -25.1931 -25.1931 -25.1684 -25.1684
   -25.1651 -25.1651 -25.1473 -25.1473 -25.1419 -25.1419 -25.1024 -25.1024
     1.0319   1.0319   1.0437   1.0437   1.0954   1.0954   1.1313   1.1313
     1.2379   1.2379   1.2679   1.2679   1.3212   1.3212   1.3343   1.3343
     1.3714   1.3714   1.4003   1.4003   7.4774   7.4774   7.5670   7.5670
     8.8996   8.8996   9.2374   9.2374   9.3549   9.3549   9.3755   9.3755
     9.5968   9.5968   9.6841   9.6841   9.7039   9.7039   9.7650   9.7650
     9.8600   9.8600   9.9871   9.9871  10.1431  10.1431  10.1524  10.1524
    10.2440  10.2440  10.4378  10.4378  10.5059  10.5059  10.6627  10.6627
    10.6914  10.6914  10.7829  10.7829  10.7913  10.7913  11.0978  11.0978
    12.0288  12.0288  12.6438  12.6438  12.8573  12.8573  12.8806  12.8806
    14.5493  14.5493  14.6748  14.6748  15.9594  15.9594  16.1560  16.1560
    16.5066  16.5067  18.0574  18.0574  19.2309  19.2309  19.5921  19.5923
    20.7218

          k =-0.3312 0.1767 0.0000 (  3686 PWs)   bands (ev):

   -74.7052 -74.7052 -74.6872 -74.6872 -51.3000 -51.3000 -51.2908 -51.2908
   -51.2236 -51.2236 -51.1922 -51.1922 -44.5404 -44.5404 -44.5391 -44.5391
   -44.5081 -44.5081 -44.5067 -44.5067 -44.4684 -44.4684 -44.4640 -44.4640
   -25.2489 -25.2489 -25.2480 -25.2480 -25.2330 -25.2330 -25.2302 -25.2302
   -25.2175 -25.2175 -25.2146 -25.2146 -25.1706 -25.1706 -25.1685 -25.1685
   -25.1664 -25.1664 -25.1515 -25.1515 -25.1371 -25.1371 -25.1182 -25.1182
     1.0465   1.0465   1.0805   1.0805   1.1108   1.1108   1.1365   1.1365
     1.2247   1.2247   1.2451   1.2451   1.2877   1.2877   1.3021   1.3021
     1.3269   1.3269   1.3324   1.3324   7.6100   7.6100   7.7066   7.7066
     9.0886   9.0886   9.2314   9.2314   9.3394   9.3394   9.5329   9.5329
     9.5998   9.5998   9.6728   9.6728   9.6755   9.6755   9.7721   9.7721
     9.8919   9.8919   9.9467   9.9467  10.0437  10.0437  10.0830  10.0830
    10.1262  10.1262  10.2536  10.2536  10.2565  10.2565  10.6010  10.6010
    10.6154  10.6154  10.6941  10.6941  10.7869  10.7869  10.9222  10.9222
    11.6789  11.6789  11.7805  11.7805  12.6802  12.6802  12.9008  12.9008
    15.2142  15.2142  16.4718  16.4718  16.7954  16.7954  16.9305  16.9306
    17.1694  17.1695  17.4047  17.4047  18.4576  18.4577  19.3222  19.3222
    20.0365

          k =-0.3312 0.1767 0.0900 (  3692 PWs)   bands (ev):

   -74.7573 -74.7573 -74.6633 -74.6633 -51.3150 -51.3150 -51.2948 -51.2948
   -51.2279 -51.2279 -51.2073 -51.2073 -44.5407 -44.5407 -44.5401 -44.5401
   -44.5073 -44.5073 -44.5068 -44.5068 -44.4651 -44.4651 -44.4627 -44.4627
   -25.2501 -25.2501 -25.2484 -25.2484 -25.2333 -25.2333 -25.2316 -25.2316
   -25.2176 -25.2176 -25.2156 -25.2156 -25.1737 -25.1737 -25.1679 -25.1679
   -25.1661 -25.1661 -25.1528 -25.1528 -25.1385 -25.1385 -25.1189 -25.1189
     1.0310   1.0310   1.0730   1.0730   1.0915   1.0915   1.1232   1.1232
     1.1964   1.1964   1.2428   1.2428   1.2704   1.2704   1.3054   1.3054
     1.3559   1.3559   1.3760   1.3760   7.6334   7.6334   7.7077   7.7077
     9.0586   9.0586   9.2272   9.2272   9.3563   9.3563   9.5065   9.5065
     9.5458   9.5458   9.6003   9.6003   9.7211   9.7211   9.7476   9.7476
     9.8564   9.8564   9.9128   9.9128  10.0530  10.0530  10.1068  10.1068
    10.1848  10.1848  10.2385  10.2385  10.3621  10.3621  10.5236  10.5236
    10.6110  10.6110  10.6805  10.6805  10.8010  10.8010  10.9064  10.9064
    11.6159  11.6159  11.9625  11.9625  12.5400  12.5400  13.5446  13.5446
    14.7451  14.7451  15.8524  15.8524  16.1014  16.1014  16.7171  16.7171
    17.9060  17.9061  18.4314  18.4314  18.7181  18.7181  19.5618  19.5619
    19.9559

          k =-0.3312 0.1767-0.1800 (  3704 PWs)   bands (ev):

   -74.7963 -74.7963 -74.6848 -74.6848 -51.3411 -51.3411 -51.3282 -51.3282
   -51.2466 -51.2466 -51.2269 -51.2269 -44.5411 -44.5411 -44.5411 -44.5411
   -44.5067 -44.5067 -44.5054 -44.5054 -44.4654 -44.4654 -44.4639 -44.4639
   -25.2518 -25.2518 -25.2493 -25.2493 -25.2346 -25.2346 -25.2329 -25.2329
   -25.2191 -25.2191 -25.2159 -25.2159 -25.1761 -25.1761 -25.1675 -25.1675
   -25.1662 -25.1662 -25.1536 -25.1536 -25.1400 -25.1400 -25.1215 -25.1215
     1.0309   1.0309   1.0345   1.0345   1.0919   1.0919   1.0949   1.0949
     1.1848   1.1848   1.2240   1.2240   1.2658   1.2658   1.2740   1.2740
     1.3590   1.3590   1.3985   1.3985   7.6571   7.6571   7.7057   7.7057
     9.0166   9.0166   9.2193   9.2193   9.3418   9.3418   9.5003   9.5003
     9.5173   9.5173   9.6276   9.6276   9.6969   9.6969   9.7377   9.7377
     9.7755   9.7755   9.8884   9.8884  10.0732  10.0732  10.1265  10.1265
    10.1962  10.1962  10.3101  10.3101  10.3352  10.3352  10.5471  10.5471
    10.5517  10.5517  10.7249  10.7249  10.7476  10.7476  10.9167  10.9167
    11.6875  11.6875  11.8210  11.8210  12.9530  12.9530  13.9045  13.9045
    14.6983  14.6983  14.7131  14.7131  16.0534  16.0535  16.5292  16.5292
    18.5912  18.5912  18.7802  18.7802  19.2875  19.2876  19.6887  19.6888
    19.7804

     the Fermi energy is    12.3152 ev

!    total energy              =   -2764.90382825 Ry
     Harris-Foulkes estimate   =   -2764.90383362 Ry
     estimated scf accuracy    <       0.00000626 Ry

     The total energy is the sum of the following terms:

     one-electron contribution =   -1048.47124361 Ry
     hartree contribution      =     592.23856266 Ry
     xc contribution           =    -256.91736243 Ry
     ewald contribution        =   -2051.21238762 Ry
     smearing contrib. (-TS)   =      -0.54139724 Ry

     convergence has been achieved in  12 iterations

     Forces acting on atoms (Ry/au):

     atom    1 type  1   force =     0.00000000   -0.00336043    0.00541080
     atom    2 type  1   force =     0.00000000    0.00336043   -0.00541080
     atom    3 type  1   force =     0.00000000   -0.00336043   -0.00541080
     atom    4 type  1   force =     0.00000000    0.00336043    0.00541080
     atom    5 type  1   force =     0.00000000   -0.00105788    0.00092653
     atom    6 type  1   force =     0.00000000    0.00105788   -0.00092653
     atom    7 type  1   force =     0.00000000   -0.00105788   -0.00092653
     atom    8 type  1   force =     0.00000000    0.00105788    0.00092653
     atom    9 type  2   force =     0.00000000    0.00353294    0.00005591
     atom   10 type  2   force =     0.00000000   -0.00353294   -0.00005591
     atom   11 type  2   force =     0.00000000    0.00353294   -0.00005591
     atom   12 type  2   force =     0.00000000   -0.00353294    0.00005591

     Total force =     0.014837     Total SCF correction =     0.000000


     entering subroutine stress ...

          total   stress  (Ry/bohr**3)                   (kbar)     P=-2000.24
  -0.01470888   0.00000000   0.00000000      -2163.75      0.00      0.00
   0.00000000  -0.01268811   0.00000000          0.00  -1866.49      0.00
   0.00000000   0.00000000  -0.01339499          0.00      0.00  -1970.47


     number of scf cycles    =   3
     number of bfgs steps    =   2

     enthalpy old            =   -2778.4791746525 Ry
     enthalpy new            =   -2764.9038282488 Ry

     CASE: enthalpy_new > enthalpy_old

     new trust radius        =       0.8212214437 bohr

     trust_radius < trust_radius_min

     resetting bfgs history

     Message from routine bfgs:
     history already reset at previous step: stopping
     new conv_thr            =       0.0001000000 Ry

     new unit-cell volume =   1286.62354 a.u.^3 (   190.65793 Ang^3 )

CELL_PARAMETERS (alat=  7.01510508)
   1.157360982   0.000000000   0.000000000
   0.000000000   1.487385869   0.000000000
   0.000000000   0.000000000   2.164992824

ATOMIC_POSITIONS (crystal)
Co       0.750000000   0.825946999   0.435356398
Co       0.250000000   0.174053001   0.564643602
Co       0.750000000   0.325946999   0.064643602
Co       0.250000000   0.674053001   0.935356398
Co       0.250000000   0.538908999   0.279970122
Co       0.750000000   0.461091001   0.720029878
Co       0.250000000   0.038908999   0.220029878
Co       0.750000000   0.961091001   0.779970122
Si       0.250000000   0.200267956   0.893972725
Si       0.750000000   0.799732044   0.106027275
Si       0.250000000   0.700267956   0.606027275
Si       0.750000000   0.299732044   0.393972725



     Writing output data file Prototype-La-oP12-Co2Si.save
     NEW-OLD atomic charge density approx. for the potential
     NEW k-points:
        k(    1) = (   0.0000000   0.0000000   0.0000000), wk =   0.0833333
        k(    2) = (   0.0000000   0.0000000   0.1154738), wk =   0.1666667
        k(    3) = (   0.0000000   0.0000000  -0.2309476), wk =   0.0833333
        k(    4) = (   0.0000000   0.2241068   0.0000000), wk =   0.1666667
        k(    5) = (   0.0000000   0.2241068   0.1154738), wk =   0.3333333
        k(    6) = (   0.0000000   0.2241068  -0.2309476), wk =   0.1666667
        k(    7) = (  -0.4320173   0.0000000   0.0000000), wk =   0.0833333
        k(    8) = (  -0.4320173   0.0000000   0.1154738), wk =   0.1666667
        k(    9) = (  -0.4320173   0.0000000  -0.2309476), wk =   0.0833333
        k(   10) = (  -0.4320173   0.2241068   0.0000000), wk =   0.1666667
        k(   11) = (  -0.4320173   0.2241068   0.1154738), wk =   0.3333333
        k(   12) = (  -0.4320173   0.2241068  -0.2309476), wk =   0.1666667

     total cpu time spent up to now is      577.6 secs

     Self-consistent Calculation

     iteration #  1     ecut=    40.00 Ry     beta=0.70
     CG style diagonalization
     c_bands:  2 eigenvalues not converged
     c_bands:  5 eigenvalues not converged
     c_bands:  5 eigenvalues not converged
     c_bands:  1 eigenvalues not converged
     c_bands:  4 eigenvalues not converged
     c_bands:  3 eigenvalues not converged
     ethr =  1.00E-06,  avg # of iterations = 30.5

     total cpu time spent up to now is      668.8 secs

     total energy              =   -2656.93498907 Ry
     Harris-Foulkes estimate   =   -2976.73488144 Ry
     estimated scf accuracy    <     399.31916162 Ry

     iteration #  2     ecut=    40.00 Ry     beta=0.70
[...]
   -24.0245 -24.0193 -24.0174 -24.0095 -23.9850 -23.9780 -23.9702 -23.9694
    -8.2296  -8.1040  -8.0246  -8.0133  -7.9848  -7.9289  -7.8820  -7.8428
    -7.8211  -7.8178  -7.6944  -7.6658  -7.6579  -7.6303  -7.5228  -7.4985
    -7.4786  -7.4160  -7.4046  -7.3537  -7.3529  -7.2810  -7.0260  -7.0187
    18.4832  18.5506  18.6047  18.7363  18.7883  18.7972  18.8605  18.8783
    18.9725  19.0044  19.1023  19.1119  19.1299  19.2609  19.3558  19.5333
    19.7168  19.7898  19.8929  19.9009  20.3462  22.0992  22.7326  23.3822
    24.1641  24.2145  24.3346  25.0780  25.2454  25.4323  25.4452  25.4506
    25.4699  25.6231  25.6469  26.0277  26.2385  26.3055  26.3434  26.7095
    26.7794  27.5338  27.6001  27.6334  27.8077  27.9370  28.1917  28.7402
    28.7408  28.8765  28.9079  29.0204  29.1007  29.2554  29.9169  29.9994
    30.0460  30.1029  30.1265  30.2194  30.4831  30.9994  31.1108  31.2763
    31.9363  32.3885  33.1112  33.8266  35.2251  35.7811  36.3168  37.2844
    37.4055  38.1191  38.5488  38.9273  38.9512  39.4792  39.5637  39.7981
    39.9030  40.0103  40.0231  40.8374  40.9243  41.0879  41.0947  41.1939
    41.2293

          k = 0.0000 0.0000 0.1155 (  5517 PWs)   bands (ev):

   -59.7714 -59.7562 -59.7530 -59.7487 -36.6247 -36.6063 -36.5701 -36.5652
   -36.4216 -36.4033 -36.3285 -36.3282 -24.0413 -24.0344 -24.0254 -24.0247
   -24.0222 -24.0161 -24.0150 -24.0103 -23.9792 -23.9789 -23.9694 -23.9693
    -8.2112  -8.1185  -8.0231  -7.9978  -7.9567  -7.9512  -7.9192  -7.8532
    -7.7923  -7.7685  -7.7184  -7.6574  -7.6510  -7.6477  -7.5261  -7.5099
    -7.4721  -7.4005  -7.3842  -7.3712  -7.3606  -7.2981  -7.0304  -7.0220
    18.4839  18.5855  18.6306  18.6714  18.7541  18.7953  18.8703  18.8897
    19.0126  19.0376  19.1399  19.1669  19.2104  19.2466  19.3356  19.4208
    19.7043  19.7694  19.8488  19.8610  20.5808  21.8927  22.6662  23.2794
    24.3247  24.3598  24.5198  25.0307  25.0499  25.3396  25.5175  25.5504
    25.6474  25.6901  25.7154  26.0609  26.1070  26.2729  26.3293  26.3585
    26.7209  26.8526  27.2002  27.8963  27.9790  28.1684  28.2008  28.5554
    28.5850  28.6381  29.0152  29.1317  29.1672  29.5399  29.7292  29.8508
    29.9264  30.0274  30.2914  30.5670  30.5778  30.9868  31.2194  32.2020
    32.3845  32.7534  32.8588  33.6527  35.2192  35.5911  35.8617  36.8785
    37.4756  37.5653  38.2691  38.7474  38.8742  39.1134  39.4499  39.9723
    40.0180  40.2371  40.5999  40.6609  40.9923  41.0161  41.0778  41.1760
    41.4485

          k = 0.0000 0.0000-0.2309 (  5522 PWs)   bands (ev):

   -59.7628 -59.7628 -59.7541 -59.7541 -36.6161 -36.6161 -36.5681 -36.5681
   -36.4126 -36.4126 -36.3281 -36.3281 -24.0323 -24.0323 -24.0258 -24.0258
   -24.0187 -24.0186 -24.0155 -24.0155 -23.9838 -23.9838 -23.9736 -23.9736
    -8.1687  -8.1687  -7.9945  -7.9945  -7.9663  -7.9663  -7.8994  -7.8994
    -7.7557  -7.7557  -7.6989  -7.6989  -7.6476  -7.6476  -7.5190  -7.5190
    -7.4299  -7.4299  -7.3758  -7.3758  -7.3427  -7.3427  -7.0293  -7.0293
    18.5436  18.5436  18.6270  18.6270  18.7235  18.7236  19.0384  19.0384
    19.0590  19.0590  19.1591  19.1591  19.2214  19.2214  19.2989  19.2989
    19.7361  19.7361  19.7916  19.7916  21.2007  21.2007  22.9363  22.9363
    24.6478  24.6478  24.7233  24.7233  25.1245  25.1245  25.5211  25.5211
    25.7878  25.7878  25.9627  25.9627  26.0003  26.0003  26.2774  26.2774
    26.5455  26.5455  27.4120  27.4120  28.0839  28.0839  28.3502  28.3502
    28.5280  28.5280  28.9910  28.9910  29.5363  29.5363  29.7331  29.7331
    29.9356  29.9356  30.5354  30.5354  30.9927  30.9927  32.3319  32.3319
    32.5274  32.5274  33.5276  33.5276  34.8671  34.8671  35.9305  35.9306
    37.7554  37.7555  38.3578  38.3578  38.9034  38.9034  39.3822  39.3822
    40.2067  40.2067  40.4817  40.4818  40.7934  40.7935  41.7793  41.7891
    41.7928

          k = 0.0000 0.2241 0.0000 (  5487 PWs)   bands (ev):

   -59.7562 -59.7548 -59.7492 -59.7406 -36.6177 -36.6036 -36.5689 -36.5687
   -36.4024 -36.3800 -36.3553 -36.3435 -24.0291 -24.0256 -24.0222 -24.0200
   -24.0139 -24.0106 -24.0075 -24.0009 -23.9742 -23.9708 -23.9687 -23.9563
    -8.1258  -8.0092  -7.9890  -7.9712  -7.9485  -7.9194  -7.8792  -7.8516
    -7.8243  -7.7710  -7.7413  -7.7127  -7.7039  -7.5542  -7.4806  -7.4395
    -7.4223  -7.4223  -7.4158  -7.3828  -7.3747  -7.2927  -7.2342  -7.2008
    18.6988  18.7426  18.7958  18.8245  18.8962  18.9409  19.0297  19.0529
    19.0854  19.1575  19.2268  19.2351  19.2496  19.3042  19.4215  19.4234
    19.5991  19.6685  19.6767  19.7398  21.1545  22.5422  22.7882  23.4350
    24.2543  24.3662  24.4466  24.8269  24.8810  24.9287  25.0699  25.4464
    25.4700  25.4807  25.7473  25.9877  26.2395  26.3938  26.5416  26.6749
    26.9224  26.9400  27.3570  27.3860  27.7545  27.8360  27.8719  27.9119
    28.1997  28.2623  28.7517  29.0710  29.0956  29.1857  29.2941  29.5380
    29.6827  30.0816  30.1026  30.1041  30.1663  30.7474  30.8663  31.0751
    31.0796  31.1941  34.6836  35.7203  35.8880  36.9596  37.4687  37.8001
    38.1530  38.1921  38.4809  38.8345  38.8760  38.9181  39.1725  39.2748
    39.4572  39.7900  39.8946  39.9462  40.3795  41.1607  41.2695  41.5369
    41.6056

          k = 0.0000 0.2241 0.1155 (  5493 PWs)   bands (ev):

   -59.7592 -59.7568 -59.7524 -59.7387 -36.6161 -36.6054 -36.5706 -36.5698
   -36.3977 -36.3835 -36.3537 -36.3455 -24.0262 -24.0226 -24.0220 -24.0208
   -24.0183 -24.0132 -24.0079 -24.0065 -23.9811 -23.9757 -23.9633 -23.9567
    -8.1166  -8.0331  -7.9723  -7.9596  -7.9563  -7.9075  -7.9052  -7.8533
    -7.7968  -7.7592  -7.7400  -7.7213  -7.6997  -7.5753  -7.4773  -7.4516
    -7.4355  -7.4327  -7.4109  -7.3808  -7.3615  -7.3036  -7.2293  -7.2039
    18.6755  18.7770  18.8265  18.8668  18.8867  18.9672  19.0204  19.0690
    19.0800  19.1441  19.1736  19.2345  19.2669  19.3556  19.3746  19.4422
    19.5440  19.6231  19.6754  19.7572  21.3683  22.4331  22.9617  23.3218
    24.1847  24.4983  24.5022  24.6104  24.9869  24.9943  25.0619  25.2864
    25.3827  25.4707  25.7695  25.8629  26.2429  26.3710  26.3739  26.5858
    26.7277  27.0859  27.3090  27.3485  27.7411  27.7549  27.8593  28.1751
    28.1876  28.2778  28.5174  28.8780  28.9124  29.1159  29.4171  29.4584
    29.6750  30.0138  30.0398  30.1623  30.3531  30.9553  31.0409  31.1053
    31.5962  32.2525  35.0314  35.3645  35.8847  36.0978  36.8441  37.4520
    37.4895  38.1001  38.3501  38.8003  38.8307  38.9740  39.1239  39.6517
    39.9823  40.1627  40.2568  40.5220  40.5489  41.0852  41.1936  41.3457
    41.5441

          k = 0.0000 0.2241-0.2309 (  5486 PWs)   bands (ev):

   -59.7582 -59.7582 -59.7431 -59.7431 -36.6114 -36.6114 -36.5697 -36.5697
   -36.3902 -36.3902 -36.3492 -36.3492 -24.0244 -24.0244 -24.0193 -24.0192
   -24.0114 -24.0114 -24.0108 -24.0108 -23.9766 -23.9766 -23.9572 -23.9572
    -8.0760  -8.0760  -7.9609  -7.9609  -7.9400  -7.9400  -7.8730  -7.8730
    -7.7536  -7.7536  -7.7453  -7.7453  -7.6358  -7.6358  -7.4656  -7.4656
    -7.4501  -7.4501  -7.3918  -7.3918  -7.3294  -7.3294  -7.2151  -7.2151
    18.7204  18.7204  18.8286  18.8286  18.9941  18.9941  19.0828  19.0828
    19.1365  19.1365  19.1665  19.1665  19.2497  19.2497  19.4567  19.4567
    19.5111  19.5111  19.7301  19.7301  21.9202  21.9202  23.2444  23.2444
    24.1536  24.1536  24.8160  24.8160  24.8364  24.8364  25.1886  25.1886
    25.3879  25.3879  25.8430  25.8430  26.0176  26.0176  26.6296  26.6296
    27.0078  27.0078  27.0376  27.0376  27.7235  27.7235  27.8579  27.8579
    28.1756  28.1756  28.8822  28.8822  29.2193  29.2193  29.2265  29.2265
    29.8605  29.8605  30.1036  30.1036  30.6019  30.6019  31.1476  31.1476
    33.2405  33.2405  34.5452  34.5452  36.0447  36.0447  36.1292  36.1292
    38.1127  38.1127  38.4760  38.4760  38.7362  38.7362  39.5115  39.5115
    40.3653  40.3653  40.5819  40.5821  40.7227  40.7228  41.3090  41.3093
    41.9624

          k =-0.4320 0.0000 0.0000 (  5504 PWs)   bands (ev):

   -59.7637 -59.7637 -59.7492 -59.7492 -36.5890 -36.5890 -36.5835 -36.5835
   -36.4252 -36.4252 -36.3290 -36.3290 -24.0354 -24.0354 -24.0259 -24.0259
   -24.0185 -24.0185 -24.0152 -24.0152 -23.9725 -23.9725 -23.9641 -23.9641
    -8.1604  -8.1604  -8.0490  -8.0490  -7.9875  -7.9875  -7.8734  -7.8734
    -7.8682  -7.8682  -7.6895  -7.6895  -7.5679  -7.5679  -7.5227  -7.5227
    -7.3955  -7.3955  -7.3476  -7.3476  -7.3129  -7.3129  -7.0334  -7.0334
    18.6082  18.6082  18.7631  18.7631  18.8354  18.8354  18.9195  18.9195
    19.0463  19.0463  19.0593  19.0593  19.1052  19.1052  19.3945  19.3945
    19.5533  19.5533  19.9907  19.9907  22.3238  22.3238  22.7132  22.7132
    24.2932  24.2932  24.8486  24.8486  25.1473  25.1473  25.8677  25.8677
    26.3104  26.3104  26.4633  26.4633  26.6227  26.6227  26.8013  26.8013
    26.9960  26.9960  27.5801  27.5801  27.6576  27.6576  27.8020  27.8020
    27.9226  27.9226  28.8539  28.8539  28.9304  28.9304  29.1749  29.1749
    29.6399  29.6399  30.3273  30.3273  30.5806  30.5806  30.8876  30.8876
    31.0428  31.0428  31.5040  31.5040  35.5636  35.5636  36.3285  36.3285
    37.2446  37.2446  37.5656  37.5656  38.6292  38.6292  39.7341  39.7341
    39.8002  39.8002  40.6198  40.6199  41.2511  41.2512  41.4276  41.4279
    42.4866

          k =-0.4320 0.0000 0.1155 (  5492 PWs)   bands (ev):

   -59.7582 -59.7582 -59.7474 -59.7474 -36.5880 -36.5880 -36.5827 -36.5827
   -36.4246 -36.4246 -36.3283 -36.3283 -24.0303 -24.0303 -24.0226 -24.0226
   -24.0172 -24.0172 -24.0095 -24.0095 -23.9724 -23.9724 -23.9639 -23.9639
    -8.1630  -8.1630  -8.0606  -8.0606  -7.9361  -7.9361  -7.9164  -7.9164
    -7.8062  -7.8062  -7.7084  -7.7084  -7.6274  -7.6274  -7.4874  -7.4874
    -7.3994  -7.3994  -7.3485  -7.3485  -7.3060  -7.3060  -7.0333  -7.0333
    18.6594  18.6594  18.6902  18.6902  18.8530  18.8530  18.9705  18.9705
    18.9831  18.9831  19.1028  19.1028  19.1606  19.1606  19.3391  19.3391
    19.5499  19.5499  19.9853  19.9853  22.3497  22.3497  22.8121  22.8121
    24.2515  24.2515  24.9114  24.9114  25.2314  25.2314  25.9192  25.9192
    25.9494  25.9494  26.2182  26.2182  26.3547  26.3547  26.6675  26.6675
    26.9517  26.9517  27.3726  27.3726  27.5357  27.5357  28.3797  28.3797
    28.5509  28.5509  28.6838  28.6838  29.0919  29.0919  29.3157  29.3157
    29.5241  29.5241  30.2203  30.2203  30.3829  30.3829  30.8116  30.8116
    30.9611  30.9611  32.3684  32.3684  34.5324  34.5324  36.7810  36.7810
    37.3022  37.3023  38.1239  38.1239  38.7978  38.7978  39.0729  39.0729
    39.9907  39.9907  40.3571  40.3572  41.2240  41.2241  41.8667  41.8673
    42.2224

          k =-0.4320 0.0000-0.2309 (  5488 PWs)   bands (ev):

   -59.7551 -59.7551 -59.7479 -59.7479 -36.5874 -36.5874 -36.5828 -36.5828
   -36.4244 -36.4244 -36.3279 -36.3279 -24.0223 -24.0223 -24.0213 -24.0213
   -24.0161 -24.0161 -24.0130 -24.0130 -23.9742 -23.9742 -23.9617 -23.9617
    -8.1692  -8.1692  -8.0657  -8.0657  -7.9392  -7.9392  -7.8697  -7.8697
    -7.7659  -7.7659  -7.7487  -7.7487  -7.6712  -7.6712  -7.4659  -7.4658
    -7.4121  -7.4121  -7.3424  -7.3424  -7.3059  -7.3059  -7.0312  -7.0312
    18.6413  18.6413  18.7365  18.7365  18.8586  18.8586  18.9020  18.9020
    19.0424  19.0424  19.1243  19.1243  19.2121  19.2121  19.2752  19.2752
    19.5421  19.5421  19.9792  19.9792  22.3700  22.3700  22.9528  22.9528
    24.1095  24.1095  25.1027  25.1027  25.3091  25.3091  25.5818  25.5818
    25.9297  25.9297  25.9694  25.9694  26.4022  26.4022  26.4160  26.4160
    27.0143  27.0143  27.1532  27.1532  27.9041  27.9041  27.9733  27.9733
    28.8193  28.8193  29.0834  29.0834  29.2622  29.2622  29.4073  29.4073
    29.6849  29.6849  29.7122  29.7122  30.1242  30.1242  30.8232  30.8232
    31.5853  31.5853  32.9792  32.9792  33.4972  33.4972  36.8712  36.8713
    37.5768  37.5768  38.0778  38.0778  38.8844  38.8844  39.6971  39.6973
    39.8721  39.8721  40.3945  40.3947  40.5528  40.5529  41.2222  41.2223
    42.2617

          k =-0.4320 0.2241 0.0000 (  5494 PWs)   bands (ev):

   -59.7534 -59.7534 -59.7526 -59.7526 -36.5873 -36.5873 -36.5836 -36.5836
   -36.4005 -36.4005 -36.3534 -36.3534 -24.0234 -24.0234 -24.0213 -24.0213
   -24.0166 -24.0166 -24.0160 -24.0160 -23.9686 -23.9686 -23.9656 -23.9656
    -8.0818  -8.0818  -8.0492  -8.0492  -7.9917  -7.9917  -7.8550  -7.8550
    -7.7738  -7.7738  -7.6938  -7.6938  -7.5930  -7.5930  -7.5321  -7.5321
    -7.4026  -7.4026  -7.3515  -7.3515  -7.3046  -7.3046  -7.2098  -7.2098
    18.8044  18.8044  18.8249  18.8249  18.8778  18.8778  19.0487  19.0487
    19.1214  19.1214  19.2145  19.2145  19.3547  19.3547  19.3804  19.3804
    19.6332  19.6332  19.8266  19.8266  22.7969  22.7969  22.9292  22.9292
    24.4248  24.4248  25.0347  25.0347  25.0912  25.0912  25.5050  25.5050
    25.9165  25.9165  26.1460  26.1460  26.2402  26.2402  26.7078  26.7078
    26.9405  26.9405  27.1513  27.1513  27.4669  27.4669  27.7097  27.7097
    28.0428  28.0428  28.4358  28.4358  28.4689  28.4689  29.2786  29.2786
    29.4475  29.4475  29.8579  29.8579  29.9914  29.9914  30.5081  30.5081
    32.1333  32.1333  32.2964  32.2964  34.2445  34.2445  34.4566  34.4566
    38.9250  38.9251  39.4353  39.4354  39.8421  39.8422  40.5716  40.5718
    40.5871  40.5871  41.1589  41.1592  41.1847  41.1848  41.5940  41.5945
    42.1176

          k =-0.4320 0.2241 0.1155 (  5510 PWs)   bands (ev):

   -59.7602 -59.7602 -59.7539 -59.7539 -36.5869 -36.5869 -36.5857 -36.5857
   -36.4017 -36.4017 -36.3538 -36.3538 -24.0300 -24.0300 -24.0255 -24.0255
   -24.0200 -24.0200 -24.0160 -24.0160 -23.9743 -23.9743 -23.9672 -23.9672
    -8.0861  -8.0861  -8.0282  -8.0282  -7.9710  -7.9710  -7.8979  -7.8979
    -7.7985  -7.7985  -7.6866  -7.6866  -7.5939  -7.5939  -7.4937  -7.4937
    -7.4086  -7.4086  -7.3735  -7.3735  -7.3078  -7.3078  -7.2141  -7.2141
    18.7980  18.7980  18.8319  18.8319  18.9106  18.9106  19.0618  19.0618
    19.1333  19.1333  19.2078  19.2078  19.3013  19.3013  19.3576  19.3576
    19.6728  19.6728  19.8383  19.8383  22.8437  22.8437  22.9998  22.9998
    24.4719  24.4719  24.9532  24.9532  25.1565  25.1565  25.5110  25.5110
    25.7921  25.7921  25.8321  25.8321  26.3034  26.3034  26.4396  26.4396
    26.9803  26.9803  27.2126  27.2126  27.3328  27.3328  27.8806  27.8806
    28.0095  28.0095  28.2590  28.2590  28.8367  28.8367  29.1656  29.1656
    29.6060  29.6060  29.7815  29.7815  30.2075  30.2075  30.5027  30.5027
    31.9619  31.9619  32.5400  32.5400  33.7616  33.7616  35.5963  35.5963
    38.5595  38.5595  39.1466  39.1466  39.3877  39.3877  40.0836  40.0837
    40.5700  40.5701  41.1684  41.1685  41.2674  41.2674  41.8962  41.8965
    42.1517

          k =-0.4320 0.2241-0.2309 (  5520 PWs)   bands (ev):

   -59.7608 -59.7608 -59.7595 -59.7595 -36.5878 -36.5878 -36.5862 -36.5862
   -36.4020 -36.4020 -36.3546 -36.3546 -24.0286 -24.0286 -24.0266 -24.0266
   -24.0265 -24.0265 -24.0217 -24.0217 -23.9732 -23.9732 -23.9709 -23.9709
    -8.0900  -8.0900  -7.9859  -7.9859  -7.9620  -7.9620  -7.9263  -7.9263
    -7.8452  -7.8452  -7.6833  -7.6833  -7.5833  -7.5833  -7.4504  -7.4504
    -7.4273  -7.4273  -7.3926  -7.3926  -7.3131  -7.3131  -7.2152  -7.2152
    18.7862  18.7862  18.8604  18.8604  18.9205  18.9205  19.0924  19.0924
    19.1606  19.1606  19.1632  19.1632  19.2979  19.2979  19.3076  19.3076
    19.6967  19.6967  19.8553  19.8553  22.8975  22.8975  23.0868  23.0868
    24.4189  24.4189  25.0316  25.0316  25.1312  25.1312  25.4135  25.4135
    25.4759  25.4759  26.0331  26.0331  26.2076  26.2076  26.6056  26.6056
    26.6346  26.6346  27.0756  27.0756  27.3327  27.3327  27.9500  27.9500
    27.9522  27.9522  28.3200  28.3200  28.8057  28.8057  29.3850  29.3850
    29.6010  29.6010  30.0161  30.0161  30.2089  30.2089  30.4957  30.4957
    31.9758  31.9758  32.4474  32.4474  33.8385  33.8385  36.8044  36.8044
    37.9079  37.9079  38.2666  38.2666  39.2432  39.2433  39.9735  39.9736
    40.4318  40.4318  40.8728  40.8729  41.3331  41.3331  42.4570  42.4573
    42.5326

     the Fermi energy is    32.6075 ev

!    total energy              =   -2783.63455943 Ry
     Harris-Foulkes estimate   =   -2783.63458467 Ry
     estimated scf accuracy    <       0.00002870 Ry

     The total energy is the sum of the following terms:

     one-electron contribution =    -207.38509240 Ry
     hartree contribution      =     326.76032027 Ry
     xc contribution           =    -268.85631221 Ry
     ewald contribution        =   -2633.93610481 Ry
     smearing contrib. (-TS)   =      -0.21737028 Ry

     convergence has been achieved in  11 iterations

     Forces acting on atoms (Ry/au):

     atom    1 type  1   force =     0.00000000   -0.02666354   -0.00620540
     atom    2 type  1   force =     0.00000000    0.02666354    0.00620540
     atom    3 type  1   force =     0.00000000   -0.02666354    0.00620540
     atom    4 type  1   force =     0.00000000    0.02666354   -0.00620540
     atom    5 type  1   force =     0.00000000    0.03594651   -0.06788961
     atom    6 type  1   force =     0.00000000   -0.03594651    0.06788961
     atom    7 type  1   force =     0.00000000    0.03594651    0.06788961
     atom    8 type  1   force =     0.00000000   -0.03594651   -0.06788961
     atom    9 type  2   force =     0.00000000   -0.07049150    0.01383003
     atom   10 type  2   force =     0.00000000    0.07049150   -0.01383003
     atom   11 type  2   force =     0.00000000   -0.07049150   -0.01383003
     atom   12 type  2   force =     0.00000000    0.07049150    0.01383003

     Total force =     0.217356     Total SCF correction =     0.000000


     entering subroutine stress ...

          total   stress  (Ry/bohr**3)                   (kbar)     P=  882.74
   0.00645768   0.00000000   0.00000000        949.96      0.00      0.00
   0.00000000   0.00561747   0.00000000          0.00    826.36      0.00
   0.00000000   0.00000000   0.00592717          0.00      0.00    871.92


     Writing output data file Prototype-La-oP12-Co2Si.save
 
     init_run     :      4.49s CPU      5.73s WALL (       2 calls)
     electrons    :   1162.29s CPU   1308.90s WALL (       5 calls)
     update_pot   :      1.93s CPU      1.95s WALL (       3 calls)
     forces       :      4.72s CPU      4.94s WALL (       5 calls)
     stress       :     14.79s CPU     15.07s WALL (       5 calls)

     Called by init_run:
     wfcinit      :      3.59s CPU      4.81s WALL (       2 calls)
     potinit      :      0.43s CPU      0.43s WALL (       2 calls)

     Called by electrons:
     c_bands      :   1140.73s CPU   1263.21s WALL (      48 calls)
     sum_band     :     21.17s CPU     28.18s WALL (      48 calls)
     v_of_rho     :      0.08s CPU      0.09s WALL (      53 calls)
     mix_rho      :      0.08s CPU      0.10s WALL (      48 calls)

     Called by c_bands:
     init_us_2    :      1.46s CPU      1.70s WALL (    1296 calls)
     ccgdiagg     :   1054.50s CPU   1155.66s WALL (     684 calls)
     wfcrot       :     88.25s CPU    109.35s WALL (     696 calls)

     Called by *cgdiagg:
     h_psi        :    721.47s CPU    833.77s WALL (  487142 calls)
     cdiaghg      :      6.44s CPU      7.06s WALL (     696 calls)

     Called by h_psi:
     add_vuspsi   :    160.26s CPU    170.52s WALL (  487142 calls)

     General routines
     calbec       :    348.46s CPU    367.31s WALL (  973708 calls)
     fft          :      0.15s CPU      0.17s WALL (     235 calls)
     fftw         :    349.44s CPU    412.03s WALL ( 1242508 calls)
     davcio       :      0.95s CPU      2.64s WALL (    1872 calls)
 
     Parallel routines
     fft_scatter  :    140.37s CPU    170.39s WALL ( 1242743 calls)
 
     PWSCF        : 19m48.58s CPU    22m19.40s WALL

 
   This run was terminated on:  23: 9:46  22Mar2018            

=------------------------------------------------------------------------------=
   JOB DONE.
=------------------------------------------------------------------------------=
