
     Program PWSCF v.5.0.2 starts on 22Mar2018 at 22:42:46 

     This program is part of the open-source Quantum ESPRESSO suite
     for quantum simulation of materials; please cite
         "P. Giannozzi et al., J. Phys.:Condens. Matter 21 395502 (2009);
          URL http://www.quantum-espresso.org", 
     in publications or presentations arising from this work. More details at
     http://www.quantum-espresso.org/quote.php

     Parallel version (MPI), running on     4 processors
     R & G space division:  proc/nbgrp/npool/nimage =       4

     Current dimensions of program PWSCF are:
     Max number of different atomic species (ntypx) = 10
     Max number of k-points (npk) =  40000
     Max angular momentum in pseudopotentials (lmaxx) =  3
     Waiting for input...
     Reading input from standard input

     Subspace diagonalization in iterative solution of the eigenvalue problem:
     a serial algorithm will be used

 
     Parallelization info
     --------------------
     sticks:   dense  smooth     PW     G-vecs:    dense   smooth      PW
     Min         207     207     61                 7381     7381    1191
     Max         208     208     62                 7386     7386    1192
     Sum         829     829    247                29529    29529    4767
 


     bravais-lattice index     =            0
     lattice parameter (alat)  =       7.0151  a.u.
     unit-cell volume          =     862.2778 (a.u.)^3
     number of atoms/cell      =           12
     number of atomic types    =            2
     number of electrons       =       244.00
     number of Kohn-Sham states=          146
     kinetic-energy cutoff     =      40.0000  Ry
     charge density cutoff     =     160.0000  Ry
     convergence threshold     =      1.0E-04
     mixing beta               =       0.7000
     number of iterations used =            8  plain     mixing
     Exchange-correlation      = SLA-PZ-NOGX-NOGC ( 1 1 0 0 0)
     EXX-fraction              =        0.00
     nstep                     =           50


     celldm(1)=   7.015105  celldm(2)=   0.000000  celldm(3)=   0.000000
     celldm(4)=   0.000000  celldm(5)=   0.000000  celldm(6)=   0.000000

     crystal axes: (cart. coord. in units of alat)
               a(1) = (   1.000000   0.000000   0.000000 )  
               a(2) = (   0.000000   1.315963   0.000000 )  
               a(3) = (   0.000000   0.000000   1.898020 )  

     reciprocal axes: (cart. coord. in units 2 pi/alat)
               b(1) = (  1.000000  0.000000  0.000000 )  
               b(2) = (  0.000000  0.759900  0.000000 )  
               b(3) = (  0.000000  0.000000  0.526865 )  


     PseudoPot. # 1 for Er read from file:
     /home/cwx6513/pp.La/Er.UPF
     MD5 check sum: e152ae21b84514339d8526f066caf99b
     Pseudo is Norm-conserving, Zval = 22.0
     Generated in analytical, separable form
     Using radial grid of 1267 points,  6 beta functions with: 
                l(1) =   0
                l(2) =   0
                l(3) =   1
                l(4) =   1
                l(5) =   2
                l(6) =   3

     PseudoPot. # 2 for Eu read from file:
     /home/cwx6513/pp.La/Eu.UPF
     MD5 check sum: 5efdbbfc50c6a10138933a6429836ad2
     Pseudo is Norm-conserving, Zval = 17.0
     Generated in analytical, separable form
     Using radial grid of 1261 points,  6 beta functions with: 
                l(1) =   0
                l(2) =   0
                l(3) =   1
                l(4) =   1
                l(5) =   2
                l(6) =   3

     atomic species   valence    mass     pseudopotential
        Co            22.00    58.93320     Er( 1.00)
        Si            17.00    28.08550     Eu( 1.00)

      8 Sym. Ops., with inversion, found ( 6 have fractional translation)



   Cartesian axes

     site n.     atom                  positions (alat units)
         1           Co  tau(   1) = (   0.7500000   1.0875135   0.8270358  )
         2           Co  tau(   2) = (   0.2500000   0.2284499   1.0709846  )
         3           Co  tau(   3) = (   0.7500000   0.4295318   0.1219744  )
         4           Co  tau(   4) = (   0.2500000   0.8864316   1.7760460  )
         5           Co  tau(   5) = (   0.2500000   0.7067855   0.5358966  )
         6           Co  tau(   6) = (   0.7500000   0.6091779   1.3621238  )
         7           Co  tau(   7) = (   0.2500000   0.0488038   0.4131136  )
         8           Co  tau(   8) = (   0.7500000   1.2671596   1.4849068  )
         9           Si  tau(   9) = (   0.2500000   0.2669484   1.6960710  )
        10           Si  tau(  10) = (   0.7500000   1.0490149   0.2019494  )
        11           Si  tau(  11) = (   0.2500000   0.9249301   1.1509596  )
        12           Si  tau(  12) = (   0.7500000   0.3910333   0.7470608  )

     number of k points=    12  gaussian smearing, width (Ry)=  0.1000
                       cart. coord. in units 2pi/alat
        k(    1) = (   0.0000000   0.0000000   0.0000000), wk =   0.0833333
        k(    2) = (   0.0000000   0.0000000   0.1317162), wk =   0.1666667
        k(    3) = (   0.0000000   0.0000000  -0.2634324), wk =   0.0833333
        k(    4) = (   0.0000000   0.2532999   0.0000000), wk =   0.1666667
        k(    5) = (   0.0000000   0.2532999   0.1317162), wk =   0.3333333
        k(    6) = (   0.0000000   0.2532999  -0.2634324), wk =   0.1666667
        k(    7) = (  -0.5000000   0.0000000   0.0000000), wk =   0.0833333
        k(    8) = (  -0.5000000   0.0000000   0.1317162), wk =   0.1666667
        k(    9) = (  -0.5000000   0.0000000  -0.2634324), wk =   0.0833333
        k(   10) = (  -0.5000000   0.2532999   0.0000000), wk =   0.1666667
        k(   11) = (  -0.5000000   0.2532999   0.1317162), wk =   0.3333333
        k(   12) = (  -0.5000000   0.2532999  -0.2634324), wk =   0.1666667

     Dense  grid:    29529 G-vectors     FFT dimensions: (  30,  40,  54)

     Largest allocated arrays     est. size (Mb)     dimensions
        Kohn-Sham Wavefunctions         2.05 Mb     (    922,  146)
        NL pseudopotentials             3.38 Mb     (    922,  240)
        Each V/rho on FFT grid          0.26 Mb     (  16800)
        Each G-vector array             0.06 Mb     (   7386)
        G-vector shells                 0.06 Mb     (   7386)
     Largest temporary arrays     est. size (Mb)     dimensions
        Each subspace H/S matrix        0.33 Mb     ( 146, 146)
        Each <psi_i|beta_j> matrix      0.53 Mb     (    240,  146)
        Arrays for rho mixing           2.05 Mb     (  16800,   8)

     Initial potential from superposition of free atoms

     Starting from uniform charge
     Starting wfc are    0 randomized atomic wfcs

     total cpu time spent up to now is        2.8 secs

     Self-consistent Calculation

     iteration #  1     ecut=    40.00 Ry     beta=0.70
     CG style diagonalization
     c_bands:  2 eigenvalues not converged
     c_bands:  1 eigenvalues not converged
     ethr =  1.00E-02,  avg # of iterations = 11.9

     total cpu time spent up to now is       42.2 secs

     total energy              =   -2805.57374577 Ry
     Harris-Foulkes estimate   =   -3792.86434005 Ry
     estimated scf accuracy    <    1238.37586097 Ry

     iteration #  2     ecut=    40.00 Ry     beta=0.70
     CG style diagonalization
     c_bands:  1 eigenvalues not converged
     c_bands:  2 eigenvalues not converged
     c_bands:  3 eigenvalues not converged
     c_bands:  3 eigenvalues not converged
     c_bands:  2 eigenvalues not converged
     c_bands:  1 eigenvalues not converged
     c_bands:  3 eigenvalues not converged
     c_bands:  1 eigenvalues not converged
     c_bands:  1 eigenvalues not converged
     ethr =  1.00E-02,  avg # of iterations = 12.7

     total cpu time spent up to now is       81.2 secs

     total energy              =   -2965.41709014 Ry
     Harris-Foulkes estimate   =   -3595.62193019 Ry
     estimated scf accuracy    <    1133.64181807 Ry

     iteration #  3     ecut=    40.00 Ry     beta=0.70
     CG style diagonalization
     ethr =  1.00E-02,  avg # of iterations =  9.4

     total cpu time spent up to now is      109.8 secs

     total energy              =   -3291.30898009 Ry
     Harris-Foulkes estimate   =   -3363.02264112 Ry
     estimated scf accuracy    <     148.45671835 Ry

     iteration #  4     ecut=    40.00 Ry     beta=0.70
     CG style diagonalization
     ethr =  1.00E-02,  avg # of iterations =  4.5

     total cpu time spent up to now is      123.2 secs

     total energy              =   -3315.88165564 Ry
     Harris-Foulkes estimate   =   -3320.74393744 Ry
     estimated scf accuracy    <      10.65196380 Ry

     iteration #  5     ecut=    40.00 Ry     beta=0.70
     CG style diagonalization
     ethr =  4.37E-03,  avg # of iterations =  3.7

     total cpu time spent up to now is      134.0 secs

     total energy              =   -3317.37185522 Ry
     Harris-Foulkes estimate   =   -3318.02223313 Ry
     estimated scf accuracy    <       1.33313000 Ry

     iteration #  6     ecut=    40.00 Ry     beta=0.70
     CG style diagonalization
     c_bands:  1 eigenvalues not converged
     c_bands:  1 eigenvalues not converged
     ethr =  5.46E-04,  avg # of iterations =  4.2

     total cpu time spent up to now is      146.5 secs

     total energy              =   -3317.58729970 Ry
     Harris-Foulkes estimate   =   -3317.67571541 Ry
     estimated scf accuracy    <       0.14614862 Ry

     iteration #  7     ecut=    40.00 Ry     beta=0.70
     CG style diagonalization
     c_bands:  1 eigenvalues not converged
     c_bands:  1 eigenvalues not converged
     c_bands:  2 eigenvalues not converged
     ethr =  5.99E-05,  avg # of iterations =  4.5

     total cpu time spent up to now is      160.8 secs

     total energy              =   -3317.63846024 Ry
     Harris-Foulkes estimate   =   -3317.66743806 Ry
     estimated scf accuracy    <       0.05861194 Ry

     iteration #  8     ecut=    40.00 Ry     beta=0.70
     CG style diagonalization
     ethr =  2.40E-05,  avg # of iterations =  3.7

     total cpu time spent up to now is      171.5 secs

     total energy              =   -3317.64582911 Ry
     Harris-Foulkes estimate   =   -3317.64859537 Ry
     estimated scf accuracy    <       0.00418594 Ry

     iteration #  9     ecut=    40.00 Ry     beta=0.70
     CG style diagonalization
     c_bands:  1 eigenvalues not converged
     c_bands:  2 eigenvalues not converged
     c_bands:  1 eigenvalues not converged
     c_bands:  1 eigenvalues not converged
     ethr =  1.72E-06,  avg # of iterations =  4.6

     total cpu time spent up to now is      185.1 secs

     total energy              =   -3317.64739408 Ry
     Harris-Foulkes estimate   =   -3317.64762037 Ry
     estimated scf accuracy    <       0.00041702 Ry

     iteration # 10     ecut=    40.00 Ry     beta=0.70
     CG style diagonalization
     c_bands:  1 eigenvalues not converged
     ethr =  1.71E-07,  avg # of iterations =  3.8

     total cpu time spent up to now is      195.6 secs

     End of self-consistent calculation

          k = 0.0000 0.0000 0.0000 (  3675 PWs)   bands (ev):

   -49.7698 -49.7291 -49.6666 -49.6538 -49.6449 -49.6050 -49.5842 -49.5659
   -13.5744 -13.3902 -13.2908 -12.7525 -12.5692 -12.4716 -12.3670 -12.3209
   -12.2740 -12.2046 -12.1275 -12.0773 -12.0721 -12.0017 -11.9659 -11.9560
   -11.9037 -11.8494 -11.8105 -11.7283 -11.7140 -11.6260 -11.5979 -11.5074
   -11.4927 -11.4810 -11.3502 -11.2293  13.0020  13.2563  13.2822  13.3038
    13.3905  13.4200  13.4271  13.5131  13.7384  13.9801  14.0265  14.3073
    29.6228  29.9308  30.0325  30.0405  30.1917  30.3192  30.4185  30.7571
    31.2560  31.3020  31.5445  31.9158  32.0311  32.4207  32.5313  33.0773
    33.2380  33.2781  33.2798  33.4473  33.5270  33.6721  33.7323  34.0631
    34.0645  34.2373  34.2933  34.4062  34.5232  34.9010  35.1335  35.3005
    35.3338  35.4449  35.6024  35.9996  36.5264  36.5608  36.7694  36.7833
    37.1620  38.8258  39.2385  39.8884  42.3521  43.0787  43.3440  43.7488
    43.7588  44.4976  44.9105  45.4271  45.6567  45.9983  46.1202  46.4658
    46.7556  46.9324  47.7117  48.2778  48.4537  48.5166  48.7513  48.7620
    48.7672  50.9834  51.7393  52.1857  52.7309  53.2113  53.9837  55.0587
    55.8353  55.8863  56.6235  56.7981  57.3540  57.5672  57.5787  57.6612
    57.8223  58.0045  58.4328  58.4997  58.9418  59.1624  59.3323  59.5029
    59.7474  59.8405  60.0144  60.1631  60.2629  60.3718  60.7623  60.9080
    60.9635  61.0416

          k = 0.0000 0.0000 0.1317 (  3675 PWs)   bands (ev):

   -49.7723 -49.7314 -49.6765 -49.6562 -49.6371 -49.6178 -49.5784 -49.5547
   -13.5543 -13.3460 -13.2944 -12.8341 -12.5423 -12.4675 -12.3940 -12.3868
   -12.2771 -12.1504 -12.1445 -12.1074 -12.0538 -11.9958 -11.9671 -11.9508
   -11.9140 -11.8553 -11.8340 -11.7196 -11.7071 -11.7002 -11.5467 -11.4915
   -11.4781 -11.4130 -11.3527 -11.2281  13.0370  13.2056  13.2921  13.2991
    13.4028  13.4302  13.4362  13.4931  13.7555  13.8989  14.1054  14.2723
    29.6765  29.7057  29.9469  29.9597  30.2631  30.2660  30.5488  30.8733
    31.3241  31.4951  31.7726  32.0571  32.1869  32.5899  32.6282  32.9768
    33.0030  33.3891  33.3906  33.4801  33.4934  33.6333  33.7529  33.7806
    34.1917  34.2061  34.2102  34.3591  34.5228  34.6641  34.8555  35.0468
    35.4302  35.7414  35.8445  35.8622  36.3884  36.4897  36.6527  36.9579
    37.2141  37.7840  39.1481  40.8331  42.0966  42.2061  43.8048  44.0283
    44.4983  44.5776  44.6924  45.2060  45.2799  45.9613  46.0540  46.1884
    46.6526  46.7562  47.7249  48.2753  48.4008  48.4353  48.6831  49.2005
    50.9341  51.3044  51.8244  52.1189  52.7976  53.5611  54.1926  54.6898
    55.6999  55.9710  56.2110  56.3282  56.6278  56.7626  57.1383  57.8568
    57.9343  58.0298  58.0412  58.1742  58.4179  58.9933  59.0088  59.0240
    59.1065  59.5620  59.8933  60.2062  60.5039  60.6072  60.7255  61.2646
    61.3370  62.1483

          k = 0.0000 0.0000-0.2634 (  3690 PWs)   bands (ev):

   -49.7669 -49.7669 -49.6736 -49.6736 -49.6345 -49.6345 -49.5667 -49.5667
   -13.4730 -13.4730 -13.0708 -13.0708 -12.4764 -12.4764 -12.4195 -12.4195
   -12.2362 -12.2362 -12.0416 -12.0416 -12.0415 -12.0415 -11.9710 -11.9710
   -11.9495 -11.9495 -11.7862 -11.7862 -11.7133 -11.7133 -11.5271 -11.5271
   -11.4028 -11.4028 -11.3014 -11.3014  13.1170  13.1170  13.2999  13.2999
    13.4257  13.4257  13.4488  13.4488  13.8078  13.8078  14.1927  14.1927
    29.6881  29.6881  29.7721  29.7721  30.2161  30.2161  31.2521  31.2521
    31.3398  31.3398  31.8993  31.8993  32.5595  32.5595  32.8835  32.8835
    33.0483  33.0483  33.2184  33.2184  33.5183  33.5183  33.7923  33.7923
    34.2433  34.2433  34.4348  34.4348  34.8446  34.8446  34.9423  34.9423
    35.1685  35.1685  36.0439  36.0439  36.0636  36.0636  36.8058  36.8058
    37.1869  37.1869  40.2698  40.2698  41.8169  41.8169  44.4769  44.4769
    44.6099  44.6099  45.1453  45.1453  45.1530  45.1530  45.7967  45.7967
    46.4664  46.4664  47.9412  47.9412  48.4844  48.4844  50.2386  50.2386
    50.9676  50.9676  52.6969  52.6969  53.1495  53.1495  54.1579  54.1579
    55.5816  55.5816  56.2548  56.2548  56.3260  56.3260  56.6384  56.6384
    57.5817  57.5817  57.9555  57.9555  58.7526  58.7527  58.9796  58.9797
    59.3522  59.3523  60.1521  60.1521  60.5579  60.5581  61.2980  61.2982
    61.5323  61.5327

          k = 0.0000 0.2533 0.0000 (  3664 PWs)   bands (ev):

   -49.7413 -49.6824 -49.6735 -49.6566 -49.6389 -49.6064 -49.5943 -49.5795
   -13.5954 -13.5281 -13.1114 -12.8250 -12.4804 -12.3978 -12.3219 -12.3078
   -12.2956 -12.2897 -12.2048 -12.1719 -12.1467 -12.0484 -11.9156 -11.9103
   -11.8178 -11.8127 -11.7484 -11.7474 -11.7248 -11.6629 -11.6185 -11.5809
   -11.4837 -11.3829 -11.2216 -11.2156  13.0463  13.2018  13.2702  13.3138
    13.3431  13.3541  13.3556  13.4670  13.6940  13.7349  14.0633  14.1802
    30.1175  30.2308  30.3859  30.4407  30.7042  30.8274  31.0043  31.1045
    31.3173  31.4225  31.6227  31.9540  32.0668  32.0717  32.4322  32.6712
    32.8545  33.0313  33.1330  33.2359  33.6601  33.8353  33.9075  34.2310
    34.3670  34.4125  34.5430  34.5500  34.7794  34.9680  35.1639  35.3599
    35.5575  35.5976  35.6072  36.1083  36.1084  36.2338  36.5431  37.0328
    37.3376  38.3339  39.6025  39.6900  41.8286  42.5558  42.9312  43.3112
    43.7219  43.8442  44.2249  44.7584  44.7642  45.5003  46.0083  46.1891
    46.4983  46.5907  47.2063  47.2784  47.3797  47.7464  48.3651  48.6677
    49.3314  49.9523  52.5413  52.8432  52.8861  54.6101  54.9577  55.4504
    55.8734  56.4008  56.4177  56.5839  57.1209  57.6405  57.6668  58.1638
    58.2480  58.2666  58.4865  58.6065  58.8282  58.9947  59.3603  59.5197
    59.5271  59.9347  60.0787  60.2846  60.5101  60.6309  60.8927  60.9407
    61.0152  61.4129

          k = 0.0000 0.2533 0.1317 (  3669 PWs)   bands (ev):

   -49.7374 -49.7079 -49.6759 -49.6480 -49.6368 -49.6104 -49.5959 -49.5882
   -13.5633 -13.4804 -13.1696 -12.9427 -12.4643 -12.3824 -12.3604 -12.3368
   -12.2630 -12.2311 -12.1934 -12.1729 -12.1214 -12.0253 -11.9286 -11.8870
   -11.8485 -11.8242 -11.8007 -11.7609 -11.7375 -11.6837 -11.5994 -11.5782
   -11.4733 -11.3797 -11.2201 -11.1865  13.0681  13.1816  13.2744  13.3080
    13.3249  13.3579  13.3702  13.4539  13.6892  13.7163  14.0827  14.1682
    30.0855  30.1199  30.2124  30.4659  30.7310  30.8398  31.0419  31.2217
    31.3749  31.6418  31.8456  31.9431  32.0326  32.2546  32.3346  32.6507
    33.1008  33.1036  33.2333  33.4314  33.6543  33.8029  33.8727  34.0267
    34.1541  34.1627  34.4304  34.6419  34.7094  34.8617  34.9576  35.3076
    35.6150  35.7320  35.7814  36.0744  36.1113  36.3462  36.5885  37.0309
    37.2810  38.1674  38.6333  40.0773  41.5378  42.2705  43.5983  43.6185
    43.7921  43.8753  43.9821  44.4578  44.6956  45.2965  45.8090  46.1855
    46.5834  46.7472  47.1922  47.6183  47.6788  47.8848  48.0264  48.9146
    49.9438  50.5587  52.5759  53.0869  53.1289  54.4163  54.8419  54.9740
    55.4845  55.8953  56.3277  56.4006  57.0282  57.3818  57.4981  58.0420
    58.1160  58.1910  58.5059  58.6951  58.8474  59.2451  59.2566  59.4520
    59.6021  60.0139  60.0446  60.3471  60.4717  60.7913  61.0962  61.4607
    61.5950  61.7505

          k = 0.0000 0.2533-0.2634 (  3666 PWs)   bands (ev):

   -49.7226 -49.7226 -49.6683 -49.6683 -49.6127 -49.6127 -49.5918 -49.5918
   -13.4676 -13.4676 -13.1429 -13.1429 -12.4145 -12.4145 -12.3454 -12.3454
   -12.2029 -12.2029 -12.1991 -12.1991 -12.0317 -12.0317 -11.9429 -11.9429
   -11.8532 -11.8532 -11.8042 -11.8042 -11.7132 -11.7132 -11.5735 -11.5735
   -11.4250 -11.4250 -11.1795 -11.1795  13.1246  13.1246  13.2925  13.2925
    13.3361  13.3361  13.4115  13.4115  13.6950  13.6950  14.1299  14.1299
    30.0252  30.0252  30.2171  30.2171  30.9788  30.9788  31.1211  31.1211
    31.5325  31.5325  32.1735  32.1735  32.1879  32.1879  32.5349  32.5349
    33.1868  33.1868  33.3305  33.3305  33.6096  33.6096  33.8137  33.8137
    34.1313  34.1313  34.4534  34.4534  34.7490  34.7490  35.0284  35.0284
    35.8265  35.8265  35.9083  35.9083  36.4547  36.4547  36.8519  36.8519
    37.1401  37.1401  39.2888  39.2888  41.7580  41.7580  43.8531  43.8531
    43.9975  43.9975  44.3651  44.3651  44.4697  44.4697  45.9674  45.9674
    47.0143  47.0143  47.2026  47.2026  47.9417  47.9417  48.4743  48.4743
    51.3181  51.3181  52.6724  52.6724  54.0869  54.0869  54.1892  54.1892
    54.9648  54.9648  56.8566  56.8566  57.0727  57.0727  57.5055  57.5055
    58.4407  58.4407  58.5003  58.5004  58.7565  58.7566  59.4925  59.4926
    59.8994  59.8994  60.0329  60.0329  60.4691  60.4692  61.0958  61.0958
    62.2993  62.3169

          k =-0.5000 0.0000 0.0000 (  3722 PWs)   bands (ev):

   -49.7368 -49.7368 -49.6775 -49.6775 -49.6770 -49.6770 -49.6158 -49.6158
   -13.5540 -13.5540 -13.3535 -13.3535 -12.7418 -12.7418 -12.3646 -12.3646
   -12.3006 -12.3006 -12.1211 -12.1211 -12.0427 -12.0427 -11.9283 -11.9283
   -11.8406 -11.8406 -11.6717 -11.6717 -11.6000 -11.6000 -11.5214 -11.5214
   -11.3348 -11.3348 -11.1626 -11.1626  13.1049  13.1049  13.3443  13.3443
    13.5193  13.5193  13.6306  13.6306  13.9542  13.9542  14.0523  14.0523
    30.3903  30.3903  30.4730  30.4730  30.8888  30.8888  31.2221  31.2221
    31.7948  31.7948  31.8352  31.8352  32.2176  32.2176  32.3688  32.3688
    32.4481  32.4481  32.8456  32.8456  33.0849  33.0849  33.2172  33.2172
    33.5418  33.5418  34.0300  34.0300  34.6160  34.6160  34.6945  34.6945
    34.7032  34.7032  36.0306  36.0306  36.9066  36.9066  36.9096  36.9096
    39.3051  39.3051  41.7806  41.7806  41.9573  41.9573  43.6703  43.6703
    44.2675  44.2675  44.7259  44.7259  45.2145  45.2145  45.6482  45.6482
    46.2719  46.2719  47.2800  47.2800  47.9295  47.9295  48.5527  48.5527
    48.6251  48.6251  49.2519  49.2519  53.2576  53.2576  54.1442  54.1442
    54.8980  54.8980  55.9498  55.9498  56.1541  56.1541  57.3628  57.3628
    58.0624  58.0624  59.0762  59.0762  59.3205  59.3205  59.4422  59.4423
    59.8868  59.8868  60.5851  60.5851  61.0022  61.0023  61.2110  61.2111
    62.2328  62.2330

          k =-0.5000 0.0000 0.1317 (  3710 PWs)   bands (ev):

   -49.7332 -49.7332 -49.6727 -49.6727 -49.6615 -49.6615 -49.6142 -49.6142
   -13.5711 -13.5711 -13.2881 -13.2881 -12.6990 -12.6990 -12.4763 -12.4763
   -12.3342 -12.3342 -12.1336 -12.1336 -12.0221 -12.0221 -11.9045 -11.9045
   -11.7874 -11.7874 -11.6833 -11.6833 -11.6022 -11.6022 -11.5253 -11.5253
   -11.2996 -11.2996 -11.1630 -11.1630  13.1019  13.1019  13.3729  13.3729
    13.5231  13.5231  13.6086  13.6086  13.9522  13.9522  14.0469  14.0469
    30.2949  30.2949  30.6458  30.6458  30.8176  30.8176  31.3067  31.3067
    31.7551  31.7551  31.9465  31.9465  32.0315  32.0315  32.3936  32.3936
    32.5550  32.5550  32.9427  32.9427  33.1016  33.1016  33.2767  33.2767
    33.5702  33.5702  33.9184  33.9184  34.4965  34.4965  34.5837  34.5837
    35.0956  35.0956  35.9554  35.9554  36.7185  36.7185  36.9061  36.9061
    39.0527  39.0527  40.8280  40.8280  42.5005  42.5005  44.1379  44.1379
    44.5930  44.5930  44.7974  44.7974  45.0438  45.0438  45.2530  45.2530
    46.4349  46.4349  47.5139  47.5139  47.9018  47.9018  48.3243  48.3243
    48.8352  48.8352  49.8418  49.8418  52.4215  52.4215  53.8692  53.8692
    55.7072  55.7072  55.8869  55.8869  56.7278  56.7278  57.1173  57.1173
    57.5922  57.5922  58.5083  58.5083  59.2316  59.2316  59.8029  59.8029
    60.1854  60.1854  60.6961  60.6961  60.9070  60.9073  61.5041  61.5041
    62.1764  62.1766

          k =-0.5000 0.0000-0.2634 (  3680 PWs)   bands (ev):

   -49.7020 -49.7020 -49.6545 -49.6545 -49.6536 -49.6536 -49.6128 -49.6128
   -13.5806 -13.5806 -13.2160 -13.2160 -12.6605 -12.6605 -12.5618 -12.5618
   -12.3554 -12.3554 -12.1454 -12.1454 -12.0290 -12.0290 -11.8745 -11.8745
   -11.7299 -11.7299 -11.6898 -11.6898 -11.5911 -11.5911 -11.5152 -11.5152
   -11.2532 -11.2532 -11.1715 -11.1715  13.1011  13.1011  13.4073  13.4073
    13.5268  13.5268  13.5848  13.5848  13.9538  13.9538  14.0425  14.0425
    30.2078  30.2078  30.6972  30.6972  31.0959  31.0959  31.1866  31.1866
    31.7316  31.7316  31.7613  31.7613  32.1783  32.1783  32.3672  32.3672
    32.6737  32.6737  32.9295  32.9295  33.1133  33.1133  33.2490  33.2490
    33.8974  33.8974  34.0775  34.0775  34.1568  34.1568  34.3773  34.3773
    35.3271  35.3271  36.1679  36.1679  36.3387  36.3387  36.8846  36.8846
    38.7804  38.7804  40.3674  40.3674  42.9387  42.9387  44.0476  44.0476
    44.7479  44.7479  44.8397  44.8397  44.9546  44.9546  45.0097  45.0097
    47.2603  47.2603  47.2612  47.2612  47.6509  47.6509  48.6358  48.6358
    49.1758  49.1758  50.5641  50.5641  50.9110  50.9110  54.3386  54.3386
    55.7488  55.7488  55.7578  55.7578  56.4382  56.4382  57.3082  57.3082
    58.2935  58.2936  58.6588  58.6588  59.1270  59.1271  59.4040  59.4041
    59.7297  59.7298  60.5957  60.5958  61.3615  61.3616  62.1137  62.1139
    62.1508  62.1509

          k =-0.5000 0.2533 0.0000 (  3686 PWs)   bands (ev):

   -49.6910 -49.6910 -49.6745 -49.6745 -49.6529 -49.6529 -49.6234 -49.6234
   -13.5838 -13.5838 -13.4906 -13.4906 -12.5628 -12.5628 -12.3327 -12.3327
   -12.1759 -12.1759 -12.0723 -12.0723 -12.0237 -12.0237 -11.9315 -11.9315
   -11.7750 -11.7750 -11.7263 -11.7263 -11.6473 -11.6473 -11.5862 -11.5862
   -11.2871 -11.2871 -11.1932 -11.1932  13.1346  13.1346  13.2442  13.2442
    13.5386  13.5386  13.5735  13.5735  13.9073  13.9073  13.9231  13.9231
    30.6645  30.6645  30.9525  30.9525  31.2856  31.2856  31.3281  31.3281
    31.6756  31.6756  31.8580  31.8580  32.4910  32.4910  32.5246  32.5246
    32.7924  32.7924  33.0335  33.0335  33.2431  33.2431  33.4498  33.4498
    33.7546  33.7546  33.9401  33.9401  34.3626  34.3626  34.8141  34.8141
    35.1690  35.1690  35.5166  35.5166  36.2451  36.2451  36.5614  36.5614
    39.5800  39.5800  41.1882  41.1882  41.9783  41.9783  42.7843  42.7843
    43.7650  43.7650  43.9383  43.9383  45.4773  45.4773  45.6702  45.6702
    46.3075  46.3075  46.7043  46.7043  46.9688  46.9688  47.4368  47.4368
    49.9122  49.9122  50.2937  50.2937  52.1334  52.1334  52.8034  52.8034
    55.2122  55.2122  56.1854  56.1854  57.3745  57.3745  57.5141  57.5141
    58.1637  58.1637  58.9719  58.9719  59.4598  59.4598  59.6833  59.6834
    60.4208  60.4208  61.0777  61.0778  61.6631  61.6632  62.2104  62.2105
    62.6154  62.6159

          k =-0.5000 0.2533 0.1317 (  3692 PWs)   bands (ev):

   -49.7037 -49.7037 -49.6741 -49.6741 -49.6544 -49.6544 -49.6207 -49.6207
   -13.5826 -13.5826 -13.4624 -13.4624 -12.5513 -12.5513 -12.4063 -12.4063
   -12.2330 -12.2330 -12.1035 -12.1035 -11.9429 -11.9429 -11.9008 -11.9008
   -11.8040 -11.8040 -11.7009 -11.7009 -11.6610 -11.6610 -11.5972 -11.5972
   -11.2688 -11.2688 -11.1933 -11.1933  13.1369  13.1369  13.2611  13.2611
    13.5304  13.5304  13.5525  13.5525  13.8992  13.8992  13.9257  13.9257
    30.5651  30.5651  31.0640  31.0640  31.1934  31.1934  31.4715  31.4715
    31.7237  31.7237  31.9615  31.9615  32.2685  32.2685  32.6249  32.6249
    32.8180  32.8180  33.0566  33.0566  33.3203  33.3203  33.5628  33.5628
    33.6471  33.6471  34.0626  34.0626  34.3251  34.3251  34.6739  34.6739
    35.2242  35.2242  35.5004  35.5004  36.1769  36.1769  36.5349  36.5349
    39.4594  39.4594  40.3635  40.3635  42.2593  42.2593  43.1848  43.1848
    43.8512  43.8512  44.0788  44.0788  44.9693  44.9693  45.9237  45.9237
    46.2740  46.2740  46.6501  46.6501  46.9652  46.9652  47.5179  47.5179
    50.1751  50.1751  50.6683  50.6683  51.8216  51.8216  53.1071  53.1071
    55.3210  55.3210  56.2192  56.2192  57.2127  57.2127  57.6163  57.6163
    58.0638  58.0638  58.7514  58.7515  59.3861  59.3861  59.9539  59.9540
    60.4657  60.4657  60.8708  60.8708  61.6368  61.6370  61.8625  61.8626
    62.4201  62.4203

          k =-0.5000 0.2533-0.2634 (  3704 PWs)   bands (ev):

   -49.7068 -49.7068 -49.6778 -49.6778 -49.6651 -49.6651 -49.6278 -49.6278
   -13.5842 -13.5842 -13.4376 -13.4376 -12.5581 -12.5581 -12.4024 -12.4024
   -12.3515 -12.3515 -12.1172 -12.1172 -11.8930 -11.8930 -11.8636 -11.8636
   -11.8031 -11.8031 -11.7579 -11.7579 -11.6240 -11.6240 -11.6072 -11.6072
   -11.2507 -11.2507 -11.2014 -11.2014  13.1347  13.1347  13.2801  13.2801
    13.5238  13.5238  13.5279  13.5279  13.8953  13.8953  13.9222  13.9222
    30.4758  30.4758  31.0616  31.0616  31.3430  31.3430  31.5382  31.5382
    31.8185  31.8185  31.9536  31.9536  32.0900  32.0900  32.7292  32.7292
    32.8602  32.8602  33.0938  33.0938  33.1952  33.1952  33.7666  33.7666
    33.7963  33.7963  34.0655  34.0655  34.2164  34.2164  34.5822  34.5822
    34.9603  34.9603  35.8512  35.8512  36.0121  36.0121  36.4842  36.4842
    39.3928  39.3928  39.7923  39.7923  42.3955  42.3955  43.2604  43.2604
    43.9385  43.9385  44.1803  44.1803  45.0161  45.0161  45.5325  45.5325
    46.4156  46.4156  46.6209  46.6209  47.3443  47.3443  47.4329  47.4329
    50.2781  50.2781  50.8197  50.8197  51.6783  51.6783  54.1484  54.1484
    54.5541  54.5541  56.7480  56.7480  56.9112  56.9112  57.3016  57.3016
    57.9180  57.9180  58.9712  58.9712  59.5327  59.5327  60.0977  60.0978
    60.2954  60.2955  60.8104  60.8105  60.9486  60.9486  61.6901  61.6902
    62.5732  62.5714

     the Fermi energy is    55.7919 ev

!    total energy              =   -3317.64749788 Ry
     Harris-Foulkes estimate   =   -3317.64751196 Ry
     estimated scf accuracy    <       0.00001471 Ry

     The total energy is the sum of the following terms:

     one-electron contribution =     169.63218696 Ry
     hartree contribution      =     293.80462691 Ry
     xc contribution           =    -313.34616331 Ry
     ewald contribution        =   -3467.41443948 Ry
     smearing contrib. (-TS)   =      -0.32370896 Ry

     convergence has been achieved in  10 iterations

     Forces acting on atoms (Ry/au):

     atom    1 type  1   force =     0.00000000   -0.13581584   -0.11609507
     atom    2 type  1   force =     0.00000000    0.13581584    0.11609507
     atom    3 type  1   force =     0.00000000   -0.13581584    0.11609507
     atom    4 type  1   force =     0.00000000    0.13581584   -0.11609507
     atom    5 type  1   force =     0.00000000    0.13895580   -0.11348812
     atom    6 type  1   force =     0.00000000   -0.13895580    0.11348812
     atom    7 type  1   force =     0.00000000    0.13895580    0.11348812
     atom    8 type  1   force =     0.00000000   -0.13895580   -0.11348812
     atom    9 type  2   force =     0.00000000   -0.22360701   -0.02040522
     atom   10 type  2   force =     0.00000000    0.22360701    0.02040522
     atom   11 type  2   force =     0.00000000   -0.22360701    0.02040522
     atom   12 type  2   force =     0.00000000    0.22360701   -0.02040522

     Total force =     0.676842     Total SCF correction =     0.000000


     entering subroutine stress ...

          total   stress  (Ry/bohr**3)                   (kbar)     P= 7320.49
   0.05230309   0.00000000   0.00000000       7694.05      0.00      0.00
   0.00000000   0.04718389   0.00000000          0.00   6940.99      0.00
   0.00000000   0.00000000   0.04980411          0.00      0.00   7326.44


     BFGS Geometry Optimization

     number of scf cycles    =   1
     number of bfgs steps    =   0

     enthalpy new            =   -3317.6474978813 Ry

     new trust radius        =       0.5000000000 bohr
     new conv_thr            =       0.0001000000 Ry

     new unit-cell volume =   1089.23505 a.u.^3 (   161.40798 Ang^3 )

CELL_PARAMETERS (alat=  7.01510508)
   1.085136619   0.000000000   0.000000000
   0.000000000   1.417034405   0.000000000
   0.000000000   0.000000000   2.051890837

ATOMIC_POSITIONS (crystal)
Co       0.750000000   0.825443097   0.435168288
Co       0.250000000   0.174556903   0.564831712
Co       0.750000000   0.325443097   0.064831712
Co       0.250000000   0.674556903   0.935168288
Co       0.250000000   0.538066049   0.281790037
Co       0.750000000   0.461933951   0.718209963
Co       0.250000000   0.038066049   0.218209963
Co       0.750000000   0.961933951   0.781790037
Si       0.250000000   0.201276910   0.893500217
Si       0.750000000   0.798723090   0.106499783
Si       0.250000000   0.701276910   0.606499783
Si       0.750000000   0.298723090   0.393500217



     Writing output data file Prototype-La-oP12-Co2Si.save
     NEW-OLD atomic charge density approx. for the potential
     NEW k-points:
        k(    1) = (   0.0000000   0.0000000   0.0000000), wk =   0.0833333
        k(    2) = (   0.0000000   0.0000000   0.1218388), wk =   0.1666667
        k(    3) = (   0.0000000   0.0000000  -0.2436777), wk =   0.0833333
        k(    4) = (   0.0000000   0.2352331   0.0000000), wk =   0.1666667
        k(    5) = (   0.0000000   0.2352331   0.1218388), wk =   0.3333333
        k(    6) = (   0.0000000   0.2352331  -0.2436777), wk =   0.1666667
        k(    7) = (  -0.4607715   0.0000000   0.0000000), wk =   0.0833333
        k(    8) = (  -0.4607715   0.0000000   0.1218388), wk =   0.1666667
        k(    9) = (  -0.4607715   0.0000000  -0.2436777), wk =   0.0833333
        k(   10) = (  -0.4607715   0.2352331   0.0000000), wk =   0.1666667
        k(   11) = (  -0.4607715   0.2352331   0.1218388), wk =   0.3333333
        k(   12) = (  -0.4607715   0.2352331  -0.2436777), wk =   0.1666667

     total cpu time spent up to now is      200.8 secs

     Self-consistent Calculation

     iteration #  1     ecut=    40.00 Ry     beta=0.70
     CG style diagonalization
     c_bands:  3 eigenvalues not converged
     c_bands:  3 eigenvalues not converged
     c_bands:  3 eigenvalues not converged
     c_bands:  2 eigenvalues not converged
     c_bands:  1 eigenvalues not converged
     c_bands:  2 eigenvalues not converged
     ethr =  1.00E-06,  avg # of iterations = 22.8

     total cpu time spent up to now is      262.9 secs

     total energy              =   -3312.41557466 Ry
     Harris-Foulkes estimate   =   -3342.45241112 Ry
     estimated scf accuracy    <      38.29404195 Ry

     iteration #  2     ecut=    40.00 Ry     beta=0.70
     CG style diagonalization
     ethr =  1.00E-02,  avg # of iterations =  3.9

     total cpu time spent up to now is      274.0 secs

     total energy              =   -3323.17756956 Ry
     Harris-Foulkes estimate   =   -3326.30927818 Ry
     estimated scf accuracy    <       4.60948265 Ry

     iteration #  3     ecut=    40.00 Ry     beta=0.70
     CG style diagonalization
     ethr =  1.89E-03,  avg # of iterations =  3.7

     total cpu time spent up to now is      283.9 secs

     total energy              =   -3324.28759148 Ry
     Harris-Foulkes estimate   =   -3324.70769502 Ry
     estimated scf accuracy    <       0.86629684 Ry

     iteration #  4     ecut=    40.00 Ry     beta=0.70
     CG style diagonalization
     ethr =  3.55E-04,  avg # of iterations =  3.6

     total cpu time spent up to now is      294.6 secs

     total energy              =   -3324.49500812 Ry
     Harris-Foulkes estimate   =   -3324.50095321 Ry
     estimated scf accuracy    <       0.01035249 Ry

     iteration #  5     ecut=    40.00 Ry     beta=0.70
     CG style diagonalization
     c_bands:  2 eigenvalues not converged
     c_bands:  2 eigenvalues not converged
     c_bands:  1 eigenvalues not converged
     c_bands:  2 eigenvalues not converged
     ethr =  4.24E-06,  avg # of iterations =  5.0

     total cpu time spent up to now is      309.9 secs

     total energy              =   -3324.50075648 Ry
     Harris-Foulkes estimate   =   -3324.50287113 Ry
     estimated scf accuracy    <       0.00423917 Ry

     iteration #  6     ecut=    40.00 Ry     beta=0.70
     CG style diagonalization
     c_bands:  1 eigenvalues not converged
     ethr =  1.74E-06,  avg # of iterations =  3.6

     total cpu time spent up to now is      320.3 secs

     total energy              =   -3324.50145255 Ry
     Harris-Foulkes estimate   =   -3324.50161254 Ry
     estimated scf accuracy    <       0.00035013 Ry

     iteration #  7     ecut=    40.00 Ry     beta=0.70
     CG style diagonalization
     ethr =  1.43E-07,  avg # of iterations =  3.6

     total cpu time spent up to now is      330.1 secs

     End of self-consistent calculation

          k = 0.0000 0.0000 0.0000 (  3675 PWs)   bands (ev):

   -59.7234 -59.6959 -59.6549 -59.6472 -59.6334 -59.6258 -59.5761 -59.5754
   -22.8489 -22.7647 -22.7217 -22.4903 -22.3916 -22.3587 -22.3342 -22.2863
   -22.2474 -22.2214 -22.1975 -22.1873 -22.1512 -22.1457 -22.1209 -22.1201
   -22.0961 -22.0822 -22.0608 -22.0003 -21.9945 -21.9904 -21.9751 -21.9452
   -21.9267 -21.9104 -21.8655 -21.8166   4.0674   4.1971   4.2033   4.2100
     4.2143   4.2247   4.2566   4.2837   4.4749   4.6041   4.6288   4.7797
    21.3911  21.5552  21.6177  21.6462  21.6602  21.8460  21.9517  22.0338
    22.2506  22.5254  22.5516  22.7204  22.9399  23.1541  23.2705  23.5829
    23.6187  23.6235  23.6421  23.7568  23.7960  23.8356  23.9837  24.0355
    24.1999  24.2131  24.3241  24.4026  24.5288  24.7195  24.7303  24.7416
    24.7424  24.9020  24.9864  25.3537  25.5786  25.6201  25.8276  25.8413
    25.9105  28.7645  29.0358  29.3622  32.4196  32.6253  32.9897  33.3850
    33.6183  34.5900  34.6044  34.6294  35.3358  35.4352  35.6589  35.6916
    35.8237  36.5557  36.7116  36.8576  37.3088  37.5382  37.5900  37.7098
    38.0723  39.4176  39.7720  40.0870  40.5546  41.1433  41.7772  43.8351
    43.9135  44.7600  44.9368  45.0305  45.4693  45.6118  45.8412  46.0178
    46.2736  46.9579  47.0897  47.1817  47.3487  47.3543  47.3963  47.6158
    47.8025  47.8215  48.0885  48.2357  48.3512  48.5629  49.0472  49.2181
    49.3439  49.7145

          k = 0.0000 0.0000 0.1218 (  3675 PWs)   bands (ev):

   -59.7332 -59.7141 -59.6957 -59.6471 -59.6145 -59.6020 -59.5919 -59.5390
   -22.8464 -22.7446 -22.7222 -22.5176 -22.3771 -22.3595 -22.3485 -22.3183
   -22.2557 -22.2104 -22.2034 -22.1942 -22.1716 -22.1313 -22.1312 -22.1229
   -22.0853 -22.0839 -22.0544 -22.0206 -21.9927 -21.9857 -21.9533 -21.9411
   -21.9299 -21.8820 -21.8695 -21.8014   4.0883   4.1704   4.1974   4.2047
     4.2268   4.2304   4.2683   4.2819   4.4880   4.5544   4.6754   4.7579
    21.4333  21.4491  21.5239  21.5616  21.7437  21.8045  21.9616  22.1107
    22.4375  22.5780  22.6204  22.8612  23.0155  23.2314  23.2512  23.4347
    23.5377  23.6620  23.6674  23.7674  23.7786  23.8321  23.9473  23.9572
    24.1770  24.2115  24.2572  24.4171  24.4365  24.5271  24.6554  24.8317
    24.9841  25.0247  25.1725  25.3306  25.5110  25.5850  25.7630  25.8777
    25.9376  27.3457  29.6215  30.2044  31.8325  32.1449  33.4894  33.5233
    33.8053  34.3171  34.6509  34.7264  35.0186  35.2867  35.6604  35.6859
    35.7135  35.8203  37.1833  37.2773  37.4404  37.6221  37.9039  37.9466
    39.0347  39.6292  39.8725  40.0291  40.5650  41.2350  41.7956  42.8809
    43.5962  44.1611  44.3292  44.8569  45.3584  45.5135  45.6246  46.0401
    46.4225  46.4349  46.6395  46.9258  47.0198  47.1025  47.8365  48.2063
    48.2769  48.3095  48.3968  48.4017  48.5541  48.8235  48.9320  49.1062
    49.4632  49.8553

          k = 0.0000 0.0000-0.2437 (  3690 PWs)   bands (ev):

   -59.7273 -59.7273 -59.7024 -59.7024 -59.6398 -59.6398 -59.5592 -59.5592
   -22.8149 -22.8149 -22.6240 -22.6240 -22.3468 -22.3468 -22.3461 -22.3461
   -22.2445 -22.2445 -22.1739 -22.1739 -22.1487 -22.1487 -22.1419 -22.1419
   -22.1104 -22.1104 -22.0536 -22.0536 -21.9886 -21.9886 -21.9552 -21.9552
   -21.8996 -21.8996 -21.8484 -21.8484   4.1273   4.1273   4.1960   4.1960
     4.2388   4.2388   4.2639   4.2639   4.5065   4.5065   4.7132   4.7132
    21.4393  21.4393  21.4650  21.4650  21.6997  21.6997  22.3629  22.3629
    22.3917  22.3917  22.8511  22.8511  23.1197  23.1197  23.3757  23.3757
    23.5674  23.5674  23.6165  23.6165  23.7406  23.7406  23.9848  23.9848
    24.2301  24.2301  24.3386  24.3386  24.4596  24.4596  24.6534  24.6534
    25.2211  25.2211  25.2835  25.2835  25.5650  25.5650  25.9351  25.9351
    26.0362  26.0362  30.3446  30.3446  31.5551  31.5551  33.6013  33.6013
    34.3703  34.3703  34.5267  34.5267  35.0417  35.0417  35.3039  35.3039
    35.7555  35.7555  37.4637  37.4637  37.6129  37.6129  38.7956  38.7956
    39.0991  39.0991  40.4617  40.4617  40.9865  40.9865  41.5988  41.5988
    43.5849  43.5849  44.3862  44.3862  44.9633  44.9633  45.7495  45.7495
    46.2771  46.2771  46.3800  46.3800  47.3550  47.3550  48.1443  48.1443
    48.4977  48.4977  48.7387  48.7387  48.9696  48.9696  48.9893  48.9893
    50.1349  50.1349

          k = 0.0000 0.2352 0.0000 (  3664 PWs)   bands (ev):

   -59.6999 -59.6765 -59.6711 -59.6525 -59.6208 -59.5960 -59.5602 -59.5576
   -22.8555 -22.8230 -22.6497 -22.5239 -22.3502 -22.3263 -22.3047 -22.2788
   -22.2767 -22.2720 -22.2384 -22.2141 -22.1954 -22.1763 -22.1125 -22.0916
   -22.0847 -22.0359 -22.0210 -22.0146 -22.0088 -21.9739 -21.9592 -21.9548
   -21.9111 -21.8859 -21.8025 -21.7966   4.0936   4.1346   4.1984   4.2128
     4.2230   4.2360   4.2505   4.2590   4.4664   4.5141   4.6740   4.7214
    21.7005  21.7505  21.7907  21.8992  22.0424  22.1446  22.2232  22.2992
    22.4505  22.5443  22.5556  22.8731  22.8932  22.9274  23.1542  23.2474
    23.2688  23.4964  23.5293  23.6778  23.8451  23.8602  24.1007  24.1321
    24.2502  24.2786  24.3186  24.3714  24.5039  24.5408  24.8234  24.9643
    24.9662  24.9751  25.3078  25.3438  25.3775  25.7370  25.7919  25.8689
    26.0001  28.1259  29.2932  29.5122  31.3790  32.0647  32.6329  33.3679
    33.5850  33.6349  33.9309  34.3331  34.6244  35.3755  35.5417  35.6776
    36.1141  36.2136  36.6261  36.8603  36.9211  37.1095  37.2363  37.4277
    38.2703  38.7029  40.4618  40.7101  40.8522  42.4819  42.8414  43.3996
    43.8172  44.3452  44.6407  44.6419  45.2933  45.4338  45.7118  46.1822
    46.2914  46.4382  46.9529  47.1654  47.4887  47.6008  48.0083  48.0242
    48.2129  48.4206  48.5289  48.9091  48.9589  49.4426  49.5080  49.5282
    50.0098  50.3861

          k = 0.0000 0.2352 0.1218 (  3669 PWs)   bands (ev):

   -59.7085 -59.6818 -59.6656 -59.6556 -59.6302 -59.6119 -59.5784 -59.5550
   -22.8494 -22.8089 -22.6760 -22.5735 -22.3442 -22.3267 -22.3075 -22.3062
   -22.2558 -22.2388 -22.2347 -22.2118 -22.1988 -22.1713 -22.1188 -22.1023
   -22.0688 -22.0421 -22.0418 -22.0256 -22.0029 -21.9757 -21.9668 -21.9570
   -21.9169 -21.8814 -21.7989 -21.7898   4.1002   4.1363   4.1898   4.2105
     4.2241   4.2350   4.2507   4.2523   4.4704   4.5005   4.6752   4.7151
    21.6737  21.6840  21.6906  21.8948  22.0709  22.1097  22.2771  22.3624
    22.4704  22.6462  22.7021  22.8848  22.9207  22.9414  23.0859  23.1821
    23.4927  23.5592  23.6790  23.6948  23.8677  23.8922  23.9657  24.0536
    24.0772  24.2091  24.3088  24.4084  24.4904  24.5173  24.6333  24.8256
    25.0123  25.1125  25.2974  25.3058  25.4517  25.6987  25.8825  25.9810
    26.0486  27.9720  28.4599  29.9733  31.0463  32.2110  32.9579  33.5188
    33.5227  33.6430  33.9509  34.2055  34.5388  34.9959  35.4616  35.7300
    36.1640  36.3387  36.6790  36.8188  37.1428  37.2478  37.3273  37.7920
    38.5985  39.0756  40.4975  40.9317  41.0883  42.3214  42.6179  42.9527
    43.3917  43.5485  44.0966  44.1708  45.1503  45.5450  46.0042  46.3710
    46.3769  46.6195  46.8792  46.9138  47.4428  47.7824  47.8834  48.0342
    48.1963  48.5888  48.8908  49.1566  49.2118  49.4212  49.5327  49.7758
    49.8878  50.1173

          k = 0.0000 0.2352-0.2437 (  3666 PWs)   bands (ev):

   -59.6709 -59.6709 -59.6625 -59.6625 -59.6183 -59.6183 -59.5808 -59.5808
   -22.8073 -22.8073 -22.6581 -22.6581 -22.3213 -22.3213 -22.3085 -22.3085
   -22.2279 -22.2279 -22.2263 -22.2263 -22.1677 -22.1677 -22.1273 -22.1273
   -22.0542 -22.0542 -22.0541 -22.0541 -21.9926 -21.9926 -21.9508 -21.9508
   -21.9045 -21.9045 -21.7812 -21.7812   4.1208   4.1208   4.1992   4.1992
     4.2392   4.2392   4.2407   4.2407   4.4866   4.4866   4.6958   4.6958
    21.6073  21.6073  21.7444  21.7444  22.1882  22.1882  22.2997  22.2997
    22.5696  22.5696  22.9477  22.9477  22.9634  22.9634  23.1479  23.1479
    23.6368  23.6368  23.6804  23.6804  23.8094  23.8094  23.9366  23.9366
    24.1600  24.1600  24.3120  24.3120  24.4168  24.4168  24.6914  24.6914
    25.1534  25.1534  25.2106  25.2106  25.6064  25.6064  25.9315  25.9315
    26.8117  26.8117  29.1052  29.1052  31.6529  31.6529  33.4058  33.4058
    33.8653  33.8653  33.8952  33.8952  34.5110  34.5110  35.5798  35.5798
    36.4571  36.4571  36.5728  36.5728  37.3582  37.3582  37.7567  37.7567
    39.5936  39.5936  40.5002  40.5002  41.8914  41.8914  42.1050  42.1050
    43.0452  43.0452  44.4374  44.4374  44.7204  44.7204  46.0507  46.0507
    46.4982  46.4982  47.2328  47.2328  47.7380  47.7380  47.8376  47.8376
    48.1971  48.1971  49.1325  49.1325  49.5526  49.5527  49.6886  49.6886
    50.3726  50.4725

          k =-0.4608 0.0000 0.0000 (  3722 PWs)   bands (ev):

   -59.7356 -59.7356 -59.6866 -59.6866 -59.6814 -59.6814 -59.6734 -59.6734
   -22.8476 -22.8476 -22.7606 -22.7606 -22.5076 -22.5076 -22.3026 -22.3026
   -22.2788 -22.2788 -22.2078 -22.2078 -22.1573 -22.1573 -22.1092 -22.1092
   -22.0776 -22.0776 -22.0133 -22.0133 -21.9689 -21.9689 -21.9669 -21.9669
   -21.8654 -21.8654 -21.7858 -21.7858   4.0725   4.0725   4.1666   4.1666
     4.2565   4.2565   4.3123   4.3123   4.5843   4.5843   4.6559   4.6559
    21.7449  21.7449  21.8870  21.8870  22.0912  22.0912  22.3817  22.3817
    22.7188  22.7188  22.8767  22.8767  22.9770  22.9770  23.0697  23.0697
    23.2756  23.2756  23.5258  23.5258  23.5509  23.5509  23.6636  23.6636
    23.7457  23.7457  24.0736  24.0736  24.4006  24.4006  24.5035  24.5035
    24.5830  24.5830  25.2764  25.2764  25.7772  25.7772  25.8749  25.8749
    28.6780  28.6780  31.1728  31.1728  31.4134  31.4134  33.3209  33.3209
    34.0421  34.0421  34.2198  34.2198  34.8034  34.8034  35.3947  35.3947
    35.7751  35.7751  36.5721  36.5721  37.1375  37.1375  37.3109  37.3109
    37.7205  37.7205  37.9812  37.9812  41.5036  41.5036  42.3863  42.3863
    42.8752  42.8752  43.8463  43.8463  44.5510  44.5510  46.0073  46.0073
    46.6959  46.6959  47.4472  47.4472  47.5423  47.5423  48.1127  48.1127
    48.2328  48.2328  48.5922  48.5922  49.0326  49.0326  50.0931  50.0931
    50.8474  50.8475

          k =-0.4608 0.0000 0.1218 (  3710 PWs)   bands (ev):

   -59.7172 -59.7172 -59.6986 -59.6986 -59.6695 -59.6695 -59.6377 -59.6377
   -22.8498 -22.8498 -22.7250 -22.7250 -22.4890 -22.4890 -22.3488 -22.3488
   -22.2921 -22.2921 -22.2065 -22.2065 -22.1394 -22.1394 -22.1018 -22.1018
   -22.0527 -22.0527 -22.0151 -22.0151 -21.9716 -21.9716 -21.9683 -21.9683
   -21.8507 -21.8507 -21.7827 -21.7827   4.0753   4.0753   4.1809   4.1809
     4.2646   4.2646   4.3096   4.3096   4.5860   4.5860   4.6520   4.6520
    21.7172  21.7172  21.9728  21.9728  22.0593  22.0593  22.4278  22.4278
    22.6692  22.6692  22.8436  22.8436  22.9419  22.9419  23.1514  23.1514
    23.2288  23.2288  23.5330  23.5330  23.5809  23.5809  23.7131  23.7131
    23.8132  23.8132  24.0851  24.0851  24.3826  24.3826  24.4359  24.4359
    24.7056  24.7056  25.2347  25.2347  25.6857  25.6857  25.8615  25.8615
    28.7564  28.7564  30.1772  30.1772  31.9951  31.9951  33.5655  33.5655
    33.9899  33.9899  34.4615  34.4615  34.8978  34.8978  35.4890  35.4890
    35.5380  35.5380  36.3919  36.3919  36.9792  36.9792  37.6955  37.6955
    37.7584  37.7584  38.3833  38.3833  40.6081  40.6081  42.5069  42.5069
    43.4567  43.4567  44.0136  44.0136  44.5871  44.5871  45.4088  45.4088
    46.4128  46.4128  47.0299  47.0299  47.4320  47.4320  48.1202  48.1202
    48.5045  48.5045  49.0441  49.0441  49.5391  49.5391  49.7540  49.7540
    50.9223  50.9225

          k =-0.4608 0.0000-0.2437 (  3680 PWs)   bands (ev):

   -59.6732 -59.6732 -59.6691 -59.6691 -59.6331 -59.6331 -59.6216 -59.6216
   -22.8446 -22.8446 -22.6828 -22.6828 -22.4803 -22.4803 -22.3725 -22.3725
   -22.2928 -22.2928 -22.1966 -22.1966 -22.1424 -22.1424 -22.0867 -22.0867
   -22.0219 -22.0219 -22.0188 -22.0188 -21.9587 -21.9587 -21.9464 -21.9464
   -21.8250 -21.8250 -21.7846 -21.7846   4.0835   4.0835   4.1960   4.1960
     4.2728   4.2728   4.3178   4.3178   4.5939   4.5939   4.6514   4.6514
    21.6893  21.6893  21.9871  21.9871  22.1596  22.1596  22.4465  22.4465
    22.5794  22.5794  22.7673  22.7673  22.9957  22.9957  23.0884  23.0884
    23.3048  23.3048  23.5507  23.5507  23.6154  23.6154  23.7212  23.7212
    24.0089  24.0089  24.1475  24.1475  24.1772  24.1772  24.3401  24.3401
    24.8799  24.8799  25.3000  25.3000  25.4939  25.4939  25.8504  25.8504
    28.9430  28.9430  29.5354  29.5354  32.2401  32.2401  33.4301  33.4301
    34.1745  34.1745  34.5966  34.5966  34.9233  34.9233  35.2787  35.2787
    36.0677  36.0677  36.4772  36.4772  36.5252  36.5252  37.6931  37.6931
    38.0811  38.0811  39.2401  39.2401  39.3346  39.3346  42.7537  42.7537
    43.8045  43.8045  44.0578  44.0578  44.3836  44.3836  45.7684  45.7684
    45.8685  45.8685  46.3964  46.3964  47.2263  47.2263  48.4714  48.4714
    48.5197  48.5197  49.3544  49.3544  49.7083  49.7084  50.2851  50.2851
    50.4988  50.4988

          k =-0.4608 0.2352 0.0000 (  3686 PWs)   bands (ev):

   -59.6841 -59.6841 -59.6774 -59.6774 -59.6441 -59.6441 -59.6324 -59.6324
   -22.8610 -22.8610 -22.8166 -22.8166 -22.4072 -22.4072 -22.2923 -22.2923
   -22.2254 -22.2254 -22.1727 -22.1727 -22.1585 -22.1585 -22.1035 -22.1035
   -22.0415 -22.0415 -22.0346 -22.0346 -21.9852 -21.9852 -21.9620 -21.9620
   -21.8353 -21.8353 -21.7892 -21.7892   4.0895   4.0895   4.1348   4.1348
     4.2804   4.2804   4.2981   4.2981   4.5893   4.5893   4.6151   4.6151
    21.9224  21.9224  22.2102  22.2102  22.3626  22.3626  22.4464  22.4464
    22.7038  22.7038  22.8567  22.8567  23.1786  23.1786  23.2082  23.2082
    23.3398  23.3398  23.5154  23.5154  23.6120  23.6120  23.7870  23.7870
    23.9682  23.9682  24.0306  24.0306  24.2164  24.2164  24.5269  24.5269
    24.7656  24.7656  24.9812  24.9812  25.4137  25.4137  25.6045  25.6045
    29.2093  29.2093  30.6836  30.6836  31.6358  31.6358  32.3686  32.3686
    33.5290  33.5290  33.6465  33.6465  35.2005  35.2005  35.4822  35.4822
    35.7222  35.7222  36.2409  36.2409  36.4935  36.4935  36.7269  36.7269
    38.2471  38.2471  38.6701  38.6701  40.4381  40.4381  40.7516  40.7516
    43.7864  43.7864  44.9650  44.9650  45.8458  45.8458  46.2151  46.2151
    47.0848  47.0848  47.4532  47.4532  47.9509  47.9509  48.1853  48.1853
    48.7995  48.7995  49.4079  49.4080  50.0688  50.0690  50.2030  50.2032
    50.8146  51.1215

          k =-0.4608 0.2352 0.1218 (  3692 PWs)   bands (ev):

   -59.6873 -59.6873 -59.6752 -59.6752 -59.6596 -59.6596 -59.6371 -59.6371
   -22.8549 -22.8549 -22.8066 -22.8066 -22.4057 -22.4057 -22.3202 -22.3202
   -22.2477 -22.2477 -22.1922 -22.1922 -22.1217 -22.1217 -22.0929 -22.0929
   -22.0716 -22.0716 -22.0155 -22.0155 -21.9923 -21.9923 -21.9717 -21.9717
   -21.8258 -21.8258 -21.7911 -21.7911   4.0939   4.0939   4.1391   4.1391
     4.2754   4.2754   4.2918   4.2918   4.5801   4.5801   4.6158   4.6158
    21.8852  21.8852  22.2816  22.2816  22.3322  22.3322  22.5219  22.5219
    22.6938  22.6938  22.8641  22.8641  22.9916  22.9916  23.2584  23.2584
    23.3651  23.3651  23.5631  23.5631  23.6671  23.6671  23.8519  23.8519
    23.9292  23.9292  24.1183  24.1183  24.2546  24.2546  24.4353  24.4353
    24.7736  24.7736  24.9529  24.9529  25.3502  25.3502  25.6037  25.6037
    29.2434  29.2434  30.1582  30.1582  31.6196  31.6196  32.4777  32.4777
    33.6629  33.6629  34.1342  34.1342  34.8215  34.8215  35.5198  35.5198
    35.7565  35.7565  36.2973  36.2973  36.4162  36.4162  36.7287  36.7287
    38.3977  38.3977  38.9401  38.9401  40.0449  40.0449  41.2372  41.2372
    43.8478  43.8478  44.4710  44.4710  45.4831  45.4831  46.2233  46.2233
    46.7248  46.7248  47.7822  47.7822  48.0466  48.0466  48.5289  48.5289
    48.7840  48.7840  49.2638  49.2638  49.8553  49.8553  50.5160  50.5161
    50.7504  50.7505

          k =-0.4608 0.2352-0.2437 (  3704 PWs)   bands (ev):

   -59.7153 -59.7153 -59.6769 -59.6769 -59.6596 -59.6596 -59.6575 -59.6575
   -22.8558 -22.8558 -22.7998 -22.7998 -22.4007 -22.4007 -22.3383 -22.3383
   -22.2905 -22.2905 -22.2085 -22.2085 -22.1049 -22.1049 -22.0928 -22.0928
   -22.0656 -22.0656 -22.0375 -22.0375 -21.9787 -21.9787 -21.9721 -21.9721
   -21.8207 -21.8207 -21.7991 -21.7991   4.0887   4.0887   4.1435   4.1435
     4.2698   4.2698   4.2867   4.2867   4.5774   4.5774   4.6068   4.6068
    21.8487  21.8487  22.2761  22.2761  22.4516  22.4516  22.5885  22.5885
    22.6512  22.6512  22.7830  22.7830  22.9174  22.9174  23.3285  23.3285
    23.3793  23.3793  23.5599  23.5599  23.6274  23.6274  23.9914  23.9914
    24.0412  24.0412  24.1182  24.1182  24.2355  24.2355  24.3643  24.3643
    24.6555  24.6555  25.1044  25.1044  25.2199  25.2199  25.5878  25.5878
    29.4682  29.4682  29.5501  29.5501  31.6505  31.6505  32.4004  32.4004
    34.1513  34.1513  34.2388  34.2388  34.6326  34.6326  35.3426  35.3426
    36.0053  36.0053  36.1801  36.1801  36.5375  36.5375  36.6664  36.6664
    38.4892  38.4892  39.0235  39.0235  39.8762  39.8762  42.0445  42.0445
    43.1772  43.1772  44.4666  44.4666  44.9722  44.9722  45.9882  45.9882
    46.7323  46.7323  48.0008  48.0008  48.4617  48.4617  48.6154  48.6154
    48.9594  48.9594  49.1511  49.1511  49.5520  49.5520  50.2000  50.2001
    50.8691  50.8692

     the Fermi energy is    43.9328 ev

!    total energy              =   -3324.50150985 Ry
     Harris-Foulkes estimate   =   -3324.50152155 Ry
     estimated scf accuracy    <       0.00001615 Ry

     The total energy is the sum of the following terms:

     one-electron contribution =    -187.55266398 Ry
     hartree contribution      =     376.97331028 Ry
     xc contribution           =    -305.56786964 Ry
     ewald contribution        =   -3208.05421167 Ry
     smearing contrib. (-TS)   =      -0.30007484 Ry

     convergence has been achieved in   7 iterations

     Forces acting on atoms (Ry/au):

     atom    1 type  1   force =     0.00000000   -0.05228852   -0.03278251
     atom    2 type  1   force =     0.00000000    0.05228852    0.03278251
     atom    3 type  1   force =     0.00000000   -0.05228852    0.03278251
     atom    4 type  1   force =     0.00000000    0.05228852   -0.03278251
     atom    5 type  1   force =     0.00000000    0.07931659   -0.04165635
     atom    6 type  1   force =     0.00000000   -0.07931659    0.04165635
     atom    7 type  1   force =     0.00000000    0.07931659    0.04165635
     atom    8 type  1   force =     0.00000000   -0.07931659   -0.04165635
     atom    9 type  2   force =     0.00000000   -0.11396793    0.02890037
     atom   10 type  2   force =     0.00000000    0.11396793   -0.02890037
     atom   11 type  2   force =     0.00000000   -0.11396793   -0.02890037
     atom   12 type  2   force =     0.00000000    0.11396793    0.02890037

     Total force =     0.320369     Total SCF correction =     0.000000


     entering subroutine stress ...

          total   stress  (Ry/bohr**3)                   (kbar)     P= 2183.70
   0.01544787   0.00000000   0.00000000       2272.46      0.00      0.00
   0.00000000   0.01417601   0.00000000          0.00   2085.36      0.00
   0.00000000   0.00000000   0.01490963          0.00      0.00   2193.28


     number of scf cycles    =   2
     number of bfgs steps    =   1

     enthalpy old            =   -3317.6474978813 Ry
     enthalpy new            =   -3324.5015098521 Ry

     CASE: enthalpy_new < enthalpy_old

     small trust_radius: resetting bfgs history

     new trust radius        =       2.5491731706 bohr
     new conv_thr            =       0.0001000000 Ry

     new unit-cell volume =   2807.25566 a.u.^3 (   415.99236 Ang^3 )

CELL_PARAMETERS (alat=  7.01510508)
   1.504212787   0.000000000   0.000000000
   0.000000000   1.919231641   0.000000000
   0.000000000   0.000000000   2.816714004

ATOMIC_POSITIONS (crystal)
Co       0.750000000   0.820183024   0.432890812
Co       0.250000000   0.179816976   0.567109188
Co       0.750000000   0.320183024   0.067109188
Co       0.250000000   0.679816976   0.932890812
Co       0.250000000   0.546045067   0.278896075
Co       0.750000000   0.453954933   0.721103925
Co       0.250000000   0.046045067   0.221103925
Co       0.750000000   0.953954933   0.778896075
Si       0.250000000   0.189812068   0.895507992
Si       0.750000000   0.810187932   0.104492008
Si       0.250000000   0.689812068   0.604492008
Si       0.750000000   0.310187932   0.395507992



     Writing output data file Prototype-La-oP12-Co2Si.save
     NEW-OLD atomic charge density approx. for the potential
     NEW k-points:
        k(    1) = (   0.0000000   0.0000000   0.0000000), wk =   0.0833333
        k(    2) = (   0.0000000   0.0000000   0.0887559), wk =   0.1666667
        k(    3) = (   0.0000000   0.0000000  -0.1775118), wk =   0.0833333
        k(    4) = (   0.0000000   0.1736806   0.0000000), wk =   0.1666667
        k(    5) = (   0.0000000   0.1736806   0.0887559), wk =   0.3333333
        k(    6) = (   0.0000000   0.1736806  -0.1775118), wk =   0.1666667
        k(    7) = (  -0.3323998   0.0000000   0.0000000), wk =   0.0833333
        k(    8) = (  -0.3323998   0.0000000   0.0887559), wk =   0.1666667
        k(    9) = (  -0.3323998   0.0000000  -0.1775118), wk =   0.0833333
        k(   10) = (  -0.3323998   0.1736806   0.0000000), wk =   0.1666667
        k(   11) = (  -0.3323998   0.1736806   0.0887559), wk =   0.3333333
        k(   12) = (  -0.3323998   0.1736806  -0.1775118), wk =   0.1666667

     total cpu time spent up to now is      334.9 secs

     Self-consistent Calculation

     iteration #  1     ecut=    40.00 Ry     beta=0.70
     CG style diagonalization
     c_bands:  3 eigenvalues not converged
     c_bands:  2 eigenvalues not converged
     c_bands:  4 eigenvalues not converged
     c_bands:  3 eigenvalues not converged
     c_bands:  2 eigenvalues not converged
     c_bands:  2 eigenvalues not converged
     c_bands:  2 eigenvalues not converged
     c_bands:  2 eigenvalues not converged
     c_bands:  2 eigenvalues not converged
     c_bands:  2 eigenvalues not converged
     c_bands:  2 eigenvalues not converged
     c_bands:  2 eigenvalues not converged
     ethr =  1.00E-06,  avg # of iterations = 28.6

     total cpu time spent up to now is      413.0 secs

     total energy              =   -3189.66931721 Ry
     Harris-Foulkes estimate   =   -3549.73222872 Ry
     estimated scf accuracy    <     455.83709398 Ry

     iteration #  2     ecut=    40.00 Ry     beta=0.70
     CG style diagonalization
     ethr =  1.00E-02,  avg # of iterations =  5.9

     total cpu time spent up to now is      430.7 secs

     total energy              =   -3257.27602746 Ry
     Harris-Foulkes estimate   =   -3325.78445091 Ry
     estimated scf accuracy    <      98.32324166 Ry

     iteration #  3     ecut=    40.00 Ry     beta=0.70
     CG style diagonalization
     c_bands:  1 eigenvalues not converged
     ethr =  1.00E-02,  avg # of iterations =  6.4

     total cpu time spent up to now is      450.2 secs

     total energy              =   -3294.81373402 Ry
     Harris-Foulkes estimate   =   -3327.97509033 Ry
     estimated scf accuracy    <      78.82163879 Ry

     iteration #  4     ecut=    40.00 Ry     beta=0.70
     CG style diagonalization
     ethr =  1.00E-02,  avg # of iterations =  3.7

     total cpu time spent up to now is      461.4 secs

     total energy              =   -3301.85919104 Ry
     Harris-Foulkes estimate   =   -3303.98717425 Ry
     estimated scf accuracy    <       9.34202417 Ry

     iteration #  5     ecut=    40.00 Ry     beta=0.70
     CG style diagonalization
     ethr =  3.83E-03,  avg # of iterations =  3.1

     total cpu time spent up to now is      469.9 secs

     total energy              =   -3301.24443722 Ry
     Harris-Foulkes estimate   =   -3302.38106247 Ry
     estimated scf accuracy    <       3.68918932 Ry

     iteration #  6     ecut=    40.00 Ry     beta=0.70
     CG style diagonalization
     ethr =  1.51E-03,  avg # of iterations =  3.3

     total cpu time spent up to now is      479.4 secs

     total energy              =   -3301.62118829 Ry
     Harris-Foulkes estimate   =   -3301.66923768 Ry
     estimated scf accuracy    <       0.12457882 Ry

     iteration #  7     ecut=    40.00 Ry     beta=0.70
     CG style diagonalization
     c_bands:  1 eigenvalues not converged
     c_bands:  1 eigenvalues not converged
     ethr =  5.11E-05,  avg # of iterations =  4.0

     total cpu time spent up to now is      490.9 secs

     total energy              =   -3301.64219055 Ry
     Harris-Foulkes estimate   =   -3301.65930199 Ry
     estimated scf accuracy    <       0.03539106 Ry

     iteration #  8     ecut=    40.00 Ry     beta=0.70
     CG style diagonalization
     ethr =  1.45E-05,  avg # of iterations =  3.5

     total cpu time spent up to now is      501.1 secs

     total energy              =   -3301.64872691 Ry
     Harris-Foulkes estimate   =   -3301.65277300 Ry
     estimated scf accuracy    <       0.01130826 Ry

     iteration #  9     ecut=    40.00 Ry     beta=0.70
     CG style diagonalization
     ethr =  4.63E-06,  avg # of iterations =  3.2

     total cpu time spent up to now is      510.1 secs

     total energy              =   -3301.65033817 Ry
     Harris-Foulkes estimate   =   -3301.65039793 Ry
     estimated scf accuracy    <       0.00014005 Ry

     iteration # 10     ecut=    40.00 Ry     beta=0.70
     CG style diagonalization
     ethr =  5.74E-08,  avg # of iterations =  4.4

     total cpu time spent up to now is      522.7 secs

     total energy              =   -3301.65018721 Ry
     Harris-Foulkes estimate   =   -3301.65057285 Ry
     estimated scf accuracy    <       0.00102485 Ry

     iteration # 11     ecut=    40.00 Ry     beta=0.70
     CG style diagonalization
     ethr =  5.74E-08,  avg # of iterations =  3.5

     total cpu time spent up to now is      532.8 secs

     total energy              =   -3301.65039598 Ry
     Harris-Foulkes estimate   =   -3301.65043573 Ry
     estimated scf accuracy    <       0.00015684 Ry

     iteration # 12     ecut=    40.00 Ry     beta=0.70
     CG style diagonalization
     ethr =  5.74E-08,  avg # of iterations =  3.0

     total cpu time spent up to now is      540.6 secs

     End of self-consistent calculation

          k = 0.0000 0.0000 0.0000 (  3675 PWs)   bands (ev):

   -83.4184 -83.3866 -83.3552 -83.2804 -83.2234 -83.1650 -83.1279 -83.1160
   -52.3249 -52.3174 -52.3090 -52.2956 -52.2766 -52.2743 -52.2713 -52.2661
   -52.2580 -52.2441 -52.2411 -52.2334 -52.2242 -52.2172 -52.2108 -52.2090
   -52.2064 -52.2026 -52.1964 -52.1932 -52.1654 -52.1626 -52.1459 -52.1404
   -45.0639 -45.0606 -44.9995 -44.9709 -19.7620 -19.7586 -19.7568 -19.7522
   -19.7522 -19.7516 -19.7497 -19.7416 -19.7219 -19.7107 -19.7053 -19.7053
    -2.3178  -2.2201  -2.1413  -2.0357  -2.0303  -2.0238  -2.0179  -2.0112
    -1.9886  -1.9788  -1.9711  -1.9296  -1.9062  -1.9052  -1.9019  -1.8981
    -1.8715  -1.8621  -1.8620  -1.8376  -1.8266  -1.8185  -1.8108  -1.8037
    -1.7860  -1.7836  -1.7535  -1.7494  -1.7173  -1.7154  -1.6933  -1.6926
    -1.6822  -1.6575  -1.6569  -1.6326  -1.5683  -1.5223  -1.5214  -1.4753
     5.2640   6.4382   6.8532   7.7012   8.4190   8.4758   8.9052   9.3612
    10.2005  10.4397  10.7148  11.1152  11.1876  11.3263  11.3842  11.3989
    11.4047  11.5771  11.6223  11.6809  11.7929  11.8067  12.1202  12.1246
    12.1397  12.2298  12.2811  12.3188  12.6860  12.7646  13.0030  13.0662
    13.4002  14.3112  14.3685  14.4297  14.4939  14.5096  14.6298  14.9355
    15.0915  15.6026  15.8409  16.1712  16.3841  16.3854  16.3889  16.8041
    17.0455  17.0702  17.4496  17.7158  17.8447  18.5911  18.6317  18.6959
    18.7927  19.5832

          k = 0.0000 0.0000 0.0888 (  3675 PWs)   bands (ev):

   -83.4744 -83.4136 -83.3798 -83.2551 -83.2053 -83.1647 -83.1073 -83.0849
   -52.3295 -52.3270 -52.3101 -52.2923 -52.2869 -52.2712 -52.2689 -52.2669
   -52.2544 -52.2456 -52.2402 -52.2399 -52.2196 -52.2173 -52.2133 -52.2058
   -52.2041 -52.2015 -52.1992 -52.1804 -52.1632 -52.1521 -52.1465 -52.1374
   -45.0770 -45.0458 -45.0059 -44.9642 -19.7601 -19.7558 -19.7544 -19.7530
   -19.7510 -19.7506 -19.7496 -19.7415 -19.7207 -19.7188 -19.7107 -19.7054
    -2.3097  -2.3096  -2.1430  -2.0920  -2.0385  -2.0233  -2.0204  -2.0198
    -1.9688  -1.9666  -1.9571  -1.9372  -1.9212  -1.9183  -1.9129  -1.8942
    -1.8930  -1.8918  -1.8792  -1.8780  -1.8484  -1.8224  -1.8176  -1.8065
    -1.8030  -1.7777  -1.7744  -1.7623  -1.7275  -1.7092  -1.6711  -1.6690
    -1.6426  -1.6421  -1.6203  -1.5855  -1.5323  -1.5202  -1.4455  -1.4165
     5.3574   6.0430   7.3076   7.7442   8.3622   8.5367   8.8143   8.9495
    10.2767  10.6989  10.7485  11.0890  11.1339  11.1794  11.3608  11.5135
    11.5731  11.5763  11.6111  11.8151  11.8453  11.8603  12.1080  12.1789
    12.1875  12.2979  12.3729  12.5013  12.6573  12.7856  12.9429  13.0645
    13.2490  13.5868  13.6744  14.0996  14.5439  14.5782  15.2142  15.2391
    15.3993  15.6295  15.8350  16.1108  16.1789  16.1907  16.4982  16.6932
    16.7928  17.2104  17.4087  17.5792  18.2581  18.6012  18.8482  18.9654
    19.4990  19.5480

          k = 0.0000 0.0000-0.1775 (  3690 PWs)   bands (ev):

   -83.4532 -83.4532 -83.3657 -83.3657 -83.2598 -83.2598 -83.1172 -83.1172
   -52.3322 -52.3322 -52.3140 -52.3140 -52.2805 -52.2805 -52.2707 -52.2707
   -52.2674 -52.2674 -52.2436 -52.2436 -52.2113 -52.2113 -52.2087 -52.2087
   -52.1985 -52.1985 -52.1946 -52.1946 -52.1474 -52.1474 -52.1413 -52.1413
   -45.0984 -45.0984 -45.0051 -45.0051 -19.7585 -19.7585 -19.7559 -19.7559
   -19.7520 -19.7520 -19.7473 -19.7473 -19.7239 -19.7239 -19.7203 -19.7203
    -2.3126  -2.3126  -2.2166  -2.2166  -2.0931  -2.0931  -2.0522  -2.0522
    -1.9996  -1.9996  -1.9855  -1.9855  -1.9654  -1.9654  -1.9619  -1.9619
    -1.9243  -1.9243  -1.8794  -1.8794  -1.8500  -1.8500  -1.8144  -1.8144
    -1.7927  -1.7927  -1.7807  -1.7807  -1.7024  -1.7024  -1.6724  -1.6724
    -1.6363  -1.6363  -1.5981  -1.5981  -1.5504  -1.5504  -1.4164  -1.4164
     5.6186   5.6186   7.7536   7.7536   8.4030   8.4030   8.6559   8.6559
    10.5227  10.5227  10.8689  10.8689  11.3514  11.3514  11.3724  11.3724
    11.4596  11.4596  11.9604  11.9604  12.0268  12.0268  12.0560  12.0560
    12.2738  12.2738  12.6130  12.6130  12.8259  12.8259  12.9023  12.9023
    12.9954  12.9954  13.7100  13.7100  14.2821  14.2821  15.5200  15.5200
    15.5834  15.5834  16.0948  16.0948  16.1198  16.1198  16.6263  16.6263
    16.7143  16.7143  17.5162  17.5162  18.5537  18.5537  19.2577  19.2577
    19.6877  19.6877

          k = 0.0000 0.1737 0.0000 (  3664 PWs)   bands (ev):

   -83.4460 -83.3617 -83.3449 -83.2979 -83.1582 -83.1496 -83.0990 -83.0156
   -52.3244 -52.3101 -52.3080 -52.2952 -52.2738 -52.2691 -52.2635 -52.2577
   -52.2529 -52.2482 -52.2414 -52.2356 -52.2183 -52.2118 -52.2113 -52.2090
   -52.2073 -52.1927 -52.1910 -52.1865 -52.1684 -52.1557 -52.1310 -52.1269
   -45.0977 -45.0392 -44.9398 -44.9224 -19.7657 -19.7554 -19.7540 -19.7521
   -19.7503 -19.7475 -19.7432 -19.7416 -19.7158 -19.7155 -19.7048 -19.7030
    -2.2316  -2.1676  -2.1220  -2.1038  -2.0722  -2.0286  -2.0003  -1.9792
    -1.9761  -1.9674  -1.9272  -1.9106  -1.9080  -1.9047  -1.8882  -1.8848
    -1.8752  -1.8696  -1.8572  -1.8546  -1.8272  -1.7986  -1.7863  -1.7699
    -1.7610  -1.7502  -1.7480  -1.7447  -1.7249  -1.7161  -1.7079  -1.6882
    -1.6828  -1.6151  -1.5758  -1.5569  -1.5409  -1.5164  -1.3880  -1.3827
     5.6138   6.5588   6.7729   7.2102   7.8503   7.9974   9.4173   9.7223
    10.4717  10.6449  10.7899  10.9043  10.9242  11.0885  11.2511  11.3186
    11.4595  11.6305  11.6563  11.7140  11.7603  11.7910  11.9485  11.9903
    12.1462  12.2043  12.3242  12.4728  12.7691  12.8426  13.0221  13.4630
    14.0404  14.0423  14.3566  14.4833  14.5513  14.5773  14.6601  15.1552
    15.5004  15.5116  15.6200  15.7833  16.0353  16.2278  16.5424  16.8235
    17.1055  17.4309  17.7089  18.0469  18.1036  18.2349  19.0186  19.2148
    19.4612  19.5342

          k = 0.0000 0.1737 0.0888 (  3669 PWs)   bands (ev):

   -83.4682 -83.3619 -83.3355 -83.2952 -83.1972 -83.1558 -83.1058 -83.0617
   -52.3266 -52.3131 -52.3087 -52.3057 -52.2799 -52.2720 -52.2683 -52.2631
   -52.2586 -52.2526 -52.2421 -52.2404 -52.2131 -52.2117 -52.2084 -52.2079
   -52.1994 -52.1943 -52.1918 -52.1873 -52.1663 -52.1549 -52.1357 -52.1238
   -45.0862 -45.0282 -44.9898 -44.9430 -19.7631 -19.7582 -19.7574 -19.7486
   -19.7486 -19.7481 -19.7469 -19.7412 -19.7229 -19.7161 -19.7066 -19.7045
    -2.2363  -2.2083  -2.1557  -2.1090  -2.0374  -2.0305  -2.0047  -2.0013
    -1.9902  -1.9714  -1.9572  -1.9521  -1.9502  -1.9386  -1.9269  -1.8857
    -1.8790  -1.8690  -1.8671  -1.8452  -1.8430  -1.8121  -1.8111  -1.7965
    -1.7855  -1.7762  -1.7580  -1.7417  -1.7194  -1.7160  -1.6974  -1.6765
    -1.6382  -1.6322  -1.6040  -1.5379  -1.5230  -1.5104  -1.4182  -1.3601
     5.7039   6.3618   6.7069   7.2788   7.8174   8.3873   9.2145   9.4021
    10.6438  10.6657  10.7728  10.7786  11.1624  11.2286  11.2412  11.3123
    11.4922  11.6402  11.6575  11.7319  11.7941  11.8538  12.0415  12.0519
    12.1704  12.1723  12.3471  12.4705  12.7693  12.9105  12.9332  13.4120
    13.5008  13.8346  13.8927  14.2038  14.3522  14.9420  14.9843  15.1573
    15.4925  15.6942  15.9697  16.0850  16.1158  16.3360  16.5552  16.7088
    16.9878  17.2794  17.7841  17.7975  18.0031  18.2013  19.0676  19.4711
    19.6892  19.8726

          k = 0.0000 0.1737-0.1775 (  3666 PWs)   bands (ev):

   -83.3388 -83.3388 -83.3030 -83.3030 -83.2125 -83.2125 -83.1039 -83.1039
   -52.3168 -52.3168 -52.3087 -52.3087 -52.2743 -52.2743 -52.2678 -52.2678
   -52.2506 -52.2506 -52.2394 -52.2394 -52.2074 -52.2074 -52.2052 -52.2052
   -52.2022 -52.2022 -52.1926 -52.1926 -52.1610 -52.1610 -52.1348 -52.1348
   -45.0390 -45.0390 -44.9728 -44.9728 -19.7570 -19.7570 -19.7510 -19.7510
   -19.7483 -19.7483 -19.7456 -19.7456 -19.7181 -19.7181 -19.7063 -19.7063
    -2.2215  -2.2215  -2.0625  -2.0625  -2.0398  -2.0398  -2.0067  -2.0067
    -1.9533  -1.9533  -1.9436  -1.9436  -1.9138  -1.9138  -1.9051  -1.9051
    -1.8592  -1.8592  -1.8427  -1.8427  -1.8111  -1.8111  -1.7957  -1.7957
    -1.7558  -1.7558  -1.7452  -1.7452  -1.7376  -1.7376  -1.6922  -1.6922
    -1.6421  -1.6421  -1.6393  -1.6393  -1.5245  -1.5245  -1.4052  -1.4052
     5.9654   5.9654   6.9401   6.9401   8.3741   8.3741   9.0733   9.0733
    10.7126  10.7126  10.7253  10.7253  11.1984  11.1984  11.4177  11.4177
    11.6876  11.6876  11.7135  11.7135  11.8338  11.8338  12.0801  12.0801
    12.1730  12.1730  12.4575  12.4575  12.6861  12.6861  13.2337  13.2337
    13.2638  13.2638  14.0542  14.0542  14.5065  14.5065  14.9555  14.9555
    15.9940  15.9940  16.1527  16.1527  16.1842  16.1842  16.7871  16.7871
    17.2179  17.2179  17.4923  17.4924  18.1905  18.1906  19.3306  19.3308
    19.6042  19.6055

          k =-0.3324 0.0000 0.0000 (  3722 PWs)   bands (ev):

   -83.4507 -83.4507 -83.4370 -83.4370 -83.3164 -83.3164 -83.3101 -83.3101
   -52.3161 -52.3161 -52.3128 -52.3128 -52.2832 -52.2832 -52.2770 -52.2770
   -52.2627 -52.2627 -52.2540 -52.2540 -52.2400 -52.2400 -52.2237 -52.2237
   -52.2161 -52.2161 -52.2096 -52.2096 -52.1857 -52.1857 -52.1820 -52.1820
   -45.1397 -45.1397 -45.1169 -45.1169 -19.7710 -19.7710 -19.7651 -19.7651
   -19.7602 -19.7602 -19.7528 -19.7528 -19.7228 -19.7228 -19.7161 -19.7161
    -2.3718  -2.3718  -2.1310  -2.1310  -2.1131  -2.1131  -2.1083  -2.1083
    -2.0525  -2.0525  -2.0427  -2.0427  -2.0281  -2.0281  -1.9683  -1.9683
    -1.9587  -1.9587  -1.9199  -1.9199  -1.9087  -1.9087  -1.8720  -1.8720
    -1.8320  -1.8320  -1.8021  -1.8021  -1.7899  -1.7899  -1.7581  -1.7581
    -1.7488  -1.7488  -1.7095  -1.7095  -1.6919  -1.6919  -1.6729  -1.6729
     6.3959   6.3959   7.6732   7.6732   7.7041   7.7041   8.7833   8.7833
    10.3493  10.3493  10.9189  10.9189  11.0382  11.0382  11.3131  11.3131
    11.3714  11.3714  11.7147  11.7147  11.8628  11.8628  11.9711  11.9711
    11.9892  11.9892  12.2342  12.2342  12.6824  12.6824  13.2498  13.2498
    13.2905  13.2905  13.5841  13.5841  13.6384  13.6384  14.6085  14.6085
    15.4677  15.4677  16.3941  16.3941  16.4491  16.4491  17.3545  17.3545
    17.9090  17.9090  18.7595  18.7595  18.8544  18.8544  19.1806  19.1806
    20.3402  20.3402

          k =-0.3324 0.0000 0.0888 (  3710 PWs)   bands (ev):

   -83.4332 -83.4332 -83.4033 -83.4033 -83.3314 -83.3314 -83.2273 -83.2273
   -52.3197 -52.3197 -52.3094 -52.3094 -52.2822 -52.2822 -52.2634 -52.2634
   -52.2591 -52.2591 -52.2526 -52.2526 -52.2389 -52.2389 -52.2204 -52.2204
   -52.2102 -52.2102 -52.2037 -52.2037 -52.1790 -52.1790 -52.1755 -52.1755
   -45.1064 -45.1064 -45.0989 -45.0989 -19.7671 -19.7671 -19.7632 -19.7632
   -19.7579 -19.7579 -19.7482 -19.7482 -19.7230 -19.7230 -19.7163 -19.7163
    -2.3256  -2.3256  -2.1504  -2.1504  -2.1071  -2.1071  -2.0491  -2.0491
    -2.0353  -2.0353  -2.0045  -2.0045  -1.9946  -1.9946  -1.9804  -1.9804
    -1.9162  -1.9162  -1.8839  -1.8839  -1.8667  -1.8667  -1.8248  -1.8248
    -1.8096  -1.8096  -1.8034  -1.8034  -1.7925  -1.7925  -1.7654  -1.7654
    -1.7423  -1.7423  -1.6935  -1.6935  -1.6757  -1.6757  -1.6209  -1.6209
     6.4395   6.4395   7.3550   7.3550   7.9770   7.9770   8.7755   8.7755
    10.4238  10.4238  10.8815  10.8815  11.1410  11.1410  11.2899  11.2899
    11.4776  11.4776  11.7099  11.7099  11.7813  11.7813  11.9825  11.9825
    12.0205  12.0205  12.2866  12.2866  12.6964  12.6964  12.9070  12.9070
    13.2546  13.2546  13.6611  13.6611  13.7767  13.7767  14.4098  14.4098
    15.3888  15.3888  16.2411  16.2411  16.5315  16.5315  17.8026  17.8026
    18.1842  18.1842  18.7490  18.7490  18.9406  18.9406  19.1999  19.1999
    20.3709  20.3710

          k =-0.3324 0.0000-0.1775 (  3680 PWs)   bands (ev):

   -83.4032 -83.4032 -83.3158 -83.3158 -83.2067 -83.2067 -83.1724 -83.1724
   -52.3170 -52.3170 -52.3128 -52.3128 -52.2647 -52.2647 -52.2642 -52.2642
   -52.2517 -52.2517 -52.2461 -52.2461 -52.2320 -52.2320 -52.2074 -52.2074
   -52.2004 -52.2004 -52.1919 -52.1919 -52.1662 -52.1662 -52.1615 -52.1615
   -45.0608 -45.0608 -45.0178 -45.0178 -19.7594 -19.7594 -19.7594 -19.7594
   -19.7480 -19.7480 -19.7405 -19.7405 -19.7171 -19.7171 -19.7162 -19.7162
    -2.2849  -2.2849  -2.1647  -2.1647  -2.0206  -2.0206  -2.0021  -2.0021
    -1.9998  -1.9998  -1.9520  -1.9520  -1.9301  -1.9301  -1.9175  -1.9175
    -1.9069  -1.9069  -1.8815  -1.8815  -1.8377  -1.8377  -1.8054  -1.8054
    -1.7826  -1.7826  -1.7598  -1.7598  -1.7372  -1.7372  -1.6782  -1.6782
    -1.6630  -1.6630  -1.6084  -1.6084  -1.5392  -1.5392  -1.5387  -1.5387
     6.5074   6.5074   7.1879   7.1879   8.0949   8.0949   8.7581   8.7581
    10.4611  10.4611  11.0296  11.0296  11.1637  11.1637  11.2903  11.2903
    11.6038  11.6038  11.6246  11.6246  11.7220  11.7220  11.9761  11.9761
    12.0272  12.0272  12.3633  12.3633  12.5796  12.5796  12.7502  12.7502
    13.1662  13.1662  13.7169  13.7169  14.0061  14.0061  14.5061  14.5061
    14.7490  14.7490  16.0673  16.0673  17.5133  17.5133  17.5275  17.5275
    18.5508  18.5508  18.7269  18.7269  19.0479  19.0479  19.1011  19.1011
    20.2075  20.2078

          k =-0.3324 0.1737 0.0000 (  3686 PWs)   bands (ev):

   -83.3487 -83.3487 -83.3443 -83.3443 -83.2763 -83.2763 -83.1935 -83.1935
   -52.3119 -52.3119 -52.3061 -52.3061 -52.2696 -52.2696 -52.2663 -52.2663
   -52.2509 -52.2509 -52.2481 -52.2481 -52.2371 -52.2371 -52.2215 -52.2215
   -52.2091 -52.2091 -52.1987 -52.1987 -52.1862 -52.1862 -52.1757 -52.1757
   -45.0667 -45.0667 -45.0500 -45.0500 -19.7685 -19.7685 -19.7626 -19.7626
   -19.7473 -19.7473 -19.7457 -19.7457 -19.7108 -19.7108 -19.7052 -19.7052
    -2.2555  -2.2555  -2.0876  -2.0876  -2.0331  -2.0331  -2.0171  -2.0171
    -1.9668  -1.9668  -1.9610  -1.9610  -1.9386  -1.9386  -1.9349  -1.9349
    -1.9034  -1.9034  -1.8752  -1.8752  -1.8578  -1.8578  -1.8315  -1.8315
    -1.8124  -1.8124  -1.7754  -1.7754  -1.7719  -1.7719  -1.7336  -1.7336
    -1.6987  -1.6987  -1.6941  -1.6941  -1.6520  -1.6520  -1.6214  -1.6214
     6.7081   6.7081   7.4733   7.4733   7.9173   7.9173   8.1740   8.1740
    10.3687  10.3687  10.3823  10.3823  11.1601  11.1601  11.4279  11.4279
    11.5134  11.5134  11.7325  11.7325  11.7764  11.7764  11.8643  11.8643
    11.9566  11.9566  12.2204  12.2204  12.7273  12.7273  12.8502  12.8502
    13.5387  13.5387  14.1028  14.1028  14.7299  14.7299  15.4378  15.4378
    15.6321  15.6321  15.8543  15.8543  16.5103  16.5103  17.0384  17.0384
    18.0633  18.0633  18.2982  18.2982  18.7511  18.7511  19.0648  19.0648
    20.0917  20.0920

          k =-0.3324 0.1737 0.0888 (  3692 PWs)   bands (ev):

   -83.3617 -83.3617 -83.3343 -83.3343 -83.2792 -83.2792 -83.2456 -83.2456
   -52.3180 -52.3180 -52.3120 -52.3120 -52.2707 -52.2707 -52.2666 -52.2666
   -52.2573 -52.2573 -52.2496 -52.2496 -52.2305 -52.2305 -52.2195 -52.2195
   -52.2063 -52.2063 -52.1992 -52.1992 -52.1803 -52.1803 -52.1725 -52.1725
   -45.1065 -45.1065 -45.0314 -45.0314 -19.7664 -19.7664 -19.7634 -19.7634
   -19.7498 -19.7498 -19.7461 -19.7461 -19.7193 -19.7193 -19.7048 -19.7048
    -2.2291  -2.2291  -2.1103  -2.1103  -2.0738  -2.0738  -2.0450  -2.0450
    -2.0077  -2.0077  -1.9721  -1.9721  -1.9585  -1.9585  -1.9297  -1.9297
    -1.8936  -1.8936  -1.8768  -1.8768  -1.8591  -1.8591  -1.8401  -1.8401
    -1.8185  -1.8185  -1.7862  -1.7862  -1.7666  -1.7666  -1.7316  -1.7316
    -1.7030  -1.7030  -1.6799  -1.6799  -1.6500  -1.6500  -1.6162  -1.6162
     6.7450   6.7450   7.4356   7.4356   7.8650   7.8650   8.1230   8.1230
    10.4542  10.4542  10.6849  10.6849  11.1234  11.1234  11.3641  11.3641
    11.4882  11.4882  11.6803  11.6803  11.7782  11.7782  11.8718  11.8718
    12.0023  12.0023  12.2594  12.2594  12.7025  12.7025  12.8523  12.8523
    13.4952  13.4952  13.5962  13.5962  14.5519  14.5519  15.2473  15.2473
    15.8267  15.8267  16.2128  16.2128  17.0482  17.0482  17.2709  17.2709
    17.7942  17.7942  18.1632  18.1632  18.8160  18.8161  19.1456  19.1456
    20.0196  20.0196

          k =-0.3324 0.1737-0.1775 (  3704 PWs)   bands (ev):

   -83.4101 -83.4101 -83.3663 -83.3663 -83.2904 -83.2904 -83.2765 -83.2765
   -52.3280 -52.3280 -52.3162 -52.3162 -52.2672 -52.2672 -52.2670 -52.2670
   -52.2580 -52.2580 -52.2580 -52.2580 -52.2313 -52.2313 -52.2185 -52.2185
   -52.2077 -52.2077 -52.1971 -52.1971 -52.1797 -52.1797 -52.1771 -52.1771
   -45.1393 -45.1393 -45.0495 -45.0495 -19.7678 -19.7678 -19.7643 -19.7643
   -19.7524 -19.7524 -19.7481 -19.7481 -19.7219 -19.7219 -19.7132 -19.7132
    -2.2209  -2.2209  -2.1389  -2.1389  -2.1307  -2.1307  -2.0455  -2.0455
    -2.0404  -2.0404  -2.0045  -2.0045  -1.9949  -1.9949  -1.9611  -1.9611
    -1.9357  -1.9357  -1.9058  -1.9058  -1.8817  -1.8817  -1.8626  -1.8626
    -1.8511  -1.8511  -1.8123  -1.8123  -1.7705  -1.7705  -1.7682  -1.7682
    -1.7241  -1.7241  -1.6675  -1.6675  -1.5997  -1.5997  -1.5923  -1.5923
     6.7990   6.7990   7.3635   7.3635   7.9024   7.9024   8.0065   8.0065
    10.7379  10.7379  10.8637  10.8637  11.1643  11.1643  11.1950  11.1950
    11.4704  11.4704  11.5900  11.5900  11.7803  11.7803  11.8670  11.8670
    12.0289  12.0289  12.2755  12.2755  12.6483  12.6483  13.0271  13.0271
    13.0474  13.0474  13.6472  13.6472  14.0917  14.0917  15.2357  15.2357
    16.3046  16.3046  16.3083  16.3083  17.1939  17.1939  17.2712  17.2712
    18.1931  18.1931  18.3556  18.3556  18.4966  18.4966  19.0709  19.0710
    19.8093  19.8094

     the Fermi energy is    13.8030 ev

!    total energy              =   -3301.65040211 Ry
     Harris-Foulkes estimate   =   -3301.65040896 Ry
     estimated scf accuracy    <       0.00000753 Ry

     The total energy is the sum of the following terms:

     one-electron contribution =   -1424.28719051 Ry
     hartree contribution      =     749.51355887 Ry
     xc contribution           =    -285.55645873 Ry
     ewald contribution        =   -2340.68102580 Ry
     smearing contrib. (-TS)   =      -0.63928594 Ry

     convergence has been achieved in  12 iterations

     Forces acting on atoms (Ry/au):

     atom    1 type  1   force =     0.00000000   -0.00414163   -0.00161081
     atom    2 type  1   force =     0.00000000    0.00414163    0.00161081
     atom    3 type  1   force =     0.00000000   -0.00414163    0.00161081
     atom    4 type  1   force =     0.00000000    0.00414163   -0.00161081
     atom    5 type  1   force =     0.00000000    0.00002137    0.02004259
     atom    6 type  1   force =     0.00000000   -0.00002137   -0.02004259
[...]
    37.8379  38.4447  38.9493  39.0681  39.1718  39.1984  39.6708  39.7850
    39.8038  39.8216  40.3499  40.7772  41.1286  41.2862  41.3055  41.7141
    41.7829  41.7888

          k = 0.0000 0.0000 0.1147 (  5579 PWs)   bands (ev):

   -67.0697 -67.0697 -67.0616 -67.0347 -67.0089 -67.0082 -66.9967 -66.9958
   -29.3568 -29.3224 -29.2574 -29.1599 -29.1505 -29.1401 -29.1239 -29.1180
   -29.0809 -29.0724 -29.0724 -29.0685 -29.0639 -29.0634 -29.0454 -29.0326
   -29.0233 -29.0209 -29.0116 -29.0027 -28.9969 -28.9843 -28.9820 -28.9790
   -28.8812 -28.8461 -28.8139 -28.7971  -2.2775  -2.2581  -2.2292  -2.2186
    -2.2111  -2.2024  -2.1779  -2.1707  -2.0067  -1.9727  -1.9162  -1.8786
    15.8787  15.9085  15.9254  15.9592  16.0951  16.1633  16.2637  16.3406
    16.5892  16.6522  16.6763  16.8654  17.0028  17.0871  17.1198  17.2354
    17.3543  17.3577  17.3760  17.3988  17.4896  17.5396  17.5964  17.6234
    17.6974  17.7875  17.7988  17.9064  17.9137  17.9273  18.0379  18.1468
    18.2599  18.3743  18.5350  18.6056  18.6678  18.7872  18.8637  18.8671
    19.2946  21.0656  23.6263  23.6295  25.3863  25.9020  26.4916  26.8351
    27.5085  27.5193  27.9689  28.4357  28.5741  28.6299  28.9651  29.1546
    29.1601  29.2689  30.3712  30.3744  30.5519  30.8118  30.9598  31.0998
    31.6754  32.0591  32.2645  32.4050  32.9303  33.4528  33.8066  34.9047
    35.4036  36.0690  36.1869  36.4191  37.0091  37.3982  37.7193  37.9380
    38.3861  38.4282  38.5550  38.7927  39.0279  39.0314  39.7416  39.9026
    40.1065  40.1567  40.4815  40.8952  41.0642  41.3476  41.5245  41.6297
    41.6362  42.2447

          k = 0.0000 0.0000-0.2295 (  5570 PWs)   bands (ev):

   -67.0689 -67.0689 -67.0410 -67.0410 -67.0118 -67.0118 -66.9882 -66.9882
   -29.3372 -29.3372 -29.2006 -29.2006 -29.1375 -29.1375 -29.1316 -29.1316
   -29.0863 -29.0863 -29.0620 -29.0620 -29.0551 -29.0551 -29.0450 -29.0450
   -29.0245 -29.0245 -29.0094 -29.0094 -28.9875 -28.9875 -28.9716 -28.9716
   -28.8411 -28.8411 -28.8211 -28.8210  -2.2662  -2.2662  -2.2232  -2.2232
    -2.2032  -2.2032  -2.1749  -2.1749  -1.9936  -1.9936  -1.8936  -1.8936
    15.8922  15.8922  15.9062  15.9062  16.0661  16.0661  16.5107  16.5107
    16.5276  16.5276  16.8702  16.8702  16.9910  16.9910  17.2054  17.2054
    17.3562  17.3562  17.3981  17.3981  17.4156  17.4156  17.6319  17.6319
    17.8055  17.8055  17.8210  17.8210  17.8789  17.8789  18.0511  18.0511
    18.4475  18.4475  18.4707  18.4707  18.7249  18.7249  18.8734  18.8734
    19.9728  19.9729  24.1041  24.1041  25.1750  25.1750  26.6338  26.6338
    27.8608  27.8608  27.9152  27.9152  28.7718  28.7718  28.7850  28.7850
    29.0794  29.0794  30.7386  30.7386  30.7729  30.7729  31.6101  31.6101
    31.6729  31.6729  32.8129  32.8129  33.2450  33.2450  33.6596  33.6596
    35.2984  35.2984  36.3572  36.3572  36.7049  36.7050  37.8788  37.8788
    38.1184  38.1184  38.6002  38.6003  39.4484  39.4485  39.9297  39.9297
    40.4016  40.4016  40.9004  40.9006  41.1388  41.1390  41.4652  41.4652
    41.8494  41.8495

          k = 0.0000 0.2225 0.0000 (  5527 PWs)   bands (ev):

   -67.0492 -67.0450 -67.0437 -67.0195 -66.9930 -66.9859 -66.9792 -66.9775
   -29.3387 -29.3170 -29.2368 -29.1340 -29.1312 -29.1267 -29.1099 -29.0918
   -29.0905 -29.0875 -29.0680 -29.0632 -29.0605 -29.0568 -29.0364 -29.0358
   -29.0287 -29.0074 -29.0011 -28.9993 -28.9956 -28.9792 -28.9737 -28.9664
   -28.8644 -28.8522 -28.7675 -28.7664  -2.2709  -2.2672  -2.2140  -2.2102
    -2.2101  -2.2011  -2.1886  -2.1729  -2.0065  -1.9833  -1.9157  -1.8847
    16.0658  16.0843  16.0853  16.2289  16.3224  16.3366  16.4306  16.5226
    16.5849  16.6393  16.6612  16.8652  16.9166  16.9477  17.0706  17.1003
    17.1131  17.2518  17.2935  17.4390  17.4733  17.4948  17.6508  17.7157
    17.7286  17.8130  17.8275  17.8561  17.9324  17.9375  18.1725  18.2263
    18.2467  18.2614  18.4784  18.4986  18.4991  18.7777  18.8371  18.9044
    19.8743  21.8911  22.8247  23.2123  24.6587  25.1902  26.4785  27.1789
    27.1839  27.2766  27.6231  27.9167  28.3380  28.8602  28.8705  29.1171
    29.5554  29.6889  29.9332  30.1477  30.1884  30.2918  30.4880  30.4954
    31.2910  31.6126  32.4992  32.9345  33.0940  34.5280  34.7429  35.2403
    35.6940  36.3025  36.3609  36.3831  36.9339  37.0031  37.4274  37.9681
    38.3427  38.4798  38.6749  38.9387  39.2744  39.3991  39.8986  40.0738
    40.6177  40.6761  40.8238  40.9547  41.6288  41.9474  42.0338  42.0475
    42.2064  42.2489

          k = 0.0000 0.2225 0.1147 (  5569 PWs)   bands (ev):

   -67.0696 -67.0618 -67.0530 -67.0367 -67.0082 -67.0004 -66.9987 -66.9894
   -29.3373 -29.3041 -29.2577 -29.1797 -29.1360 -29.1268 -29.1131 -29.1099
   -29.0984 -29.0909 -29.0804 -29.0761 -29.0738 -29.0627 -29.0519 -29.0418
   -29.0413 -29.0244 -29.0059 -29.0047 -28.9922 -28.9853 -28.9773 -28.9667
   -28.8632 -28.8549 -28.7784 -28.7754  -2.2792  -2.2682  -2.2172  -2.2162
    -2.2159  -2.2066  -2.1914  -2.1824  -2.0115  -1.9913  -1.9137  -1.8904
    16.0278  16.0342  16.0740  16.1942  16.3463  16.3467  16.4480  16.5587
    16.5973  16.7057  16.7365  16.8281  16.9231  16.9612  17.0422  17.0496
    17.2645  17.2830  17.4057  17.4226  17.5082  17.5267  17.5384  17.6556
    17.7042  17.7746  17.8051  17.8541  17.9126  17.9461  18.0594  18.1492
    18.2921  18.3296  18.4614  18.4646  18.5664  18.7485  18.8497  18.8986
    20.0829  21.6806  22.2018  23.6355  24.3620  25.7515  26.3697  27.0408
    27.2799  27.3495  27.6226  27.7392  28.2904  28.5728  28.8912  29.1787
    29.5778  29.7583  30.0109  30.0143  30.3505  30.4654  30.6900  30.8355
    31.4887  31.8394  32.5717  33.1438  33.2520  34.2381  34.6314  34.8866
    35.2819  35.4638  35.8242  35.9292  36.8377  37.1994  37.8695  38.3073
    38.4591  38.6345  38.9606  39.0394  39.1851  39.3788  39.7895  39.9375
    40.2593  40.6207  40.7152  41.1776  41.6222  41.8588  41.9783  42.2395
    42.3391  42.5412

          k = 0.0000 0.2225-0.2295 (  5558 PWs)   bands (ev):

   -67.0681 -67.0681 -67.0444 -67.0444 -66.9975 -66.9975 -66.9858 -66.9858
   -29.3107 -29.3107 -29.2323 -29.2323 -29.1207 -29.1206 -29.1164 -29.1164
   -29.0830 -29.0830 -29.0727 -29.0727 -29.0626 -29.0626 -29.0540 -29.0539
   -29.0267 -29.0267 -29.0014 -29.0014 -28.9927 -28.9927 -28.9756 -28.9755
   -28.8509 -28.8508 -28.7801 -28.7801  -2.2725  -2.2725  -2.2162  -2.2162
    -2.2049  -2.2049  -2.1883  -2.1883  -2.0041  -2.0041  -1.9005  -1.9005
    15.9927  15.9927  16.1045  16.1045  16.3991  16.3991  16.4782  16.4782
    16.6674  16.6674  16.9025  16.9025  16.9155  16.9155  17.0445  17.0445
    17.3642  17.3642  17.3900  17.3900  17.4886  17.4886  17.6016  17.6016
    17.7157  17.7157  17.8357  17.8357  17.8523  17.8523  18.0725  18.0725
    18.3773  18.3773  18.3990  18.3990  18.6734  18.6734  18.8779  18.8779
    20.7135  20.7135  22.7649  22.7649  25.2615  25.2615  26.7575  26.7575
    27.5028  27.5028  27.5084  27.5084  28.2739  28.2739  29.0385  29.0385
    29.7548  29.7548  29.9657  29.9657  30.5906  30.5906  30.9604  30.9604
    32.1444  32.1444  32.7583  32.7583  33.9458  33.9458  34.0088  34.0088
    35.0513  35.0513  36.1131  36.1131  36.5192  36.5192  37.9577  37.9577
    38.6452  38.6453  39.2663  39.2664  39.5532  39.5532  39.9754  39.9754
    40.0400  40.0400  40.9107  40.9107  42.0710  42.0712  42.2166  42.2167
    42.2598  42.2600

          k =-0.4325 0.0000 0.0000 (  5572 PWs)   bands (ev):

   -67.0687 -67.0687 -67.0446 -67.0446 -67.0066 -67.0066 -67.0026 -67.0026
   -29.3142 -29.3142 -29.2748 -29.2748 -29.2335 -29.2335 -29.0984 -29.0984
   -29.0928 -29.0928 -29.0549 -29.0549 -29.0543 -29.0543 -29.0345 -29.0345
   -29.0120 -29.0120 -29.0065 -29.0065 -28.9826 -28.9826 -28.9804 -28.9804
   -28.8108 -28.8108 -28.7749 -28.7749  -2.2832  -2.2832  -2.2498  -2.2498
    -2.1825  -2.1825  -2.1582  -2.1582  -1.9544  -1.9544  -1.9207  -1.9207
    16.0264  16.0264  16.1917  16.1917  16.3141  16.3141  16.5433  16.5433
    16.8133  16.8133  16.9225  16.9225  16.9498  16.9498  17.0020  17.0020
    17.1868  17.1868  17.3002  17.3002  17.3744  17.3744  17.4412  17.4412
    17.4752  17.4752  17.6595  17.6595  17.8661  17.8661  17.9470  17.9470
    18.0422  18.0422  18.4483  18.4483  18.7661  18.7661  18.8694  18.8694
    22.1548  22.1548  24.5118  24.5118  24.6929  24.6929  26.7152  26.7152
    27.2640  27.2640  27.9032  27.9032  28.4277  28.4277  28.7160  28.7160
    29.4208  29.4208  29.5827  29.5827  30.3431  30.3431  30.5554  30.5554
    30.8950  30.8950  30.9090  30.9090  33.8614  33.8614  34.4365  34.4365
    34.8512  34.8512  35.7129  35.7129  36.2032  36.2032  37.6109  37.6109
    38.5196  38.5196  39.4573  39.4574  39.9693  39.9694  40.7076  40.7076
    40.8017  40.8018  40.8299  40.8300  41.0477  41.0477  42.3617  42.3618
    42.9695  42.9696

          k =-0.4325 0.0000 0.1147 (  5584 PWs)   bands (ev):

   -67.0670 -67.0670 -67.0521 -67.0521 -67.0130 -67.0130 -67.0070 -67.0070
   -29.3251 -29.3251 -29.2591 -29.2591 -29.2306 -29.2306 -29.1206 -29.1206
   -29.1011 -29.1011 -29.0649 -29.0649 -29.0472 -29.0472 -29.0390 -29.0390
   -29.0094 -29.0094 -29.0000 -29.0000 -28.9926 -28.9926 -28.9822 -28.9822
   -28.8098 -28.8098 -28.7754 -28.7754  -2.2850  -2.2850  -2.2523  -2.2523
    -2.1856  -2.1856  -2.1599  -2.1599  -1.9565  -1.9565  -1.9175  -1.9175
    16.0159  16.0159  16.2363  16.2363  16.3060  16.3060  16.5644  16.5644
    16.7587  16.7587  16.8601  16.8601  16.9522  16.9522  17.0598  17.0598
    17.1467  17.1467  17.3076  17.3076  17.3861  17.3861  17.4867  17.4867
    17.5314  17.5314  17.6851  17.6851  17.8545  17.8545  17.9125  17.9125
    18.0907  18.0907  18.4265  18.4265  18.7101  18.7101  18.8598  18.8598
    22.3021  22.3021  23.6051  23.6051  25.2796  25.2796  26.7516  26.7516
    27.3922  27.3922  28.0788  28.0788  28.5055  28.5055  28.6903  28.6903
    29.2663  29.2663  29.5291  29.5291  30.1600  30.1600  30.7885  30.7885
    30.9634  30.9634  31.2101  31.2101  33.1101  33.1101  34.5451  34.5451
    35.2816  35.2816  35.8650  35.8650  36.1566  36.1566  36.9103  36.9103
    38.8049  38.8049  39.0594  39.0594  39.7612  39.7613  40.4859  40.4859
    41.0147  41.0147  41.3874  41.3875  41.6990  41.6991  41.9848  41.9850
    42.9415  42.9416

          k =-0.4325 0.0000-0.2295 (  5584 PWs)   bands (ev):

   -67.0732 -67.0732 -67.0415 -67.0415 -67.0176 -67.0176 -67.0047 -67.0047
   -29.3313 -29.3313 -29.2344 -29.2344 -29.2317 -29.2317 -29.1456 -29.1456
   -29.0996 -29.0996 -29.0658 -29.0658 -29.0442 -29.0442 -29.0386 -29.0386
   -29.0159 -29.0159 -28.9967 -28.9967 -28.9864 -28.9864 -28.9861 -28.9861
   -28.8035 -28.8035 -28.7781 -28.7781  -2.2850  -2.2850  -2.2453  -2.2453
    -2.1842  -2.1842  -2.1623  -2.1623  -1.9602  -1.9602  -1.9200  -1.9200
    16.0058  16.0058  16.2531  16.2531  16.3415  16.3415  16.6283  16.6283
    16.6414  16.6414  16.8171  16.8171  16.9804  16.9804  17.0095  17.0095
    17.1844  17.1844  17.3514  17.3514  17.4144  17.4144  17.4798  17.4798
    17.6206  17.6206  17.7447  17.7447  17.7521  17.7521  17.8463  17.8463
    18.1835  18.1835  18.4580  18.4580  18.5977  18.5977  18.8527  18.8527
    22.7642  22.7642  22.7944  22.7944  25.5028  25.5028  26.6349  26.6349
    27.5617  27.5617  28.2570  28.2570  28.5019  28.5019  28.8891  28.8891
    29.1457  29.1457  29.7377  29.7377  29.7898  29.7898  30.7817  30.7817
    31.0627  31.0627  31.8617  31.8617  32.2141  32.2141  34.7075  34.7075
    35.4009  35.4009  35.9572  35.9572  36.0074  36.0074  37.1144  37.1144
    37.9629  37.9629  38.7432  38.7432  40.0519  40.0520  40.9457  40.9459
    41.1517  41.1517  41.4343  41.4344  41.9024  41.9024  42.2624  42.2625
    42.3756  42.3758

          k =-0.4325 0.2225 0.0000 (  5568 PWs)   bands (ev):

   -67.0600 -67.0600 -67.0465 -67.0465 -67.0035 -67.0035 -67.0024 -67.0024
   -29.3227 -29.3227 -29.3005 -29.3005 -29.1980 -29.1980 -29.1074 -29.1074
   -29.0781 -29.0781 -29.0622 -29.0622 -29.0535 -29.0535 -29.0402 -29.0402
   -29.0108 -29.0108 -29.0040 -29.0040 -28.9819 -28.9819 -28.9819 -28.9819
   -28.7924 -28.7924 -28.7751 -28.7751  -2.2768  -2.2768  -2.2617  -2.2617
    -2.1795  -2.1795  -2.1686  -2.1686  -1.9560  -1.9560  -1.9396  -1.9396
    16.1588  16.1588  16.3978  16.3978  16.5397  16.5397  16.5836  16.5836
    16.7788  16.7788  16.9092  16.9092  17.0682  17.0683  17.0833  17.0833
    17.2052  17.2052  17.3277  17.3277  17.3683  17.3683  17.4957  17.4957
    17.6074  17.6074  17.6236  17.6236  17.7453  17.7453  17.9607  17.9607
    18.1268  18.1268  18.2634  18.2634  18.5473  18.5473  18.6596  18.6596
    22.6998  22.6998  24.1591  24.1591  25.0352  25.0352  25.5583  25.5583
    27.1149  27.1149  27.1502  27.1502  28.6382  28.6382  29.0905  29.0905
    29.1896  29.1896  29.6564  29.6564  29.8656  29.8656  30.0999  30.0999
    30.9412  30.9412  31.4298  31.4298  32.9747  32.9747  33.1616  33.1616
    35.8135  35.8135  36.9020  36.9020  37.7434  37.7434  38.2251  38.2252
    38.8693  38.8693  39.1997  39.1997  39.8225  39.8225  40.5559  40.5559
    41.1920  41.1921  41.6446  41.6446  42.0858  42.0859  42.3441  42.3441
    42.5175  42.5176

          k =-0.4325 0.2225 0.1147 (  5572 PWs)   bands (ev):

   -67.0622 -67.0622 -67.0504 -67.0504 -67.0089 -67.0089 -66.9976 -66.9976
   -29.3287 -29.3287 -29.2962 -29.2962 -29.1909 -29.1909 -29.1124 -29.1124
   -29.0952 -29.0952 -29.0661 -29.0661 -29.0465 -29.0465 -29.0374 -29.0374
   -29.0151 -29.0151 -28.9984 -28.9984 -28.9850 -28.9850 -28.9805 -28.9805
   -28.7927 -28.7927 -28.7759 -28.7759  -2.2800  -2.2800  -2.2606  -2.2606
    -2.1822  -2.1822  -2.1689  -2.1689  -1.9539  -1.9539  -1.9401  -1.9401
    16.1460  16.1460  16.4397  16.4397  16.5306  16.5306  16.6281  16.6281
    16.7508  16.7508  16.8814  16.8814  16.9491  16.9491  17.1378  17.1378
    17.2109  17.2109  17.3587  17.3587  17.3941  17.3941  17.5319  17.5319
    17.6007  17.6007  17.6968  17.6968  17.7806  17.7806  17.9059  17.9059
    18.1201  18.1201  18.2430  18.2430  18.4968  18.4968  18.6654  18.6654
    22.7932  22.7932  23.8439  23.8439  24.8115  24.8115  25.6140  25.6140
    27.2305  27.2305  27.7520  27.7520  28.4122  28.4122  28.9423  28.9423
    29.2621  29.2621  29.6983  29.6983  29.7962  29.7962  30.1096  30.1096
    31.0568  31.0568  31.6103  31.6103  32.6696  32.6696  33.5477  33.5477
    35.8067  35.8067  36.2504  36.2504  37.2397  37.2397  38.1205  38.1206
    38.7647  38.7648  39.9669  39.9669  40.3039  40.3039  40.5245  40.5245
    41.1521  41.1522  41.5734  41.5735  41.8768  41.8768  42.4379  42.4380
    42.7954  42.7958

          k =-0.4325 0.2225-0.2295 (  5564 PWs)   bands (ev):

   -67.0579 -67.0579 -67.0496 -67.0496 -67.0093 -67.0093 -66.9933 -66.9933
   -29.3275 -29.3275 -29.2917 -29.2917 -29.1850 -29.1850 -29.1103 -29.1103
   -29.1055 -29.1055 -29.0730 -29.0730 -29.0443 -29.0443 -29.0290 -29.0290
   -29.0118 -29.0118 -28.9956 -28.9956 -28.9855 -28.9855 -28.9795 -28.9795
   -28.7903 -28.7903 -28.7750 -28.7750  -2.2800  -2.2800  -2.2582  -2.2582
    -2.1802  -2.1802  -2.1705  -2.1705  -1.9536  -1.9536  -1.9390  -1.9390
    16.1334  16.1334  16.4659  16.4659  16.5757  16.5757  16.6874  16.6874
    16.6914  16.6914  16.7925  16.7925  16.9205  16.9205  17.1873  17.1873
    17.2105  17.2105  17.3430  17.3430  17.3925  17.3925  17.6005  17.6005
    17.6750  17.6750  17.7288  17.7288  17.7826  17.7826  17.8641  17.8641
    18.0467  18.0467  18.3186  18.3186  18.4079  18.4079  18.6624  18.6624
    22.9924  22.9924  23.4106  23.4106  24.8174  24.8174  25.4552  25.4552
    27.7508  27.7508  27.9773  27.9773  28.2563  28.2563  28.7480  28.7480
    29.4249  29.4249  29.5936  29.5936  29.8333  29.8333  30.0869  30.0869
    31.1320  31.1320  31.6607  31.6607  32.5486  32.5486  34.1674  34.1674
    35.1773  35.1773  36.0811  36.0811  36.7324  36.7324  37.8291  37.8291
    39.4462  39.4463  39.8111  39.8111  40.7739  40.7740  40.8752  40.8753
    41.0939  41.0940  41.3858  41.3859  41.8501  41.8503  42.2381  42.2381
    42.7775  42.7777

     the Fermi energy is    35.7668 ev

!    total energy              =   -3331.63442942 Ry
     Harris-Foulkes estimate   =   -3331.63444156 Ry
     estimated scf accuracy    <       0.00001382 Ry

     The total energy is the sum of the following terms:

     one-electron contribution =    -456.31341535 Ry
     hartree contribution      =     448.80776256 Ry
     xc contribution           =    -301.38264436 Ry
     ewald contribution        =   -3022.42315492 Ry
     smearing contrib. (-TS)   =      -0.32297735 Ry

     convergence has been achieved in  11 iterations

     Forces acting on atoms (Ry/au):

     atom    1 type  1   force =     0.00000000   -0.04316136   -0.01749156
     atom    2 type  1   force =     0.00000000    0.04316136    0.01749156
     atom    3 type  1   force =     0.00000000   -0.04316136    0.01749156
     atom    4 type  1   force =     0.00000000    0.04316136   -0.01749156
     atom    5 type  1   force =     0.00000000    0.04667169    0.00522972
     atom    6 type  1   force =     0.00000000   -0.04667169   -0.00522972
     atom    7 type  1   force =     0.00000000    0.04667169   -0.00522972
     atom    8 type  1   force =     0.00000000   -0.04667169    0.00522972
     atom    9 type  2   force =     0.00000000   -0.06503688    0.01992405
     atom   10 type  2   force =     0.00000000    0.06503688   -0.01992405
     atom   11 type  2   force =     0.00000000   -0.06503688   -0.01992405
     atom   12 type  2   force =     0.00000000    0.06503688    0.01992405

     Total force =     0.189749     Total SCF correction =     0.000000


     entering subroutine stress ...

          total   stress  (Ry/bohr**3)                   (kbar)     P= 1031.01
   0.00728798   0.00000000   0.00000000       1072.10      0.00      0.00
   0.00000000   0.00677181   0.00000000          0.00    996.17      0.00
   0.00000000   0.00000000   0.00696613          0.00      0.00   1024.75


     Writing output data file Prototype-La-oP12-Co2Si.save
 
     init_run     :      5.13s CPU      6.81s WALL (       2 calls)
     electrons    :   1125.54s CPU   1265.26s WALL (       5 calls)
     update_pot   :      1.97s CPU      1.99s WALL (       3 calls)
     forces       :      4.84s CPU      5.09s WALL (       5 calls)
     stress       :     13.63s CPU     13.90s WALL (       5 calls)

     Called by init_run:
     wfcinit      :      4.24s CPU      5.27s WALL (       2 calls)
     potinit      :      0.42s CPU      0.42s WALL (       2 calls)

     Called by electrons:
     c_bands      :   1100.19s CPU   1209.28s WALL (      49 calls)
     sum_band     :     24.95s CPU     30.41s WALL (      49 calls)
     v_of_rho     :      0.08s CPU      0.09s WALL (      54 calls)
     mix_rho      :      0.08s CPU      0.10s WALL (      49 calls)

     Called by c_bands:
     init_us_2    :      1.44s CPU      1.67s WALL (    1320 calls)
     ccgdiagg     :   1010.63s CPU   1097.16s WALL (     669 calls)
     wfcrot       :     92.20s CPU    114.25s WALL (     681 calls)

     Called by *cgdiagg:
     h_psi        :    684.90s CPU    783.47s WALL (  527048 calls)
     cdiaghg      :      7.06s CPU      7.76s WALL (     681 calls)

     Called by h_psi:
     add_vuspsi   :    126.10s CPU    136.04s WALL (  527048 calls)

     General routines
     calbec       :    297.09s CPU    306.97s WALL ( 1053535 calls)
     fft          :      0.19s CPU      0.21s WALL (     239 calls)
     fftw         :    373.48s CPU    429.12s WALL ( 1337434 calls)
     davcio       :      0.89s CPU      2.91s WALL (    1908 calls)
 
     Parallel routines
     fft_scatter  :    153.07s CPU    178.38s WALL ( 1337673 calls)
 
     PWSCF        : 19m11.49s CPU    21m37.39s WALL

 
   This run was terminated on:  23: 4:24  22Mar2018            

=------------------------------------------------------------------------------=
   JOB DONE.
=------------------------------------------------------------------------------=
